                         Program Version 5.0.4 -  RELEASE  -
|  1> ! ri-mp2 aug-cc-pvdz aug-cc-pvdz/c tightscf
|  2> %pal nprocs 16 end
|  3> %maxcore 3800
|  4> %base "DZ_S66by10_34_0.8_dimer"
|  5> %scf STABPerform true end
|  6>
|  7> *xyz 0 1
|  8> C   -2.53330865   -0.29487907    0.71314876
|  9> H   -2.56362682   -0.97708181   -0.13642264
| 10> H   -2.56697835   -0.89587590    1.62173177
| 11> H   -3.43442611    0.31595713    0.68410447
| 12> C   -1.27188487    0.55765547    0.67435468
| 13> H   -1.27102630    1.25656571    1.51431940
| 14> H   -1.26663255    1.16789581   -0.23182653
| 15> C   -0.00013504   -0.27841822    0.71960315
| 16> H   -0.00015938   -0.88722952    1.62863709
| 17> H   -0.00036543   -0.98071418   -0.11940439
| 18> C    1.27189476    0.55738219    0.67406108
| 19> H    1.27097175    1.25663331    1.51370541
| 20> H    1.26663649    1.16718250   -0.23238692
| 21> C    2.53340376   -0.29494176    0.71328015
| 22> H    2.56391919   -0.97777410   -0.13577836
| 23> H    3.43430956    0.31625432    0.68359945
| 24> H    2.56755821   -0.89520887    1.62232865
| 25> C    2.53355918    0.30681207    3.93433028
| 26> H    2.56814367    0.90661876    3.02500473
| 27> H    2.56406249    0.99001864    4.78307510
| 28> H    3.43423987   -0.30468524    3.96453922
| 29> C    1.27173298   -0.54507521    3.97363453
| 30> H    1.26628927   -1.15480292    4.88013149
| 31> H    1.27060247   -1.24442895    3.13405347
| 32> C   -0.00004201    0.29102389    3.92801809
| 33> H   -0.00019694    0.99333387    4.76700256
| 34> H    0.00003489    0.89980031    3.01894845
| 35> C   -1.27180285   -0.54511808    3.97328963
| 36> H   -1.26642061   -1.15522753    4.87953973
| 37> H   -1.27069651   -1.24414098    3.13342597
| 38> C   -2.53352208    0.30692822    3.93431192
| 39> H   -2.56771538    0.90746189    3.02543516
| 40> H   -3.43432405   -0.30437013    3.96382510
| 41> H   -2.56406161    0.98951447    4.78357331
| 42> *
| 43>
| 44> $new_job
| 45> ! ri-mp2 aug-cc-pvtz aug-cc-pvtz/c tightscf
| 46> %pal nprocs 16 end
| 47> %maxcore 3800
| 48> %base "TZ_S66by10_34_0.8_dimer"
| 49>
| 50> *xyz 0 1
| 51> C   -2.53330865   -0.29487907    0.71314876
| 52> H   -2.56362682   -0.97708181   -0.13642264
| 53> H   -2.56697835   -0.89587590    1.62173177
| 54> H   -3.43442611    0.31595713    0.68410447
| 55> C   -1.27188487    0.55765547    0.67435468
| 56> H   -1.27102630    1.25656571    1.51431940
| 57> H   -1.26663255    1.16789581   -0.23182653
| 58> C   -0.00013504   -0.27841822    0.71960315
| 59> H   -0.00015938   -0.88722952    1.62863709
| 60> H   -0.00036543   -0.98071418   -0.11940439
| 61> C    1.27189476    0.55738219    0.67406108
| 62> H    1.27097175    1.25663331    1.51370541
| 63> H    1.26663649    1.16718250   -0.23238692
| 64> C    2.53340376   -0.29494176    0.71328015
| 65> H    2.56391919   -0.97777410   -0.13577836
| 66> H    3.43430956    0.31625432    0.68359945
| 67> H    2.56755821   -0.89520887    1.62232865
| 68> C    2.53355918    0.30681207    3.93433028
| 69> H    2.56814367    0.90661876    3.02500473
| 70> H    2.56406249    0.99001864    4.78307510
| 71> H    3.43423987   -0.30468524    3.96453922
| 72> C    1.27173298   -0.54507521    3.97363453
| 73> H    1.26628927   -1.15480292    4.88013149
| 74> H    1.27060247   -1.24442895    3.13405347
| 75> C   -0.00004201    0.29102389    3.92801809
| 76> H   -0.00019694    0.99333387    4.76700256
| 77> H    0.00003489    0.89980031    3.01894845
| 78> C   -1.27180285   -0.54511808    3.97328963
| 79> H   -1.26642061   -1.15522753    4.87953973
| 80> H   -1.27069651   -1.24414098    3.13342597
| 81> C   -2.53352208    0.30692822    3.93431192
| 82> H   -2.56771538    0.90746189    3.02543516
| 83> H   -3.43432405   -0.30437013    3.96382510
| 84> H   -2.56406161    0.98951447    4.78357331
| 85> *
| 86>
| 87> $new_job
| 88> ! ri-mp2 aug-cc-pvqz aug-cc-pvqz/c tightscf
| 89> %pal nprocs 16 end
| 90> %maxcore 3800
| 91> %base "QZ_S66by10_34_0.8_dimer"
| 92>
| 93> *xyz 0 1
| 94> C   -2.53330865   -0.29487907    0.71314876
| 95> H   -2.56362682   -0.97708181   -0.13642264
| 96> H   -2.56697835   -0.89587590    1.62173177
| 97> H   -3.43442611    0.31595713    0.68410447
| 98> C   -1.27188487    0.55765547    0.67435468
| 99> H   -1.27102630    1.25656571    1.51431940
|100> H   -1.26663255    1.16789581   -0.23182653
|101> C   -0.00013504   -0.27841822    0.71960315
|102> H   -0.00015938   -0.88722952    1.62863709
|103> H   -0.00036543   -0.98071418   -0.11940439
|104> C    1.27189476    0.55738219    0.67406108
|105> H    1.27097175    1.25663331    1.51370541
|106> H    1.26663649    1.16718250   -0.23238692
|107> C    2.53340376   -0.29494176    0.71328015
|108> H    2.56391919   -0.97777410   -0.13577836
|109> H    3.43430956    0.31625432    0.68359945
|110> H    2.56755821   -0.89520887    1.62232865
|111> C    2.53355918    0.30681207    3.93433028
|112> H    2.56814367    0.90661876    3.02500473
|113> H    2.56406249    0.99001864    4.78307510
|114> H    3.43423987   -0.30468524    3.96453922
|115> C    1.27173298   -0.54507521    3.97363453
|116> H    1.26628927   -1.15480292    4.88013149
|117> H    1.27060247   -1.24442895    3.13405347
|118> C   -0.00004201    0.29102389    3.92801809
|119> H   -0.00019694    0.99333387    4.76700256
|120> H    0.00003489    0.89980031    3.01894845
|121> C   -1.27180285   -0.54511808    3.97328963
|122> H   -1.26642061   -1.15522753    4.87953973
|123> H   -1.27069651   -1.24414098    3.13342597
|124> C   -2.53352208    0.30692822    3.93431192
|125> H   -2.56771538    0.90746189    3.02543516
|126> H   -3.43432405   -0.30437013    3.96382510
|127> H   -2.56406161    0.98951447    4.78357331
|128> *
|129>
|130>
|131>
|132>
|133>                          ****END OF INPUT****
 Total Charge           Charge          ....    0
 Multiplicity           Mult            ....    1
 Number of Electrons    NEL             ....   84
MP2 TOTAL ENERGY:     -394.228523548 Eh
FINAL SINGLE POINT ENERGY      -394.228523547893
MP2 TOTAL ENERGY:     -394.620370073 Eh
FINAL SINGLE POINT ENERGY      -394.620370073224

CARTESIAN COORDINATES (ANGSTROEM)
---------------------------------
  C     -2.533309   -0.294879    0.713149
  H     -2.563627   -0.977082   -0.136423
  H     -2.566978   -0.895876    1.621732
  H     -3.434426    0.315957    0.684104
  C     -1.271885    0.557655    0.674355
  H     -1.271026    1.256566    1.514319
  H     -1.266633    1.167896   -0.231827
  C     -0.000135   -0.278418    0.719603
  H     -0.000159   -0.887230    1.628637
  H     -0.000365   -0.980714   -0.119404
  C      1.271895    0.557382    0.674061
  H      1.270972    1.256633    1.513705
  H      1.266636    1.167183   -0.232387
  C      2.533404   -0.294942    0.713280
  H      2.563919   -0.977774   -0.135778
  H      3.434310    0.316254    0.683599
  H      2.567558   -0.895209    1.622329
  C      2.533559    0.306812    3.934330
  H      2.568144    0.906619    3.025005
  H      2.564062    0.990019    4.783075
  H      3.434240   -0.304685    3.964539
  C      1.271733   -0.545075    3.973635
  H      1.266289   -1.154803    4.880131
  H      1.270602   -1.244429    3.134053
  C     -0.000042    0.291024    3.928018
  H     -0.000197    0.993334    4.767003
  H      0.000035    0.899800    3.018948
  C     -1.271803   -0.545118    3.973290
  H     -1.266421   -1.155228    4.879540
  H     -1.270697   -1.244141    3.133426
  C     -2.533522    0.306928    3.934312
  H     -2.567715    0.907462    3.025435
  H     -3.434324   -0.304370    3.963825
  H     -2.564062    0.989514    4.783573

 Multiplicity           Mult            ....    1
 Number of Electrons    NEL             ....   84
 Basis Dimension        Dim             .... 1904

ORBITAL ENERGIES
----------------

  NO   OCC          E(Eh)            E(eV)
   0   2.0000     -11.210840      -305.0625
   1   2.0000     -11.210838      -305.0624
   2   2.0000     -11.210796      -305.0613
   3   2.0000     -11.210794      -305.0612
   4   2.0000     -11.207198      -304.9634
   5   2.0000     -11.207197      -304.9633
   6   2.0000     -11.204280      -304.8840
   7   2.0000     -11.204276      -304.8839
   8   2.0000     -11.204274      -304.8838
   9   2.0000     -11.204273      -304.8838
  10   2.0000      -1.090888       -29.6846
  11   2.0000      -1.074107       -29.2279
  12   2.0000      -1.024028       -27.8652
  13   2.0000      -1.008600       -27.4454
  14   2.0000      -0.927233       -25.2313
  15   2.0000      -0.912025       -24.8175
  16   2.0000      -0.821277       -22.3481
  17   2.0000      -0.820302       -22.3216
  18   2.0000      -0.796269       -21.6676
  19   2.0000      -0.777974       -21.1698
  20   2.0000      -0.681774       -18.5520
  21   2.0000      -0.621538       -16.9129
  22   2.0000      -0.616012       -16.7625
  23   2.0000      -0.605053       -16.4643
  24   2.0000      -0.594830       -16.1862
  25   2.0000      -0.566713       -15.4211
  26   2.0000      -0.560666       -15.2565
  27   2.0000      -0.552984       -15.0475
  28   2.0000      -0.547513       -14.8986
  29   2.0000      -0.547243       -14.8912
  30   2.0000      -0.544785       -14.8244
  31   2.0000      -0.506470       -13.7817
  32   2.0000      -0.495798       -13.4914
  33   2.0000      -0.493356       -13.4249
  34   2.0000      -0.482278       -13.1234
  35   2.0000      -0.481104       -13.0915
  36   2.0000      -0.471336       -12.8257
  37   2.0000      -0.470855       -12.8126
  38   2.0000      -0.450885       -12.2692
  39   2.0000      -0.449238       -12.2244
  40   2.0000      -0.444355       -12.0915
  41   2.0000      -0.436721       -11.8838
  42   0.0000       0.024884         0.6771
  43   0.0000       0.027902         0.7593
  44   0.0000       0.028605         0.7784
  45   0.0000       0.028783         0.7832
  46   0.0000       0.039303         1.0695

MULLIKEN ATOMIC CHARGES
-----------------------
   0 C :   -1.076340
   1 H :    0.177903
   2 H :    0.258539
   3 H :    0.178856
   4 C :   -0.448273
   5 H :    0.420252
   6 H :    0.216889
   7 C :   -0.101054
   8 H :    0.351509
   9 H :    0.294594
  10 C :   -0.448760
  11 H :    0.420240
  12 H :    0.216743
  13 C :   -1.076127
  14 H :    0.177766
  15 H :    0.178808
  16 H :    0.258619
  17 C :   -1.076352
  18 H :    0.258615
  19 H :    0.177936
  20 H :    0.178624
  21 C :   -0.448120
  22 H :    0.216678
  23 H :    0.420205
  24 C :   -0.101870
  25 H :    0.294712
  26 H :    0.351474
  27 C :   -0.447814
  28 H :    0.216813
  29 H :    0.420314
  30 C :   -1.076530
  31 H :    0.258568
  32 H :    0.178632
  33 H :    0.177952
Sum of atomic charges:   -0.0000000

LOEWDIN ATOMIC CHARGES
----------------------
   0 C :    0.944249
   1 H :   -0.265971
   2 H :   -0.348134
   3 H :   -0.260461
   4 C :    0.541738
   5 H :   -0.317841
   6 H :   -0.252005
   7 C :    0.527767
   8 H :   -0.364877
   9 H :   -0.245987
  10 C :    0.541808
  11 H :   -0.317782
  12 H :   -0.252075
  13 C :    0.944239
  14 H :   -0.265941
  15 H :   -0.260443
  16 H :   -0.348222
  17 C :    0.944280
  18 H :   -0.348309
  19 H :   -0.265959
  20 H :   -0.260437
  21 C :    0.541745
  22 H :   -0.252087
  23 H :   -0.317759
  24 C :    0.527814
  25 H :   -0.245972
  26 H :   -0.364827
  27 C :    0.541724
  28 H :   -0.252051
  29 H :   -0.317876
  30 C :    0.944279
  31 H :   -0.348196
  32 H :   -0.260472
  33 H :   -0.265958

  Mayer bond orders larger than 0.100000
B(  0-C ,  1-H ) :   1.1262 B(  0-C ,  2-H ) :   0.8966 B(  0-C ,  3-H ) :   1.0938
B(  0-C ,  4-C ) :   0.8676 B(  0-C ,  7-C ) :  -0.1297 B(  3-H ,  4-C ) :  -0.1379
B(  4-C ,  5-H ) :   0.8080 B(  4-C ,  6-H ) :   1.0072 B(  4-C ,  7-C ) :   0.8153
B(  7-C ,  8-H ) :   0.9422 B(  7-C ,  9-H ) :   0.9571 B(  7-C , 10-C ) :   0.8154
B(  7-C , 13-C ) :  -0.1298 B( 10-C , 11-H ) :   0.8082 B( 10-C , 12-H ) :   1.0072
B( 10-C , 13-C ) :   0.8675 B( 10-C , 15-H ) :  -0.1380 B( 13-C , 14-H ) :   1.1263
B( 13-C , 15-H ) :   1.0938 B( 13-C , 16-H ) :   0.8965 B( 17-C , 18-H ) :   0.8965
B( 17-C , 19-H ) :   1.1262 B( 17-C , 20-H ) :   1.0941 B( 17-C , 21-C ) :   0.8668
B( 17-C , 24-C ) :  -0.1294 B( 20-H , 21-C ) :  -0.1382 B( 21-C , 22-H ) :   1.0072
B( 21-C , 23-H ) :   0.8084 B( 21-C , 24-C ) :   0.8156 B( 24-C , 25-H ) :   0.9570
B( 24-C , 26-H ) :   0.9419 B( 24-C , 27-C ) :   0.8157 B( 24-C , 30-C ) :  -0.1294
B( 27-C , 28-H ) :   1.0073 B( 27-C , 29-H ) :   0.8082 B( 27-C , 30-C ) :   0.8668
B( 27-C , 32-H ) :  -0.1382 B( 30-C , 31-H ) :   0.8966 B( 30-C , 32-H ) :   1.0941
B( 30-C , 33-H ) :   1.1263

MP2 TOTAL ENERGY:     -394.735803497 Eh
FINAL SINGLE POINT ENERGY      -394.735803496660

DIPOLE MOMENT
-------------
                                X             Y             Z
Electronic contribution:     -0.00031       0.00124       0.00006
Nuclear contribution   :      0.00030      -0.00124      -0.00009
                        -----------------------------------------
Total Dipole Moment    :     -0.00001      -0.00000      -0.00003
                        -----------------------------------------
Magnitude (a.u.)       :      0.00003
Magnitude (Debye)      :      0.00007

Rotational constants in cm-1:     0.038297     0.031032     0.018807
Rotational constants in MHz :  1148.119894   930.303195   563.828804

                             ****ORCA TERMINATED NORMALLY****
TOTAL RUN TIME: 1 days 2 hours 27 minutes 44 seconds 518 msec
