                         Program Version 5.0.4 -  RELEASE  -
|  1> ! ri-mp2 aug-cc-pvdz aug-cc-pvdz/c tightscf
|  2> %pal nprocs 16 end
|  3> %maxcore 3800
|  4> %base "DZ_S66by10_2_2.0_dimer"
|  5> %scf STABPerform true end
|  6>
|  7> *xyz 0 1
|  8> O   -0.52532979   -0.05097108   -0.31451686
|  9> H   -0.94200663    0.74790163    0.01125282
| 10> H    0.40369652    0.05978598   -0.07356837
| 11> O    4.31708897    0.03056216    0.22393858
| 12> H    4.68507180   -0.54151525    0.90146690
| 13> C    4.78209404   -0.44106776   -1.03822053
| 14> H    4.35127695    0.21002593   -1.79133457
| 15> H    5.86805773   -0.39027490   -1.11253246
| 16> H    4.45375143   -1.46093726   -1.23730117
| 17> *
| 18>
| 19> $new_job
| 20> ! ri-mp2 aug-cc-pvtz aug-cc-pvtz/c tightscf
| 21> %pal nprocs 16 end
| 22> %maxcore 3800
| 23> %base "TZ_S66by10_2_2.0_dimer"
| 24>
| 25> *xyz 0 1
| 26> O   -0.52532979   -0.05097108   -0.31451686
| 27> H   -0.94200663    0.74790163    0.01125282
| 28> H    0.40369652    0.05978598   -0.07356837
| 29> O    4.31708897    0.03056216    0.22393858
| 30> H    4.68507180   -0.54151525    0.90146690
| 31> C    4.78209404   -0.44106776   -1.03822053
| 32> H    4.35127695    0.21002593   -1.79133457
| 33> H    5.86805773   -0.39027490   -1.11253246
| 34> H    4.45375143   -1.46093726   -1.23730117
| 35> *
| 36>
| 37> $new_job
| 38> ! ri-mp2 aug-cc-pvqz aug-cc-pvqz/c tightscf
| 39> %pal nprocs 16 end
| 40> %maxcore 3800
| 41> %base "QZ_S66by10_2_2.0_dimer"
| 42>
| 43> *xyz 0 1
| 44> O   -0.52532979   -0.05097108   -0.31451686
| 45> H   -0.94200663    0.74790163    0.01125282
| 46> H    0.40369652    0.05978598   -0.07356837
| 47> O    4.31708897    0.03056216    0.22393858
| 48> H    4.68507180   -0.54151525    0.90146690
| 49> C    4.78209404   -0.44106776   -1.03822053
| 50> H    4.35127695    0.21002593   -1.79133457
| 51> H    5.86805773   -0.39027490   -1.11253246
| 52> H    4.45375143   -1.46093726   -1.23730117
| 53> *
| 54>
| 55>
| 56>
| 57>
| 58>                          ****END OF INPUT****
 Total Charge           Charge          ....    0
 Multiplicity           Mult            ....    1
 Number of Electrons    NEL             ....   28
MP2 TOTAL ENERGY:     -191.684001383 Eh
FINAL SINGLE POINT ENERGY      -191.684001382708
MP2 TOTAL ENERGY:     -191.859482917 Eh
FINAL SINGLE POINT ENERGY      -191.859482917249

CARTESIAN COORDINATES (ANGSTROEM)
---------------------------------
  O     -0.525330   -0.050971   -0.314517
  H     -0.942007    0.747902    0.011253
  H      0.403697    0.059786   -0.073568
  O      4.317089    0.030562    0.223939
  H      4.685072   -0.541515    0.901467
  C      4.782094   -0.441068   -1.038221
  H      4.351277    0.210026   -1.791335
  H      5.868058   -0.390275   -1.112532
  H      4.453751   -1.460937   -1.237301

 Multiplicity           Mult            ....    1
 Number of Electrons    NEL             ....   28
 Basis Dimension        Dim             ....  516

ORBITAL ENERGIES
----------------

  NO   OCC          E(Eh)            E(eV)
   0   2.0000     -20.562155      -559.5247
   1   2.0000     -20.558870      -559.4353
   2   2.0000     -11.273641      -306.7714
   3   2.0000      -1.361216       -37.0406
   4   2.0000      -1.343982       -36.5716
   5   2.0000      -0.930945       -25.3323
   6   2.0000      -0.706703       -19.2304
   7   2.0000      -0.695550       -18.9269
   8   2.0000      -0.625773       -17.0282
   9   2.0000      -0.597394       -16.2559
  10   2.0000      -0.578913       -15.7530
  11   2.0000      -0.510672       -13.8961
  12   2.0000      -0.503541       -13.7021
  13   2.0000      -0.458117       -12.4660
  14   0.0000       0.023218         0.6318
  15   0.0000       0.033558         0.9132
  16   0.0000       0.037419         1.0182
  17   0.0000       0.042659         1.1608
  18   0.0000       0.051270         1.3951

MULLIKEN ATOMIC CHARGES
-----------------------
   0 O :   -0.607298
   1 H :    0.297696
   2 H :    0.308279
   3 O :   -0.697808
   4 H :    0.339716
   5 C :   -0.444526
   6 H :    0.286697
   7 H :    0.279033
   8 H :    0.238211
Sum of atomic charges:    0.0000000

LOEWDIN ATOMIC CHARGES
----------------------
   0 O :    1.593593
   1 H :   -0.805306
   2 H :   -0.788959
   3 O :    1.224385
   4 H :   -0.817323
   5 C :    0.582204
   6 H :   -0.345008
   7 H :   -0.321386
   8 H :   -0.322199

  Mayer bond orders larger than 0.100000
B(  0-O ,  1-H ) :   0.9637 B(  0-O ,  2-H ) :   0.9499 B(  3-O ,  4-H ) :   0.8976
B(  3-O ,  5-C ) :   0.8255 B(  5-C ,  6-H ) :   0.9067 B(  5-C ,  7-H ) :   0.9088
B(  5-C ,  8-H ) :   0.9340

MP2 TOTAL ENERGY:     -191.916476791 Eh
FINAL SINGLE POINT ENERGY      -191.916476791449

DIPOLE MOMENT
-------------
                                X             Y             Z
Electronic contribution:     -1.41449       0.53231       1.38916
Nuclear contribution   :      2.21721      -0.49785      -1.14947
                        -----------------------------------------
Total Dipole Moment    :      0.80272       0.03446       0.23969
                        -----------------------------------------
Magnitude (a.u.)       :      0.83845
Magnitude (Debye)      :      2.13117

Rotational constants in cm-1:     0.853655     0.055730     0.053133
Rotational constants in MHz : 25591.919753  1670.753630  1592.897340

                             ****ORCA TERMINATED NORMALLY****
TOTAL RUN TIME: 0 days 0 hours 7 minutes 15 seconds 405 msec
