                         Program Version 5.0.4 -  RELEASE  -
|  1> ! ri-mp2 aug-cc-pvdz aug-cc-pvdz/c tightscf
|  2> %pal nprocs 16 end
|  3> %maxcore 3800
|  4> %base "DZ_S66by10_15_1.5_dimer"
|  5> %scf STABPerform true end
|  6>
|  7> *xyz 0 1
|  8> C   -0.70150294   -0.29062770    2.40688440
|  9> H   -1.18329596    0.39564777    3.09887422
| 10> H    0.34956157   -0.03032157    2.30783303
| 11> H   -0.79405685   -1.29160545    2.82403929
| 12> C   -1.44854625   -0.24487664    1.09181530
| 13> O   -2.66045000   -0.42847909    1.03434577
| 14> N   -0.67005656    0.00591656    0.00977691
| 15> H    0.32667532    0.12256396    0.14159284
| 16> C   -1.22705457    0.08979374   -1.31996754
| 17> H   -2.29202426   -0.10650119   -1.24087756
| 18> H   -1.07780169    1.07994030   -1.74854354
| 19> H   -0.77662849   -0.64799919   -1.98337273
| 20> C    3.04386931   -2.41294085    0.76480242
| 21> H    3.60209411   -3.32294409    0.55889442
| 22> H    2.11517745   -2.41947030    0.20047701
| 23> H    2.78465038   -2.38949415    1.82174342
| 24> C    3.81150525   -1.15852881    0.42856568
| 25> O    3.26631861   -0.05709201    0.37159329
| 26> N    5.13826346   -1.32734258    0.21481771
| 27> H    5.51458476   -2.25458828    0.29157504
| 28> C    6.02550165   -0.22087661   -0.07413082
| 29> H    5.41130927    0.66993317   -0.15395454
| 30> H    6.75291620   -0.08141088    0.72327248
| 31> H    6.55049194   -0.38085834   -1.01327316
| 32> *
| 33>
| 34> $new_job
| 35> ! ri-mp2 aug-cc-pvtz aug-cc-pvtz/c tightscf
| 36> %pal nprocs 16 end
| 37> %maxcore 3800
| 38> %base "TZ_S66by10_15_1.5_dimer"
| 39>
| 40> *xyz 0 1
| 41> C   -0.70150294   -0.29062770    2.40688440
| 42> H   -1.18329596    0.39564777    3.09887422
| 43> H    0.34956157   -0.03032157    2.30783303
| 44> H   -0.79405685   -1.29160545    2.82403929
| 45> C   -1.44854625   -0.24487664    1.09181530
| 46> O   -2.66045000   -0.42847909    1.03434577
| 47> N   -0.67005656    0.00591656    0.00977691
| 48> H    0.32667532    0.12256396    0.14159284
| 49> C   -1.22705457    0.08979374   -1.31996754
| 50> H   -2.29202426   -0.10650119   -1.24087756
| 51> H   -1.07780169    1.07994030   -1.74854354
| 52> H   -0.77662849   -0.64799919   -1.98337273
| 53> C    3.04386931   -2.41294085    0.76480242
| 54> H    3.60209411   -3.32294409    0.55889442
| 55> H    2.11517745   -2.41947030    0.20047701
| 56> H    2.78465038   -2.38949415    1.82174342
| 57> C    3.81150525   -1.15852881    0.42856568
| 58> O    3.26631861   -0.05709201    0.37159329
| 59> N    5.13826346   -1.32734258    0.21481771
| 60> H    5.51458476   -2.25458828    0.29157504
| 61> C    6.02550165   -0.22087661   -0.07413082
| 62> H    5.41130927    0.66993317   -0.15395454
| 63> H    6.75291620   -0.08141088    0.72327248
| 64> H    6.55049194   -0.38085834   -1.01327316
| 65> *
| 66>
| 67> $new_job
| 68> ! ri-mp2 aug-cc-pvqz aug-cc-pvqz/c tightscf
| 69> %pal nprocs 16 end
| 70> %maxcore 3800
| 71> %base "QZ_S66by10_15_1.5_dimer"
| 72>
| 73> *xyz 0 1
| 74> C   -0.70150294   -0.29062770    2.40688440
| 75> H   -1.18329596    0.39564777    3.09887422
| 76> H    0.34956157   -0.03032157    2.30783303
| 77> H   -0.79405685   -1.29160545    2.82403929
| 78> C   -1.44854625   -0.24487664    1.09181530
| 79> O   -2.66045000   -0.42847909    1.03434577
| 80> N   -0.67005656    0.00591656    0.00977691
| 81> H    0.32667532    0.12256396    0.14159284
| 82> C   -1.22705457    0.08979374   -1.31996754
| 83> H   -2.29202426   -0.10650119   -1.24087756
| 84> H   -1.07780169    1.07994030   -1.74854354
| 85> H   -0.77662849   -0.64799919   -1.98337273
| 86> C    3.04386931   -2.41294085    0.76480242
| 87> H    3.60209411   -3.32294409    0.55889442
| 88> H    2.11517745   -2.41947030    0.20047701
| 89> H    2.78465038   -2.38949415    1.82174342
| 90> C    3.81150525   -1.15852881    0.42856568
| 91> O    3.26631861   -0.05709201    0.37159329
| 92> N    5.13826346   -1.32734258    0.21481771
| 93> H    5.51458476   -2.25458828    0.29157504
| 94> C    6.02550165   -0.22087661   -0.07413082
| 95> H    5.41130927    0.66993317   -0.15395454
| 96> H    6.75291620   -0.08141088    0.72327248
| 97> H    6.55049194   -0.38085834   -1.01327316
| 98> *
| 99>
|100>
|101>
|102>
|103>                          ****END OF INPUT****
 Total Charge           Charge          ....    0
 Multiplicity           Mult            ....    1
 Number of Electrons    NEL             ....   80
MP2 TOTAL ENERGY:     -495.700971687 Eh
FINAL SINGLE POINT ENERGY      -495.700971686551
MP2 TOTAL ENERGY:     -496.148092268 Eh
FINAL SINGLE POINT ENERGY      -496.148092267831

CARTESIAN COORDINATES (ANGSTROEM)
---------------------------------
  C     -0.701503   -0.290628    2.406884
  H     -1.183296    0.395648    3.098874
  H      0.349562   -0.030322    2.307833
  H     -0.794057   -1.291605    2.824039
  C     -1.448546   -0.244877    1.091815
  O     -2.660450   -0.428479    1.034346
  N     -0.670057    0.005917    0.009777
  H      0.326675    0.122564    0.141593
  C     -1.227055    0.089794   -1.319968
  H     -2.292024   -0.106501   -1.240878
  H     -1.077802    1.079940   -1.748544
  H     -0.776628   -0.647999   -1.983373
  C      3.043869   -2.412941    0.764802
  H      3.602094   -3.322944    0.558894
  H      2.115177   -2.419470    0.200477
  H      2.784650   -2.389494    1.821743
  C      3.811505   -1.158529    0.428566
  O      3.266319   -0.057092    0.371593
  N      5.138263   -1.327343    0.214818
  H      5.514585   -2.254588    0.291575
  C      6.025502   -0.220877   -0.074131
  H      5.411309    0.669933   -0.153955
  H      6.752916   -0.081411    0.723272
  H      6.550492   -0.380858   -1.013273

 Multiplicity           Mult            ....    1
 Number of Electrons    NEL             ....   80
 Basis Dimension        Dim             .... 1444

ORBITAL ENERGIES
----------------

  NO   OCC          E(Eh)            E(eV)
   0   2.0000     -20.522465      -558.4447
   1   2.0000     -20.496007      -557.7247
   2   2.0000     -15.597729      -424.4358
   3   2.0000     -15.571414      -423.7197
   4   2.0000     -11.360745      -309.1416
   5   2.0000     -11.334008      -308.4140
   6   2.0000     -11.265233      -306.5426
   7   2.0000     -11.246765      -306.0400
   8   2.0000     -11.243625      -305.9546
   9   2.0000     -11.221141      -305.3428
  10   2.0000      -1.385377       -37.6980
  11   2.0000      -1.359512       -36.9942
  12   2.0000      -1.243303       -33.8320
  13   2.0000      -1.217372       -33.1264
  14   2.0000      -1.031983       -28.0817
  15   2.0000      -1.005814       -27.3696
  16   2.0000      -0.944589       -25.7036
  17   2.0000      -0.919525       -25.0216
  18   2.0000      -0.802928       -21.8488
  19   2.0000      -0.775154       -21.0930
  20   2.0000      -0.703617       -19.1464
  21   2.0000      -0.677593       -18.4382
  22   2.0000      -0.665647       -18.1132
  23   2.0000      -0.645971       -17.5778
  24   2.0000      -0.640579       -17.4310
  25   2.0000      -0.621351       -16.9078
  26   2.0000      -0.599344       -16.3090
  27   2.0000      -0.593391       -16.1470
  28   2.0000      -0.575309       -15.6550
  29   2.0000      -0.568514       -15.4700
  30   2.0000      -0.566859       -15.4250
  31   2.0000      -0.555808       -15.1243
  32   2.0000      -0.542104       -14.7514
  33   2.0000      -0.532871       -14.5001
  34   2.0000      -0.517933       -14.0937
  35   2.0000      -0.492526       -13.4023
  36   2.0000      -0.436154       -11.8684
  37   2.0000      -0.408293       -11.1102
  38   2.0000      -0.404987       -11.0203
  39   2.0000      -0.379041       -10.3142
  40   0.0000       0.013661         0.3717
  41   0.0000       0.026337         0.7167
  42   0.0000       0.028817         0.7841
  43   0.0000       0.031633         0.8608
  44   0.0000       0.040549         1.1034

MULLIKEN ATOMIC CHARGES
-----------------------
   0 C :   -0.845920
   1 H :    0.302377
   2 H :    0.270591
   3 H :    0.263082
   4 C :    0.922629
   5 O :   -0.876104
   6 N :   -0.550684
   7 H :    0.458589
   8 C :   -0.859507
   9 H :    0.313409
  10 H :    0.298904
  11 H :    0.303287
  12 C :   -0.845748
  13 H :    0.318908
  14 H :    0.304354
  15 H :    0.293357
  16 C :    0.970767
  17 O :   -0.907737
  18 N :   -0.516525
  19 H :    0.255483
  20 C :   -0.769899
  21 H :    0.315320
  22 H :    0.284218
  23 H :    0.296852
Sum of atomic charges:    0.0000000

LOEWDIN ATOMIC CHARGES
----------------------
   0 C :    0.885400
   1 H :   -0.301402
   2 H :   -0.321385
   3 H :   -0.298123
   4 C :   -0.839749
   5 O :    0.693945
   6 N :    0.823036
   7 H :   -0.515230
   8 C :    0.782118
   9 H :   -0.366300
  10 H :   -0.285204
  11 H :   -0.287121
  12 C :    0.891005
  13 H :   -0.309853
  14 H :   -0.306659
  15 H :   -0.290838
  16 C :   -0.834460
  17 O :    0.700355
  18 N :    0.826674
  19 H :   -0.505739
  20 C :    0.793670
  21 H :   -0.364629
  22 H :   -0.283673
  23 H :   -0.285837

  Mayer bond orders larger than 0.100000
B(  0-C ,  1-H ) :   0.9399 B(  0-C ,  2-H ) :   0.9593 B(  0-C ,  3-H ) :   0.9392
B(  0-C ,  4-C ) :   0.9136 B(  0-C ,  5-O ) :   0.1253 B(  4-C ,  5-O ) :   1.1782
B(  4-C ,  6-N ) :   1.1858 B(  5-O ,  6-N ) :   0.1768 B(  6-N ,  7-H ) :   0.7777
B(  6-N ,  8-C ) :   0.8743 B(  8-C ,  9-H ) :   0.9223 B(  8-C , 10-H ) :   0.9377
B(  8-C , 11-H ) :   0.9335 B( 12-C , 13-H ) :   0.9640 B( 12-C , 14-H ) :   0.9230
B( 12-C , 15-H ) :   0.8845 B( 12-C , 16-C ) :   0.8779 B( 16-C , 17-O ) :   1.2555
B( 16-C , 18-N ) :   1.1249 B( 17-O , 18-N ) :   0.1190 B( 18-N , 19-H ) :   0.9795
B( 18-N , 20-C ) :   0.8547 B( 20-C , 21-H ) :   0.9222 B( 20-C , 22-H ) :   0.9482
B( 20-C , 23-H ) :   0.9440

MP2 TOTAL ENERGY:     -496.290266465 Eh
FINAL SINGLE POINT ENERGY      -496.290266465170

DIPOLE MOMENT
-------------
                                X             Y             Z
Electronic contribution:     -3.50327       1.04431       0.69568
Nuclear contribution   :      6.35035      -2.08878      -0.92012
                        -----------------------------------------
Total Dipole Moment    :      2.84708      -1.04448      -0.22445
                        -----------------------------------------
Magnitude (a.u.)       :      3.04092
Magnitude (Debye)      :      7.72940

Rotational constants in cm-1:     0.080078     0.012129     0.011487
Rotational constants in MHz :  2400.687167   363.616592   344.365466

                             ****ORCA TERMINATED NORMALLY****
TOTAL RUN TIME: 0 days 4 hours 50 minutes 19 seconds 456 msec
