                         Program Version 5.0.4 -  RELEASE  -
|  1> ! ri-mp2 aug-cc-pvdz aug-cc-pvdz/c tightscf
|  2> %pal nprocs 16 end
|  3> %maxcore 3800
|  4> %base "DZ_S66by10_44_1.0_dimer"
|  5> %scf STABPerform true end
|  6>
|  7> *xyz 0 1
|  8> C    0.66640038    0.18381078    0.41973683
|  9> H    1.22888182   -0.32988301    1.18625971
| 10> H    1.22803556    0.69720813   -0.34760989
| 11> C   -0.66597358    0.18297343    0.41961191
| 12> H   -1.22792171   -0.33149890    1.18610334
| 13> H   -1.22818427    0.69564575   -0.34774808
| 14> C   -2.53276493   -0.39798111    4.21182394
| 15> H   -2.56225837   -1.01100189    3.31063406
| 16> H   -2.56889888   -1.07220173    5.06744095
| 17> H   -3.43393629    0.21303532    4.22906988
| 18> C   -1.27132844    0.45469430    4.24764187
| 19> H   -1.27173431    1.07478787    5.14703582
| 20> H   -1.26294010    1.14160262    3.39858146
| 21> C   -0.00005418   -0.38286327    4.22069867
| 22> H   -0.00020824   -1.06953597    5.07253068
| 23> H    0.00008689   -1.01044110    3.32405617
| 24> C    1.27116623    0.45472316    4.24810320
| 25> H    1.27143923    1.07453391    5.14758861
| 26> H    1.26297140    1.14179781    3.39919558
| 27> C    2.53261761   -0.39800135    4.21227902
| 28> H    2.56224108   -1.01085785    3.31096984
| 29> H    3.43379572    0.21293482    4.22985706
| 30> H    2.56853597   -1.07245743    5.06778473
| 31> *
| 32>
| 33> $new_job
| 34> ! ri-mp2 aug-cc-pvtz aug-cc-pvtz/c tightscf
| 35> %pal nprocs 16 end
| 36> %maxcore 3800
| 37> %base "TZ_S66by10_44_1.0_dimer"
| 38>
| 39> *xyz 0 1
| 40> C    0.66640038    0.18381078    0.41973683
| 41> H    1.22888182   -0.32988301    1.18625971
| 42> H    1.22803556    0.69720813   -0.34760989
| 43> C   -0.66597358    0.18297343    0.41961191
| 44> H   -1.22792171   -0.33149890    1.18610334
| 45> H   -1.22818427    0.69564575   -0.34774808
| 46> C   -2.53276493   -0.39798111    4.21182394
| 47> H   -2.56225837   -1.01100189    3.31063406
| 48> H   -2.56889888   -1.07220173    5.06744095
| 49> H   -3.43393629    0.21303532    4.22906988
| 50> C   -1.27132844    0.45469430    4.24764187
| 51> H   -1.27173431    1.07478787    5.14703582
| 52> H   -1.26294010    1.14160262    3.39858146
| 53> C   -0.00005418   -0.38286327    4.22069867
| 54> H   -0.00020824   -1.06953597    5.07253068
| 55> H    0.00008689   -1.01044110    3.32405617
| 56> C    1.27116623    0.45472316    4.24810320
| 57> H    1.27143923    1.07453391    5.14758861
| 58> H    1.26297140    1.14179781    3.39919558
| 59> C    2.53261761   -0.39800135    4.21227902
| 60> H    2.56224108   -1.01085785    3.31096984
| 61> H    3.43379572    0.21293482    4.22985706
| 62> H    2.56853597   -1.07245743    5.06778473
| 63> *
| 64>
| 65> $new_job
| 66> ! ri-mp2 aug-cc-pvqz aug-cc-pvqz/c tightscf
| 67> %pal nprocs 16 end
| 68> %maxcore 3800
| 69> %base "QZ_S66by10_44_1.0_dimer"
| 70>
| 71> *xyz 0 1
| 72> C    0.66640038    0.18381078    0.41973683
| 73> H    1.22888182   -0.32988301    1.18625971
| 74> H    1.22803556    0.69720813   -0.34760989
| 75> C   -0.66597358    0.18297343    0.41961191
| 76> H   -1.22792171   -0.33149890    1.18610334
| 77> H   -1.22818427    0.69564575   -0.34774808
| 78> C   -2.53276493   -0.39798111    4.21182394
| 79> H   -2.56225837   -1.01100189    3.31063406
| 80> H   -2.56889888   -1.07220173    5.06744095
| 81> H   -3.43393629    0.21303532    4.22906988
| 82> C   -1.27132844    0.45469430    4.24764187
| 83> H   -1.27173431    1.07478787    5.14703582
| 84> H   -1.26294010    1.14160262    3.39858146
| 85> C   -0.00005418   -0.38286327    4.22069867
| 86> H   -0.00020824   -1.06953597    5.07253068
| 87> H    0.00008689   -1.01044110    3.32405617
| 88> C    1.27116623    0.45472316    4.24810320
| 89> H    1.27143923    1.07453391    5.14758861
| 90> H    1.26297140    1.14179781    3.39919558
| 91> C    2.53261761   -0.39800135    4.21227902
| 92> H    2.56224108   -1.01085785    3.31096984
| 93> H    3.43379572    0.21293482    4.22985706
| 94> H    2.56853597   -1.07245743    5.06778473
| 95> *
| 96>
| 97>
| 98>
| 99>
|100>                          ****END OF INPUT****
 Total Charge           Charge          ....    0
 Multiplicity           Mult            ....    1
 Number of Electrons    NEL             ....   58
MP2 TOTAL ENERGY:     -275.445978008 Eh
FINAL SINGLE POINT ENERGY      -275.445978007666
MP2 TOTAL ENERGY:     -275.718897301 Eh
FINAL SINGLE POINT ENERGY      -275.718897301200

CARTESIAN COORDINATES (ANGSTROEM)
---------------------------------
  C      0.666400    0.183811    0.419737
  H      1.228882   -0.329883    1.186260
  H      1.228036    0.697208   -0.347610
  C     -0.665974    0.182973    0.419612
  H     -1.227922   -0.331499    1.186103
  H     -1.228184    0.695646   -0.347748
  C     -2.532765   -0.397981    4.211824
  H     -2.562258   -1.011002    3.310634
  H     -2.568899   -1.072202    5.067441
  H     -3.433936    0.213035    4.229070
  C     -1.271328    0.454694    4.247642
  H     -1.271734    1.074788    5.147036
  H     -1.262940    1.141603    3.398581
  C     -0.000054   -0.382863    4.220699
  H     -0.000208   -1.069536    5.072531
  H      0.000087   -1.010441    3.324056
  C      1.271166    0.454723    4.248103
  H      1.271439    1.074534    5.147589
  H      1.262971    1.141798    3.399196
  C      2.532618   -0.398001    4.212279
  H      2.562241   -1.010858    3.310970
  H      3.433796    0.212935    4.229857
  H      2.568536   -1.072457    5.067785

 Multiplicity           Mult            ....    1
 Number of Electrons    NEL             ....   58
 Basis Dimension        Dim             .... 1296

ORBITAL ENERGIES
----------------

  NO   OCC          E(Eh)            E(eV)
   0   2.0000     -11.230203      -305.5894
   1   2.0000     -11.228476      -305.5424
   2   2.0000     -11.210842      -305.0625
   3   2.0000     -11.210703      -305.0587
   4   2.0000     -11.209381      -305.0228
   5   2.0000     -11.207178      -304.9628
   6   2.0000     -11.207171      -304.9626
   7   2.0000      -1.081454       -29.4279
   8   2.0000      -1.035128       -28.1673
   9   2.0000      -1.015759       -27.6402
  10   2.0000      -0.919675       -25.0256
  11   2.0000      -0.820257       -22.3203
  12   2.0000      -0.794298       -21.6140
  13   2.0000      -0.785276       -21.3685
  14   2.0000      -0.657285       -17.8856
  15   2.0000      -0.637087       -17.3360
  16   2.0000      -0.599042       -16.3008
  17   2.0000      -0.594258       -16.1706
  18   2.0000      -0.588011       -16.0006
  19   2.0000      -0.554620       -15.0920
  20   2.0000      -0.548559       -14.9271
  21   2.0000      -0.526849       -14.3363
  22   2.0000      -0.509341       -13.8599
  23   2.0000      -0.494756       -13.4630
  24   2.0000      -0.476527       -12.9670
  25   2.0000      -0.462077       -12.5738
  26   2.0000      -0.459876       -12.5139
  27   2.0000      -0.447116       -12.1666
  28   2.0000      -0.377601       -10.2750
  29   0.0000       0.026290         0.7154
  30   0.0000       0.028671         0.7802
  31   0.0000       0.031581         0.8594
  32   0.0000       0.034339         0.9344
  33   0.0000       0.042832         1.1655

MULLIKEN ATOMIC CHARGES
-----------------------
   0 C :   -1.031229
   1 H :    0.597439
   2 H :    0.414491
   3 C :   -1.031141
   4 H :    0.597587
   5 H :    0.414560
   6 C :   -0.957231
   7 H :    0.256709
   8 H :    0.229268
   9 H :    0.249838
  10 C :   -0.502468
  11 H :    0.302711
  12 H :    0.251547
  13 C :   -0.192578
  14 H :    0.290770
  15 H :    0.279387
  16 C :   -0.502532
  17 H :    0.302804
  18 H :    0.251549
  19 C :   -0.957303
  20 H :    0.256758
  21 H :    0.249854
  22 H :    0.229210
Sum of atomic charges:   -0.0000000

LOEWDIN ATOMIC CHARGES
----------------------
   0 C :    0.768502
   1 H :   -0.386453
   2 H :   -0.359603
   3 C :    0.768489
   4 H :   -0.386384
   5 H :   -0.359634
   6 C :    0.927883
   7 H :   -0.292564
   8 H :   -0.283491
   9 H :   -0.280070
  10 C :    0.499105
  11 H :   -0.268545
  12 H :   -0.286561
  13 C :    0.481465
  14 H :   -0.264070
  15 H :   -0.293814
  16 C :    0.499146
  17 H :   -0.268625
  18 H :   -0.286571
  19 C :    0.927898
  20 H :   -0.292554
  21 H :   -0.280107
  22 H :   -0.283442

  Mayer bond orders larger than 0.100000
B(  0-C ,  1-H ) :   0.5237 B(  0-C ,  2-H ) :   0.8893 B(  0-C ,  3-C ) :   2.0966
B(  3-C ,  4-H ) :   0.5235 B(  3-C ,  5-H ) :   0.8892 B(  6-C ,  7-H ) :   0.9130
B(  6-C ,  8-H ) :   0.9852 B(  6-C ,  9-H ) :   1.0386 B(  6-C , 10-C ) :   1.0003
B(  6-C , 13-C ) :  -0.1171 B( 10-C , 11-H ) :   0.8606 B( 10-C , 12-H ) :   0.8830
B( 10-C , 13-C ) :   0.8120 B( 13-C , 14-H ) :   0.8794 B( 13-C , 15-H ) :   0.8544
B( 13-C , 16-C ) :   0.8120 B( 13-C , 19-C ) :  -0.1172 B( 16-C , 17-H ) :   0.8606
B( 16-C , 18-H ) :   0.8830 B( 16-C , 19-C ) :   1.0003 B( 19-C , 20-H ) :   0.9129
B( 19-C , 21-H ) :   1.0386 B( 19-C , 22-H ) :   0.9852

MP2 TOTAL ENERGY:     -275.799957977 Eh
FINAL SINGLE POINT ENERGY      -275.799957976728

DIPOLE MOMENT
-------------
                                X             Y             Z
Electronic contribution:      0.00017       0.76677      -1.66906
Nuclear contribution   :     -0.00019      -0.69182       1.68612
                        -----------------------------------------
Total Dipole Moment    :     -0.00001       0.07495       0.01706
                        -----------------------------------------
Magnitude (a.u.)       :      0.07687
Magnitude (Debye)      :      0.19538

Rotational constants in cm-1:     0.058302     0.051520     0.029526
Rotational constants in MHz :  1747.840312  1544.545453   885.177246

                             ****ORCA TERMINATED NORMALLY****
TOTAL RUN TIME: 0 days 2 hours 49 minutes 47 seconds 415 msec
