                         Program Version 5.0.4 -  RELEASE  -
|  1> ! ri-mp2 aug-cc-pvdz aug-cc-pvdz/c tightscf
|  2> %pal nprocs 16 end
|  3> %maxcore 3800
|  4> %base "DZ_S66by10_1_0.9_dimer"
|  5> %scf STABPerform true end
|  6>
|  7> *xyz 0 1
|  8> O   -0.70219605   -0.05606026    0.00994226
|  9> H   -1.02219322    0.84677578   -0.01148871
| 10> H    0.25752106    0.04212150    0.00521900
| 11> O    2.06777225    0.02791802    0.00097906
| 12> H    2.44439386   -0.41046204    0.76710344
| 13> H    2.44003657   -0.44829495   -0.74442344
| 14> *
| 15>
| 16> $new_job
| 17> ! ri-mp2 aug-cc-pvtz aug-cc-pvtz/c tightscf
| 18> %pal nprocs 16 end
| 19> %maxcore 3800
| 20> %base "TZ_S66by10_1_0.9_dimer"
| 21>
| 22> *xyz 0 1
| 23> O   -0.70219605   -0.05606026    0.00994226
| 24> H   -1.02219322    0.84677578   -0.01148871
| 25> H    0.25752106    0.04212150    0.00521900
| 26> O    2.06777225    0.02791802    0.00097906
| 27> H    2.44439386   -0.41046204    0.76710344
| 28> H    2.44003657   -0.44829495   -0.74442344
| 29> *
| 30>
| 31> $new_job
| 32> ! ri-mp2 aug-cc-pvqz aug-cc-pvqz/c tightscf
| 33> %pal nprocs 16 end
| 34> %maxcore 3800
| 35> %base "QZ_S66by10_1_0.9_dimer"
| 36>
| 37> *xyz 0 1
| 38> O   -0.70219605   -0.05606026    0.00994226
| 39> H   -1.02219322    0.84677578   -0.01148871
| 40> H    0.25752106    0.04212150    0.00521900
| 41> O    2.06777225    0.02791802    0.00097906
| 42> H    2.44439386   -0.41046204    0.76710344
| 43> H    2.44003657   -0.44829495   -0.74442344
| 44> *
| 45>
| 46>
| 47>
| 48>
| 49>                          ****END OF INPUT****
 Total Charge           Charge          ....    0
 Multiplicity           Mult            ....    1
 Number of Electrons    NEL             ....   20
MP2 TOTAL ENERGY:     -152.529452413 Eh
FINAL SINGLE POINT ENERGY      -152.529452413292
MP2 TOTAL ENERGY:     -152.665684129 Eh
FINAL SINGLE POINT ENERGY      -152.665684129291

CARTESIAN COORDINATES (ANGSTROEM)
---------------------------------
  O     -0.702196   -0.056060    0.009942
  H     -1.022193    0.846776   -0.011489
  H      0.257521    0.042121    0.005219
  O      2.067772    0.027918    0.000979
  H      2.444394   -0.410462    0.767103
  H      2.440037   -0.448295   -0.744423

 Multiplicity           Mult            ....    1
 Number of Electrons    NEL             ....   20
 Basis Dimension        Dim             ....  344

ORBITAL ENERGIES
----------------

  NO   OCC          E(Eh)            E(eV)
   0   2.0000     -20.593417      -560.3754
   1   2.0000     -20.526782      -558.5621
   2   2.0000      -1.384728       -37.6804
   3   2.0000      -1.316700       -35.8292
   4   2.0000      -0.744957       -20.2713
   5   2.0000      -0.694513       -18.8986
   6   2.0000      -0.618703       -16.8358
   7   2.0000      -0.557953       -15.1827
   8   2.0000      -0.530343       -14.4314
   9   2.0000      -0.476014       -12.9530
  10   0.0000       0.019550         0.5320
  11   0.0000       0.040752         1.1089
  12   0.0000       0.043387         1.1806
  13   0.0000       0.069039         1.8786
  14   0.0000       0.101080         2.7505

MULLIKEN ATOMIC CHARGES
-----------------------
   0 O :   -0.605923
   1 H :    0.296476
   2 H :    0.242975
   3 O :   -0.551077
   4 H :    0.308745
   5 H :    0.308805
Sum of atomic charges:    0.0000000

LOEWDIN ATOMIC CHARGES
----------------------
   0 O :    1.601515
   1 H :   -0.796710
   2 H :   -1.064888
   3 O :    1.687204
   4 H :   -0.713572
   5 H :   -0.713549

  Mayer bond orders larger than 0.100000
B(  0-O ,  1-H ) :   0.9539 B(  0-O ,  2-H ) :   1.0053 B(  3-O ,  4-H ) :   0.9390
B(  3-O ,  5-H ) :   0.9389

MP2 TOTAL ENERGY:     -152.711453635 Eh
FINAL SINGLE POINT ENERGY      -152.711453635352

DIPOLE MOMENT
-------------
                                X             Y             Z
Electronic contribution:      0.03110      -0.04104       0.00092
Nuclear contribution   :      1.15582       0.07194      -0.00452
                        -----------------------------------------
Total Dipole Moment    :      1.18692       0.03090      -0.00360
                        -----------------------------------------
Magnitude (a.u.)       :      1.18733
Magnitude (Debye)      :      3.01795

Rotational constants in cm-1:     7.364638     0.234682     0.234631
Rotational constants in MHz : 220786.285119  7035.587921  7034.071982

                             ****ORCA TERMINATED NORMALLY****
TOTAL RUN TIME: 0 days 0 hours 1 minutes 39 seconds 857 msec
