                         Program Version 5.0.4 -  RELEASE  -
|  1> ! ri-mp2 aug-cc-pvdz aug-cc-pvdz/c tightscf
|  2> %pal nprocs 16 end
|  3> %maxcore 3800
|  4> %base "DZ_S66by10_21_0.8_dimer"
|  5> %scf STABPerform true end
|  6>
|  7> *xyz 0 1
|  8> C   -1.30974974    1.18017617   -0.02517034
|  9> O   -0.72530044    2.15514767    0.45271335
| 10> N   -0.66562116    0.09505470   -0.49199449
| 11> H    0.35458266    0.05144817   -0.45930922
| 12> H   -1.18362704   -0.67359969   -0.87075610
| 13> C   -2.81671934    1.15599865   -0.11060597
| 14> H   -3.22062895    1.26254146    0.89308239
| 15> H   -3.20942754    0.24863402   -0.56190009
| 16> H   -3.14315813    2.01659563   -0.68889311
| 17> C    2.42311771    1.05649358    0.11216966
| 18> O    1.83869595    0.08247314   -0.36756131
| 19> N    1.77903015    2.14123680    0.58001621
| 20> H    0.75892478    2.18567459    0.54571490
| 21> H    2.29705421    2.90919800    0.96013686
| 22> C    3.93011689    1.08077796    0.19739474
| 23> H    4.32198796    1.98042747    0.66457876
| 24> H    4.33367309    0.99323292   -0.80838556
| 25> H    4.25789565    0.21020305    0.75957508
| 26> *
| 27>
| 28> $new_job
| 29> ! ri-mp2 aug-cc-pvtz aug-cc-pvtz/c tightscf
| 30> %pal nprocs 16 end
| 31> %maxcore 3800
| 32> %base "TZ_S66by10_21_0.8_dimer"
| 33>
| 34> *xyz 0 1
| 35> C   -1.30974974    1.18017617   -0.02517034
| 36> O   -0.72530044    2.15514767    0.45271335
| 37> N   -0.66562116    0.09505470   -0.49199449
| 38> H    0.35458266    0.05144817   -0.45930922
| 39> H   -1.18362704   -0.67359969   -0.87075610
| 40> C   -2.81671934    1.15599865   -0.11060597
| 41> H   -3.22062895    1.26254146    0.89308239
| 42> H   -3.20942754    0.24863402   -0.56190009
| 43> H   -3.14315813    2.01659563   -0.68889311
| 44> C    2.42311771    1.05649358    0.11216966
| 45> O    1.83869595    0.08247314   -0.36756131
| 46> N    1.77903015    2.14123680    0.58001621
| 47> H    0.75892478    2.18567459    0.54571490
| 48> H    2.29705421    2.90919800    0.96013686
| 49> C    3.93011689    1.08077796    0.19739474
| 50> H    4.32198796    1.98042747    0.66457876
| 51> H    4.33367309    0.99323292   -0.80838556
| 52> H    4.25789565    0.21020305    0.75957508
| 53> *
| 54>
| 55> $new_job
| 56> ! ri-mp2 aug-cc-pvqz aug-cc-pvqz/c tightscf
| 57> %pal nprocs 16 end
| 58> %maxcore 3800
| 59> %base "QZ_S66by10_21_0.8_dimer"
| 60>
| 61> *xyz 0 1
| 62> C   -1.30974974    1.18017617   -0.02517034
| 63> O   -0.72530044    2.15514767    0.45271335
| 64> N   -0.66562116    0.09505470   -0.49199449
| 65> H    0.35458266    0.05144817   -0.45930922
| 66> H   -1.18362704   -0.67359969   -0.87075610
| 67> C   -2.81671934    1.15599865   -0.11060597
| 68> H   -3.22062895    1.26254146    0.89308239
| 69> H   -3.20942754    0.24863402   -0.56190009
| 70> H   -3.14315813    2.01659563   -0.68889311
| 71> C    2.42311771    1.05649358    0.11216966
| 72> O    1.83869595    0.08247314   -0.36756131
| 73> N    1.77903015    2.14123680    0.58001621
| 74> H    0.75892478    2.18567459    0.54571490
| 75> H    2.29705421    2.90919800    0.96013686
| 76> C    3.93011689    1.08077796    0.19739474
| 77> H    4.32198796    1.98042747    0.66457876
| 78> H    4.33367309    0.99323292   -0.80838556
| 79> H    4.25789565    0.21020305    0.75957508
| 80> *
| 81>
| 82>
| 83>
| 84>
| 85>                          ****END OF INPUT****
 Total Charge           Charge          ....    0
 Multiplicity           Mult            ....    1
 Number of Electrons    NEL             ....   64
MP2 TOTAL ENERGY:     -417.350014992 Eh
FINAL SINGLE POINT ENERGY      -417.350014991860
MP2 TOTAL ENERGY:     -417.721978535 Eh
FINAL SINGLE POINT ENERGY      -417.721978535030

CARTESIAN COORDINATES (ANGSTROEM)
---------------------------------
  C     -1.309750    1.180176   -0.025170
  O     -0.725300    2.155148    0.452713
  N     -0.665621    0.095055   -0.491994
  H      0.354583    0.051448   -0.459309
  H     -1.183627   -0.673600   -0.870756
  C     -2.816719    1.155999   -0.110606
  H     -3.220629    1.262541    0.893082
  H     -3.209428    0.248634   -0.561900
  H     -3.143158    2.016596   -0.688893
  C      2.423118    1.056494    0.112170
  O      1.838696    0.082473   -0.367561
  N      1.779030    2.141237    0.580016
  H      0.758925    2.185675    0.545715
  H      2.297054    2.909198    0.960137
  C      3.930117    1.080778    0.197395
  H      4.321988    1.980427    0.664579
  H      4.333673    0.993233   -0.808386
  H      4.257896    0.210203    0.759575

 Multiplicity           Mult            ....    1
 Number of Electrons    NEL             ....   64
 Basis Dimension        Dim             .... 1100

ORBITAL ENERGIES
----------------

  NO   OCC          E(Eh)            E(eV)
   0   2.0000     -20.513170      -558.1917
   1   2.0000     -20.513142      -558.1910
   2   2.0000     -15.549984      -423.1366
   3   2.0000     -15.549980      -423.1365
   4   2.0000     -11.350523      -308.8634
   5   2.0000     -11.350510      -308.8631
   6   2.0000     -11.231184      -305.6160
   7   2.0000     -11.231175      -305.6158
   8   2.0000      -1.388398       -37.7802
   9   2.0000      -1.377218       -37.4760
  10   2.0000      -1.206002       -32.8170
  11   2.0000      -1.189638       -32.3717
  12   2.0000      -1.007142       -27.4057
  13   2.0000      -0.995375       -27.0855
  14   2.0000      -0.811656       -22.0863
  15   2.0000      -0.775064       -21.0906
  16   2.0000      -0.744453       -20.2576
  17   2.0000      -0.727178       -19.7875
  18   2.0000      -0.670238       -18.2381
  19   2.0000      -0.633876       -17.2486
  20   2.0000      -0.615742       -16.7552
  21   2.0000      -0.610366       -16.6089
  22   2.0000      -0.593760       -16.1570
  23   2.0000      -0.574860       -15.6427
  24   2.0000      -0.559850       -15.2343
  25   2.0000      -0.545697       -14.8492
  26   2.0000      -0.527812       -14.3625
  27   2.0000      -0.516605       -14.0575
  28   2.0000      -0.443619       -12.0715
  29   2.0000      -0.414445       -11.2776
  30   2.0000      -0.408939       -11.1278
  31   2.0000      -0.393681       -10.7126
  32   0.0000       0.025008         0.6805
  33   0.0000       0.026101         0.7102
  34   0.0000       0.036329         0.9886
  35   0.0000       0.042094         1.1454
  36   0.0000       0.043913         1.1949

MULLIKEN ATOMIC CHARGES
-----------------------
   0 C :    0.845858
   1 O :   -0.814413
   2 N :   -0.693383
   3 H :    0.317137
   4 H :    0.228709
   5 C :   -0.674096
   6 H :    0.272660
   7 H :    0.249372
   8 H :    0.268134
   9 C :    0.845827
  10 O :   -0.814222
  11 N :   -0.693503
  12 H :    0.317237
  13 H :    0.228515
  14 C :   -0.674209
  15 H :    0.249310
  16 H :    0.274938
  17 H :    0.266130
Sum of atomic charges:    0.0000000

LOEWDIN ATOMIC CHARGES
----------------------
   0 C :   -0.658544
   1 O :    0.930915
   2 N :    1.253817
   3 H :   -1.034039
   4 H :   -0.482502
   5 C :    0.904096
   6 H :   -0.299103
   7 H :   -0.314925
   8 H :   -0.299899
   9 C :   -0.658492
  10 O :    0.931032
  11 N :    1.253844
  12 H :   -1.033884
  13 H :   -0.482518
  14 C :    0.904117
  15 H :   -0.314915
  16 H :   -0.298585
  17 H :   -0.300415

  Mayer bond orders larger than 0.100000
B(  0-C ,  1-O ) :   1.3621 B(  0-C ,  2-N ) :   1.1484 B(  0-C ,  5-C ) :   0.7312
B(  0-C ,  7-H ) :  -0.1182 B(  1-O ,  2-N ) :   0.1416 B(  2-N ,  3-H ) :   0.8522
B(  2-N ,  4-H ) :   1.0434 B(  5-C ,  6-H ) :   0.9529 B(  5-C ,  7-H ) :   1.0133
B(  5-C ,  8-H ) :   0.9633 B(  9-C , 10-O ) :   1.3624 B(  9-C , 11-N ) :   1.1484
B(  9-C , 14-C ) :   0.7313 B(  9-C , 15-H ) :  -0.1182 B( 10-O , 11-N ) :   0.1416
B( 11-N , 12-H ) :   0.8520 B( 11-N , 13-H ) :   1.0435 B( 14-C , 15-H ) :   1.0133
B( 14-C , 16-H ) :   0.9476 B( 14-C , 17-H ) :   0.9683

MP2 TOTAL ENERGY:     -417.841480006 Eh
FINAL SINGLE POINT ENERGY      -417.841480006084

DIPOLE MOMENT
-------------
                                X             Y             Z
Electronic contribution:      0.00000      -0.00055       0.00042
Nuclear contribution   :      0.00027      -0.00002       0.00041
                        -----------------------------------------
Total Dipole Moment    :      0.00027      -0.00057       0.00082
                        -----------------------------------------
Magnitude (a.u.)       :      0.00104
Magnitude (Debye)      :      0.00263

Rotational constants in cm-1:     0.179014     0.030822     0.026552
Rotational constants in MHz :  5366.699291   924.022773   795.999780

                             ****ORCA TERMINATED NORMALLY****
TOTAL RUN TIME: 0 days 2 hours 36 minutes 34 seconds 199 msec
