                         Program Version 5.0.4 -  RELEASE  -
|  1> ! ri-mp2 aug-cc-pvdz aug-cc-pvdz/c tightscf
|  2> %pal nprocs 16 end
|  3> %maxcore 3800
|  4> %base "DZ_S66by10_24_1.05_dimer"
|  5>
|  6> *xyz 0 1
|  7> C    0.71264532    1.12099570    0.06054078
|  8> H    1.35784165    1.98639917    0.12773717
|  9> C    1.25823573   -0.15925190    0.12423352
| 10> H    2.32495428   -0.28709988    0.24674303
| 11> C    0.42688496   -1.27452666    0.04265043
| 12> H    0.85044465   -2.26843268    0.09474995
| 13> C   -0.94957784   -1.11007406   -0.10031360
| 14> H   -1.59445570   -1.97627370   -0.16371348
| 15> C   -1.49552564    0.17105056   -0.16154602
| 16> H   -2.56378279    0.29922115   -0.27370311
| 17> C   -0.66382760    1.28664289   -0.08340143
| 18> H   -1.08690070    2.28100020   -0.13288613
| 19> C    2.00975297    1.10955085    3.77323393
| 20> H    2.65459809    1.97573460    3.83698464
| 21> C    2.55570610   -0.17160025    3.83475366
| 22> H    3.62391298   -0.29974730    3.94749788
| 23> C    1.72405662   -1.28720035    3.75610323
| 24> H    2.14713832   -2.28155278    3.80575689
| 25> C    0.34765505   -1.12156532    3.61138648
| 26> H   -0.29744754   -1.98697556    3.54375385
| 27> C   -0.19790482    0.15866743    3.54742065
| 28> H   -1.26453285    0.28649664    3.42424189
| 29> C    0.63337213    1.27394819    3.62949160
| 30> H    0.20984725    2.26785323    3.57712267
| 31> *
| 32>
| 33> $new_job
| 34> ! ri-mp2 aug-cc-pvtz aug-cc-pvtz/c tightscf
| 35> %pal nprocs 16 end
| 36> %maxcore 3800
| 37> %base "TZ_S66by10_24_1.05_dimer"
| 38>
| 39> *xyz 0 1
| 40> C    0.71264532    1.12099570    0.06054078
| 41> H    1.35784165    1.98639917    0.12773717
| 42> C    1.25823573   -0.15925190    0.12423352
| 43> H    2.32495428   -0.28709988    0.24674303
| 44> C    0.42688496   -1.27452666    0.04265043
| 45> H    0.85044465   -2.26843268    0.09474995
| 46> C   -0.94957784   -1.11007406   -0.10031360
| 47> H   -1.59445570   -1.97627370   -0.16371348
| 48> C   -1.49552564    0.17105056   -0.16154602
| 49> H   -2.56378279    0.29922115   -0.27370311
| 50> C   -0.66382760    1.28664289   -0.08340143
| 51> H   -1.08690070    2.28100020   -0.13288613
| 52> C    2.00975297    1.10955085    3.77323393
| 53> H    2.65459809    1.97573460    3.83698464
| 54> C    2.55570610   -0.17160025    3.83475366
| 55> H    3.62391298   -0.29974730    3.94749788
| 56> C    1.72405662   -1.28720035    3.75610323
| 57> H    2.14713832   -2.28155278    3.80575689
| 58> C    0.34765505   -1.12156532    3.61138648
| 59> H   -0.29744754   -1.98697556    3.54375385
| 60> C   -0.19790482    0.15866743    3.54742065
| 61> H   -1.26453285    0.28649664    3.42424189
| 62> C    0.63337213    1.27394819    3.62949160
| 63> H    0.20984725    2.26785323    3.57712267
| 64> *
| 65>
| 66> $new_job
| 67> ! ri-mp2 aug-cc-pvqz aug-cc-pvqz/c tightscf
| 68> %pal nprocs 16 end
| 69> %maxcore 3800
| 70> %base "QZ_S66by10_24_1.05_dimer"
| 71>
| 72> *xyz 0 1
| 73> C    0.71264532    1.12099570    0.06054078
| 74> H    1.35784165    1.98639917    0.12773717
| 75> C    1.25823573   -0.15925190    0.12423352
| 76> H    2.32495428   -0.28709988    0.24674303
| 77> C    0.42688496   -1.27452666    0.04265043
| 78> H    0.85044465   -2.26843268    0.09474995
| 79> C   -0.94957784   -1.11007406   -0.10031360
| 80> H   -1.59445570   -1.97627370   -0.16371348
| 81> C   -1.49552564    0.17105056   -0.16154602
| 82> H   -2.56378279    0.29922115   -0.27370311
| 83> C   -0.66382760    1.28664289   -0.08340143
| 84> H   -1.08690070    2.28100020   -0.13288613
| 85> C    2.00975297    1.10955085    3.77323393
| 86> H    2.65459809    1.97573460    3.83698464
| 87> C    2.55570610   -0.17160025    3.83475366
| 88> H    3.62391298   -0.29974730    3.94749788
| 89> C    1.72405662   -1.28720035    3.75610323
| 90> H    2.14713832   -2.28155278    3.80575689
| 91> C    0.34765505   -1.12156532    3.61138648
| 92> H   -0.29744754   -1.98697556    3.54375385
| 93> C   -0.19790482    0.15866743    3.54742065
| 94> H   -1.26453285    0.28649664    3.42424189
| 95> C    0.63337213    1.27394819    3.62949160
| 96> H    0.20984725    2.26785323    3.57712267
| 97> *
| 98>
| 99>
|100>
|101>
|102>                          ****END OF INPUT****
 Total Charge           Charge          ....    0
 Multiplicity           Mult            ....    1
 Number of Electrons    NEL             ....   84
MP2 TOTAL ENERGY:     -463.088198900 Eh
FINAL SINGLE POINT ENERGY      -463.088198899701
MP2 TOTAL ENERGY:     -463.498175297 Eh
FINAL SINGLE POINT ENERGY      -463.498175297158

CARTESIAN COORDINATES (ANGSTROEM)
---------------------------------
  C      0.712645    1.120996    0.060541
  H      1.357842    1.986399    0.127737
  C      1.258236   -0.159252    0.124234
  H      2.324954   -0.287100    0.246743
  C      0.426885   -1.274527    0.042650
  H      0.850445   -2.268433    0.094750
  C     -0.949578   -1.110074   -0.100314
  H     -1.594456   -1.976274   -0.163713
  C     -1.495526    0.171051   -0.161546
  H     -2.563783    0.299221   -0.273703
  C     -0.663828    1.286643   -0.083401
  H     -1.086901    2.281000   -0.132886
  C      2.009753    1.109551    3.773234
  H      2.654598    1.975735    3.836985
  C      2.555706   -0.171600    3.834754
  H      3.623913   -0.299747    3.947498
  C      1.724057   -1.287200    3.756103
  H      2.147138   -2.281553    3.805757
  C      0.347655   -1.121565    3.611386
  H     -0.297448   -1.986976    3.543754
  C     -0.197905    0.158667    3.547421
  H     -1.264533    0.286497    3.424242
  C      0.633372    1.273948    3.629492
  H      0.209847    2.267853    3.577123

 Multiplicity           Mult            ....    1
 Number of Electrons    NEL             ....   84
 Basis Dimension        Dim             .... 1512

ORBITAL ENERGIES
----------------

  NO   OCC          E(Eh)            E(eV)
   0   2.0000     -11.230292      -305.5918
   1   2.0000     -11.230289      -305.5917
   2   2.0000     -11.229362      -305.5665
   3   2.0000     -11.229356      -305.5663
   4   2.0000     -11.229054      -305.5581
   5   2.0000     -11.229046      -305.5579
   6   2.0000     -11.228135      -305.5331
   7   2.0000     -11.228129      -305.5329
   8   2.0000     -11.227967      -305.5285
   9   2.0000     -11.227959      -305.5283
  10   2.0000     -11.226697      -305.4940
  11   2.0000     -11.226685      -305.4936
  12   2.0000      -1.146283       -31.1919
  13   2.0000      -1.143484       -31.1158
  14   2.0000      -1.010614       -27.5002
  15   2.0000      -1.009458       -27.4687
  16   2.0000      -1.009226       -27.4624
  17   2.0000      -1.008290       -27.4370
  18   2.0000      -0.819298       -22.2942
  19   2.0000      -0.819175       -22.2909
  20   2.0000      -0.818986       -22.2857
  21   2.0000      -0.818589       -22.2750
  22   2.0000      -0.705381       -19.1944
  23   2.0000      -0.704298       -19.1649
  24   2.0000      -0.639473       -17.4009
  25   2.0000      -0.639317       -17.3967
  26   2.0000      -0.614167       -16.7123
  27   2.0000      -0.613925       -16.7057
  28   2.0000      -0.583973       -15.8907
  29   2.0000      -0.583305       -15.8725
  30   2.0000      -0.583078       -15.8664
  31   2.0000      -0.582522       -15.8512
  32   2.0000      -0.511019       -13.9055
  33   2.0000      -0.490131       -13.3371
  34   2.0000      -0.490100       -13.3363
  35   2.0000      -0.490060       -13.3352
  36   2.0000      -0.490009       -13.3338
  37   2.0000      -0.484214       -13.1761
  38   2.0000      -0.343587        -9.3495
  39   2.0000      -0.332085        -9.0365
  40   2.0000      -0.330003        -8.9798
  41   2.0000      -0.320491        -8.7210
  42   0.0000       0.024518         0.6672
  43   0.0000       0.027643         0.7522
  44   0.0000       0.027817         0.7569
  45   0.0000       0.037458         1.0193
  46   0.0000       0.037985         1.0336

MULLIKEN ATOMIC CHARGES
-----------------------
   0 C :   -0.300381
   1 H :    0.330420
   2 C :   -0.436866
   3 H :    0.264521
   4 C :   -0.305800
   5 H :    0.314916
   6 C :   -0.231261
   7 H :    0.309883
   8 C :   -0.315219
   9 H :    0.304757
  10 C :   -0.240883
  11 H :    0.305920
  12 C :   -0.231846
  13 H :    0.309882
  14 C :   -0.314797
  15 H :    0.304752
  16 C :   -0.241357
  17 H :    0.305900
  18 C :   -0.299726
  19 H :    0.330447
  20 C :   -0.437171
  21 H :    0.264299
  22 C :   -0.305310
  23 H :    0.314920
Sum of atomic charges:   -0.0000000

LOEWDIN ATOMIC CHARGES
----------------------
   0 C :    0.316920
   1 H :   -0.318236
   2 C :    0.315033
   3 H :   -0.316759
   4 C :    0.318247
   5 H :   -0.318751
   6 C :    0.325625
   7 H :   -0.324023
   8 C :    0.325468
   9 H :   -0.325132
  10 C :    0.324830
  11 H :   -0.323210
  12 C :    0.325669
  13 H :   -0.324046
  14 C :    0.325510
  15 H :   -0.325136
  16 C :    0.324855
  17 H :   -0.323213
  18 C :    0.316920
  19 H :   -0.318262
  20 C :    0.314986
  21 H :   -0.316786
  22 C :    0.318246
  23 H :   -0.318756

  Mayer bond orders larger than 0.100000
B(  0-C ,  1-H ) :   1.0094 B(  0-C ,  2-C ) :   1.2286 B(  0-C ,  6-C ) :   0.1867
B(  0-C , 10-C ) :   1.2030 B(  2-C ,  3-H ) :   1.0331 B(  2-C ,  4-C ) :   1.2183
B(  2-C ,  8-C ) :   0.1770 B(  4-C ,  5-H ) :   1.0242 B(  4-C ,  6-C ) :   1.1879
B(  4-C , 10-C ) :   0.1804 B(  6-C ,  7-H ) :   1.0437 B(  6-C ,  8-C ) :   1.2180
B(  8-C ,  9-H ) :   1.0449 B(  8-C , 10-C ) :   1.2173 B( 10-C , 11-H ) :   1.0468
B( 12-C , 13-H ) :   1.0437 B( 12-C , 14-C ) :   1.2179 B( 12-C , 18-C ) :   0.1866
B( 12-C , 22-C ) :   1.1878 B( 14-C , 15-H ) :   1.0450 B( 14-C , 16-C ) :   1.2172
B( 14-C , 20-C ) :   0.1771 B( 16-C , 17-H ) :   1.0469 B( 16-C , 18-C ) :   1.2029
B( 16-C , 22-C ) :   0.1803 B( 18-C , 19-H ) :   1.0094 B( 18-C , 20-C ) :   1.2285
B( 20-C , 21-H ) :   1.0332 B( 20-C , 22-C ) :   1.2181 B( 22-C , 23-H ) :   1.0243

MP2 TOTAL ENERGY:     -463.627516199 Eh
FINAL SINGLE POINT ENERGY      -463.627516198639

DIPOLE MOMENT
-------------
                                X             Y             Z
Electronic contribution:     -0.00010       0.00001       0.00004
Nuclear contribution   :      0.00013      -0.00001      -0.00023
                        -----------------------------------------
Total Dipole Moment    :      0.00003       0.00000      -0.00019
                        -----------------------------------------
Magnitude (a.u.)       :      0.00020
Magnitude (Debye)      :      0.00050

Rotational constants in cm-1:     0.053932     0.021590     0.020506
Rotational constants in MHz :  1616.838665   647.259283   614.756661

                             ****ORCA TERMINATED NORMALLY****
TOTAL RUN TIME: 0 days 1 hours 31 minutes 44 seconds 457 msec
