                         Program Version 5.0.4 -  RELEASE  -
|  1> ! ri-mp2 aug-cc-pvdz aug-cc-pvdz/c tightscf
|  2> %pal nprocs 16 end
|  3> %maxcore 3800
|  4> %base "DZ_S66by10_13_0.9_dimer"
|  5> %scf STABPerform true end
|  6>
|  7> *xyz 0 1
|  8> C   -0.84931672   -0.33949876    2.49171664
|  9> H    0.18434396   -0.01104732    2.41618542
| 10> H   -0.88249791   -1.34205140    2.91270310
| 11> H   -1.39080263    0.31687828    3.16842897
| 12> C   -1.56403192   -0.35332311    1.15947545
| 13> O   -2.74952638   -0.65153776    1.05676087
| 14> N   -0.80165352   -0.02735461    0.08834167
| 15> H    0.16118756    0.24036035    0.21871364
| 16> C   -1.38534986   -0.00235149   -1.23413683
| 17> H   -1.89161720   -0.94280123   -1.44009631
| 18> H   -2.11997230    0.79621180   -1.33087952
| 19> H   -0.59464593    0.14957065   -1.96312772
| 20> O    1.96188729    0.25098388    0.43288359
| 21> H    2.68274210    0.87828350    0.52329841
| 22> C    2.48097145   -1.05438178    0.66676538
| 23> H    1.64839994   -1.74316947    0.56118881
| 24> H    3.24711021   -1.32337452   -0.06011539
| 25> H    2.88906849   -1.15583097    1.67239987
| 26> *
| 27>
| 28> $new_job
| 29> ! ri-mp2 aug-cc-pvtz aug-cc-pvtz/c tightscf
| 30> %pal nprocs 16 end
| 31> %maxcore 3800
| 32> %base "TZ_S66by10_13_0.9_dimer"
| 33>
| 34> *xyz 0 1
| 35> C   -0.84931672   -0.33949876    2.49171664
| 36> H    0.18434396   -0.01104732    2.41618542
| 37> H   -0.88249791   -1.34205140    2.91270310
| 38> H   -1.39080263    0.31687828    3.16842897
| 39> C   -1.56403192   -0.35332311    1.15947545
| 40> O   -2.74952638   -0.65153776    1.05676087
| 41> N   -0.80165352   -0.02735461    0.08834167
| 42> H    0.16118756    0.24036035    0.21871364
| 43> C   -1.38534986   -0.00235149   -1.23413683
| 44> H   -1.89161720   -0.94280123   -1.44009631
| 45> H   -2.11997230    0.79621180   -1.33087952
| 46> H   -0.59464593    0.14957065   -1.96312772
| 47> O    1.96188729    0.25098388    0.43288359
| 48> H    2.68274210    0.87828350    0.52329841
| 49> C    2.48097145   -1.05438178    0.66676538
| 50> H    1.64839994   -1.74316947    0.56118881
| 51> H    3.24711021   -1.32337452   -0.06011539
| 52> H    2.88906849   -1.15583097    1.67239987
| 53> *
| 54>
| 55> $new_job
| 56> ! ri-mp2 aug-cc-pvqz aug-cc-pvqz/c tightscf
| 57> %pal nprocs 16 end
| 58> %maxcore 3800
| 59> %base "QZ_S66by10_13_0.9_dimer"
| 60>
| 61> *xyz 0 1
| 62> C   -0.84931672   -0.33949876    2.49171664
| 63> H    0.18434396   -0.01104732    2.41618542
| 64> H   -0.88249791   -1.34205140    2.91270310
| 65> H   -1.39080263    0.31687828    3.16842897
| 66> C   -1.56403192   -0.35332311    1.15947545
| 67> O   -2.74952638   -0.65153776    1.05676087
| 68> N   -0.80165352   -0.02735461    0.08834167
| 69> H    0.16118756    0.24036035    0.21871364
| 70> C   -1.38534986   -0.00235149   -1.23413683
| 71> H   -1.89161720   -0.94280123   -1.44009631
| 72> H   -2.11997230    0.79621180   -1.33087952
| 73> H   -0.59464593    0.14957065   -1.96312772
| 74> O    1.96188729    0.25098388    0.43288359
| 75> H    2.68274210    0.87828350    0.52329841
| 76> C    2.48097145   -1.05438178    0.66676538
| 77> H    1.64839994   -1.74316947    0.56118881
| 78> H    3.24711021   -1.32337452   -0.06011539
| 79> H    2.88906849   -1.15583097    1.67239987
| 80> *
| 81>
| 82>
| 83>
| 84>
| 85>                          ****END OF INPUT****
 Total Charge           Charge          ....    0
 Multiplicity           Mult            ....    1
 Number of Electrons    NEL             ....   58
MP2 TOTAL ENERGY:     -363.279443688 Eh
FINAL SINGLE POINT ENERGY      -363.279443687934
MP2 TOTAL ENERGY:     -363.610123785 Eh
FINAL SINGLE POINT ENERGY      -363.610123784882

CARTESIAN COORDINATES (ANGSTROEM)
---------------------------------
  C     -0.849317   -0.339499    2.491717
  H      0.184344   -0.011047    2.416185
  H     -0.882498   -1.342051    2.912703
  H     -1.390803    0.316878    3.168429
  C     -1.564032   -0.353323    1.159475
  O     -2.749526   -0.651538    1.056761
  N     -0.801654   -0.027355    0.088342
  H      0.161188    0.240360    0.218714
  C     -1.385350   -0.002351   -1.234137
  H     -1.891617   -0.942801   -1.440096
  H     -2.119972    0.796212   -1.330880
  H     -0.594646    0.149571   -1.963128
  O      1.961887    0.250984    0.432884
  H      2.682742    0.878283    0.523298
  C      2.480971   -1.054382    0.666765
  H      1.648400   -1.743169    0.561189
  H      3.247110   -1.323375   -0.060115
  H      2.889068   -1.155831    1.672400

 Multiplicity           Mult            ....    1
 Number of Electrons    NEL             ....   58
 Basis Dimension        Dim             .... 1066

ORBITAL ENERGIES
----------------

  NO   OCC          E(Eh)            E(eV)
   0   2.0000     -20.591628      -560.3267
   1   2.0000     -20.490913      -557.5861
   2   2.0000     -15.555907      -423.2977
   3   2.0000     -11.325826      -308.1914
   4   2.0000     -11.293878      -307.3220
   5   2.0000     -11.240306      -305.8643
   6   2.0000     -11.219149      -305.2886
   7   2.0000      -1.394715       -37.9521
   8   2.0000      -1.354560       -36.8595
   9   2.0000      -1.207874       -32.8679
  10   2.0000      -1.002216       -27.2717
  11   2.0000      -0.954083       -25.9619
  12   2.0000      -0.915192       -24.9037
  13   2.0000      -0.779612       -21.2143
  14   2.0000      -0.722593       -19.6627
  15   2.0000      -0.673096       -18.3159
  16   2.0000      -0.652496       -17.7553
  17   2.0000      -0.635637       -17.2966
  18   2.0000      -0.622768       -16.9464
  19   2.0000      -0.616064       -16.7640
  20   2.0000      -0.569596       -15.4995
  21   2.0000      -0.563113       -15.3231
  22   2.0000      -0.549321       -14.9478
  23   2.0000      -0.533791       -14.5252
  24   2.0000      -0.522936       -14.2298
  25   2.0000      -0.486284       -13.2324
  26   2.0000      -0.483628       -13.1602
  27   2.0000      -0.403365       -10.9761
  28   2.0000      -0.371534       -10.1100
  29   0.0000       0.014827         0.4035
  30   0.0000       0.028641         0.7794
  31   0.0000       0.028946         0.7877
  32   0.0000       0.036747         0.9999
  33   0.0000       0.046429         1.2634

MULLIKEN ATOMIC CHARGES
-----------------------
   0 C :   -0.848821
   1 H :    0.286439
   2 H :    0.247220
   3 H :    0.284981
   4 C :    0.973490
   5 O :   -0.906006
   6 N :   -0.444208
   7 H :    0.319300
   8 C :   -0.870732
   9 H :    0.312090
  10 H :    0.330376
  11 H :    0.321686
  12 O :   -0.667036
  13 H :    0.310366
  14 C :   -0.697116
  15 H :    0.306579
  16 H :    0.434831
  17 H :    0.306561
Sum of atomic charges:   -0.0000000

LOEWDIN ATOMIC CHARGES
----------------------
   0 C :    0.887194
   1 H :   -0.341424
   2 H :   -0.297055
   3 H :   -0.299343
   4 C :   -0.847861
   5 O :    0.686686
   6 N :    0.809591
   7 H :   -0.772362
   8 C :    0.771480
   9 H :   -0.306724
  10 H :   -0.288874
  11 H :   -0.296370
  12 O :    1.316070
  13 H :   -0.731055
  14 C :    0.641010
  15 H :   -0.329576
  16 H :   -0.300608
  17 H :   -0.300780

  Mayer bond orders larger than 0.100000
B(  0-C ,  1-H ) :   0.9704 B(  0-C ,  2-H ) :   0.9563 B(  0-C ,  3-H ) :   0.9487
B(  0-C ,  4-C ) :   0.8719 B(  4-C ,  5-O ) :   1.1399 B(  4-C ,  6-N ) :   1.2305
B(  5-O ,  6-N ) :   0.2751 B(  6-N ,  7-H ) :   0.8158 B(  6-N ,  8-C ) :   0.8573
B(  7-H , 12-O ) :   0.1015 B(  8-C ,  9-H ) :   0.9394 B(  8-C , 10-H ) :   0.9301
B(  8-C , 11-H ) :   0.9085 B( 12-O , 13-H ) :   0.9321 B( 12-O , 14-C ) :   0.8199
B( 14-C , 15-H ) :   0.8977 B( 14-C , 16-H ) :   0.7948 B( 14-C , 17-H ) :   0.9042

MP2 TOTAL ENERGY:     -363.714819916 Eh
FINAL SINGLE POINT ENERGY      -363.714819915960

DIPOLE MOMENT
-------------
                                X             Y             Z
Electronic contribution:     -4.53485       1.04075       0.43588
Nuclear contribution   :      7.18948      -0.73798      -0.49200
                        -----------------------------------------
Total Dipole Moment    :      2.65462       0.30277      -0.05612
                        -----------------------------------------
Magnitude (a.u.)       :      2.67242
Magnitude (Debye)      :      6.79276

Rotational constants in cm-1:     0.112098     0.044698     0.034853
Rotational constants in MHz :  3360.601850  1340.016748  1044.859859

                             ****ORCA TERMINATED NORMALLY****
TOTAL RUN TIME: 0 days 1 hours 56 minutes 55 seconds 267 msec
