                         Program Version 5.0.4 -  RELEASE  -
|  1> ! ri-mp2 aug-cc-pvdz aug-cc-pvdz/c tightscf
|  2> %pal nprocs 16 end
|  3> %maxcore 3800
|  4> %base "DZ_S66by10_57_0.95_dimer"
|  5>
|  6> *xyz 0 1
|  7> C    0.40877989    1.05102502    0.37553605
|  8> H    1.01193875    1.94854570    0.36807788
|  9> C    1.01916788   -0.19976963    0.28905343
| 10> H    2.09557130   -0.27183333    0.21719099
| 11> C    0.24172263   -1.35688270    0.29668995
| 12> H    0.71521633   -2.32658869    0.22807218
| 13> C   -1.14617971   -1.26425757    0.39390198
| 14> H   -1.74918186   -2.16192663    0.39940980
| 15> C   -1.75727780   -0.01396023    0.48295173
| 16> H   -2.83351378    0.05824368    0.55903918
| 17> C   -0.97968602    1.14420653    0.47228370
| 18> H   -1.45405142    2.11400088    0.53713589
| 19> C    0.24245529    1.94941163    4.08588006
| 20> H   -0.11568981    2.11514248    3.07258729
| 21> H    1.26703885    2.30612120    4.16732157
| 22> H   -0.36164158    2.52304746    4.78423278
| 23> C    0.20560896    0.49624852    4.50158889
| 24> O    0.49023736    0.14388710    5.64012695
| 25> N   -0.16678631   -0.36946822    3.52234779
| 26> H   -0.32791421   -0.01147748    2.59627945
| 27> C   -0.20357919   -1.79634745    3.74043486
| 28> H   -0.12549162   -1.96325499    4.81043109
| 29> H   -1.13881972   -2.21469803    3.37369674
| 30> H    0.62554729   -2.30022021    3.24309742
| 31> *
| 32>
| 33> $new_job
| 34> ! ri-mp2 aug-cc-pvtz aug-cc-pvtz/c tightscf
| 35> %pal nprocs 16 end
| 36> %maxcore 3800
| 37> %base "TZ_S66by10_57_0.95_dimer"
| 38>
| 39> *xyz 0 1
| 40> C    0.40877989    1.05102502    0.37553605
| 41> H    1.01193875    1.94854570    0.36807788
| 42> C    1.01916788   -0.19976963    0.28905343
| 43> H    2.09557130   -0.27183333    0.21719099
| 44> C    0.24172263   -1.35688270    0.29668995
| 45> H    0.71521633   -2.32658869    0.22807218
| 46> C   -1.14617971   -1.26425757    0.39390198
| 47> H   -1.74918186   -2.16192663    0.39940980
| 48> C   -1.75727780   -0.01396023    0.48295173
| 49> H   -2.83351378    0.05824368    0.55903918
| 50> C   -0.97968602    1.14420653    0.47228370
| 51> H   -1.45405142    2.11400088    0.53713589
| 52> C    0.24245529    1.94941163    4.08588006
| 53> H   -0.11568981    2.11514248    3.07258729
| 54> H    1.26703885    2.30612120    4.16732157
| 55> H   -0.36164158    2.52304746    4.78423278
| 56> C    0.20560896    0.49624852    4.50158889
| 57> O    0.49023736    0.14388710    5.64012695
| 58> N   -0.16678631   -0.36946822    3.52234779
| 59> H   -0.32791421   -0.01147748    2.59627945
| 60> C   -0.20357919   -1.79634745    3.74043486
| 61> H   -0.12549162   -1.96325499    4.81043109
| 62> H   -1.13881972   -2.21469803    3.37369674
| 63> H    0.62554729   -2.30022021    3.24309742
| 64> *
| 65>
| 66> $new_job
| 67> ! ri-mp2 aug-cc-pvqz aug-cc-pvqz/c tightscf
| 68> %pal nprocs 16 end
| 69> %maxcore 3800
| 70> %base "QZ_S66by10_57_0.95_dimer"
| 71>
| 72> *xyz 0 1
| 73> C    0.40877989    1.05102502    0.37553605
| 74> H    1.01193875    1.94854570    0.36807788
| 75> C    1.01916788   -0.19976963    0.28905343
| 76> H    2.09557130   -0.27183333    0.21719099
| 77> C    0.24172263   -1.35688270    0.29668995
| 78> H    0.71521633   -2.32658869    0.22807218
| 79> C   -1.14617971   -1.26425757    0.39390198
| 80> H   -1.74918186   -2.16192663    0.39940980
| 81> C   -1.75727780   -0.01396023    0.48295173
| 82> H   -2.83351378    0.05824368    0.55903918
| 83> C   -0.97968602    1.14420653    0.47228370
| 84> H   -1.45405142    2.11400088    0.53713589
| 85> C    0.24245529    1.94941163    4.08588006
| 86> H   -0.11568981    2.11514248    3.07258729
| 87> H    1.26703885    2.30612120    4.16732157
| 88> H   -0.36164158    2.52304746    4.78423278
| 89> C    0.20560896    0.49624852    4.50158889
| 90> O    0.49023736    0.14388710    5.64012695
| 91> N   -0.16678631   -0.36946822    3.52234779
| 92> H   -0.32791421   -0.01147748    2.59627945
| 93> C   -0.20357919   -1.79634745    3.74043486
| 94> H   -0.12549162   -1.96325499    4.81043109
| 95> H   -1.13881972   -2.21469803    3.37369674
| 96> H    0.62554729   -2.30022021    3.24309742
| 97> *
| 98>
| 99>
|100>
|101>
|102>                          ****END OF INPUT****
 Total Charge           Charge          ....    0
 Multiplicity           Mult            ....    1
 Number of Electrons    NEL             ....   82
MP2 TOTAL ENERGY:     -479.400253871 Eh
FINAL SINGLE POINT ENERGY      -479.400253870768
MP2 TOTAL ENERGY:     -479.827326510 Eh
FINAL SINGLE POINT ENERGY      -479.827326510343

CARTESIAN COORDINATES (ANGSTROEM)
---------------------------------
  C      0.408780    1.051025    0.375536
  H      1.011939    1.948546    0.368078
  C      1.019168   -0.199770    0.289053
  H      2.095571   -0.271833    0.217191
  C      0.241723   -1.356883    0.296690
  H      0.715216   -2.326589    0.228072
  C     -1.146180   -1.264258    0.393902
  H     -1.749182   -2.161927    0.399410
  C     -1.757278   -0.013960    0.482952
  H     -2.833514    0.058244    0.559039
  C     -0.979686    1.144207    0.472284
  H     -1.454051    2.114001    0.537136
  C      0.242455    1.949412    4.085880
  H     -0.115690    2.115142    3.072587
  H      1.267039    2.306121    4.167322
  H     -0.361642    2.523047    4.784233
  C      0.205609    0.496249    4.501589
  O      0.490237    0.143887    5.640127
  N     -0.166786   -0.369468    3.522348
  H     -0.327914   -0.011477    2.596279
  C     -0.203579   -1.796347    3.740435
  H     -0.125492   -1.963255    4.810431
  H     -1.138820   -2.214698    3.373697
  H      0.625547   -2.300220    3.243097

 Multiplicity           Mult            ....    1
 Number of Electrons    NEL             ....   82
 Basis Dimension        Dim             .... 1478

ORBITAL ENERGIES
----------------

  NO   OCC          E(Eh)            E(eV)
   0   2.0000     -20.495461      -557.7098
   1   2.0000     -15.566362      -423.5822
   2   2.0000     -11.333296      -308.3947
   3   2.0000     -11.254658      -306.2548
   4   2.0000     -11.253921      -306.2348
   5   2.0000     -11.253567      -306.2251
   6   2.0000     -11.252744      -306.2027
   7   2.0000     -11.252418      -306.1938
   8   2.0000     -11.251639      -306.1727
   9   2.0000     -11.243240      -305.9441
  10   2.0000     -11.222766      -305.3870
  11   2.0000      -1.359927       -37.0055
  12   2.0000      -1.215924       -33.0870
  13   2.0000      -1.170786       -31.8587
  14   2.0000      -1.035033       -28.1647
  15   2.0000      -1.034377       -28.1468
  16   2.0000      -1.006608       -27.3912
  17   2.0000      -0.919839       -25.0301
  18   2.0000      -0.843265       -22.9464
  19   2.0000      -0.843141       -22.9430
  20   2.0000      -0.776398       -21.1269
  21   2.0000      -0.728958       -19.8360
  22   2.0000      -0.679124       -18.4799
  23   2.0000      -0.662678       -18.0324
  24   2.0000      -0.640516       -17.4293
  25   2.0000      -0.638174       -17.3656
  26   2.0000      -0.621310       -16.9067
  27   2.0000      -0.607523       -16.5315
  28   2.0000      -0.607149       -16.5214
  29   2.0000      -0.576553       -15.6888
  30   2.0000      -0.571984       -15.5645
  31   2.0000      -0.543698       -14.7948
  32   2.0000      -0.535771       -14.5791
  33   2.0000      -0.516156       -14.0453
  34   2.0000      -0.513816       -13.9817
  35   2.0000      -0.513559       -13.9747
  36   2.0000      -0.492726       -13.4078
  37   2.0000      -0.408712       -11.1216
  38   2.0000      -0.380039       -10.3414
  39   2.0000      -0.357964        -9.7407
  40   2.0000      -0.355361        -9.6699
  41   0.0000       0.019010         0.5173
  42   0.0000       0.024726         0.6728
  43   0.0000       0.025571         0.6958
  44   0.0000       0.037391         1.0174
  45   0.0000       0.037668         1.0250

MULLIKEN ATOMIC CHARGES
-----------------------
   0 C :   -0.248101
   1 H :    0.290391
   2 C :   -0.368160
   3 H :    0.282940
   4 C :   -0.358030
   5 H :    0.270809
   6 C :   -0.292321
   7 H :    0.336749
   8 C :   -0.380809
   9 H :    0.258658
  10 C :   -0.247722
  11 H :    0.310360
  12 C :   -0.925630
  13 H :    0.284670
  14 H :    0.250999
  15 H :    0.296687
  16 C :    0.982878
  17 O :   -0.919269
  18 N :   -0.646070
  19 H :    0.803539
  20 C :   -0.982302
  21 H :    0.357237
  22 H :    0.298249
  23 H :    0.344250
Sum of atomic charges:    0.0000000

LOEWDIN ATOMIC CHARGES
----------------------
   0 C :    0.330557
   1 H :   -0.310907
   2 C :    0.344452
   3 H :   -0.311719
   4 C :    0.328049
   5 H :   -0.311881
   6 C :    0.328628
   7 H :   -0.311738
   8 C :    0.343270
   9 H :   -0.311009
  10 C :    0.330239
  11 H :   -0.310877
  12 C :    0.893105
  13 H :   -0.342818
  14 H :   -0.292008
  15 H :   -0.297542
  16 C :   -0.817666
  17 O :    0.697481
  18 N :    0.829665
  19 H :   -0.663601
  20 C :    0.779287
  21 H :   -0.352841
  22 H :   -0.288061
  23 H :   -0.282066

  Mayer bond orders larger than 0.100000
B(  0-C ,  1-H ) :   1.0525 B(  0-C ,  2-C ) :   1.2358 B(  0-C ,  6-C ) :   0.1226
B(  0-C , 10-C ) :   1.1110 B(  2-C ,  3-H ) :   1.0536 B(  2-C ,  4-C ) :   1.3493
B(  2-C ,  8-C ) :   0.2621 B(  4-C ,  5-H ) :   1.0773 B(  4-C ,  6-C ) :   1.1538
B(  4-C , 10-C ) :   0.1200 B(  6-C ,  7-H ) :   0.9940 B(  6-C ,  8-C ) :   1.3189
B(  8-C ,  9-H ) :   1.0883 B(  8-C , 10-C ) :   1.2638 B( 10-C , 11-H ) :   1.0355
B( 12-C , 13-H ) :   0.9379 B( 12-C , 14-H ) :   0.9565 B( 12-C , 15-H ) :   0.9609
B( 12-C , 16-C ) :   0.9279 B( 12-C , 17-O ) :   0.1692 B( 16-C , 17-O ) :   1.0454
B( 16-C , 18-N ) :   1.2791 B( 17-O , 18-N ) :   0.2372 B( 18-N , 19-H ) :   0.6026
B( 18-N , 20-C ) :   0.8020 B( 20-C , 21-H ) :   0.8920 B( 20-C , 22-H ) :   0.9619
B( 20-C , 23-H ) :   0.9270

MP2 TOTAL ENERGY:     -479.962191296 Eh
FINAL SINGLE POINT ENERGY      -479.962191296477

DIPOLE MOMENT
-------------
                                X             Y             Z
Electronic contribution:      0.18487       0.04883      -0.81687
Nuclear contribution   :     -0.57635       0.06442      -1.08466
                        -----------------------------------------
Total Dipole Moment    :     -0.39148       0.11325      -1.90154
                        -----------------------------------------
Magnitude (a.u.)       :      1.94472
Magnitude (Debye)      :      4.94308

Rotational constants in cm-1:     0.056671     0.022889     0.019853
Rotational constants in MHz :  1698.966162   686.187398   595.182910

                             ****ORCA TERMINATED NORMALLY****
TOTAL RUN TIME: 0 days 1 hours 53 minutes 9 seconds 659 msec
