                         Program Version 5.0.4 -  RELEASE  -
|  1> ! ri-mp2 aug-cc-pvdz aug-cc-pvdz/c tightscf
|  2> %pal nprocs 16 end
|  3> %maxcore 3800
|  4> %base "DZ_S66by10_42_1.05_dimer"
|  5> %scf STABPerform true end
|  6>
|  7> *xyz 0 1
|  8> N    0.19572959   -0.84468925    0.82384642
|  9> H    0.45039753   -1.79675294    1.04976794
| 10> C   -1.17904919   -0.57368440    0.75948349
| 11> O   -1.99364624   -1.45626527    0.96690066
| 12> C   -1.47671471    0.81115567    0.43755952
| 13> H   -2.50635592    1.11565059    0.36389469
| 14> C   -0.46811280    1.68296245    0.23489084
| 15> H   -0.63843522    2.72164296   -0.00616410
| 16> N    0.84562854    1.30599113    0.32683051
| 17> H    1.58969256    1.96887924    0.18595979
| 18> C    1.25426147    0.01946187    0.63624397
| 19> O    2.42230438   -0.30171639    0.73187948
| 20> C    1.06226485   -0.86652990    4.57856678
| 21> H    1.51611736   -0.95858614    3.59058422
| 22> H    1.60676735   -1.53051016    5.24776445
| 23> C    1.11657832    0.59942211    5.01150276
| 24> H    2.07486831    1.07232104    4.80077847
| 25> H    0.92846303    0.68105965    6.08472589
| 26> C   -0.05077326    1.21223658    4.24073156
| 27> H    0.22353101    1.30101819    3.18725994
| 28> H   -0.33518769    2.20337771    4.59236557
| 29> C   -1.16771775    0.17466467    4.41175987
| 30> H   -1.89325703    0.19827853    3.60038796
| 31> H   -1.71180339    0.37936183    5.33400849
| 32> C   -0.44468141   -1.19188316    4.51541676
| 33> H   -0.68734596   -1.83603928    3.67205709
| 34> H   -0.75978764   -1.71928557    5.41450318
| 35> *
| 36>
| 37> $new_job
| 38> ! ri-mp2 aug-cc-pvtz aug-cc-pvtz/c tightscf
| 39> %pal nprocs 16 end
| 40> %maxcore 3800
| 41> %base "TZ_S66by10_42_1.05_dimer"
| 42>
| 43> *xyz 0 1
| 44> N    0.19572959   -0.84468925    0.82384642
| 45> H    0.45039753   -1.79675294    1.04976794
| 46> C   -1.17904919   -0.57368440    0.75948349
| 47> O   -1.99364624   -1.45626527    0.96690066
| 48> C   -1.47671471    0.81115567    0.43755952
| 49> H   -2.50635592    1.11565059    0.36389469
| 50> C   -0.46811280    1.68296245    0.23489084
| 51> H   -0.63843522    2.72164296   -0.00616410
| 52> N    0.84562854    1.30599113    0.32683051
| 53> H    1.58969256    1.96887924    0.18595979
| 54> C    1.25426147    0.01946187    0.63624397
| 55> O    2.42230438   -0.30171639    0.73187948
| 56> C    1.06226485   -0.86652990    4.57856678
| 57> H    1.51611736   -0.95858614    3.59058422
| 58> H    1.60676735   -1.53051016    5.24776445
| 59> C    1.11657832    0.59942211    5.01150276
| 60> H    2.07486831    1.07232104    4.80077847
| 61> H    0.92846303    0.68105965    6.08472589
| 62> C   -0.05077326    1.21223658    4.24073156
| 63> H    0.22353101    1.30101819    3.18725994
| 64> H   -0.33518769    2.20337771    4.59236557
| 65> C   -1.16771775    0.17466467    4.41175987
| 66> H   -1.89325703    0.19827853    3.60038796
| 67> H   -1.71180339    0.37936183    5.33400849
| 68> C   -0.44468141   -1.19188316    4.51541676
| 69> H   -0.68734596   -1.83603928    3.67205709
| 70> H   -0.75978764   -1.71928557    5.41450318
| 71> *
| 72>
| 73> $new_job
| 74> ! ri-mp2 aug-cc-pvqz aug-cc-pvqz/c tightscf
| 75> %pal nprocs 16 end
| 76> %maxcore 3800
| 77> %base "QZ_S66by10_42_1.05_dimer"
| 78>
| 79> *xyz 0 1
| 80> N    0.19572959   -0.84468925    0.82384642
| 81> H    0.45039753   -1.79675294    1.04976794
| 82> C   -1.17904919   -0.57368440    0.75948349
| 83> O   -1.99364624   -1.45626527    0.96690066
| 84> C   -1.47671471    0.81115567    0.43755952
| 85> H   -2.50635592    1.11565059    0.36389469
| 86> C   -0.46811280    1.68296245    0.23489084
| 87> H   -0.63843522    2.72164296   -0.00616410
| 88> N    0.84562854    1.30599113    0.32683051
| 89> H    1.58969256    1.96887924    0.18595979
| 90> C    1.25426147    0.01946187    0.63624397
| 91> O    2.42230438   -0.30171639    0.73187948
| 92> C    1.06226485   -0.86652990    4.57856678
| 93> H    1.51611736   -0.95858614    3.59058422
| 94> H    1.60676735   -1.53051016    5.24776445
| 95> C    1.11657832    0.59942211    5.01150276
| 96> H    2.07486831    1.07232104    4.80077847
| 97> H    0.92846303    0.68105965    6.08472589
| 98> C   -0.05077326    1.21223658    4.24073156
| 99> H    0.22353101    1.30101819    3.18725994
|100> H   -0.33518769    2.20337771    4.59236557
|101> C   -1.16771775    0.17466467    4.41175987
|102> H   -1.89325703    0.19827853    3.60038796
|103> H   -1.71180339    0.37936183    5.33400849
|104> C   -0.44468141   -1.19188316    4.51541676
|105> H   -0.68734596   -1.83603928    3.67205709
|106> H   -0.75978764   -1.71928557    5.41450318
|107> *
|108>
|109>
|110>
|111>
|112>                          ****END OF INPUT****
 Total Charge           Charge          ....    0
 Multiplicity           Mult            ....    1
 Number of Electrons    NEL             ....   98
MP2 TOTAL ENERGY:     -609.710891738 Eh
FINAL SINGLE POINT ENERGY      -609.710891738236
MP2 TOTAL ENERGY:     -610.245287457 Eh
FINAL SINGLE POINT ENERGY      -610.245287456577

CARTESIAN COORDINATES (ANGSTROEM)
---------------------------------
  N      0.195730   -0.844689    0.823846
  H      0.450398   -1.796753    1.049768
  C     -1.179049   -0.573684    0.759483
  O     -1.993646   -1.456265    0.966901
  C     -1.476715    0.811156    0.437560
  H     -2.506356    1.115651    0.363895
  C     -0.468113    1.682962    0.234891
  H     -0.638435    2.721643   -0.006164
  N      0.845629    1.305991    0.326831
  H      1.589693    1.968879    0.185960
  C      1.254261    0.019462    0.636244
  O      2.422304   -0.301716    0.731879
  C      1.062265   -0.866530    4.578567
  H      1.516117   -0.958586    3.590584
  H      1.606767   -1.530510    5.247764
  C      1.116578    0.599422    5.011503
  H      2.074868    1.072321    4.800778
  H      0.928463    0.681060    6.084726
  C     -0.050773    1.212237    4.240732
  H      0.223531    1.301018    3.187260
  H     -0.335188    2.203378    4.592366
  C     -1.167718    0.174665    4.411760
  H     -1.893257    0.198279    3.600388
  H     -1.711803    0.379362    5.334008
  C     -0.444681   -1.191883    4.515417
  H     -0.687346   -1.836039    3.672057
  H     -0.759788   -1.719286    5.414503

 Multiplicity           Mult            ....    1
 Number of Electrons    NEL             ....   98
 Basis Dimension        Dim             .... 1684

ORBITAL ENERGIES
----------------

  NO   OCC          E(Eh)            E(eV)
   0   2.0000     -20.546136      -559.0888
   1   2.0000     -20.540491      -558.9352
   2   2.0000     -15.643371      -425.6778
   3   2.0000     -15.626504      -425.2188
   4   2.0000     -11.419083      -310.7291
   5   2.0000     -11.381083      -309.6950
   6   2.0000     -11.340387      -308.5876
   7   2.0000     -11.255044      -306.2653
   8   2.0000     -11.211450      -305.0791
   9   2.0000     -11.208399      -304.9961
  10   2.0000     -11.207178      -304.9628
  11   2.0000     -11.205968      -304.9299
  12   2.0000     -11.204943      -304.9020
  13   2.0000      -1.437184       -39.1078
  14   2.0000      -1.399190       -38.0739
  15   2.0000      -1.314177       -35.7606
  16   2.0000      -1.246597       -33.9216
  17   2.0000      -1.115146       -30.3447
  18   2.0000      -1.089117       -29.6364
  19   2.0000      -0.955768       -26.0078
  20   2.0000      -0.954471       -25.9725
  21   2.0000      -0.934355       -25.4251
  22   2.0000      -0.902699       -24.5637
  23   2.0000      -0.808141       -21.9906
  24   2.0000      -0.777291       -21.1512
  25   2.0000      -0.767054       -20.8726
  26   2.0000      -0.764597       -20.8058
  27   2.0000      -0.715440       -19.4681
  28   2.0000      -0.679027       -18.4773
  29   2.0000      -0.673991       -18.3402
  30   2.0000      -0.654442       -17.8083
  31   2.0000      -0.646833       -17.6012
  32   2.0000      -0.643303       -17.5052
  33   2.0000      -0.616450       -16.7745
  34   2.0000      -0.602912       -16.4061
  35   2.0000      -0.577619       -15.7178
  36   2.0000      -0.569391       -15.4939
  37   2.0000      -0.563114       -15.3231
  38   2.0000      -0.526339       -14.3224
  39   2.0000      -0.485730       -13.2174
  40   2.0000      -0.474755       -12.9187
  41   2.0000      -0.473248       -12.8777
  42   2.0000      -0.461888       -12.5686
  43   2.0000      -0.461210       -12.5502
  44   2.0000      -0.458783       -12.4841
  45   2.0000      -0.451675       -12.2907
  46   2.0000      -0.446245       -12.1429
  47   2.0000      -0.438065       -11.9203
  48   2.0000      -0.370224       -10.0743
  49   0.0000       0.011676         0.3177
  50   0.0000       0.027890         0.7589
  51   0.0000       0.028698         0.7809
  52   0.0000       0.032362         0.8806
  53   0.0000       0.040136         1.0921

MULLIKEN ATOMIC CHARGES
-----------------------
   0 N :   -0.725602
   1 H :    0.079307
   2 C :    1.518975
   3 O :   -0.943366
   4 C :   -0.463604
   5 H :    0.228417
   6 C :   -0.150412
   7 H :    0.380029
   8 N :   -0.721668
   9 H :    0.082318
  10 C :    1.683364
  11 O :   -0.907113
  12 C :   -0.680589
  13 H :    0.334020
  14 H :    0.309411
  15 C :   -0.591028
  16 H :    0.332856
  17 H :    0.238725
  18 C :   -0.745415
  19 H :    0.428055
  20 H :    0.320059
  21 C :   -0.674502
  22 H :    0.398275
  23 H :    0.279446
  24 C :   -0.579032
  25 H :    0.257296
  26 H :    0.311779
Sum of atomic charges:    0.0000000

LOEWDIN ATOMIC CHARGES
----------------------
   0 N :    0.780828
   1 H :   -0.516423
   2 C :   -0.880060
   3 O :    0.702852
   4 C :    0.330963
   5 H :   -0.347292
   6 C :    0.233924
   7 H :   -0.292997
   8 N :    0.814797
   9 H :   -0.487472
  10 C :   -0.999257
  11 O :    0.704444
  12 C :    0.531085
  13 H :   -0.292076
  14 H :   -0.255649
  15 C :    0.529494
  16 H :   -0.253550
  17 H :   -0.261367
  18 C :    0.517004
  19 H :   -0.302903
  20 H :   -0.250963
  21 C :    0.539362
  22 H :   -0.278200
  23 H :   -0.266075
  24 C :    0.549328
  25 H :   -0.283598
  26 H :   -0.266199

  Mayer bond orders larger than 0.100000
B(  0-N ,  1-H ) :   1.1829 B(  0-N ,  2-C ) :   0.9373 B(  0-N ,  3-O ) :   0.2216
B(  0-N , 10-C ) :   1.0853 B(  0-N , 11-O ) :   0.2427 B(  2-C ,  3-O ) :   0.7821
B(  2-C ,  4-C ) :   1.0148 B(  3-O ,  4-C ) :   0.2339 B(  4-C ,  5-H ) :   1.0750
B(  4-C ,  6-C ) :   1.5600 B(  6-C ,  7-H ) :   0.9772 B(  6-C ,  8-N ) :   0.9031
B(  8-N ,  9-H ) :   1.2054 B(  8-N , 10-C ) :   0.9951 B(  8-N , 11-O ) :   0.2499
B( 10-C , 11-O ) :   0.8558 B( 12-C , 13-H ) :   0.8395 B( 12-C , 14-H ) :   0.9072
B( 12-C , 15-C ) :   0.9841 B( 12-C , 24-C ) :   0.9821 B( 15-C , 16-H ) :   0.8254
B( 15-C , 17-H ) :   0.9520 B( 15-C , 18-C ) :   1.0363 B( 18-C , 19-H ) :   0.7168
B( 18-C , 20-H ) :   0.9069 B( 18-C , 21-C ) :   0.9360 B( 21-C , 22-H ) :   0.7916
B( 21-C , 23-H ) :   0.9588 B( 21-C , 24-C ) :   0.9610 B( 24-C , 25-H ) :   0.9396
B( 24-C , 26-H ) :   0.9006

MP2 TOTAL ENERGY:     -610.416311096 Eh
FINAL SINGLE POINT ENERGY      -610.416311095676

DIPOLE MOMENT
-------------
                                X             Y             Z
Electronic contribution:      0.48762      -1.35301     -16.55666
Nuclear contribution   :     -0.48577       3.20937      16.11252
                        -----------------------------------------
Total Dipole Moment    :      0.00185       1.85636      -0.44414
                        -----------------------------------------
Magnitude (a.u.)       :      1.90876
Magnitude (Debye)      :      4.85167

Rotational constants in cm-1:     0.033767     0.019241     0.016764
Rotational constants in MHz :  1012.296335   576.826689   502.574569

                             ****ORCA TERMINATED NORMALLY****
TOTAL RUN TIME: 0 days 13 hours 5 minutes 19 seconds 404 msec
