                         Program Version 5.0.4 -  RELEASE  -
|  1> ! ri-mp2 aug-cc-pvdz aug-cc-pvdz/c tightscf
|  2> %pal nprocs 16 end
|  3> %maxcore 3800
|  4> %base "DZ_S66by10_62_1.25_dimer"
|  5> %scf STABPerform true end
|  6>
|  7> *xyz 0 1
|  8> C   -2.58777605   -0.32310566    0.46945828
|  9> H   -2.61038910   -0.87636604   -0.46961946
| 10> H   -2.65974410   -1.05188654    1.27771411
| 11> H   -3.47603507    0.30562460    0.50896129
| 12> C   -1.30955982    0.49739424    0.58506260
| 13> H   -1.31725060    1.08326190    1.50634108
| 14> H   -1.26237673    1.21557375   -0.23677617
| 15> C   -0.05682966   -0.36826029    0.55844017
| 16> H   -0.08617526   -1.07335882    1.39587537
| 17> H   -0.05380919   -0.97684333   -0.35147393
| 18> C    1.23159606    0.44006559    0.63203246
| 19> H    1.21328340    1.05356193    1.53459305
| 20> H    1.26629733    1.13137662   -0.21310563
| 21> C    2.47257523   -0.44314441    0.61922148
| 22> H    2.52071888   -1.03526342   -0.29489695
| 23> H    3.38773437    0.14408974    0.68390871
| 24> H    2.45929703   -1.13936423    1.45861821
| 25> C    0.05721560    0.23343720    4.82450245
| 26> O    0.08412786    1.41851068    4.53266126
| 27> N    1.18979587   -0.51844045    4.92732239
| 28> H    2.06073612   -0.09585993    4.65866014
| 29> H    1.15085790   -1.51032711    5.05874532
| 30> C   -1.23300539   -0.50550029    5.08895628
| 31> H   -1.08575538   -1.46622165    5.57608064
| 32> H   -1.73923291   -0.66380922    4.13814293
| 33> H   -1.87094933    0.12173614    5.70422813
| 34> *
| 35>
| 36> $new_job
| 37> ! ri-mp2 aug-cc-pvtz aug-cc-pvtz/c tightscf
| 38> %pal nprocs 16 end
| 39> %maxcore 3800
| 40> %base "TZ_S66by10_62_1.25_dimer"
| 41>
| 42> *xyz 0 1
| 43> C   -2.58777605   -0.32310566    0.46945828
| 44> H   -2.61038910   -0.87636604   -0.46961946
| 45> H   -2.65974410   -1.05188654    1.27771411
| 46> H   -3.47603507    0.30562460    0.50896129
| 47> C   -1.30955982    0.49739424    0.58506260
| 48> H   -1.31725060    1.08326190    1.50634108
| 49> H   -1.26237673    1.21557375   -0.23677617
| 50> C   -0.05682966   -0.36826029    0.55844017
| 51> H   -0.08617526   -1.07335882    1.39587537
| 52> H   -0.05380919   -0.97684333   -0.35147393
| 53> C    1.23159606    0.44006559    0.63203246
| 54> H    1.21328340    1.05356193    1.53459305
| 55> H    1.26629733    1.13137662   -0.21310563
| 56> C    2.47257523   -0.44314441    0.61922148
| 57> H    2.52071888   -1.03526342   -0.29489695
| 58> H    3.38773437    0.14408974    0.68390871
| 59> H    2.45929703   -1.13936423    1.45861821
| 60> C    0.05721560    0.23343720    4.82450245
| 61> O    0.08412786    1.41851068    4.53266126
| 62> N    1.18979587   -0.51844045    4.92732239
| 63> H    2.06073612   -0.09585993    4.65866014
| 64> H    1.15085790   -1.51032711    5.05874532
| 65> C   -1.23300539   -0.50550029    5.08895628
| 66> H   -1.08575538   -1.46622165    5.57608064
| 67> H   -1.73923291   -0.66380922    4.13814293
| 68> H   -1.87094933    0.12173614    5.70422813
| 69> *
| 70>
| 71> $new_job
| 72> ! ri-mp2 aug-cc-pvqz aug-cc-pvqz/c tightscf
| 73> %pal nprocs 16 end
| 74> %maxcore 3800
| 75> %base "QZ_S66by10_62_1.25_dimer"
| 76>
| 77> *xyz 0 1
| 78> C   -2.58777605   -0.32310566    0.46945828
| 79> H   -2.61038910   -0.87636604   -0.46961946
| 80> H   -2.65974410   -1.05188654    1.27771411
| 81> H   -3.47603507    0.30562460    0.50896129
| 82> C   -1.30955982    0.49739424    0.58506260
| 83> H   -1.31725060    1.08326190    1.50634108
| 84> H   -1.26237673    1.21557375   -0.23677617
| 85> C   -0.05682966   -0.36826029    0.55844017
| 86> H   -0.08617526   -1.07335882    1.39587537
| 87> H   -0.05380919   -0.97684333   -0.35147393
| 88> C    1.23159606    0.44006559    0.63203246
| 89> H    1.21328340    1.05356193    1.53459305
| 90> H    1.26629733    1.13137662   -0.21310563
| 91> C    2.47257523   -0.44314441    0.61922148
| 92> H    2.52071888   -1.03526342   -0.29489695
| 93> H    3.38773437    0.14408974    0.68390871
| 94> H    2.45929703   -1.13936423    1.45861821
| 95> C    0.05721560    0.23343720    4.82450245
| 96> O    0.08412786    1.41851068    4.53266126
| 97> N    1.18979587   -0.51844045    4.92732239
| 98> H    2.06073612   -0.09585993    4.65866014
| 99> H    1.15085790   -1.51032711    5.05874532
|100> C   -1.23300539   -0.50550029    5.08895628
|101> H   -1.08575538   -1.46622165    5.57608064
|102> H   -1.73923291   -0.66380922    4.13814293
|103> H   -1.87094933    0.12173614    5.70422813
|104> *
|105>
|106>
|107>
|108>
|109>                          ****END OF INPUT****
 Total Charge           Charge          ....    0
 Multiplicity           Mult            ....    1
 Number of Electrons    NEL             ....   74
MP2 TOTAL ENERGY:     -405.786790611 Eh
FINAL SINGLE POINT ENERGY      -405.786790611181
MP2 TOTAL ENERGY:     -406.168688132 Eh
FINAL SINGLE POINT ENERGY      -406.168688131563

CARTESIAN COORDINATES (ANGSTROEM)
---------------------------------
  C     -2.587776   -0.323106    0.469458
  H     -2.610389   -0.876366   -0.469619
  H     -2.659744   -1.051887    1.277714
  H     -3.476035    0.305625    0.508961
  C     -1.309560    0.497394    0.585063
  H     -1.317251    1.083262    1.506341
  H     -1.262377    1.215574   -0.236776
  C     -0.056830   -0.368260    0.558440
  H     -0.086175   -1.073359    1.395875
  H     -0.053809   -0.976843   -0.351474
  C      1.231596    0.440066    0.632032
  H      1.213283    1.053562    1.534593
  H      1.266297    1.131377   -0.213106
  C      2.472575   -0.443144    0.619221
  H      2.520719   -1.035263   -0.294897
  H      3.387734    0.144090    0.683909
  H      2.459297   -1.139364    1.458618
  C      0.057216    0.233437    4.824502
  O      0.084128    1.418511    4.532661
  N      1.189796   -0.518440    4.927322
  H      2.060736   -0.095860    4.658660
  H      1.150858   -1.510327    5.058745
  C     -1.233005   -0.505500    5.088956
  H     -1.085755   -1.466222    5.576081
  H     -1.739233   -0.663809    4.138143
  H     -1.870949    0.121736    5.704228

 Multiplicity           Mult            ....    1
 Number of Electrons    NEL             ....   74
 Basis Dimension        Dim             .... 1502

ORBITAL ENERGIES
----------------

  NO   OCC          E(Eh)            E(eV)
   0   2.0000     -20.515938      -558.2671
   1   2.0000     -15.586951      -424.1425
   2   2.0000     -11.354552      -308.9731
   3   2.0000     -11.238095      -305.8041
   4   2.0000     -11.207338      -304.9672
   5   2.0000     -11.206451      -304.9430
   6   2.0000     -11.206255      -304.9377
   7   2.0000     -11.205642      -304.9210
   8   2.0000     -11.204925      -304.9015
   9   2.0000      -1.379276       -37.5320
  10   2.0000      -1.215493       -33.0752
  11   2.0000      -1.077796       -29.3283
  12   2.0000      -1.012539       -27.5526
  13   2.0000      -1.008235       -27.4355
  14   2.0000      -0.917134       -24.9565
  15   2.0000      -0.817139       -22.2355
  16   2.0000      -0.802236       -21.8300
  17   2.0000      -0.781612       -21.2688
  18   2.0000      -0.730021       -19.8649
  19   2.0000      -0.667029       -18.1508
  20   2.0000      -0.644973       -17.5506
  21   2.0000      -0.617514       -16.8034
  22   2.0000      -0.595978       -16.2174
  23   2.0000      -0.590486       -16.0679
  24   2.0000      -0.588407       -16.0114
  25   2.0000      -0.564711       -15.3666
  26   2.0000      -0.551700       -15.0125
  27   2.0000      -0.546300       -14.8656
  28   2.0000      -0.527305       -14.3487
  29   2.0000      -0.524128       -14.2623
  30   2.0000      -0.492392       -13.3987
  31   2.0000      -0.473018       -12.8715
  32   2.0000      -0.458789       -12.4843
  33   2.0000      -0.455994       -12.4082
  34   2.0000      -0.443855       -12.0779
  35   2.0000      -0.427508       -11.6331
  36   2.0000      -0.417668       -11.3653
  37   0.0000       0.018660         0.5078
  38   0.0000       0.027868         0.7583
  39   0.0000       0.030585         0.8323
  40   0.0000       0.033923         0.9231
  41   0.0000       0.039520         1.0754

MULLIKEN ATOMIC CHARGES
-----------------------
   0 C :   -0.978142
   1 H :    0.241875
   2 H :    0.262550
   3 H :    0.255882
   4 C :   -0.545539
   5 H :    0.302212
   6 H :    0.313601
   7 C :   -0.345502
   8 H :    0.266343
   9 H :    0.363256
  10 C :   -0.558762
  11 H :    0.290318
  12 H :    0.311056
  13 C :   -0.968203
  14 H :    0.252699
  15 H :    0.253013
  16 H :    0.260844
  17 C :    1.060390
  18 O :   -0.908669
  19 N :   -0.790439
  20 H :    0.290496
  21 H :    0.303174
  22 C :   -0.843330
  23 H :    0.280912
  24 H :    0.343317
  25 H :    0.286648
Sum of atomic charges:    0.0000000

LOEWDIN ATOMIC CHARGES
----------------------
   0 C :    0.925231
   1 H :   -0.285791
   2 H :   -0.291033
   3 H :   -0.282546
   4 C :    0.503126
   5 H :   -0.277028
   6 H :   -0.270801
   7 C :    0.484559
   8 H :   -0.276031
   9 H :   -0.267419
  10 C :    0.502106
  11 H :   -0.280451
  12 H :   -0.270184
  13 C :    0.924036
  14 H :   -0.285551
  15 H :   -0.283056
  16 H :   -0.291684
  17 C :   -0.855106
  18 O :    0.681060
  19 N :    1.240040
  20 H :   -0.501770
  21 H :   -0.505759
  22 C :    0.881870
  23 H :   -0.310331
  24 H :   -0.301401
  25 H :   -0.306086

  Mayer bond orders larger than 0.100000
B(  0-C ,  1-H ) :   0.9765 B(  0-C ,  2-H ) :   0.9096 B(  0-C ,  3-H ) :   1.0367
B(  0-C ,  4-C ) :   0.9840 B(  3-H ,  4-C ) :  -0.1005 B(  4-C ,  5-H ) :   0.8399
B(  4-C ,  6-H ) :   0.8497 B(  4-C ,  7-C ) :   0.8129 B(  7-C ,  8-H ) :   0.8654
B(  7-C ,  9-H ) :   0.8312 B(  7-C , 10-C ) :   0.8324 B( 10-C , 11-H ) :   0.8463
B( 10-C , 12-H ) :   0.8509 B( 10-C , 13-C ) :   0.9967 B( 13-C , 14-H ) :   0.9614
B( 13-C , 15-H ) :   1.0406 B( 13-C , 16-H ) :   0.9173 B( 17-C , 18-O ) :   1.1627
B( 17-C , 19-N ) :   1.0180 B( 17-C , 22-C ) :   0.9071 B( 18-O , 19-N ) :   0.1372
B( 19-N , 20-H ) :   0.9156 B( 19-N , 21-H ) :   0.9062 B( 22-C , 23-H ) :   0.9947
B( 22-C , 24-H ) :   0.8081 B( 22-C , 25-H ) :   0.9591

MP2 TOTAL ENERGY:     -406.286572694 Eh
FINAL SINGLE POINT ENERGY      -406.286572693785

DIPOLE MOMENT
-------------
                                X             Y             Z
Electronic contribution:      1.98530       3.63146      10.04167
Nuclear contribution   :     -1.81491      -5.11655      -9.76423
                        -----------------------------------------
Total Dipole Moment    :      0.17039      -1.48509       0.27744
                        -----------------------------------------
Magnitude (a.u.)       :      1.52036
Magnitude (Debye)      :      3.86445

Rotational constants in cm-1:     0.046025     0.025107     0.018609
Rotational constants in MHz :  1379.780171   752.702102   557.890285

                             ****ORCA TERMINATED NORMALLY****
TOTAL RUN TIME: 0 days 7 hours 49 minutes 30 seconds 689 msec
