                         Program Version 5.0.4 -  RELEASE  -
|  1> ! ri-mp2 aug-cc-pvdz aug-cc-pvdz/c tightscf
|  2> %pal nprocs 16 end
|  3> %maxcore 3800
|  4> %base "DZ_S66by10_60_2.0_dimer"
|  5> %scf STABPerform true end
|  6>
|  7> *xyz 0 1
|  8> C   -0.61056257    0.22750310   -0.17060207
|  9> H    0.10738506    0.86143603   -0.63420924
| 10> C   -1.38627573   -0.52532550    0.37997353
| 11> H   -2.08070324   -1.17406739    0.85437937
| 12> C    4.91571571   -1.56646067    1.14582035
| 13> O    4.66153665   -0.61035842    0.44698261
| 14> O    3.96781109   -2.34080090    1.71350696
| 15> H    3.10681170   -1.97350191    1.44573582
| 16> C    6.29135086   -2.04791050    1.49597126
| 17> H    7.02973667   -1.41036041    1.02512094
| 18> H    6.41756138   -2.03605577    2.57600659
| 19> H    6.41362800   -3.07575505    1.16273693
| 20> *
| 21>
| 22> $new_job
| 23> ! ri-mp2 aug-cc-pvtz aug-cc-pvtz/c tightscf
| 24> %pal nprocs 16 end
| 25> %maxcore 3800
| 26> %base "TZ_S66by10_60_2.0_dimer"
| 27>
| 28> *xyz 0 1
| 29> C   -0.61056257    0.22750310   -0.17060207
| 30> H    0.10738506    0.86143603   -0.63420924
| 31> C   -1.38627573   -0.52532550    0.37997353
| 32> H   -2.08070324   -1.17406739    0.85437937
| 33> C    4.91571571   -1.56646067    1.14582035
| 34> O    4.66153665   -0.61035842    0.44698261
| 35> O    3.96781109   -2.34080090    1.71350696
| 36> H    3.10681170   -1.97350191    1.44573582
| 37> C    6.29135086   -2.04791050    1.49597126
| 38> H    7.02973667   -1.41036041    1.02512094
| 39> H    6.41756138   -2.03605577    2.57600659
| 40> H    6.41362800   -3.07575505    1.16273693
| 41> *
| 42>
| 43> $new_job
| 44> ! ri-mp2 aug-cc-pvqz aug-cc-pvqz/c tightscf
| 45> %pal nprocs 16 end
| 46> %maxcore 3800
| 47> %base "QZ_S66by10_60_2.0_dimer"
| 48>
| 49> *xyz 0 1
| 50> C   -0.61056257    0.22750310   -0.17060207
| 51> H    0.10738506    0.86143603   -0.63420924
| 52> C   -1.38627573   -0.52532550    0.37997353
| 53> H   -2.08070324   -1.17406739    0.85437937
| 54> C    4.91571571   -1.56646067    1.14582035
| 55> O    4.66153665   -0.61035842    0.44698261
| 56> O    3.96781109   -2.34080090    1.71350696
| 57> H    3.10681170   -1.97350191    1.44573582
| 58> C    6.29135086   -2.04791050    1.49597126
| 59> H    7.02973667   -1.41036041    1.02512094
| 60> H    6.41756138   -2.03605577    2.57600659
| 61> H    6.41362800   -3.07575505    1.16273693
| 62> *
| 63>
| 64>
| 65>
| 66>
| 67>                          ****END OF INPUT****
 Total Charge           Charge          ....    0
 Multiplicity           Mult            ....    1
 Number of Electrons    NEL             ....   46
MP2 TOTAL ENERGY:     -305.616759094 Eh
FINAL SINGLE POINT ENERGY      -305.616759093902
MP2 TOTAL ENERGY:     -305.887399480 Eh
FINAL SINGLE POINT ENERGY      -305.887399480161

CARTESIAN COORDINATES (ANGSTROEM)
---------------------------------
  C     -0.610563    0.227503   -0.170602
  H      0.107385    0.861436   -0.634209
  C     -1.386276   -0.525326    0.379974
  H     -2.080703   -1.174067    0.854379
  C      4.915716   -1.566461    1.145820
  O      4.661537   -0.610358    0.446983
  O      3.967811   -2.340801    1.713507
  H      3.106812   -1.973502    1.445736
  C      6.291351   -2.047910    1.495971
  H      7.029737   -1.410360    1.025121
  H      6.417561   -2.036056    2.576007
  H      6.413628   -3.075755    1.162737

 Multiplicity           Mult            ....    1
 Number of Electrons    NEL             ....   46
 Basis Dimension        Dim             ....  756

ORBITAL ENERGIES
----------------

  NO   OCC          E(Eh)            E(eV)
   0   2.0000     -20.613665      -560.9264
   1   2.0000     -20.548106      -559.1424
   2   2.0000     -11.388878      -309.9071
   3   2.0000     -11.246717      -306.0387
   4   2.0000     -11.243707      -305.9568
   5   2.0000     -11.243089      -305.9400
   6   2.0000      -1.465378       -39.8750
   7   2.0000      -1.360545       -37.0223
   8   2.0000      -1.029195       -28.0058
   9   2.0000      -1.028299       -27.9814
  10   2.0000      -0.825315       -22.4580
  11   2.0000      -0.769317       -20.9342
  12   2.0000      -0.706677       -19.2297
  13   2.0000      -0.681359       -18.5407
  14   2.0000      -0.681253       -18.5378
  15   2.0000      -0.652381       -17.7522
  16   2.0000      -0.584542       -15.9062
  17   2.0000      -0.574594       -15.6355
  18   2.0000      -0.563019       -15.3205
  19   2.0000      -0.483910       -13.1679
  20   2.0000      -0.455872       -12.4049
  21   2.0000      -0.409817       -11.1517
  22   2.0000      -0.409571       -11.1450
  23   0.0000       0.023863         0.6493
  24   0.0000       0.028539         0.7766
  25   0.0000       0.036162         0.9840
  26   0.0000       0.040649         1.1061
  27   0.0000       0.043418         1.1815

MULLIKEN ATOMIC CHARGES
-----------------------
   0 C :   -0.612957
   1 H :    0.621646
   2 C :   -0.619262
   3 H :    0.610319
   4 C :    0.920206
   5 O :   -0.699251
   6 O :   -0.654276
   7 H :    0.350657
   8 C :   -0.773429
   9 H :    0.288952
  10 H :    0.283808
  11 H :    0.283588
Sum of atomic charges:    0.0000000

LOEWDIN ATOMIC CHARGES
----------------------
   0 C :    0.480520
   1 H :   -0.477264
   2 C :    0.479341
   3 H :   -0.482448
   4 C :   -1.037469
   5 O :    0.681457
   6 O :    1.238730
   7 H :   -0.809726
   8 C :    0.862629
   9 H :   -0.325265
  10 H :   -0.305174
  11 H :   -0.305330

  Mayer bond orders larger than 0.100000
B(  0-C ,  1-H ) :   0.6293 B(  0-C ,  2-C ) :   2.6514 B(  2-C ,  3-H ) :   0.6493
B(  4-C ,  5-O ) :   1.5443 B(  4-C ,  6-O ) :   0.9145 B(  4-C ,  8-C ) :   0.9572
B(  6-O ,  7-H ) :   0.8783 B(  8-C ,  9-H ) :   0.9658 B(  8-C , 10-H ) :   0.9172
B(  8-C , 11-H ) :   0.9181

MP2 TOTAL ENERGY:     -305.974160030 Eh
FINAL SINGLE POINT ENERGY      -305.974160030149

DIPOLE MOMENT
-------------
                                X             Y             Z
Electronic contribution:     -1.91207       0.90609      -0.65815
Nuclear contribution   :      2.08721      -1.53177       1.11531
                        -----------------------------------------
Total Dipole Moment    :      0.17513      -0.62568       0.45716
                        -----------------------------------------
Magnitude (a.u.)       :      0.79444
Magnitude (Debye)      :      2.01931

Rotational constants in cm-1:     0.295159     0.022316     0.020827
Rotational constants in MHz :  8848.651438   669.006628   624.365984

                             ****ORCA TERMINATED NORMALLY****
TOTAL RUN TIME: 0 days 0 hours 19 minutes 25 seconds 462 msec
