                         Program Version 5.0.4 -  RELEASE  -
|  1> ! ri-mp2 aug-cc-pvdz aug-cc-pvdz/c tightscf
|  2> %pal nprocs 16 end
|  3> %maxcore 3800
|  4> %base "DZ_S66by10_28_1.0_dimer"
|  5>
|  6> *xyz 0 1
|  7> C    0.82576911    1.23652484   -0.04025044
|  8> H    1.52101317    2.06312520   -0.08247145
|  9> C    1.30015992   -0.06294088    0.12725601
| 10> H    2.36365753   -0.24226113    0.20767420
| 11> C    0.40352312   -1.12855218    0.19824486
| 12> H    0.77375338   -2.13742677    0.32412109
| 13> C   -0.96780949   -0.89519049    0.10313994
| 14> H   -1.66520900   -1.71998342    0.16042745
| 15> C   -1.44350838    0.40448328   -0.06244130
| 16> H   -2.50751124    0.58550112   -0.12415016
| 17> C   -0.54575549    1.46876875   -0.13624741
| 18> H   -0.91422190    2.47742220   -0.26785516
| 19> N   -0.27580415    0.67418327    3.19426525
| 20> H   -0.64911155    1.57594470    2.93137228
| 21> C    1.11634253    0.60119637    3.32627859
| 22> O    1.80725285    1.59562006    3.18144452
| 23> C    1.59524264   -0.73288134    3.64438879
| 24> H    2.65229474   -0.88509728    3.77850992
| 25> C    0.71553342   -1.74726252    3.77060531
| 26> H    1.02146094   -2.75568313    4.00712967
| 27> N   -0.62971247   -1.56223060    3.60051317
| 28> H   -1.27846030   -2.32478954    3.69938234
| 29> C   -1.20416078   -0.33742957    3.30109855
| 30> O   -2.40194919   -0.18660629    3.15898636
| 31> *
| 32>
| 33> $new_job
| 34> ! ri-mp2 aug-cc-pvtz aug-cc-pvtz/c tightscf
| 35> %pal nprocs 16 end
| 36> %maxcore 3800
| 37> %base "TZ_S66by10_28_1.0_dimer"
| 38>
| 39> *xyz 0 1
| 40> C    0.82576911    1.23652484   -0.04025044
| 41> H    1.52101317    2.06312520   -0.08247145
| 42> C    1.30015992   -0.06294088    0.12725601
| 43> H    2.36365753   -0.24226113    0.20767420
| 44> C    0.40352312   -1.12855218    0.19824486
| 45> H    0.77375338   -2.13742677    0.32412109
| 46> C   -0.96780949   -0.89519049    0.10313994
| 47> H   -1.66520900   -1.71998342    0.16042745
| 48> C   -1.44350838    0.40448328   -0.06244130
| 49> H   -2.50751124    0.58550112   -0.12415016
| 50> C   -0.54575549    1.46876875   -0.13624741
| 51> H   -0.91422190    2.47742220   -0.26785516
| 52> N   -0.27580415    0.67418327    3.19426525
| 53> H   -0.64911155    1.57594470    2.93137228
| 54> C    1.11634253    0.60119637    3.32627859
| 55> O    1.80725285    1.59562006    3.18144452
| 56> C    1.59524264   -0.73288134    3.64438879
| 57> H    2.65229474   -0.88509728    3.77850992
| 58> C    0.71553342   -1.74726252    3.77060531
| 59> H    1.02146094   -2.75568313    4.00712967
| 60> N   -0.62971247   -1.56223060    3.60051317
| 61> H   -1.27846030   -2.32478954    3.69938234
| 62> C   -1.20416078   -0.33742957    3.30109855
| 63> O   -2.40194919   -0.18660629    3.15898636
| 64> *
| 65>
| 66> $new_job
| 67> ! ri-mp2 aug-cc-pvqz aug-cc-pvqz/c tightscf
| 68> %pal nprocs 16 end
| 69> %maxcore 3800
| 70> %base "QZ_S66by10_28_1.0_dimer"
| 71>
| 72> *xyz 0 1
| 73> C    0.82576911    1.23652484   -0.04025044
| 74> H    1.52101317    2.06312520   -0.08247145
| 75> C    1.30015992   -0.06294088    0.12725601
| 76> H    2.36365753   -0.24226113    0.20767420
| 77> C    0.40352312   -1.12855218    0.19824486
| 78> H    0.77375338   -2.13742677    0.32412109
| 79> C   -0.96780949   -0.89519049    0.10313994
| 80> H   -1.66520900   -1.71998342    0.16042745
| 81> C   -1.44350838    0.40448328   -0.06244130
| 82> H   -2.50751124    0.58550112   -0.12415016
| 83> C   -0.54575549    1.46876875   -0.13624741
| 84> H   -0.91422190    2.47742220   -0.26785516
| 85> N   -0.27580415    0.67418327    3.19426525
| 86> H   -0.64911155    1.57594470    2.93137228
| 87> C    1.11634253    0.60119637    3.32627859
| 88> O    1.80725285    1.59562006    3.18144452
| 89> C    1.59524264   -0.73288134    3.64438879
| 90> H    2.65229474   -0.88509728    3.77850992
| 91> C    0.71553342   -1.74726252    3.77060531
| 92> H    1.02146094   -2.75568313    4.00712967
| 93> N   -0.62971247   -1.56223060    3.60051317
| 94> H   -1.27846030   -2.32478954    3.69938234
| 95> C   -1.20416078   -0.33742957    3.30109855
| 96> O   -2.40194919   -0.18660629    3.15898636
| 97> *
| 98>
| 99>
|100>
|101>
|102>                          ****END OF INPUT****
 Total Charge           Charge          ....    0
 Multiplicity           Mult            ....    1
 Number of Electrons    NEL             ....  100
MP2 TOTAL ENERGY:     -645.334772003 Eh
FINAL SINGLE POINT ENERGY      -645.334772003087
MP2 TOTAL ENERGY:     -645.884753419 Eh
FINAL SINGLE POINT ENERGY      -645.884753419086

CARTESIAN COORDINATES (ANGSTROEM)
---------------------------------
  C      0.825769    1.236525   -0.040250
  H      1.521013    2.063125   -0.082471
  C      1.300160   -0.062941    0.127256
  H      2.363658   -0.242261    0.207674
  C      0.403523   -1.128552    0.198245
  H      0.773753   -2.137427    0.324121
  C     -0.967809   -0.895190    0.103140
  H     -1.665209   -1.719983    0.160427
  C     -1.443508    0.404483   -0.062441
  H     -2.507511    0.585501   -0.124150
  C     -0.545755    1.468769   -0.136247
  H     -0.914222    2.477422   -0.267855
  N     -0.275804    0.674183    3.194265
  H     -0.649112    1.575945    2.931372
  C      1.116343    0.601196    3.326279
  O      1.807253    1.595620    3.181445
  C      1.595243   -0.732881    3.644389
  H      2.652295   -0.885097    3.778510
  C      0.715533   -1.747263    3.770605
  H      1.021461   -2.755683    4.007130
  N     -0.629712   -1.562231    3.600513
  H     -1.278460   -2.324790    3.699382
  C     -1.204161   -0.337430    3.301099
  O     -2.401949   -0.186606    3.158986

 Multiplicity           Mult            ....    1
 Number of Electrons    NEL             ....  100
 Basis Dimension        Dim             .... 1580

ORBITAL ENERGIES
----------------

  NO   OCC          E(Eh)            E(eV)
   0   2.0000     -20.536587      -558.8290
   1   2.0000     -20.531338      -558.6861
   2   2.0000     -15.635196      -425.4553
   3   2.0000     -15.615514      -424.9197
   4   2.0000     -11.409931      -310.4800
   5   2.0000     -11.372294      -309.4558
   6   2.0000     -11.332626      -308.3764
   7   2.0000     -11.247705      -306.0656
   8   2.0000     -11.236942      -305.7727
   9   2.0000     -11.234224      -305.6988
  10   2.0000     -11.233577      -305.6812
  11   2.0000     -11.233004      -305.6656
  12   2.0000     -11.232458      -305.6507
  13   2.0000     -11.231692      -305.6299
  14   2.0000      -1.427995       -38.8577
  15   2.0000      -1.390064       -37.8256
  16   2.0000      -1.305701       -35.5299
  17   2.0000      -1.237664       -33.6785
  18   2.0000      -1.150768       -31.3140
  19   2.0000      -1.081093       -29.4180
  20   2.0000      -1.015414       -27.6308
  21   2.0000      -1.014569       -27.6078
  22   2.0000      -0.926144       -25.2017
  23   2.0000      -0.894153       -24.3311
  24   2.0000      -0.824480       -22.4352
  25   2.0000      -0.823804       -22.4168
  26   2.0000      -0.800192       -21.7743
  27   2.0000      -0.758020       -20.6268
  28   2.0000      -0.709946       -19.3186
  29   2.0000      -0.707371       -19.2485
  30   2.0000      -0.671069       -18.2607
  31   2.0000      -0.663032       -18.0420
  32   2.0000      -0.646338       -17.5878
  33   2.0000      -0.643998       -17.5241
  34   2.0000      -0.619095       -16.8464
  35   2.0000      -0.608584       -16.5604
  36   2.0000      -0.595217       -16.1967
  37   2.0000      -0.588672       -16.0186
  38   2.0000      -0.587668       -15.9913
  39   2.0000      -0.565021       -15.3750
  40   2.0000      -0.520718       -14.1694
  41   2.0000      -0.500822       -13.6281
  42   2.0000      -0.494939       -13.4680
  43   2.0000      -0.494550       -13.4574
  44   2.0000      -0.476353       -12.9622
  45   2.0000      -0.442728       -12.0472
  46   2.0000      -0.429412       -11.6849
  47   2.0000      -0.363534        -9.8923
  48   2.0000      -0.338535        -9.2120
  49   2.0000      -0.335532        -9.1303
  50   0.0000       0.012556         0.3417
  51   0.0000       0.028142         0.7658
  52   0.0000       0.031030         0.8444
  53   0.0000       0.032350         0.8803
  54   0.0000       0.039890         1.0855

MULLIKEN ATOMIC CHARGES
-----------------------
   0 C :   -0.280880
   1 H :    0.314939
   2 C :   -0.276009
   3 H :    0.265071
   4 C :   -0.268135
   5 H :    0.327072
   6 C :   -0.299473
   7 H :    0.279424
   8 C :   -0.275010
   9 H :    0.290608
  10 C :   -0.363822
  11 H :    0.329252
  12 N :   -0.785355
  13 H :    0.110875
  14 C :    1.405330
  15 O :   -0.937906
  16 C :   -0.411520
  17 H :    0.233622
  18 C :   -0.207058
  19 H :    0.399647
  20 N :   -0.697537
  21 H :    0.066435
  22 C :    1.697557
  23 O :   -0.917126
Sum of atomic charges:   -0.0000000

LOEWDIN ATOMIC CHARGES
----------------------
   0 C :    0.319626
   1 H :   -0.314837
   2 C :    0.310179
   3 H :   -0.314371
   4 C :    0.312900
   5 H :   -0.318059
   6 C :    0.309086
   7 H :   -0.316883
   8 C :    0.319004
   9 H :   -0.315596
  10 C :    0.329856
  11 H :   -0.319031
  12 N :    0.777846
  13 H :   -0.520028
  14 C :   -0.893264
  15 O :    0.702618
  16 C :    0.325511
  17 H :   -0.347282
  18 C :    0.229213
  19 H :   -0.294045
  20 N :    0.814603
  21 H :   -0.487969
  22 C :   -1.019046
  23 O :    0.709969

  Mayer bond orders larger than 0.100000
B(  0-C ,  1-H ) :   1.0341 B(  0-C ,  2-C ) :   1.2137 B(  0-C ,  6-C ) :   0.1767
B(  0-C , 10-C ) :   1.2374 B(  2-C ,  3-H ) :   1.0824 B(  2-C ,  4-C ) :   1.1569
B(  2-C ,  8-C ) :   0.1751 B(  4-C ,  5-H ) :   0.9837 B(  4-C ,  6-C ) :   1.2089
B(  4-C , 10-C ) :   0.1805 B(  6-C ,  7-H ) :   1.0757 B(  6-C ,  8-C ) :   1.1779
B(  8-C ,  9-H ) :   1.0726 B(  8-C , 10-C ) :   1.2577 B( 10-C , 11-H ) :   1.0231
B( 12-N , 13-H ) :   1.1701 B( 12-N , 14-C ) :   0.9779 B( 12-N , 15-O ) :   0.2280
B( 12-N , 22-C ) :   1.0486 B( 12-N , 23-O ) :   0.2483 B( 14-C , 15-O ) :   0.8168
B( 14-C , 16-C ) :   1.0550 B( 15-O , 16-C ) :   0.2251 B( 16-C , 17-H ) :   1.0578
B( 16-C , 18-C ) :   1.5603 B( 18-C , 19-H ) :   0.9582 B( 18-C , 20-N ) :   0.8835
B( 20-N , 21-H ) :   1.2131 B( 20-N , 22-C ) :   0.9974 B( 20-N , 23-O ) :   0.2260
B( 22-C , 23-O ) :   0.8050

MP2 TOTAL ENERGY:     -646.063555785 Eh
FINAL SINGLE POINT ENERGY      -646.063555784760

DIPOLE MOMENT
-------------
                                X             Y             Z
Electronic contribution:     -0.97373       0.99016       5.37004
Nuclear contribution   :      1.18805      -2.76195      -5.07842
                        -----------------------------------------
Total Dipole Moment    :      0.21432      -1.77178       0.29162
                        -----------------------------------------
Magnitude (a.u.)       :      1.80837
Magnitude (Debye)      :      4.59651

Rotational constants in cm-1:     0.031926     0.022688     0.018883
Rotational constants in MHz :   957.114815   680.171548   566.103664

                             ****ORCA TERMINATED NORMALLY****
TOTAL RUN TIME: 0 days 2 hours 18 minutes 38 seconds 743 msec
