                         Program Version 5.0.4 -  RELEASE  -
|  1> ! ri-mp2 aug-cc-pvdz aug-cc-pvdz/c tightscf
|  2> %pal nprocs 16 end
|  3> %maxcore 3800
|  4> %base "DZ_S66by10_61_0.9_dimer"
|  5> %scf STABPerform true end
|  6>
|  7> *xyz 0 1
|  8> C   -2.27534498   -0.13507494    0.83133387
|  9> H   -2.49071776   -0.72792669   -0.05756635
| 10> H   -2.22632382   -0.81844641    1.67882341
| 11> H   -3.11202566    0.54494342    0.98740008
| 12> C   -0.96169812    0.61927789    0.66939920
| 13> H   -0.78869920    1.25043181    1.54470266
| 14> H   -1.02617687    1.29544524   -0.18645838
| 15> C    0.22650217   -0.31471031    0.47998579
| 16> H    0.30944439   -0.97513911    1.34803794
| 17> H    0.03915056   -0.96599875   -0.37878983
| 18> C    1.54300168    0.42117452    0.26899951
| 19> H    1.71163863    1.10777177    1.10244654
| 20> H    1.46609466    1.04374331   -0.62529358
| 21> C    2.72757632   -0.52686091    0.13745931
| 22> H    2.58874155   -1.20321391   -0.70575734
| 23> H    3.66150100    0.01169308   -0.01596863
| 24> H    2.83519407   -1.13740994    1.03407512
| 25> C   -0.45217153   -0.27972030    3.96050703
| 26> O   -0.87478547   -1.39490055    3.76336045
| 27> O   -1.26586389    0.77924521    4.19309651
| 28> H   -2.16662600    0.42486468    4.15256077
| 29> C    0.98809553    0.12994578    3.97771241
| 30> H    1.61391859   -0.74023517    3.81955725
| 31> H    1.16413294    0.86421941    3.19458783
| 32> H    1.22540678    0.59924673    4.92951480
| 33> *
| 34>
| 35> $new_job
| 36> ! ri-mp2 aug-cc-pvtz aug-cc-pvtz/c tightscf
| 37> %pal nprocs 16 end
| 38> %maxcore 3800
| 39> %base "TZ_S66by10_61_0.9_dimer"
| 40>
| 41> *xyz 0 1
| 42> C   -2.27534498   -0.13507494    0.83133387
| 43> H   -2.49071776   -0.72792669   -0.05756635
| 44> H   -2.22632382   -0.81844641    1.67882341
| 45> H   -3.11202566    0.54494342    0.98740008
| 46> C   -0.96169812    0.61927789    0.66939920
| 47> H   -0.78869920    1.25043181    1.54470266
| 48> H   -1.02617687    1.29544524   -0.18645838
| 49> C    0.22650217   -0.31471031    0.47998579
| 50> H    0.30944439   -0.97513911    1.34803794
| 51> H    0.03915056   -0.96599875   -0.37878983
| 52> C    1.54300168    0.42117452    0.26899951
| 53> H    1.71163863    1.10777177    1.10244654
| 54> H    1.46609466    1.04374331   -0.62529358
| 55> C    2.72757632   -0.52686091    0.13745931
| 56> H    2.58874155   -1.20321391   -0.70575734
| 57> H    3.66150100    0.01169308   -0.01596863
| 58> H    2.83519407   -1.13740994    1.03407512
| 59> C   -0.45217153   -0.27972030    3.96050703
| 60> O   -0.87478547   -1.39490055    3.76336045
| 61> O   -1.26586389    0.77924521    4.19309651
| 62> H   -2.16662600    0.42486468    4.15256077
| 63> C    0.98809553    0.12994578    3.97771241
| 64> H    1.61391859   -0.74023517    3.81955725
| 65> H    1.16413294    0.86421941    3.19458783
| 66> H    1.22540678    0.59924673    4.92951480
| 67> *
| 68>
| 69> $new_job
| 70> ! ri-mp2 aug-cc-pvqz aug-cc-pvqz/c tightscf
| 71> %pal nprocs 16 end
| 72> %maxcore 3800
| 73> %base "QZ_S66by10_61_0.9_dimer"
| 74>
| 75> *xyz 0 1
| 76> C   -2.27534498   -0.13507494    0.83133387
| 77> H   -2.49071776   -0.72792669   -0.05756635
| 78> H   -2.22632382   -0.81844641    1.67882341
| 79> H   -3.11202566    0.54494342    0.98740008
| 80> C   -0.96169812    0.61927789    0.66939920
| 81> H   -0.78869920    1.25043181    1.54470266
| 82> H   -1.02617687    1.29544524   -0.18645838
| 83> C    0.22650217   -0.31471031    0.47998579
| 84> H    0.30944439   -0.97513911    1.34803794
| 85> H    0.03915056   -0.96599875   -0.37878983
| 86> C    1.54300168    0.42117452    0.26899951
| 87> H    1.71163863    1.10777177    1.10244654
| 88> H    1.46609466    1.04374331   -0.62529358
| 89> C    2.72757632   -0.52686091    0.13745931
| 90> H    2.58874155   -1.20321391   -0.70575734
| 91> H    3.66150100    0.01169308   -0.01596863
| 92> H    2.83519407   -1.13740994    1.03407512
| 93> C   -0.45217153   -0.27972030    3.96050703
| 94> O   -0.87478547   -1.39490055    3.76336045
| 95> O   -1.26586389    0.77924521    4.19309651
| 96> H   -2.16662600    0.42486468    4.15256077
| 97> C    0.98809553    0.12994578    3.97771241
| 98> H    1.61391859   -0.74023517    3.81955725
| 99> H    1.16413294    0.86421941    3.19458783
|100> H    1.22540678    0.59924673    4.92951480
|101> *
|102>
|103>
|104>
|105>
|106>                          ****END OF INPUT****
 Total Charge           Charge          ....    0
 Multiplicity           Mult            ....    1
 Number of Electrons    NEL             ....   74
MP2 TOTAL ENERGY:     -425.644757360 Eh
FINAL SINGLE POINT ENERGY      -425.644757360473
MP2 TOTAL ENERGY:     -426.039008828 Eh
FINAL SINGLE POINT ENERGY      -426.039008827792

CARTESIAN COORDINATES (ANGSTROEM)
---------------------------------
  C     -2.275345   -0.135075    0.831334
  H     -2.490718   -0.727927   -0.057566
  H     -2.226324   -0.818446    1.678823
  H     -3.112026    0.544943    0.987400
  C     -0.961698    0.619278    0.669399
  H     -0.788699    1.250432    1.544703
  H     -1.026177    1.295445   -0.186458
  C      0.226502   -0.314710    0.479986
  H      0.309444   -0.975139    1.348038
  H      0.039151   -0.965999   -0.378790
  C      1.543002    0.421175    0.269000
  H      1.711639    1.107772    1.102447
  H      1.466095    1.043743   -0.625294
  C      2.727576   -0.526861    0.137459
  H      2.588742   -1.203214   -0.705757
  H      3.661501    0.011693   -0.015969
  H      2.835194   -1.137410    1.034075
  C     -0.452172   -0.279720    3.960507
  O     -0.874785   -1.394901    3.763360
  O     -1.265864    0.779245    4.193097
  H     -2.166626    0.424865    4.152561
  C      0.988096    0.129946    3.977712
  H      1.613919   -0.740235    3.819557
  H      1.164133    0.864219    3.194588
  H      1.225407    0.599247    4.929515

 Multiplicity           Mult            ....    1
 Number of Electrons    NEL             ....   74
 Basis Dimension        Dim             .... 1456

ORBITAL ENERGIES
----------------

  NO   OCC          E(Eh)            E(eV)
   0   2.0000     -20.613819      -560.9305
   1   2.0000     -20.550976      -559.2205
   2   2.0000     -11.391092      -309.9674
   3   2.0000     -11.244815      -305.9870
   4   2.0000     -11.214541      -305.1632
   5   2.0000     -11.211043      -305.0680
   6   2.0000     -11.208616      -305.0019
   7   2.0000     -11.207833      -304.9806
   8   2.0000     -11.202011      -304.8222
   9   2.0000      -1.467856       -39.9424
  10   2.0000      -1.364011       -37.1166
  11   2.0000      -1.082128       -29.4462
  12   2.0000      -1.031817       -28.0772
  13   2.0000      -1.015937       -27.6450
  14   2.0000      -0.918878       -25.0039
  15   2.0000      -0.824872       -22.4459
  16   2.0000      -0.820207       -22.3190
  17   2.0000      -0.786114       -21.3912
  18   2.0000      -0.710146       -19.3241
  19   2.0000      -0.684075       -18.6146
  20   2.0000      -0.668624       -18.1942
  21   2.0000      -0.635689       -17.2980
  22   2.0000      -0.599491       -16.3130
  23   2.0000      -0.596266       -16.2252
  24   2.0000      -0.588003       -16.0004
  25   2.0000      -0.576650       -15.6915
  26   2.0000      -0.563493       -15.3334
  27   2.0000      -0.554070       -15.0770
  28   2.0000      -0.547869       -14.9083
  29   2.0000      -0.525044       -14.2872
  30   2.0000      -0.496217       -13.5028
  31   2.0000      -0.492098       -13.3907
  32   2.0000      -0.476705       -12.9718
  33   2.0000      -0.462165       -12.5762
  34   2.0000      -0.458527       -12.4772
  35   2.0000      -0.454817       -12.3762
  36   2.0000      -0.447171       -12.1681
  37   0.0000       0.023769         0.6468
  38   0.0000       0.028562         0.7772
  39   0.0000       0.030091         0.8188
  40   0.0000       0.034490         0.9385
  41   0.0000       0.041617         1.1325

MULLIKEN ATOMIC CHARGES
-----------------------
   0 C :   -1.049453
   1 H :    0.266857
   2 H :    0.275453
   3 H :    0.230984
   4 C :   -0.441305
   5 H :    0.220686
   6 H :    0.295687
   7 C :   -0.189173
   8 H :    0.259346
   9 H :    0.309725
  10 C :   -0.607927
  11 H :    0.314144
  12 H :    0.283265
  13 C :   -0.927582
  14 H :    0.217746
  15 H :    0.259339
  16 H :    0.253228
  17 C :    1.456153
  18 O :   -0.902716
  19 O :   -0.837281
  20 H :    0.332479
  21 C :   -0.970764
  22 H :    0.300690
  23 H :    0.316110
  24 H :    0.334309
Sum of atomic charges:    0.0000000

LOEWDIN ATOMIC CHARGES
----------------------
   0 C :    0.924110
   1 H :   -0.279570
   2 H :   -0.335387
   3 H :   -0.277747
   4 C :    0.498257
   5 H :   -0.303956
   6 H :   -0.265531
   7 C :    0.487092
   8 H :   -0.313602
   9 H :   -0.260821
  10 C :    0.504950
  11 H :   -0.298228
  12 H :   -0.265818
  13 C :    0.933034
  14 H :   -0.282871
  15 H :   -0.280753
  16 H :   -0.286853
  17 C :   -1.036465
  18 O :    0.736201
  19 O :    1.270111
  20 H :   -0.818267
  21 C :    0.879742
  22 H :   -0.306413
  23 H :   -0.333264
  24 H :   -0.287952

  Mayer bond orders larger than 0.100000
B(  0-C ,  1-H ) :   0.9702 B(  0-C ,  2-H ) :   0.9179 B(  0-C ,  3-H ) :   1.0614
B(  0-C ,  4-C ) :   0.9212 B(  3-H ,  4-C ) :  -0.1082 B(  4-C ,  5-H ) :   0.9088
B(  4-C ,  6-H ) :   0.8707 B(  4-C ,  7-C ) :   0.8112 B(  7-C ,  8-H ) :   0.8482
B(  7-C ,  9-H ) :   0.9064 B(  7-C , 10-C ) :   0.7991 B(  7-C , 13-C ) :  -0.1091
B( 10-C , 11-H ) :   0.8533 B( 10-C , 12-H ) :   0.8827 B( 10-C , 13-C ) :   1.0126
B( 13-C , 14-H ) :   0.9955 B( 13-C , 15-H ) :   1.0305 B( 13-C , 16-H ) :   0.9171
B( 17-C , 18-O ) :   1.2127 B( 17-C , 19-O ) :   0.6394 B( 17-C , 21-C ) :   0.9532
B( 19-O , 20-H ) :   0.8749 B( 21-C , 22-H ) :   0.9534 B( 21-C , 23-H ) :   0.8499
B( 21-C , 24-H ) :   0.9300

MP2 TOTAL ENERGY:     -426.161602821 Eh
FINAL SINGLE POINT ENERGY      -426.161602821391

DIPOLE MOMENT
-------------
                                X             Y             Z
Electronic contribution:     -5.08182      -1.04970      10.61303
Nuclear contribution   :      5.36719       1.70164     -10.50337
                        -----------------------------------------
Total Dipole Moment    :      0.28537       0.65194       0.10966
                        -----------------------------------------
Magnitude (a.u.)       :      0.72006
Magnitude (Debye)      :      1.83025

Rotational constants in cm-1:     0.055424     0.030418     0.023140
Rotational constants in MHz :  1661.563173   911.920624   693.712831

                             ****ORCA TERMINATED NORMALLY****
TOTAL RUN TIME: 0 days 6 hours 56 minutes 45 seconds 831 msec
