                         Program Version 5.0.4 -  RELEASE  -
|  1> ! ri-mp2 aug-cc-pvdz aug-cc-pvdz/c tightscf
|  2> %pal nprocs 16 end
|  3> %maxcore 3800
|  4> %base "DZ_S66by10_46_0.95_dimer"
|  5> %scf STABPerform true end
|  6>
|  7> *xyz 0 1
|  8> C    1.37219093    1.01247736    0.97082468
|  9> H    0.95217623    2.01404955    1.03311725
| 10> H    1.94742170    0.92651560    0.05071776
| 11> H    2.05170208    0.85182517    1.80295247
| 12> C    0.32673706   -0.07764727    0.98819876
| 13> O    0.61882128   -1.25248130    1.17128126
| 14> N   -0.95002884    0.34488680    0.77391491
| 15> H   -1.10467156    1.32202550    0.60611216
| 16> C   -2.05985440   -0.57736895    0.68015349
| 17> H   -1.66935602   -1.56679601    0.89718425
| 18> H   -2.83459176   -0.33138032    1.40366139
| 19> H   -2.49097050   -0.57892483   -0.31993926
| 20> C    2.65415585    0.45818901    4.77709062
| 21> H    2.77099513    1.21260490    3.99834579
| 22> H    2.56804548    0.98307533    5.72874667
| 23> H    3.56624729   -0.13605290    4.80389863
| 24> C    1.42588362   -0.40519850    4.51953907
| 25> H    1.33131427   -1.15065251    5.31258990
| 26> H    1.54230375   -0.95866283    3.58569526
| 27> C    0.14334578    0.41341544    4.45423772
| 28> H    0.03177546    0.99115033    5.37732136
| 29> H    0.22257993    1.14623035    3.64458506
| 30> C   -1.10101051   -0.43691979    4.23735782
| 31> H   -1.19181248   -1.15140628    5.05877504
| 32> H   -0.97320350   -1.02585752    3.32714336
| 33> C   -2.36784901    0.40337172    4.14724309
| 34> H   -2.30093577    1.11042270    3.31947386
| 35> H   -3.25319122   -0.21264578    3.99341019
| 36> H   -2.51820505    0.97958281    5.06046269
| 37> *
| 38>
| 39> $new_job
| 40> ! ri-mp2 aug-cc-pvtz aug-cc-pvtz/c tightscf
| 41> %pal nprocs 16 end
| 42> %maxcore 3800
| 43> %base "TZ_S66by10_46_0.95_dimer"
| 44>
| 45> *xyz 0 1
| 46> C    1.37219093    1.01247736    0.97082468
| 47> H    0.95217623    2.01404955    1.03311725
| 48> H    1.94742170    0.92651560    0.05071776
| 49> H    2.05170208    0.85182517    1.80295247
| 50> C    0.32673706   -0.07764727    0.98819876
| 51> O    0.61882128   -1.25248130    1.17128126
| 52> N   -0.95002884    0.34488680    0.77391491
| 53> H   -1.10467156    1.32202550    0.60611216
| 54> C   -2.05985440   -0.57736895    0.68015349
| 55> H   -1.66935602   -1.56679601    0.89718425
| 56> H   -2.83459176   -0.33138032    1.40366139
| 57> H   -2.49097050   -0.57892483   -0.31993926
| 58> C    2.65415585    0.45818901    4.77709062
| 59> H    2.77099513    1.21260490    3.99834579
| 60> H    2.56804548    0.98307533    5.72874667
| 61> H    3.56624729   -0.13605290    4.80389863
| 62> C    1.42588362   -0.40519850    4.51953907
| 63> H    1.33131427   -1.15065251    5.31258990
| 64> H    1.54230375   -0.95866283    3.58569526
| 65> C    0.14334578    0.41341544    4.45423772
| 66> H    0.03177546    0.99115033    5.37732136
| 67> H    0.22257993    1.14623035    3.64458506
| 68> C   -1.10101051   -0.43691979    4.23735782
| 69> H   -1.19181248   -1.15140628    5.05877504
| 70> H   -0.97320350   -1.02585752    3.32714336
| 71> C   -2.36784901    0.40337172    4.14724309
| 72> H   -2.30093577    1.11042270    3.31947386
| 73> H   -3.25319122   -0.21264578    3.99341019
| 74> H   -2.51820505    0.97958281    5.06046269
| 75> *
| 76>
| 77> $new_job
| 78> ! ri-mp2 aug-cc-pvqz aug-cc-pvqz/c tightscf
| 79> %pal nprocs 16 end
| 80> %maxcore 3800
| 81> %base "QZ_S66by10_46_0.95_dimer"
| 82>
| 83> *xyz 0 1
| 84> C    1.37219093    1.01247736    0.97082468
| 85> H    0.95217623    2.01404955    1.03311725
| 86> H    1.94742170    0.92651560    0.05071776
| 87> H    2.05170208    0.85182517    1.80295247
| 88> C    0.32673706   -0.07764727    0.98819876
| 89> O    0.61882128   -1.25248130    1.17128126
| 90> N   -0.95002884    0.34488680    0.77391491
| 91> H   -1.10467156    1.32202550    0.60611216
| 92> C   -2.05985440   -0.57736895    0.68015349
| 93> H   -1.66935602   -1.56679601    0.89718425
| 94> H   -2.83459176   -0.33138032    1.40366139
| 95> H   -2.49097050   -0.57892483   -0.31993926
| 96> C    2.65415585    0.45818901    4.77709062
| 97> H    2.77099513    1.21260490    3.99834579
| 98> H    2.56804548    0.98307533    5.72874667
| 99> H    3.56624729   -0.13605290    4.80389863
|100> C    1.42588362   -0.40519850    4.51953907
|101> H    1.33131427   -1.15065251    5.31258990
|102> H    1.54230375   -0.95866283    3.58569526
|103> C    0.14334578    0.41341544    4.45423772
|104> H    0.03177546    0.99115033    5.37732136
|105> H    0.22257993    1.14623035    3.64458506
|106> C   -1.10101051   -0.43691979    4.23735782
|107> H   -1.19181248   -1.15140628    5.05877504
|108> H   -0.97320350   -1.02585752    3.32714336
|109> C   -2.36784901    0.40337172    4.14724309
|110> H   -2.30093577    1.11042270    3.31947386
|111> H   -3.25319122   -0.21264578    3.99341019
|112> H   -2.51820505    0.97958281    5.06046269
|113> *
|114>
|115>
|116>
|117>
|118>                          ****END OF INPUT****
 Total Charge           Charge          ....    0
 Multiplicity           Mult            ....    1
 Number of Electrons    NEL             ....   82
MP2 TOTAL ENERGY:     -444.971177460 Eh
FINAL SINGLE POINT ENERGY      -444.971177460201
MP2 TOTAL ENERGY:     -445.389806017 Eh
FINAL SINGLE POINT ENERGY      -445.389806016632

CARTESIAN COORDINATES (ANGSTROEM)
---------------------------------
  C      1.372191    1.012477    0.970825
  H      0.952176    2.014050    1.033117
  H      1.947422    0.926516    0.050718
  H      2.051702    0.851825    1.802952
  C      0.326737   -0.077647    0.988199
  O      0.618821   -1.252481    1.171281
  N     -0.950029    0.344887    0.773915
  H     -1.104672    1.322026    0.606112
  C     -2.059854   -0.577369    0.680153
  H     -1.669356   -1.566796    0.897184
  H     -2.834592   -0.331380    1.403661
  H     -2.490970   -0.578925   -0.319939
  C      2.654156    0.458189    4.777091
  H      2.770995    1.212605    3.998346
  H      2.568045    0.983075    5.728747
  H      3.566247   -0.136053    4.803899
  C      1.425884   -0.405199    4.519539
  H      1.331314   -1.150653    5.312590
  H      1.542304   -0.958663    3.585695
  C      0.143346    0.413415    4.454238
  H      0.031775    0.991150    5.377321
  H      0.222580    1.146230    3.644585
  C     -1.101011   -0.436920    4.237358
  H     -1.191812   -1.151406    5.058775
  H     -0.973203   -1.025858    3.327143
  C     -2.367849    0.403372    4.147243
  H     -2.300936    1.110423    3.319474
  H     -3.253191   -0.212646    3.993410
  H     -2.518205    0.979583    5.060463

 Multiplicity           Mult            ....    1
 Number of Electrons    NEL             ....   82
 Basis Dimension        Dim             .... 1674

ORBITAL ENERGIES
----------------

  NO   OCC          E(Eh)            E(eV)
   0   2.0000     -20.510788      -558.1269
   1   2.0000     -15.585961      -424.1156
   2   2.0000     -11.348843      -308.8177
   3   2.0000     -11.255049      -306.2654
   4   2.0000     -11.234910      -305.7174
   5   2.0000     -11.205976      -304.9301
   6   2.0000     -11.205369      -304.9136
   7   2.0000     -11.204072      -304.8783
   8   2.0000     -11.202309      -304.8303
   9   2.0000     -11.200732      -304.7874
  10   2.0000      -1.376485       -37.4561
  11   2.0000      -1.231882       -33.5212
  12   2.0000      -1.076009       -29.2797
  13   2.0000      -1.020839       -27.7784
  14   2.0000      -1.010531       -27.4979
  15   2.0000      -0.933456       -25.4006
  16   2.0000      -0.915856       -24.9217
  17   2.0000      -0.815449       -22.1895
  18   2.0000      -0.791381       -21.5346
  19   2.0000      -0.779568       -21.2131
  20   2.0000      -0.692646       -18.8479
  21   2.0000      -0.656629       -17.8678
  22   2.0000      -0.654393       -17.8069
  23   2.0000      -0.623465       -16.9653
  24   2.0000      -0.599809       -16.3216
  25   2.0000      -0.594741       -16.1837
  26   2.0000      -0.584476       -15.9044
  27   2.0000      -0.576739       -15.6939
  28   2.0000      -0.556611       -15.1461
  29   2.0000      -0.549999       -14.9662
  30   2.0000      -0.545999       -14.8574
  31   2.0000      -0.544964       -14.8292
  32   2.0000      -0.524709       -14.2781
  33   2.0000      -0.507047       -13.7974
  34   2.0000      -0.490261       -13.3407
  35   2.0000      -0.471337       -12.8257
  36   2.0000      -0.456327       -12.4173
  37   2.0000      -0.452557       -12.3147
  38   2.0000      -0.441945       -12.0259
  39   2.0000      -0.423424       -11.5220
  40   2.0000      -0.393237       -10.7005
  41   0.0000       0.018972         0.5163
  42   0.0000       0.027654         0.7525
  43   0.0000       0.029301         0.7973
  44   0.0000       0.032464         0.8834
  45   0.0000       0.039039         1.0623

MULLIKEN ATOMIC CHARGES
-----------------------
   0 C :   -1.002174
   1 H :    0.182609
   2 H :    0.341943
   3 H :    0.393807
   4 C :    1.480500
   5 O :   -1.042787
   6 N :   -0.574061
   7 H :    0.235492
   8 C :   -0.905799
   9 H :    0.259540
  10 H :    0.299464
  11 H :    0.354190
  12 C :   -1.006378
  13 H :    0.268547
  14 H :    0.224141
  15 H :    0.246377
  16 C :   -0.508381
  17 H :    0.269855
  18 H :    0.301129
  19 C :   -0.226654
  20 H :    0.272632
  21 H :    0.311405
  22 C :   -0.476614
  23 H :    0.273789
  24 H :    0.335623
  25 C :   -1.033376
  26 H :    0.237989
  27 H :    0.233721
  28 H :    0.253473
Sum of atomic charges:   -0.0000000

LOEWDIN ATOMIC CHARGES
----------------------
   0 C :    0.900772
   1 H :   -0.298335
   2 H :   -0.279383
   3 H :   -0.334775
   4 C :   -0.841274
   5 O :    0.743792
   6 N :    0.838374
   7 H :   -0.496275
   8 C :    0.787292
   9 H :   -0.354723
  10 H :   -0.310006
  11 H :   -0.273380
  12 C :    0.931305
  13 H :   -0.299873
  14 H :   -0.282600
  15 H :   -0.277355
  16 C :    0.506981
  17 H :   -0.265673
  18 H :   -0.312821
  19 C :    0.490227
  20 H :   -0.262007
  21 H :   -0.296175
  22 C :    0.506043
  23 H :   -0.261204
  24 H :   -0.323257
  25 C :    0.922465
  26 H :   -0.302712
  27 H :   -0.277218
  28 H :   -0.278202

  Mayer bond orders larger than 0.100000
B(  0-C ,  1-H ) :   1.0702 B(  0-C ,  2-H ) :   0.9091 B(  0-C ,  3-H ) :   0.8386
B(  0-C ,  4-C ) :   0.7921 B(  0-C ,  5-O ) :   0.1050 B(  1-H ,  4-C ) :  -0.1164
B(  4-C ,  5-O ) :   0.9326 B(  4-C ,  6-N ) :   1.0249 B(  4-C ,  8-C ) :  -0.1188
B(  5-O ,  6-N ) :   0.1429 B(  6-N ,  7-H ) :   1.0088 B(  6-N ,  8-C ) :   0.8716
B(  8-C ,  9-H ) :   0.9973 B(  8-C , 10-H ) :   0.8824 B(  8-C , 11-H ) :   0.9276
B( 12-C , 13-H ) :   0.9198 B( 12-C , 14-H ) :   1.0061 B( 12-C , 15-H ) :   1.0540
B( 12-C , 16-C ) :   0.9574 B( 12-C , 19-C ) :  -0.1150 B( 15-H , 16-C ) :  -0.1066
B( 16-C , 17-H ) :   0.9042 B( 16-C , 18-H ) :   0.8420 B( 16-C , 19-C ) :   0.7283
B( 19-C , 20-H ) :   0.9268 B( 19-C , 21-H ) :   0.8367 B( 19-C , 22-C ) :   0.8492
B( 19-C , 25-C ) :  -0.1124 B( 22-C , 23-H ) :   0.8991 B( 22-C , 24-H ) :   0.8173
B( 22-C , 25-C ) :   0.9427 B( 22-C , 27-H ) :  -0.1156 B( 25-C , 26-H ) :   0.9467
B( 25-C , 27-H ) :   1.0321 B( 25-C , 28-H ) :   0.9913

MP2 TOTAL ENERGY:     -445.518250036 Eh
FINAL SINGLE POINT ENERGY      -445.518250035812

DIPOLE MOMENT
-------------
                                X             Y             Z
Electronic contribution:      0.62995      -3.03102      -7.99879
Nuclear contribution   :     -1.25966       4.28905       7.61483
                        -----------------------------------------
Total Dipole Moment    :     -0.62971       1.25803      -0.38395
                        -----------------------------------------
Magnitude (a.u.)       :      1.45828
Magnitude (Debye)      :      3.70666

Rotational constants in cm-1:     0.042619     0.028710     0.020138
Rotational constants in MHz :  1277.698220   860.692763   603.733910

                             ****ORCA TERMINATED NORMALLY****
TOTAL RUN TIME: 0 days 12 hours 15 minutes 9 seconds 170 msec
