                         Program Version 5.0.4 -  RELEASE  -
|  1> ! ri-mp2 aug-cc-pvdz aug-cc-pvdz/c tightscf
|  2> %pal nprocs 16 end
|  3> %maxcore 3800
|  4> %base "DZ_S66by10_20_0.8_dimer"
|  5> %scf STABPerform true end
|  6>
|  7> *xyz 0 1
|  8> C   -1.06170920    1.29714057    0.29206000
|  9> O   -0.35816112    2.27045861    0.53181267
| 10> O   -0.58930352    0.09491776    0.00378881
| 11> H    0.40443566    0.12772262    0.01841184
| 12> C   -2.55842780    1.34254982    0.29625732
| 13> H   -2.89599798    2.34746400    0.51831634
| 14> H   -2.93288928    1.02239045   -0.67299555
| 15> H   -2.93721196    0.64491043    1.03955708
| 16> C    2.46146285    1.10696830    0.26867450
| 17> O    1.75784449    0.13365382    0.02888690
| 18> O    1.98903652    2.30940369    0.55645297
| 19> H    0.99524798    2.27650546    0.54205247
| 20> C    3.95817530    1.06106556    0.26671010
| 21> H    4.29575486    0.05974636    0.02918461
| 22> H    4.33967384    1.77141850   -0.46275879
| 23> H    4.32969161    1.36376007    1.24276547
| 24> *
| 25>
| 26> $new_job
| 27> ! ri-mp2 aug-cc-pvtz aug-cc-pvtz/c tightscf
| 28> %pal nprocs 16 end
| 29> %maxcore 3800
| 30> %base "TZ_S66by10_20_0.8_dimer"
| 31>
| 32> *xyz 0 1
| 33> C   -1.06170920    1.29714057    0.29206000
| 34> O   -0.35816112    2.27045861    0.53181267
| 35> O   -0.58930352    0.09491776    0.00378881
| 36> H    0.40443566    0.12772262    0.01841184
| 37> C   -2.55842780    1.34254982    0.29625732
| 38> H   -2.89599798    2.34746400    0.51831634
| 39> H   -2.93288928    1.02239045   -0.67299555
| 40> H   -2.93721196    0.64491043    1.03955708
| 41> C    2.46146285    1.10696830    0.26867450
| 42> O    1.75784449    0.13365382    0.02888690
| 43> O    1.98903652    2.30940369    0.55645297
| 44> H    0.99524798    2.27650546    0.54205247
| 45> C    3.95817530    1.06106556    0.26671010
| 46> H    4.29575486    0.05974636    0.02918461
| 47> H    4.33967384    1.77141850   -0.46275879
| 48> H    4.32969161    1.36376007    1.24276547
| 49> *
| 50>
| 51> $new_job
| 52> ! ri-mp2 aug-cc-pvqz aug-cc-pvqz/c tightscf
| 53> %pal nprocs 16 end
| 54> %maxcore 3800
| 55> %base "QZ_S66by10_20_0.8_dimer"
| 56>
| 57> *xyz 0 1
| 58> C   -1.06170920    1.29714057    0.29206000
| 59> O   -0.35816112    2.27045861    0.53181267
| 60> O   -0.58930352    0.09491776    0.00378881
| 61> H    0.40443566    0.12772262    0.01841184
| 62> C   -2.55842780    1.34254982    0.29625732
| 63> H   -2.89599798    2.34746400    0.51831634
| 64> H   -2.93288928    1.02239045   -0.67299555
| 65> H   -2.93721196    0.64491043    1.03955708
| 66> C    2.46146285    1.10696830    0.26867450
| 67> O    1.75784449    0.13365382    0.02888690
| 68> O    1.98903652    2.30940369    0.55645297
| 69> H    0.99524798    2.27650546    0.54205247
| 70> C    3.95817530    1.06106556    0.26671010
| 71> H    4.29575486    0.05974636    0.02918461
| 72> H    4.33967384    1.77141850   -0.46275879
| 73> H    4.32969161    1.36376007    1.24276547
| 74> *
| 75>
| 76>
| 77>
| 78>
| 79>                          ****END OF INPUT****
 Total Charge           Charge          ....    0
 Multiplicity           Mult            ....    1
 Number of Electrons    NEL             ....   64
MP2 TOTAL ENERGY:     -457.058555744 Eh
FINAL SINGLE POINT ENERGY      -457.058555743841
MP2 TOTAL ENERGY:     -457.458460980 Eh
FINAL SINGLE POINT ENERGY      -457.458460980197

CARTESIAN COORDINATES (ANGSTROEM)
---------------------------------
  C     -1.061709    1.297141    0.292060
  O     -0.358161    2.270459    0.531813
  O     -0.589304    0.094918    0.003789
  H      0.404436    0.127723    0.018412
  C     -2.558428    1.342550    0.296257
  H     -2.895998    2.347464    0.518316
  H     -2.932889    1.022390   -0.672996
  H     -2.937212    0.644910    1.039557
  C      2.461463    1.106968    0.268674
  O      1.757844    0.133654    0.028887
  O      1.989037    2.309404    0.556453
  H      0.995248    2.276505    0.542052
  C      3.958175    1.061066    0.266710
  H      4.295755    0.059746    0.029185
  H      4.339674    1.771419   -0.462759
  H      4.329692    1.363760    1.242765

 Multiplicity           Mult            ....    1
 Number of Electrons    NEL             ....   64
 Basis Dimension        Dim             .... 1008

ORBITAL ENERGIES
----------------

  NO   OCC          E(Eh)            E(eV)
   0   2.0000     -20.574862      -559.8705
   1   2.0000     -20.574855      -559.8703
   2   2.0000     -20.559747      -559.4592
   3   2.0000     -20.559735      -559.4588
   4   2.0000     -11.398381      -310.1657
   5   2.0000     -11.398363      -310.1652
   6   2.0000     -11.242285      -305.9181
   7   2.0000     -11.242279      -305.9180
   8   2.0000      -1.481521       -40.3142
   9   2.0000      -1.449772       -39.4503
  10   2.0000      -1.384583       -37.6764
  11   2.0000      -1.348362       -36.6908
  12   2.0000      -1.040492       -28.3132
  13   2.0000      -1.022941       -27.8356
  14   2.0000      -0.857137       -23.3239
  15   2.0000      -0.822585       -22.3837
  16   2.0000      -0.768051       -20.8997
  17   2.0000      -0.700404       -19.0590
  18   2.0000      -0.676426       -18.4065
  19   2.0000      -0.670319       -18.2403
  20   2.0000      -0.658255       -17.9120
  21   2.0000      -0.645064       -17.5531
  22   2.0000      -0.595202       -16.1963
  23   2.0000      -0.582322       -15.8458
  24   2.0000      -0.570832       -15.5331
  25   2.0000      -0.562158       -15.2971
  26   2.0000      -0.553093       -15.0504
  27   2.0000      -0.552611       -15.0373
  28   2.0000      -0.501776       -13.6540
  29   2.0000      -0.476808       -12.9746
  30   2.0000      -0.475118       -12.9286
  31   2.0000      -0.452029       -12.3003
  32   0.0000       0.025414         0.6915
  33   0.0000       0.027097         0.7373
  34   0.0000       0.039239         1.0677
  35   0.0000       0.040605         1.1049
  36   0.0000       0.046712         1.2711

MULLIKEN ATOMIC CHARGES
-----------------------
   0 C :    0.896709
   1 O :   -0.642344
   2 O :   -0.663046
   3 H :    0.252084
   4 C :   -0.744661
   5 H :    0.325311
   6 H :    0.286814
   7 H :    0.289121
   8 C :    0.896722
   9 O :   -0.642301
  10 O :   -0.663060
  11 H :    0.252101
  12 C :   -0.744843
  13 H :    0.325456
  14 H :    0.288146
  15 H :    0.287791
Sum of atomic charges:   -0.0000000

LOEWDIN ATOMIC CHARGES
----------------------
   0 C :   -0.814403
   1 O :    1.016993
   2 O :    1.277001
   3 H :   -1.453929
   4 C :    0.896861
   5 H :   -0.321025
   6 H :   -0.301220
   7 H :   -0.300303
   8 C :   -0.814268
   9 O :    1.016974
  10 O :    1.276931
  11 H :   -1.453875
  12 C :    0.896934
  13 H :   -0.321070
  14 H :   -0.300774
  15 H :   -0.300827

  Mayer bond orders larger than 0.100000
B(  0-C ,  1-O ) :   1.5119 B(  0-C ,  2-O ) :   1.0098 B(  0-C ,  4-C ) :   0.7205
B(  1-O , 11-H ) :   0.1057 B(  2-O ,  3-H ) :   0.8797 B(  3-H ,  9-O ) :   0.1057
B(  4-C ,  5-H ) :   0.9686 B(  4-C ,  6-H ) :   0.9480 B(  4-C ,  7-H ) :   0.9400
B(  8-C ,  9-O ) :   1.5119 B(  8-C , 10-O ) :   1.0098 B(  8-C , 12-C ) :   0.7205
B( 10-O , 11-H ) :   0.8798 B( 12-C , 13-H ) :   0.9685 B( 12-C , 14-H ) :   0.9435
B( 12-C , 15-H ) :   0.9446

MP2 TOTAL ENERGY:     -457.588434334 Eh
FINAL SINGLE POINT ENERGY      -457.588434334067

DIPOLE MOMENT
-------------
                                X             Y             Z
Electronic contribution:      0.00028       0.00155      -0.00732
Nuclear contribution   :     -0.00018      -0.00204       0.00898
                        -----------------------------------------
Total Dipole Moment    :      0.00010      -0.00049       0.00166
                        -----------------------------------------
Magnitude (a.u.)       :      0.00173
Magnitude (Debye)      :      0.00441

Rotational constants in cm-1:     0.187966     0.033626     0.028825
Rotational constants in MHz :  5635.068662  1008.067831   864.162847

                             ****ORCA TERMINATED NORMALLY****
TOTAL RUN TIME: 0 days 2 hours 5 minutes 6 seconds 695 msec
