                         Program Version 5.0.4 -  RELEASE  -
|  1> ! ri-mp2 aug-cc-pvdz aug-cc-pvdz/c tightscf
|  2> %pal nprocs 16 end
|  3> %maxcore 3800
|  4> %base "DZ_S66by10_18_0.8_dimer"
|  5>
|  6> *xyz 0 1
|  7> O   -0.55283102   -0.10169749   -0.00049879
|  8> H   -0.87175963    0.80179220    0.00014440
|  9> H    0.41265950   -0.00183225   -0.00025181
| 10> N    2.00724705    0.07862184    0.00007392
| 11> C    2.70315368    0.04465105    1.14482177
| 12> H    2.11848113    0.06826199    2.05568980
| 13> C    4.09217728   -0.02053138    1.19481783
| 14> H    4.59808366   -0.04538554    2.14914695
| 15> C    4.80334042   -0.05365718   -0.00009331
| 16> H    5.88318037   -0.10543074   -0.00017374
| 17> C    4.09203212   -0.02059804   -1.19489461
| 18> H    4.59782907   -0.04547107   -2.14929321
| 19> C    2.70300211    0.04459695   -1.14474835
| 20> H    2.11823323    0.06819761   -2.05554090
| 21> *
| 22>
| 23> $new_job
| 24> ! ri-mp2 aug-cc-pvtz aug-cc-pvtz/c tightscf
| 25> %pal nprocs 16 end
| 26> %maxcore 3800
| 27> %base "TZ_S66by10_18_0.8_dimer"
| 28>
| 29> *xyz 0 1
| 30> O   -0.55283102   -0.10169749   -0.00049879
| 31> H   -0.87175963    0.80179220    0.00014440
| 32> H    0.41265950   -0.00183225   -0.00025181
| 33> N    2.00724705    0.07862184    0.00007392
| 34> C    2.70315368    0.04465105    1.14482177
| 35> H    2.11848113    0.06826199    2.05568980
| 36> C    4.09217728   -0.02053138    1.19481783
| 37> H    4.59808366   -0.04538554    2.14914695
| 38> C    4.80334042   -0.05365718   -0.00009331
| 39> H    5.88318037   -0.10543074   -0.00017374
| 40> C    4.09203212   -0.02059804   -1.19489461
| 41> H    4.59782907   -0.04547107   -2.14929321
| 42> C    2.70300211    0.04459695   -1.14474835
| 43> H    2.11823323    0.06819761   -2.05554090
| 44> *
| 45>
| 46> $new_job
| 47> ! ri-mp2 aug-cc-pvqz aug-cc-pvqz/c tightscf
| 48> %pal nprocs 16 end
| 49> %maxcore 3800
| 50> %base "QZ_S66by10_18_0.8_dimer"
| 51>
| 52> *xyz 0 1
| 53> O   -0.55283102   -0.10169749   -0.00049879
| 54> H   -0.87175963    0.80179220    0.00014440
| 55> H    0.41265950   -0.00183225   -0.00025181
| 56> N    2.00724705    0.07862184    0.00007392
| 57> C    2.70315368    0.04465105    1.14482177
| 58> H    2.11848113    0.06826199    2.05568980
| 59> C    4.09217728   -0.02053138    1.19481783
| 60> H    4.59808366   -0.04538554    2.14914695
| 61> C    4.80334042   -0.05365718   -0.00009331
| 62> H    5.88318037   -0.10543074   -0.00017374
| 63> C    4.09203212   -0.02059804   -1.19489461
| 64> H    4.59782907   -0.04547107   -2.14929321
| 65> C    2.70300211    0.04459695   -1.14474835
| 66> H    2.11823323    0.06819761   -2.05554090
| 67> *
| 68>
| 69>
| 70>
| 71>
| 72>                          ****END OF INPUT****
 Total Charge           Charge          ....    0
 Multiplicity           Mult            ....    1
 Number of Electrons    NEL             ....   52
MP2 TOTAL ENERGY:     -323.830902686 Eh
FINAL SINGLE POINT ENERGY      -323.830902686317
MP2 TOTAL ENERGY:     -324.113573420 Eh
FINAL SINGLE POINT ENERGY      -324.113573419838

CARTESIAN COORDINATES (ANGSTROEM)
---------------------------------
  O     -0.552831   -0.101697   -0.000499
  H     -0.871760    0.801792    0.000144
  H      0.412659   -0.001832   -0.000252
  N      2.007247    0.078622    0.000074
  C      2.703154    0.044651    1.144822
  H      2.118481    0.068262    2.055690
  C      4.092177   -0.020531    1.194818
  H      4.598084   -0.045386    2.149147
  C      4.803340   -0.053657   -0.000093
  H      5.883180   -0.105431   -0.000174
  C      4.092032   -0.020598   -1.194895
  H      4.597829   -0.045471   -2.149293
  C      2.703002    0.044597   -1.144748
  H      2.118233    0.068198   -2.055541

 Multiplicity           Mult            ....    1
 Number of Electrons    NEL             ....   52
 Basis Dimension        Dim             ....  882

ORBITAL ENERGIES
----------------

  NO   OCC          E(Eh)            E(eV)
   0   2.0000     -20.495513      -557.7113
   1   2.0000     -15.584831      -424.0848
   2   2.0000     -11.293204      -307.3037
   3   2.0000     -11.293185      -307.3032
   4   2.0000     -11.275916      -306.8333
   5   2.0000     -11.256085      -306.2936
   6   2.0000     -11.256035      -306.2923
   7   2.0000      -1.296888       -35.2901
   8   2.0000      -1.275102       -34.6973
   9   2.0000      -1.107477       -30.1360
  10   2.0000      -1.051371       -28.6093
  11   2.0000      -0.877772       -23.8854
  12   2.0000      -0.874872       -23.8065
  13   2.0000      -0.745709       -20.2918
  14   2.0000      -0.679619       -18.4934
  15   2.0000      -0.678332       -18.4584
  16   2.0000      -0.664627       -18.0854
  17   2.0000      -0.615376       -16.7452
  18   2.0000      -0.591801       -16.1037
  19   2.0000      -0.561981       -15.2923
  20   2.0000      -0.537030       -14.6133
  21   2.0000      -0.535220       -14.5641
  22   2.0000      -0.449541       -12.2326
  23   2.0000      -0.433975       -11.8091
  24   2.0000      -0.404185       -10.9984
  25   2.0000      -0.363939        -9.9033
  26   0.0000       0.018297         0.4979
  27   0.0000       0.025929         0.7056
  28   0.0000       0.030997         0.8435
  29   0.0000       0.043152         1.1742
  30   0.0000       0.043567         1.1855

MULLIKEN ATOMIC CHARGES
-----------------------
   0 O :   -0.732189
   1 H :    0.303183
   2 H :    0.254505
   3 N :   -0.348853
   4 C :   -0.337401
   5 H :    0.391171
   6 C :   -0.173771
   7 H :    0.309599
   8 C :   -0.182136
   9 H :    0.326276
  10 C :   -0.173718
  11 H :    0.309600
  12 C :   -0.337406
  13 H :    0.391140
Sum of atomic charges:   -0.0000000

LOEWDIN ATOMIC CHARGES
----------------------
   0 O :    1.604265
   1 H :   -0.789151
   2 H :   -1.201689
   3 N :    0.635697
   4 C :    0.161964
   5 H :   -0.324781
   6 C :    0.350527
   7 H :   -0.327352
   8 C :    0.340785
   9 H :   -0.310646
  10 C :    0.350525
  11 H :   -0.327339
  12 C :    0.161973
  13 H :   -0.324780

  Mayer bond orders larger than 0.100000
B(  0-O ,  1-H ) :   0.9398 B(  0-O ,  2-H ) :   0.8809 B(  2-H ,  3-N ) :   0.1102
B(  3-N ,  4-C ) :   1.4143 B(  3-N , 12-C ) :   1.4144 B(  4-C ,  5-H ) :   0.9395
B(  4-C ,  6-C ) :   1.2170 B(  4-C , 10-C ) :   0.1196 B(  6-C ,  7-H ) :   1.0024
B(  6-C ,  8-C ) :   1.1616 B(  6-C , 10-C ) :  -0.1093 B(  6-C , 12-C ) :   0.1196
B(  8-C ,  9-H ) :   0.9999 B(  8-C , 10-C ) :   1.1616 B( 10-C , 11-H ) :   1.0024
B( 10-C , 12-C ) :   1.2169 B( 12-C , 13-H ) :   0.9396

MP2 TOTAL ENERGY:     -324.204855902 Eh
FINAL SINGLE POINT ENERGY      -324.204855902241

DIPOLE MOMENT
-------------
                                X             Y             Z
Electronic contribution:      1.84583      -0.10543       0.00025
Nuclear contribution   :      0.11169       0.68288       0.00030
                        -----------------------------------------
Total Dipole Moment    :      1.95751       0.57744       0.00055
                        -----------------------------------------
Magnitude (a.u.)       :      2.04090
Magnitude (Debye)      :      5.18757

Rotational constants in cm-1:     0.199210     0.053873     0.042623
Rotational constants in MHz :  5972.174263  1615.085323  1277.804252

                             ****ORCA TERMINATED NORMALLY****
TOTAL RUN TIME: 0 days 0 hours 13 minutes 48 seconds 368 msec
