                         Program Version 5.0.4 -  RELEASE  -
|  1> ! ri-mp2 aug-cc-pvdz aug-cc-pvdz/c tightscf
|  2> %pal nprocs 16 end
|  3> %maxcore 3800
|  4> %base "DZ_S66by10_40_1.05_dimer"
|  5>
|  6> *xyz 0 1
|  7> C    0.31195353    0.56102334    0.49669886
|  8> H    0.74213608    1.55336911    0.48156571
|  9> C    1.14218235   -0.55807461    0.53606185
| 10> H    2.21651131   -0.43425014    0.55235015
| 11> C    0.58780415   -1.83668704    0.55414435
| 12> H    1.23191239   -2.70484153    0.58522179
| 13> C   -0.79665772   -1.99637562    0.53296300
| 14> H   -1.22677442   -2.98844427    0.54863708
| 15> C   -1.62689297   -0.87747365    0.49416828
| 16> H   -2.70112211   -1.00134997    0.47981498
| 17> C   -1.07266525    0.40120590    0.47597397
| 18> H   -1.71697357    1.26940117    0.44591995
| 19> C    0.16443904    0.50131532    4.98403117
| 20> C    1.61068772    0.68010268    4.52906968
| 21> H    2.02654443    1.61338055    4.91249266
| 22> H    2.23408704   -0.14051295    4.88792355
| 23> H    1.67129685    0.69949397    3.44013546
| 24> C    0.11004767    0.46994418    6.50889648
| 25> H   -0.91574236    0.34252376    6.85798426
| 26> H    0.70545357   -0.35574269    6.90145022
| 27> H    0.49834215    1.39782881    6.93180206
| 28> C   -0.38494100   -0.80817666    4.42373515
| 29> H   -1.41981460   -0.95845169    4.73640673
| 30> H    0.20151558   -1.65715042    4.77954641
| 31> H   -0.35616117   -0.80862943    3.33342090
| 32> C   -0.67693375    1.66588701    4.46782569
| 33> H   -0.65539279    1.70191740    3.37782713
| 34> H   -1.71672289    1.56211744    4.78230817
| 35> H   -0.30128115    2.61658148    4.84993260
| 36> *
| 37>
| 38> $new_job
| 39> ! ri-mp2 aug-cc-pvtz aug-cc-pvtz/c tightscf
| 40> %pal nprocs 16 end
| 41> %maxcore 3800
| 42> %base "TZ_S66by10_40_1.05_dimer"
| 43>
| 44> *xyz 0 1
| 45> C    0.31195353    0.56102334    0.49669886
| 46> H    0.74213608    1.55336911    0.48156571
| 47> C    1.14218235   -0.55807461    0.53606185
| 48> H    2.21651131   -0.43425014    0.55235015
| 49> C    0.58780415   -1.83668704    0.55414435
| 50> H    1.23191239   -2.70484153    0.58522179
| 51> C   -0.79665772   -1.99637562    0.53296300
| 52> H   -1.22677442   -2.98844427    0.54863708
| 53> C   -1.62689297   -0.87747365    0.49416828
| 54> H   -2.70112211   -1.00134997    0.47981498
| 55> C   -1.07266525    0.40120590    0.47597397
| 56> H   -1.71697357    1.26940117    0.44591995
| 57> C    0.16443904    0.50131532    4.98403117
| 58> C    1.61068772    0.68010268    4.52906968
| 59> H    2.02654443    1.61338055    4.91249266
| 60> H    2.23408704   -0.14051295    4.88792355
| 61> H    1.67129685    0.69949397    3.44013546
| 62> C    0.11004767    0.46994418    6.50889648
| 63> H   -0.91574236    0.34252376    6.85798426
| 64> H    0.70545357   -0.35574269    6.90145022
| 65> H    0.49834215    1.39782881    6.93180206
| 66> C   -0.38494100   -0.80817666    4.42373515
| 67> H   -1.41981460   -0.95845169    4.73640673
| 68> H    0.20151558   -1.65715042    4.77954641
| 69> H   -0.35616117   -0.80862943    3.33342090
| 70> C   -0.67693375    1.66588701    4.46782569
| 71> H   -0.65539279    1.70191740    3.37782713
| 72> H   -1.71672289    1.56211744    4.78230817
| 73> H   -0.30128115    2.61658148    4.84993260
| 74> *
| 75>
| 76> $new_job
| 77> ! ri-mp2 aug-cc-pvqz aug-cc-pvqz/c tightscf
| 78> %pal nprocs 16 end
| 79> %maxcore 3800
| 80> %base "QZ_S66by10_40_1.05_dimer"
| 81>
| 82> *xyz 0 1
| 83> C    0.31195353    0.56102334    0.49669886
| 84> H    0.74213608    1.55336911    0.48156571
| 85> C    1.14218235   -0.55807461    0.53606185
| 86> H    2.21651131   -0.43425014    0.55235015
| 87> C    0.58780415   -1.83668704    0.55414435
| 88> H    1.23191239   -2.70484153    0.58522179
| 89> C   -0.79665772   -1.99637562    0.53296300
| 90> H   -1.22677442   -2.98844427    0.54863708
| 91> C   -1.62689297   -0.87747365    0.49416828
| 92> H   -2.70112211   -1.00134997    0.47981498
| 93> C   -1.07266525    0.40120590    0.47597397
| 94> H   -1.71697357    1.26940117    0.44591995
| 95> C    0.16443904    0.50131532    4.98403117
| 96> C    1.61068772    0.68010268    4.52906968
| 97> H    2.02654443    1.61338055    4.91249266
| 98> H    2.23408704   -0.14051295    4.88792355
| 99> H    1.67129685    0.69949397    3.44013546
|100> C    0.11004767    0.46994418    6.50889648
|101> H   -0.91574236    0.34252376    6.85798426
|102> H    0.70545357   -0.35574269    6.90145022
|103> H    0.49834215    1.39782881    6.93180206
|104> C   -0.38494100   -0.80817666    4.42373515
|105> H   -1.41981460   -0.95845169    4.73640673
|106> H    0.20151558   -1.65715042    4.77954641
|107> H   -0.35616117   -0.80862943    3.33342090
|108> C   -0.67693375    1.66588701    4.46782569
|109> H   -0.65539279    1.70191740    3.37782713
|110> H   -1.71672289    1.56211744    4.78230817
|111> H   -0.30128115    2.61658148    4.84993260
|112> *
|113>
|114>
|115>
|116>
|117>                          ****END OF INPUT****
 Total Charge           Charge          ....    0
 Multiplicity           Mult            ....    1
 Number of Electrons    NEL             ....   84
MP2 TOTAL ENERGY:     -428.669806272 Eh
FINAL SINGLE POINT ENERGY      -428.669806272108
MP2 TOTAL ENERGY:     -429.069751605 Eh
FINAL SINGLE POINT ENERGY      -429.069751605264

CARTESIAN COORDINATES (ANGSTROEM)
---------------------------------
  C      0.311954    0.561023    0.496699
  H      0.742136    1.553369    0.481566
  C      1.142182   -0.558075    0.536062
  H      2.216511   -0.434250    0.552350
  C      0.587804   -1.836687    0.554144
  H      1.231912   -2.704842    0.585222
  C     -0.796658   -1.996376    0.532963
  H     -1.226774   -2.988444    0.548637
  C     -1.626893   -0.877474    0.494168
  H     -2.701122   -1.001350    0.479815
  C     -1.072665    0.401206    0.475974
  H     -1.716974    1.269401    0.445920
  C      0.164439    0.501315    4.984031
  C      1.610688    0.680103    4.529070
  H      2.026544    1.613381    4.912493
  H      2.234087   -0.140513    4.887924
  H      1.671297    0.699494    3.440135
  C      0.110048    0.469944    6.508896
  H     -0.915742    0.342524    6.857984
  H      0.705454   -0.355743    6.901450
  H      0.498342    1.397829    6.931802
  C     -0.384941   -0.808177    4.423735
  H     -1.419815   -0.958452    4.736407
  H      0.201516   -1.657150    4.779546
  H     -0.356161   -0.808629    3.333421
  C     -0.676934    1.665887    4.467826
  H     -0.655393    1.701917    3.377827
  H     -1.716723    1.562117    4.782308
  H     -0.301281    2.616581    4.849933

 Multiplicity           Mult            ....    1
 Number of Electrons    NEL             ....   84
 Basis Dimension        Dim             .... 1708

ORBITAL ENERGIES
----------------

  NO   OCC          E(Eh)            E(eV)
   0   2.0000     -11.237162      -305.7787
   1   2.0000     -11.236572      -305.7627
   2   2.0000     -11.236550      -305.7621
   3   2.0000     -11.235335      -305.7290
   4   2.0000     -11.235313      -305.7284
   5   2.0000     -11.234692      -305.7115
   6   2.0000     -11.218900      -305.2818
   7   2.0000     -11.199419      -304.7517
   8   2.0000     -11.198430      -304.7248
   9   2.0000     -11.198410      -304.7242
  10   2.0000     -11.194374      -304.6144
  11   2.0000      -1.152435       -31.3594
  12   2.0000      -1.099569       -29.9208
  13   2.0000      -1.016757       -27.6674
  14   2.0000      -1.016721       -27.6664
  15   2.0000      -0.923206       -25.1217
  16   2.0000      -0.922566       -25.1043
  17   2.0000      -0.920070       -25.0364
  18   2.0000      -0.826126       -22.4800
  19   2.0000      -0.826098       -22.4793
  20   2.0000      -0.723183       -19.6788
  21   2.0000      -0.711846       -19.3703
  22   2.0000      -0.646155       -17.5828
  23   2.0000      -0.621277       -16.9058
  24   2.0000      -0.606072       -16.4921
  25   2.0000      -0.605624       -16.4799
  26   2.0000      -0.605206       -16.4685
  27   2.0000      -0.590200       -16.0601
  28   2.0000      -0.590148       -16.0587
  29   2.0000      -0.546859       -14.8808
  30   2.0000      -0.546819       -14.8797
  31   2.0000      -0.509572       -13.8662
  32   2.0000      -0.503957       -13.7134
  33   2.0000      -0.502497       -13.6736
  34   2.0000      -0.498621       -13.5682
  35   2.0000      -0.497020       -13.5246
  36   2.0000      -0.496933       -13.5222
  37   2.0000      -0.446012       -12.1366
  38   2.0000      -0.445429       -12.1207
  39   2.0000      -0.444105       -12.0847
  40   2.0000      -0.339336        -9.2338
  41   2.0000      -0.339260        -9.2317
  42   0.0000       0.022384         0.6091
  43   0.0000       0.028123         0.7653
  44   0.0000       0.028499         0.7755
  45   0.0000       0.031751         0.8640
  46   0.0000       0.039964         1.0875

MULLIKEN ATOMIC CHARGES
-----------------------
   0 C :   -0.281381
   1 H :    0.328030
   2 C :   -0.350332
   3 H :    0.279497
   4 C :   -0.309756
   5 H :    0.301830
   6 C :   -0.263675
   7 H :    0.325792
   8 C :   -0.309237
   9 H :    0.301538
  10 C :   -0.349559
  11 H :    0.279264
  12 C :    1.807104
  13 C :   -1.324828
  14 H :    0.239266
  15 H :    0.206756
  16 H :    0.411085
  17 C :   -1.108497
  18 H :    0.223630
  19 H :    0.223701
  20 H :    0.236868
  21 C :   -1.415639
  22 H :    0.241788
  23 H :    0.241852
  24 H :    0.532880
  25 C :   -1.325005
  26 H :    0.410912
  27 H :    0.206863
  28 H :    0.239255
Sum of atomic charges:   -0.0000000

LOEWDIN ATOMIC CHARGES
----------------------
   0 C :    0.319229
   1 H :   -0.319389
   2 C :    0.323979
   3 H :   -0.320681
   4 C :    0.329331
   5 H :   -0.321801
   6 C :    0.327883
   7 H :   -0.322100
   8 C :    0.329386
   9 H :   -0.321812
  10 C :    0.323951
  11 H :   -0.320685
  12 C :   -0.327400
  13 C :    0.901017
  14 H :   -0.268698
  15 H :   -0.268407
  16 H :   -0.286707
  17 C :    0.902020
  18 H :   -0.271953
  19 H :   -0.271928
  20 H :   -0.271820
  21 C :    0.898172
  22 H :   -0.264097
  23 H :   -0.264089
  24 H :   -0.310596
  25 C :    0.900998
  26 H :   -0.286710
  27 H :   -0.268382
  28 H :   -0.268710

  Mayer bond orders larger than 0.100000
B(  0-C ,  1-H ) :   1.0083 B(  0-C ,  2-C ) :   1.2019 B(  0-C ,  6-C ) :   0.1588
B(  0-C , 10-C ) :   1.2015 B(  2-C ,  3-H ) :   1.0727 B(  2-C ,  4-C ) :   1.2170
B(  2-C ,  8-C ) :   0.1683 B(  4-C ,  5-H ) :   1.0700 B(  4-C ,  6-C ) :   1.2092
B(  4-C , 10-C ) :   0.1680 B(  6-C ,  7-H ) :   1.0391 B(  6-C ,  8-C ) :   1.2093
B(  8-C ,  9-H ) :   1.0700 B(  8-C , 10-C ) :   1.2166 B( 10-C , 11-H ) :   1.0728
B( 12-C , 13-C ) :   0.3721 B( 12-C , 17-C ) :   0.1092 B( 12-C , 18-H ) :  -0.1494
B( 12-C , 19-H ) :  -0.1494 B( 12-C , 20-H ) :  -0.1430 B( 12-C , 21-C ) :   0.4579
B( 12-C , 24-H ) :  -0.1801 B( 12-C , 25-C ) :   0.3723 B( 13-C , 14-H ) :   1.0637
B( 13-C , 15-H ) :   1.0652 B( 13-C , 16-H ) :   0.8596 B( 13-C , 17-C ) :   0.1578
B( 13-C , 21-C ) :   0.1555 B( 13-C , 25-C ) :   0.1590 B( 17-C , 18-H ) :   1.0715
B( 17-C , 19-H ) :   1.0716 B( 17-C , 20-H ) :   1.0673 B( 17-C , 21-C ) :   0.1632
B( 17-C , 25-C ) :   0.1577 B( 21-C , 22-H ) :   1.0047 B( 21-C , 23-H ) :   1.0046
B( 21-C , 24-H ) :   0.8795 B( 21-C , 25-C ) :   0.1557 B( 25-C , 26-H ) :   0.8599
B( 25-C , 27-H ) :   1.0650 B( 25-C , 28-H ) :   1.0637

MP2 TOTAL ENERGY:     -429.192168540 Eh
FINAL SINGLE POINT ENERGY      -429.192168540282

DIPOLE MOMENT
-------------
                                X             Y             Z
Electronic contribution:     -1.29775      -3.88593     -14.19882
Nuclear contribution   :      1.27885       3.83435      14.07330
                        -----------------------------------------
Total Dipole Moment    :     -0.01890      -0.05157      -0.12552
                        -----------------------------------------
Magnitude (a.u.)       :      0.13702
Magnitude (Debye)      :      0.34827

Rotational constants in cm-1:     0.059628     0.016662     0.016550
Rotational constants in MHz :  1787.611530   499.505910   496.144751

                             ****ORCA TERMINATED NORMALLY****
TOTAL RUN TIME: 0 days 2 hours 20 minutes 47 seconds 254 msec
