                         Program Version 5.0.4 -  RELEASE  -
|  1> ! ri-mp2 aug-cc-pvdz aug-cc-pvdz/c tightscf
|  2> %pal nprocs 16 end
|  3> %maxcore 3800
|  4> %base "DZ_S66by10_14_0.8_dimer"
|  5> %scf STABPerform true end
|  6>
|  7> *xyz 0 1
|  8> C   -0.77857334   -0.46332064    2.49038768
|  9> H    0.22474462   -0.05095294    2.41348355
| 10> H   -0.72247994   -1.48709180    2.85458464
| 11> H   -1.35190757    0.11081693    3.21368365
| 12> C   -1.52050259   -0.45662769    1.17232500
| 13> O   -2.70083521   -0.78358573    1.08959682
| 14> N   -0.79195361   -0.06964048    0.10058937
| 15> H    0.19411165    0.14570790    0.20292464
| 16> C   -1.39779834   -0.05608245   -1.21131793
| 17> H   -2.31492801    0.52889121   -1.19970991
| 18> H   -0.69880422    0.38726130   -1.91536621
| 19> H   -1.65298232   -1.06152895   -1.54543495
| 20> N    1.84330713    0.23353884    0.26713977
| 21> H    2.24697346    0.77345836    1.02233986
| 22> H    2.26131101    0.60092008   -0.57850616
| 23> C    2.21560997   -1.17764398    0.42089251
| 24> H    1.78932257   -1.74867656   -0.40048293
| 25> H    3.29100861   -1.36433343    0.44667591
| 26> H    1.78113740   -1.56205099    1.34072852
| 27> *
| 28>
| 29> $new_job
| 30> ! ri-mp2 aug-cc-pvtz aug-cc-pvtz/c tightscf
| 31> %pal nprocs 16 end
| 32> %maxcore 3800
| 33> %base "TZ_S66by10_14_0.8_dimer"
| 34>
| 35> *xyz 0 1
| 36> C   -0.77857334   -0.46332064    2.49038768
| 37> H    0.22474462   -0.05095294    2.41348355
| 38> H   -0.72247994   -1.48709180    2.85458464
| 39> H   -1.35190757    0.11081693    3.21368365
| 40> C   -1.52050259   -0.45662769    1.17232500
| 41> O   -2.70083521   -0.78358573    1.08959682
| 42> N   -0.79195361   -0.06964048    0.10058937
| 43> H    0.19411165    0.14570790    0.20292464
| 44> C   -1.39779834   -0.05608245   -1.21131793
| 45> H   -2.31492801    0.52889121   -1.19970991
| 46> H   -0.69880422    0.38726130   -1.91536621
| 47> H   -1.65298232   -1.06152895   -1.54543495
| 48> N    1.84330713    0.23353884    0.26713977
| 49> H    2.24697346    0.77345836    1.02233986
| 50> H    2.26131101    0.60092008   -0.57850616
| 51> C    2.21560997   -1.17764398    0.42089251
| 52> H    1.78932257   -1.74867656   -0.40048293
| 53> H    3.29100861   -1.36433343    0.44667591
| 54> H    1.78113740   -1.56205099    1.34072852
| 55> *
| 56>
| 57> $new_job
| 58> ! ri-mp2 aug-cc-pvqz aug-cc-pvqz/c tightscf
| 59> %pal nprocs 16 end
| 60> %maxcore 3800
| 61> %base "QZ_S66by10_14_0.8_dimer"
| 62>
| 63> *xyz 0 1
| 64> C   -0.77857334   -0.46332064    2.49038768
| 65> H    0.22474462   -0.05095294    2.41348355
| 66> H   -0.72247994   -1.48709180    2.85458464
| 67> H   -1.35190757    0.11081693    3.21368365
| 68> C   -1.52050259   -0.45662769    1.17232500
| 69> O   -2.70083521   -0.78358573    1.08959682
| 70> N   -0.79195361   -0.06964048    0.10058937
| 71> H    0.19411165    0.14570790    0.20292464
| 72> C   -1.39779834   -0.05608245   -1.21131793
| 73> H   -2.31492801    0.52889121   -1.19970991
| 74> H   -0.69880422    0.38726130   -1.91536621
| 75> H   -1.65298232   -1.06152895   -1.54543495
| 76> N    1.84330713    0.23353884    0.26713977
| 77> H    2.24697346    0.77345836    1.02233986
| 78> H    2.26131101    0.60092008   -0.57850616
| 79> C    2.21560997   -1.17764398    0.42089251
| 80> H    1.78932257   -1.74867656   -0.40048293
| 81> H    3.29100861   -1.36433343    0.44667591
| 82> H    1.78113740   -1.56205099    1.34072852
| 83> *
| 84>
| 85>
| 86>
| 87>
| 88>                          ****END OF INPUT****
 Total Charge           Charge          ....    0
 Multiplicity           Mult            ....    1
 Number of Electrons    NEL             ....   58
MP2 TOTAL ENERGY:     -343.428882590 Eh
FINAL SINGLE POINT ENERGY      -343.428882590052
MP2 TOTAL ENERGY:     -343.745598302 Eh
FINAL SINGLE POINT ENERGY      -343.745598302224

CARTESIAN COORDINATES (ANGSTROEM)
---------------------------------
  C     -0.778573   -0.463321    2.490388
  H      0.224745   -0.050953    2.413484
  H     -0.722480   -1.487092    2.854585
  H     -1.351908    0.110817    3.213684
  C     -1.520503   -0.456628    1.172325
  O     -2.700835   -0.783586    1.089597
  N     -0.791954   -0.069640    0.100589
  H      0.194112    0.145708    0.202925
  C     -1.397798   -0.056082   -1.211318
  H     -2.314928    0.528891   -1.199710
  H     -0.698804    0.387261   -1.915366
  H     -1.652982   -1.061529   -1.545435
  N      1.843307    0.233539    0.267140
  H      2.246973    0.773458    1.022340
  H      2.261311    0.600920   -0.578506
  C      2.215610   -1.177644    0.420893
  H      1.789323   -1.748677   -0.400483
  H      3.291009   -1.364333    0.446676
  H      1.781137   -1.562051    1.340729

 Multiplicity           Mult            ....    1
 Number of Electrons    NEL             ....   58
 Basis Dimension        Dim             .... 1112

ORBITAL ENERGIES
----------------

  NO   OCC          E(Eh)            E(eV)
   0   2.0000     -20.484546      -557.4128
   1   2.0000     -15.576623      -423.8615
   2   2.0000     -15.538557      -422.8256
   3   2.0000     -11.319107      -308.0086
   4   2.0000     -11.267443      -306.6027
   5   2.0000     -11.236189      -305.7522
   6   2.0000     -11.219178      -305.2893
   7   2.0000      -1.347846       -36.6767
   8   2.0000      -1.220026       -33.1986
   9   2.0000      -1.194182       -32.4954
  10   2.0000      -0.999689       -27.2029
  11   2.0000      -0.929632       -25.2966
  12   2.0000      -0.910618       -24.7792
  13   2.0000      -0.770349       -20.9623
  14   2.0000      -0.702863       -19.1259
  15   2.0000      -0.673834       -18.3360
  16   2.0000      -0.642184       -17.4747
  17   2.0000      -0.625236       -17.0135
  18   2.0000      -0.611744       -16.6464
  19   2.0000      -0.589943       -16.0532
  20   2.0000      -0.567885       -15.4529
  21   2.0000      -0.559009       -15.2114
  22   2.0000      -0.547716       -14.9041
  23   2.0000      -0.540323       -14.7029
  24   2.0000      -0.528418       -14.3790
  25   2.0000      -0.479186       -13.0393
  26   2.0000      -0.432570       -11.7708
  27   2.0000      -0.395530       -10.7629
  28   2.0000      -0.361913        -9.8482
  29   0.0000       0.014117         0.3842
  30   0.0000       0.028017         0.7624
  31   0.0000       0.028682         0.7805
  32   0.0000       0.035278         0.9600
  33   0.0000       0.046275         1.2592

MULLIKEN ATOMIC CHARGES
-----------------------
   0 C :   -0.823048
   1 H :    0.250475
   2 H :    0.243762
   3 H :    0.274592
   4 C :    0.996996
   5 O :   -0.915964
   6 N :   -0.661710
   7 H :    0.436485
   8 C :   -0.900592
   9 H :    0.333852
  10 H :    0.308163
  11 H :    0.322541
  12 N :   -0.220793
  13 H :    0.177881
  14 H :    0.132195
  15 C :   -0.953237
  16 H :    0.275754
  17 H :    0.415189
  18 H :    0.307459
Sum of atomic charges:   -0.0000000

LOEWDIN ATOMIC CHARGES
----------------------
   0 C :    0.887992
   1 H :   -0.348130
   2 H :   -0.291993
   3 H :   -0.298384
   4 C :   -0.841828
   5 O :    0.683771
   6 N :    0.804494
   7 H :   -0.842635
   8 C :    0.769729
   9 H :   -0.304747
  10 H :   -0.297021
  11 H :   -0.289474
  12 N :    1.289678
  13 H :   -0.442917
  14 H :   -0.437893
  15 C :    0.819667
  16 H :   -0.283243
  17 H :   -0.271040
  18 H :   -0.306027

  Mayer bond orders larger than 0.100000
B(  0-C ,  1-H ) :   0.9657 B(  0-C ,  2-H ) :   0.9473 B(  0-C ,  3-H ) :   0.9703
B(  0-C ,  4-C ) :   0.8949 B(  0-C ,  5-O ) :   0.1128 B(  4-C ,  5-O ) :   1.0400
B(  4-C ,  6-N ) :   1.3017 B(  5-O ,  6-N ) :   0.3237 B(  6-N ,  7-H ) :   0.7910
B(  6-N ,  8-C ) :   0.8612 B(  8-C ,  9-H ) :   0.9295 B(  8-C , 10-H ) :   0.9236
B(  8-C , 11-H ) :   0.9282 B( 12-N , 13-H ) :   0.9941 B( 12-N , 14-H ) :   1.0458
B( 12-N , 15-C ) :   0.9604 B( 15-C , 16-H ) :   0.9417 B( 15-C , 17-H ) :   0.8184
B( 15-C , 18-H ) :   0.9069

MP2 TOTAL ENERGY:     -343.844864661 Eh
FINAL SINGLE POINT ENERGY      -343.844864661488

DIPOLE MOMENT
-------------
                                X             Y             Z
Electronic contribution:     -6.45779       0.47682       1.05409
Nuclear contribution   :      9.16359      -0.01770      -1.31259
                        -----------------------------------------
Total Dipole Moment    :      2.70580       0.45912      -0.25851
                        -----------------------------------------
Magnitude (a.u.)       :      2.75663
Magnitude (Debye)      :      7.00679

Rotational constants in cm-1:     0.109587     0.049392     0.037888
Rotational constants in MHz :  3285.323970  1480.732662  1135.846952

                             ****ORCA TERMINATED NORMALLY****
TOTAL RUN TIME: 0 days 2 hours 19 minutes 42 seconds 908 msec
