                         Program Version 5.0.4 -  RELEASE  -
|  1> ! ri-mp2 aug-cc-pvdz aug-cc-pvdz/c tightscf
|  2> %pal nprocs 16 end
|  3> %maxcore 3800
|  4> %base "DZ_S66by10_57_1.05_dimer"
|  5>
|  6> *xyz 0 1
|  7> C    0.40877989    1.05102502    0.37553605
|  8> H    1.01193875    1.94854570    0.36807788
|  9> C    1.01916788   -0.19976963    0.28905343
| 10> H    2.09557130   -0.27183333    0.21719099
| 11> C    0.24172263   -1.35688270    0.29668995
| 12> H    0.71521633   -2.32658869    0.22807218
| 13> C   -1.14617971   -1.26425757    0.39390198
| 14> H   -1.74918186   -2.16192663    0.39940980
| 15> C   -1.75727780   -0.01396023    0.48295173
| 16> H   -2.83351378    0.05824368    0.55903918
| 17> C   -0.97968602    1.14420653    0.47228370
| 18> H   -1.45405142    2.11400088    0.53713589
| 19> C    0.24820385    1.96274776    4.39587566
| 20> H   -0.10994125    2.12847860    3.38258289
| 21> H    1.27278741    2.31945733    4.47731716
| 22> H   -0.35589302    2.53638359    5.09422838
| 23> C    0.21135751    0.50958465    4.81158448
| 24> O    0.49598592    0.15722323    5.95012255
| 25> N   -0.16103776   -0.35613209    3.83234339
| 26> H   -0.32216565    0.00185865    2.90627505
| 27> C   -0.19783063   -1.78301132    4.05043045
| 28> H   -0.11974306   -1.94991886    5.12042668
| 29> H   -1.13307116   -2.20136190    3.68369234
| 30> H    0.63129585   -2.28688409    3.55309302
| 31> *
| 32>
| 33> $new_job
| 34> ! ri-mp2 aug-cc-pvtz aug-cc-pvtz/c tightscf
| 35> %pal nprocs 16 end
| 36> %maxcore 3800
| 37> %base "TZ_S66by10_57_1.05_dimer"
| 38>
| 39> *xyz 0 1
| 40> C    0.40877989    1.05102502    0.37553605
| 41> H    1.01193875    1.94854570    0.36807788
| 42> C    1.01916788   -0.19976963    0.28905343
| 43> H    2.09557130   -0.27183333    0.21719099
| 44> C    0.24172263   -1.35688270    0.29668995
| 45> H    0.71521633   -2.32658869    0.22807218
| 46> C   -1.14617971   -1.26425757    0.39390198
| 47> H   -1.74918186   -2.16192663    0.39940980
| 48> C   -1.75727780   -0.01396023    0.48295173
| 49> H   -2.83351378    0.05824368    0.55903918
| 50> C   -0.97968602    1.14420653    0.47228370
| 51> H   -1.45405142    2.11400088    0.53713589
| 52> C    0.24820385    1.96274776    4.39587566
| 53> H   -0.10994125    2.12847860    3.38258289
| 54> H    1.27278741    2.31945733    4.47731716
| 55> H   -0.35589302    2.53638359    5.09422838
| 56> C    0.21135751    0.50958465    4.81158448
| 57> O    0.49598592    0.15722323    5.95012255
| 58> N   -0.16103776   -0.35613209    3.83234339
| 59> H   -0.32216565    0.00185865    2.90627505
| 60> C   -0.19783063   -1.78301132    4.05043045
| 61> H   -0.11974306   -1.94991886    5.12042668
| 62> H   -1.13307116   -2.20136190    3.68369234
| 63> H    0.63129585   -2.28688409    3.55309302
| 64> *
| 65>
| 66> $new_job
| 67> ! ri-mp2 aug-cc-pvqz aug-cc-pvqz/c tightscf
| 68> %pal nprocs 16 end
| 69> %maxcore 3800
| 70> %base "QZ_S66by10_57_1.05_dimer"
| 71>
| 72> *xyz 0 1
| 73> C    0.40877989    1.05102502    0.37553605
| 74> H    1.01193875    1.94854570    0.36807788
| 75> C    1.01916788   -0.19976963    0.28905343
| 76> H    2.09557130   -0.27183333    0.21719099
| 77> C    0.24172263   -1.35688270    0.29668995
| 78> H    0.71521633   -2.32658869    0.22807218
| 79> C   -1.14617971   -1.26425757    0.39390198
| 80> H   -1.74918186   -2.16192663    0.39940980
| 81> C   -1.75727780   -0.01396023    0.48295173
| 82> H   -2.83351378    0.05824368    0.55903918
| 83> C   -0.97968602    1.14420653    0.47228370
| 84> H   -1.45405142    2.11400088    0.53713589
| 85> C    0.24820385    1.96274776    4.39587566
| 86> H   -0.10994125    2.12847860    3.38258289
| 87> H    1.27278741    2.31945733    4.47731716
| 88> H   -0.35589302    2.53638359    5.09422838
| 89> C    0.21135751    0.50958465    4.81158448
| 90> O    0.49598592    0.15722323    5.95012255
| 91> N   -0.16103776   -0.35613209    3.83234339
| 92> H   -0.32216565    0.00185865    2.90627505
| 93> C   -0.19783063   -1.78301132    4.05043045
| 94> H   -0.11974306   -1.94991886    5.12042668
| 95> H   -1.13307116   -2.20136190    3.68369234
| 96> H    0.63129585   -2.28688409    3.55309302
| 97> *
| 98>
| 99>
|100>
|101>
|102>                          ****END OF INPUT****
 Total Charge           Charge          ....    0
 Multiplicity           Mult            ....    1
 Number of Electrons    NEL             ....   82
MP2 TOTAL ENERGY:     -479.398720330 Eh
FINAL SINGLE POINT ENERGY      -479.398720329818
MP2 TOTAL ENERGY:     -479.826346283 Eh
FINAL SINGLE POINT ENERGY      -479.826346282824

CARTESIAN COORDINATES (ANGSTROEM)
---------------------------------
  C      0.408780    1.051025    0.375536
  H      1.011939    1.948546    0.368078
  C      1.019168   -0.199770    0.289053
  H      2.095571   -0.271833    0.217191
  C      0.241723   -1.356883    0.296690
  H      0.715216   -2.326589    0.228072
  C     -1.146180   -1.264258    0.393902
  H     -1.749182   -2.161927    0.399410
  C     -1.757278   -0.013960    0.482952
  H     -2.833514    0.058244    0.559039
  C     -0.979686    1.144207    0.472284
  H     -1.454051    2.114001    0.537136
  C      0.248204    1.962748    4.395876
  H     -0.109941    2.128479    3.382583
  H      1.272787    2.319457    4.477317
  H     -0.355893    2.536384    5.094228
  C      0.211358    0.509585    4.811584
  O      0.495986    0.157223    5.950123
  N     -0.161038   -0.356132    3.832343
  H     -0.322166    0.001859    2.906275
  C     -0.197831   -1.783011    4.050430
  H     -0.119743   -1.949919    5.120427
  H     -1.133071   -2.201362    3.683692
  H      0.631296   -2.286884    3.553093

 Multiplicity           Mult            ....    1
 Number of Electrons    NEL             ....   82
 Basis Dimension        Dim             .... 1478

ORBITAL ENERGIES
----------------

  NO   OCC          E(Eh)            E(eV)
   0   2.0000     -20.497723      -557.7714
   1   2.0000     -15.570425      -423.6928
   2   2.0000     -11.335609      -308.4576
   3   2.0000     -11.253105      -306.2126
   4   2.0000     -11.252377      -306.1927
   5   2.0000     -11.252145      -306.1864
   6   2.0000     -11.251226      -306.1614
   7   2.0000     -11.250966      -306.1543
   8   2.0000     -11.250234      -306.1344
   9   2.0000     -11.244949      -305.9906
  10   2.0000     -11.224635      -305.4379
  11   2.0000      -1.362103       -37.0647
  12   2.0000      -1.218149       -33.1475
  13   2.0000      -1.168526       -31.7972
  14   2.0000      -1.032685       -28.1008
  15   2.0000      -1.032384       -28.0926
  16   2.0000      -1.008478       -27.4421
  17   2.0000      -0.921508       -25.0755
  18   2.0000      -0.841483       -22.8979
  19   2.0000      -0.841367       -22.8948
  20   2.0000      -0.777603       -21.1597
  21   2.0000      -0.727084       -19.7850
  22   2.0000      -0.680476       -18.5167
  23   2.0000      -0.661052       -17.9881
  24   2.0000      -0.642183       -17.4747
  25   2.0000      -0.636569       -17.3219
  26   2.0000      -0.623066       -16.9545
  27   2.0000      -0.605581       -16.4787
  28   2.0000      -0.605354       -16.4725
  29   2.0000      -0.577930       -15.7263
  30   2.0000      -0.571913       -15.5625
  31   2.0000      -0.545141       -14.8340
  32   2.0000      -0.536116       -14.5885
  33   2.0000      -0.518777       -14.1166
  34   2.0000      -0.512149       -13.9363
  35   2.0000      -0.511984       -13.9318
  36   2.0000      -0.494492       -13.4558
  37   2.0000      -0.410630       -11.1738
  38   2.0000      -0.380749       -10.3607
  39   2.0000      -0.356124        -9.6906
  40   2.0000      -0.354927        -9.6580
  41   0.0000       0.019211         0.5228
  42   0.0000       0.024741         0.6732
  43   0.0000       0.025527         0.6946
  44   0.0000       0.037322         1.0156
  45   0.0000       0.037607         1.0233

MULLIKEN ATOMIC CHARGES
-----------------------
   0 C :   -0.296091
   1 H :    0.323777
   2 C :   -0.330143
   3 H :    0.303277
   4 C :   -0.359753
   5 H :    0.286596
   6 C :   -0.296190
   7 H :    0.354632
   8 C :   -0.366955
   9 H :    0.297150
  10 C :   -0.286145
  11 H :    0.309279
  12 C :   -0.912284
  13 H :    0.284489
  14 H :    0.259638
  15 H :    0.297705
  16 C :    0.938561
  17 O :   -0.907070
  18 N :   -0.634587
  19 H :    0.688469
  20 C :   -0.967083
  21 H :    0.365369
  22 H :    0.305028
  23 H :    0.342333
Sum of atomic charges:   -0.0000000

LOEWDIN ATOMIC CHARGES
----------------------
   0 C :    0.326851
   1 H :   -0.317607
   2 C :    0.335904
   3 H :   -0.317616
   4 C :    0.327199
   5 H :   -0.317477
   6 C :    0.326925
   7 H :   -0.317549
   8 C :    0.334117
   9 H :   -0.317411
  10 C :    0.325619
  11 H :   -0.317908
  12 C :    0.891436
  13 H :   -0.329340
  14 H :   -0.294381
  15 H :   -0.299541
  16 C :   -0.825660
  17 O :    0.697008
  18 N :    0.827688
  19 H :   -0.593186
  20 C :    0.779087
  21 H :   -0.356000
  22 H :   -0.287194
  23 H :   -0.280963

  Mayer bond orders larger than 0.100000
B(  0-C ,  1-H ) :   1.0287 B(  0-C ,  2-C ) :   1.2567 B(  0-C ,  6-C ) :   0.1182
B(  0-C , 10-C ) :   1.1213 B(  2-C ,  3-H ) :   1.0356 B(  2-C ,  4-C ) :   1.3043
B(  2-C ,  8-C ) :   0.2808 B(  4-C ,  5-H ) :   1.0663 B(  4-C ,  6-C ) :   1.1451
B(  4-C , 10-C ) :   0.1069 B(  6-C ,  7-H ) :   0.9839 B(  6-C ,  8-C ) :   1.2967
B(  8-C ,  9-H ) :   1.0490 B(  8-C , 10-C ) :   1.2856 B( 10-C , 11-H ) :   1.0507
B( 12-C , 13-H ) :   0.9399 B( 12-C , 14-H ) :   0.9469 B( 12-C , 15-H ) :   0.9564
B( 12-C , 16-C ) :   0.9466 B( 12-C , 17-O ) :   0.1577 B( 16-C , 17-O ) :   1.0949
B( 16-C , 18-N ) :   1.2214 B( 17-O , 18-N ) :   0.2097 B( 18-N , 19-H ) :   0.6855
B( 18-N , 20-C ) :   0.8009 B( 20-C , 21-H ) :   0.8834 B( 20-C , 22-H ) :   0.9482
B( 20-C , 23-H ) :   0.9135

MP2 TOTAL ENERGY:     -479.961552946 Eh
FINAL SINGLE POINT ENERGY      -479.961552946130

DIPOLE MOMENT
-------------
                                X             Y             Z
Electronic contribution:      0.18666       0.04499      -0.99504
Nuclear contribution   :     -0.57243       0.07352      -0.87325
                        -----------------------------------------
Total Dipole Moment    :     -0.38576       0.11851      -1.86829
                        -----------------------------------------
Magnitude (a.u.)       :      1.91138
Magnitude (Debye)      :      4.85835

Rotational constants in cm-1:     0.056543     0.020272     0.017849
Rotational constants in MHz :  1695.118361   607.727196   535.100908

                             ****ORCA TERMINATED NORMALLY****
TOTAL RUN TIME: 0 days 1 hours 47 minutes 26 seconds 357 msec
