                         Program Version 5.0.4 -  RELEASE  -
|  1> ! ri-mp2 aug-cc-pvdz aug-cc-pvdz/c tightscf
|  2> %pal nprocs 16 end
|  3> %maxcore 3800
|  4> %base "DZ_S66by10_57_0.9_dimer"
|  5>
|  6> *xyz 0 1
|  7> C    0.40877989    1.05102502    0.37553605
|  8> H    1.01193875    1.94854570    0.36807788
|  9> C    1.01916788   -0.19976963    0.28905343
| 10> H    2.09557130   -0.27183333    0.21719099
| 11> C    0.24172263   -1.35688270    0.29668995
| 12> H    0.71521633   -2.32658869    0.22807218
| 13> C   -1.14617971   -1.26425757    0.39390198
| 14> H   -1.74918186   -2.16192663    0.39940980
| 15> C   -1.75727780   -0.01396023    0.48295173
| 16> H   -2.83351378    0.05824368    0.55903918
| 17> C   -0.97968602    1.14420653    0.47228370
| 18> H   -1.45405142    2.11400088    0.53713589
| 19> C    0.23948429    1.94251919    3.92566666
| 20> H   -0.11866081    2.10825004    2.91237389
| 21> H    1.26406785    2.29922876    4.00710817
| 22> H   -0.36461258    2.51615502    4.62401938
| 23> C    0.20263796    0.48935608    4.34137549
| 24> O    0.48726636    0.13699466    5.47991355
| 25> N   -0.16975731   -0.37636066    3.36213440
| 26> H   -0.33088521   -0.01836992    2.43606606
| 27> C   -0.20655018   -1.80323989    3.58022146
| 28> H   -0.12846262   -1.97014743    4.65021769
| 29> H   -1.14179072   -2.22159047    3.21348335
| 30> H    0.62257629   -2.30711266    3.08288402
| 31> *
| 32>
| 33> $new_job
| 34> ! ri-mp2 aug-cc-pvtz aug-cc-pvtz/c tightscf
| 35> %pal nprocs 16 end
| 36> %maxcore 3800
| 37> %base "TZ_S66by10_57_0.9_dimer"
| 38>
| 39> *xyz 0 1
| 40> C    0.40877989    1.05102502    0.37553605
| 41> H    1.01193875    1.94854570    0.36807788
| 42> C    1.01916788   -0.19976963    0.28905343
| 43> H    2.09557130   -0.27183333    0.21719099
| 44> C    0.24172263   -1.35688270    0.29668995
| 45> H    0.71521633   -2.32658869    0.22807218
| 46> C   -1.14617971   -1.26425757    0.39390198
| 47> H   -1.74918186   -2.16192663    0.39940980
| 48> C   -1.75727780   -0.01396023    0.48295173
| 49> H   -2.83351378    0.05824368    0.55903918
| 50> C   -0.97968602    1.14420653    0.47228370
| 51> H   -1.45405142    2.11400088    0.53713589
| 52> C    0.23948429    1.94251919    3.92566666
| 53> H   -0.11866081    2.10825004    2.91237389
| 54> H    1.26406785    2.29922876    4.00710817
| 55> H   -0.36461258    2.51615502    4.62401938
| 56> C    0.20263796    0.48935608    4.34137549
| 57> O    0.48726636    0.13699466    5.47991355
| 58> N   -0.16975731   -0.37636066    3.36213440
| 59> H   -0.33088521   -0.01836992    2.43606606
| 60> C   -0.20655018   -1.80323989    3.58022146
| 61> H   -0.12846262   -1.97014743    4.65021769
| 62> H   -1.14179072   -2.22159047    3.21348335
| 63> H    0.62257629   -2.30711266    3.08288402
| 64> *
| 65>
| 66> $new_job
| 67> ! ri-mp2 aug-cc-pvqz aug-cc-pvqz/c tightscf
| 68> %pal nprocs 16 end
| 69> %maxcore 3800
| 70> %base "QZ_S66by10_57_0.9_dimer"
| 71>
| 72> *xyz 0 1
| 73> C    0.40877989    1.05102502    0.37553605
| 74> H    1.01193875    1.94854570    0.36807788
| 75> C    1.01916788   -0.19976963    0.28905343
| 76> H    2.09557130   -0.27183333    0.21719099
| 77> C    0.24172263   -1.35688270    0.29668995
| 78> H    0.71521633   -2.32658869    0.22807218
| 79> C   -1.14617971   -1.26425757    0.39390198
| 80> H   -1.74918186   -2.16192663    0.39940980
| 81> C   -1.75727780   -0.01396023    0.48295173
| 82> H   -2.83351378    0.05824368    0.55903918
| 83> C   -0.97968602    1.14420653    0.47228370
| 84> H   -1.45405142    2.11400088    0.53713589
| 85> C    0.23948429    1.94251919    3.92566666
| 86> H   -0.11866081    2.10825004    2.91237389
| 87> H    1.26406785    2.29922876    4.00710817
| 88> H   -0.36461258    2.51615502    4.62401938
| 89> C    0.20263796    0.48935608    4.34137549
| 90> O    0.48726636    0.13699466    5.47991355
| 91> N   -0.16975731   -0.37636066    3.36213440
| 92> H   -0.33088521   -0.01836992    2.43606606
| 93> C   -0.20655018   -1.80323989    3.58022146
| 94> H   -0.12846262   -1.97014743    4.65021769
| 95> H   -1.14179072   -2.22159047    3.21348335
| 96> H    0.62257629   -2.30711266    3.08288402
| 97> *
| 98>
| 99>
|100>
|101>
|102>                          ****END OF INPUT****
 Total Charge           Charge          ....    0
 Multiplicity           Mult            ....    1
 Number of Electrons    NEL             ....   82
MP2 TOTAL ENERGY:     -479.399399492 Eh
FINAL SINGLE POINT ENERGY      -479.399399491746
MP2 TOTAL ENERGY:     -479.826293122 Eh
FINAL SINGLE POINT ENERGY      -479.826293121724

CARTESIAN COORDINATES (ANGSTROEM)
---------------------------------
  C      0.408780    1.051025    0.375536
  H      1.011939    1.948546    0.368078
  C      1.019168   -0.199770    0.289053
  H      2.095571   -0.271833    0.217191
  C      0.241723   -1.356883    0.296690
  H      0.715216   -2.326589    0.228072
  C     -1.146180   -1.264258    0.393902
  H     -1.749182   -2.161927    0.399410
  C     -1.757278   -0.013960    0.482952
  H     -2.833514    0.058244    0.559039
  C     -0.979686    1.144207    0.472284
  H     -1.454051    2.114001    0.537136
  C      0.239484    1.942519    3.925667
  H     -0.118661    2.108250    2.912374
  H      1.264068    2.299229    4.007108
  H     -0.364613    2.516155    4.624019
  C      0.202638    0.489356    4.341375
  O      0.487266    0.136995    5.479914
  N     -0.169757   -0.376361    3.362134
  H     -0.330885   -0.018370    2.436066
  C     -0.206550   -1.803240    3.580221
  H     -0.128463   -1.970147    4.650218
  H     -1.141791   -2.221590    3.213483
  H      0.622576   -2.307113    3.082884

 Multiplicity           Mult            ....    1
 Number of Electrons    NEL             ....   82
 Basis Dimension        Dim             .... 1478

ORBITAL ENERGIES
----------------

  NO   OCC          E(Eh)            E(eV)
   0   2.0000     -20.494073      -557.6721
   1   2.0000     -15.563665      -423.5089
   2   2.0000     -11.331886      -308.3563
   3   2.0000     -11.255396      -306.2749
   4   2.0000     -11.254656      -306.2548
   5   2.0000     -11.254202      -306.2424
   6   2.0000     -11.253445      -306.2218
   7   2.0000     -11.253064      -306.2114
   8   2.0000     -11.252245      -306.1891
   9   2.0000     -11.242293      -305.9184
  10   2.0000     -11.221618      -305.3558
  11   2.0000      -1.358619       -36.9699
  12   2.0000      -1.215050       -33.0632
  13   2.0000      -1.171940       -31.8901
  14   2.0000      -1.036525       -28.2053
  15   2.0000      -1.035503       -28.1775
  16   2.0000      -1.005503       -27.3611
  17   2.0000      -0.919023       -25.0079
  18   2.0000      -0.844232       -22.9727
  19   2.0000      -0.844103       -22.9692
  20   2.0000      -0.776401       -21.1269
  21   2.0000      -0.729930       -19.8624
  22   2.0000      -0.678549       -18.4643
  23   2.0000      -0.663578       -18.0569
  24   2.0000      -0.640076       -17.4174
  25   2.0000      -0.638594       -17.3770
  26   2.0000      -0.620407       -16.8821
  27   2.0000      -0.608647       -16.5621
  28   2.0000      -0.608160       -16.5489
  29   2.0000      -0.575885       -15.6706
  30   2.0000      -0.572477       -15.5779
  31   2.0000      -0.542962       -14.7747
  32   2.0000      -0.535712       -14.5775
  33   2.0000      -0.514737       -14.0067
  34   2.0000      -0.514450       -13.9989
  35   2.0000      -0.513089       -13.9619
  36   2.0000      -0.491706       -13.3800
  37   2.0000      -0.407616       -11.0918
  38   2.0000      -0.380484       -10.3535
  39   2.0000      -0.358648        -9.7593
  40   2.0000      -0.354649        -9.6505
  41   0.0000       0.018872         0.5135
  42   0.0000       0.024700         0.6721
  43   0.0000       0.025578         0.6960
  44   0.0000       0.037400         1.0177
  45   0.0000       0.037685         1.0254

MULLIKEN ATOMIC CHARGES
-----------------------
   0 C :   -0.224704
   1 H :    0.272632
   2 C :   -0.408909
   3 H :    0.263976
   4 C :   -0.337009
   5 H :    0.269513
   6 C :   -0.282946
   7 H :    0.318313
   8 C :   -0.407729
   9 H :    0.241172
  10 C :   -0.232209
  11 H :    0.307150
  12 C :   -0.926478
  13 H :    0.278099
  14 H :    0.246044
  15 H :    0.291394
  16 C :    1.006664
  17 O :   -0.924777
  18 N :   -0.681443
  19 H :    0.936291
  20 C :   -0.987466
  21 H :    0.349609
  22 H :    0.291992
  23 H :    0.340823
Sum of atomic charges:   -0.0000000

LOEWDIN ATOMIC CHARGES
----------------------
   0 C :    0.333772
   1 H :   -0.306176
   2 C :    0.350997
   3 H :   -0.307534
   4 C :    0.328502
   5 H :   -0.308012
   6 C :    0.329853
   7 H :   -0.307662
   8 C :    0.350487
   9 H :   -0.306493
  10 C :    0.334482
  11 H :   -0.305690
  12 C :    0.894490
  13 H :   -0.354288
  14 H :   -0.290135
  15 H :   -0.295926
  16 C :   -0.811596
  17 O :    0.697879
  18 N :    0.830671
  19 H :   -0.714759
  20 C :    0.780156
  21 H :   -0.350373
  22 H :   -0.289242
  23 H :   -0.283404

  Mayer bond orders larger than 0.100000
B(  0-C ,  1-H ) :   1.0643 B(  0-C ,  2-C ) :   1.2286 B(  0-C ,  6-C ) :   0.1195
B(  0-C , 10-C ) :   1.1117 B(  2-C ,  3-H ) :   1.0759 B(  2-C ,  4-C ) :   1.3675
B(  2-C ,  8-C ) :   0.2473 B(  4-C ,  5-H ) :   1.0755 B(  4-C ,  6-C ) :   1.1474
B(  4-C , 10-C ) :   0.1238 B(  6-C ,  7-H ) :   1.0077 B(  6-C ,  8-C ) :   1.3369
B(  8-C ,  9-H ) :   1.1079 B(  8-C , 10-C ) :   1.2577 B( 10-C , 11-H ) :   1.0331
B( 12-C , 13-H ) :   0.9369 B( 12-C , 14-H ) :   0.9615 B( 12-C , 15-H ) :   0.9675
B( 12-C , 16-C ) :   0.9192 B( 12-C , 17-O ) :   0.1756 B( 16-C , 17-O ) :   1.0144
B( 16-C , 18-N ) :   1.3200 B( 16-C , 19-H ) :  -0.1100 B( 17-O , 18-N ) :   0.2552
B( 18-N , 19-H ) :   0.5284 B( 18-N , 20-C ) :   0.8058 B( 20-C , 21-H ) :   0.9030
B( 20-C , 22-H ) :   0.9710 B( 20-C , 23-H ) :   0.9378

MP2 TOTAL ENERGY:     -479.960954352 Eh
FINAL SINGLE POINT ENERGY      -479.960954351931

DIPOLE MOMENT
-------------
                                X             Y             Z
Electronic contribution:      0.18297       0.05048      -0.72120
Nuclear contribution   :     -0.57837       0.05972      -1.19393
                        -----------------------------------------
Total Dipole Moment    :     -0.39540       0.11020      -1.91512
                        -----------------------------------------
Magnitude (a.u.)       :      1.95862
Magnitude (Debye)      :      4.97841

Rotational constants in cm-1:     0.056754     0.024422     0.021001
Rotational constants in MHz :  1701.435915   732.142257   629.589557

                             ****ORCA TERMINATED NORMALLY****
TOTAL RUN TIME: 0 days 1 hours 44 minutes 4 seconds 262 msec
