                         Program Version 5.0.4 -  RELEASE  -
|  1> ! ri-mp2 aug-cc-pvdz aug-cc-pvdz/c tightscf
|  2> %pal nprocs 16 end
|  3> %maxcore 3800
|  4> %base "DZ_S66by10_13_0.8_dimer"
|  5> %scf STABPerform true end
|  6>
|  7> *xyz 0 1
|  8> C   -0.84931672   -0.33949876    2.49171664
|  9> H    0.18434396   -0.01104732    2.41618542
| 10> H   -0.88249791   -1.34205140    2.91270310
| 11> H   -1.39080263    0.31687828    3.16842897
| 12> C   -1.56403192   -0.35332311    1.15947545
| 13> O   -2.74952638   -0.65153776    1.05676087
| 14> N   -0.80165352   -0.02735461    0.08834167
| 15> H    0.16118756    0.24036035    0.21871364
| 16> C   -1.38534986   -0.00235149   -1.23413683
| 17> H   -1.89161720   -0.94280123   -1.44009631
| 18> H   -2.11997230    0.79621180   -1.33087952
| 19> H   -0.59464593    0.14957065   -1.96312772
| 20> O    1.76191987    0.24980414    0.40910005
| 21> H    2.48277468    0.87710376    0.49951487
| 22> C    2.28100403   -1.05556152    0.64298184
| 23> H    1.44843253   -1.74434921    0.53740528
| 24> H    3.04714279   -1.32455426   -0.08389893
| 25> H    2.68910107   -1.15701071    1.64861633
| 26> *
| 27>
| 28> $new_job
| 29> ! ri-mp2 aug-cc-pvtz aug-cc-pvtz/c tightscf
| 30> %pal nprocs 16 end
| 31> %maxcore 3800
| 32> %base "TZ_S66by10_13_0.8_dimer"
| 33>
| 34> *xyz 0 1
| 35> C   -0.84931672   -0.33949876    2.49171664
| 36> H    0.18434396   -0.01104732    2.41618542
| 37> H   -0.88249791   -1.34205140    2.91270310
| 38> H   -1.39080263    0.31687828    3.16842897
| 39> C   -1.56403192   -0.35332311    1.15947545
| 40> O   -2.74952638   -0.65153776    1.05676087
| 41> N   -0.80165352   -0.02735461    0.08834167
| 42> H    0.16118756    0.24036035    0.21871364
| 43> C   -1.38534986   -0.00235149   -1.23413683
| 44> H   -1.89161720   -0.94280123   -1.44009631
| 45> H   -2.11997230    0.79621180   -1.33087952
| 46> H   -0.59464593    0.14957065   -1.96312772
| 47> O    1.76191987    0.24980414    0.40910005
| 48> H    2.48277468    0.87710376    0.49951487
| 49> C    2.28100403   -1.05556152    0.64298184
| 50> H    1.44843253   -1.74434921    0.53740528
| 51> H    3.04714279   -1.32455426   -0.08389893
| 52> H    2.68910107   -1.15701071    1.64861633
| 53> *
| 54>
| 55> $new_job
| 56> ! ri-mp2 aug-cc-pvqz aug-cc-pvqz/c tightscf
| 57> %pal nprocs 16 end
| 58> %maxcore 3800
| 59> %base "QZ_S66by10_13_0.8_dimer"
| 60>
| 61> *xyz 0 1
| 62> C   -0.84931672   -0.33949876    2.49171664
| 63> H    0.18434396   -0.01104732    2.41618542
| 64> H   -0.88249791   -1.34205140    2.91270310
| 65> H   -1.39080263    0.31687828    3.16842897
| 66> C   -1.56403192   -0.35332311    1.15947545
| 67> O   -2.74952638   -0.65153776    1.05676087
| 68> N   -0.80165352   -0.02735461    0.08834167
| 69> H    0.16118756    0.24036035    0.21871364
| 70> C   -1.38534986   -0.00235149   -1.23413683
| 71> H   -1.89161720   -0.94280123   -1.44009631
| 72> H   -2.11997230    0.79621180   -1.33087952
| 73> H   -0.59464593    0.14957065   -1.96312772
| 74> O    1.76191987    0.24980414    0.40910005
| 75> H    2.48277468    0.87710376    0.49951487
| 76> C    2.28100403   -1.05556152    0.64298184
| 77> H    1.44843253   -1.74434921    0.53740528
| 78> H    3.04714279   -1.32455426   -0.08389893
| 79> H    2.68910107   -1.15701071    1.64861633
| 80> *
| 81>
| 82>
| 83>
| 84>
| 85>                          ****END OF INPUT****
 Total Charge           Charge          ....    0
 Multiplicity           Mult            ....    1
 Number of Electrons    NEL             ....   58
MP2 TOTAL ENERGY:     -363.275275027 Eh
FINAL SINGLE POINT ENERGY      -363.275275026541
MP2 TOTAL ENERGY:     -363.606125606 Eh
FINAL SINGLE POINT ENERGY      -363.606125606139

CARTESIAN COORDINATES (ANGSTROEM)
---------------------------------
  C     -0.849317   -0.339499    2.491717
  H      0.184344   -0.011047    2.416185
  H     -0.882498   -1.342051    2.912703
  H     -1.390803    0.316878    3.168429
  C     -1.564032   -0.353323    1.159475
  O     -2.749526   -0.651538    1.056761
  N     -0.801654   -0.027355    0.088342
  H      0.161188    0.240360    0.218714
  C     -1.385350   -0.002351   -1.234137
  H     -1.891617   -0.942801   -1.440096
  H     -2.119972    0.796212   -1.330880
  H     -0.594646    0.149571   -1.963128
  O      1.761920    0.249804    0.409100
  H      2.482775    0.877104    0.499515
  C      2.281004   -1.055562    0.642982
  H      1.448433   -1.744349    0.537405
  H      3.047143   -1.324554   -0.083899
  H      2.689101   -1.157011    1.648616

 Multiplicity           Mult            ....    1
 Number of Electrons    NEL             ....   58
 Basis Dimension        Dim             .... 1066

ORBITAL ENERGIES
----------------

  NO   OCC          E(Eh)            E(eV)
   0   2.0000     -20.597273      -560.4803
   1   2.0000     -20.487358      -557.4894
   2   2.0000     -15.546584      -423.0441
   3   2.0000     -11.321998      -308.0872
   4   2.0000     -11.297174      -307.4117
   5   2.0000     -11.237111      -305.7773
   6   2.0000     -11.217636      -305.2474
   7   2.0000      -1.404093       -38.2073
   8   2.0000      -1.350961       -36.7615
   9   2.0000      -1.203161       -32.7397
  10   2.0000      -1.000045       -27.2126
  11   2.0000      -0.958729       -26.0883
  12   2.0000      -0.912451       -24.8290
  13   2.0000      -0.788963       -21.4688
  14   2.0000      -0.723075       -19.6759
  15   2.0000      -0.671960       -18.2850
  16   2.0000      -0.658535       -17.9197
  17   2.0000      -0.635896       -17.3036
  18   2.0000      -0.621786       -16.9197
  19   2.0000      -0.612941       -16.6790
  20   2.0000      -0.567489       -15.4422
  21   2.0000      -0.562528       -15.3072
  22   2.0000      -0.553096       -15.0505
  23   2.0000      -0.531269       -14.4566
  24   2.0000      -0.515375       -14.0241
  25   2.0000      -0.492209       -13.3937
  26   2.0000      -0.480848       -13.0845
  27   2.0000      -0.399940       -10.8829
  28   2.0000      -0.366423        -9.9709
  29   0.0000       0.013827         0.3762
  30   0.0000       0.028059         0.7635
  31   0.0000       0.028591         0.7780
  32   0.0000       0.037053         1.0083
  33   0.0000       0.046684         1.2703

MULLIKEN ATOMIC CHARGES
-----------------------
   0 C :   -0.849277
   1 H :    0.274326
   2 H :    0.241399
   3 H :    0.291502
   4 C :    0.977943
   5 O :   -0.911207
   6 N :   -0.425415
   7 H :    0.348911
   8 C :   -0.870235
   9 H :    0.308098
  10 H :    0.331147
  11 H :    0.308499
  12 O :   -0.681149
  13 H :    0.312657
  14 C :   -0.701540
  15 H :    0.303509
  16 H :    0.428056
  17 H :    0.312777
Sum of atomic charges:   -0.0000000

LOEWDIN ATOMIC CHARGES
----------------------
   0 C :    0.886889
   1 H :   -0.348665
   2 H :   -0.296200
   3 H :   -0.298544
   4 C :   -0.844012
   5 O :    0.685372
   6 N :    0.803453
   7 H :   -0.897439
   8 C :    0.774010
   9 H :   -0.306995
  10 H :   -0.289051
  11 H :   -0.296082
  12 O :    1.359091
  13 H :   -0.691654
  14 C :    0.669603
  15 H :   -0.323351
  16 H :   -0.292873
  17 H :   -0.293552

  Mayer bond orders larger than 0.100000
B(  0-C ,  1-H ) :   0.9773 B(  0-C ,  2-H ) :   0.9621 B(  0-C ,  3-H ) :   0.9426
B(  0-C ,  4-C ) :   0.8694 B(  4-C ,  5-O ) :   1.1227 B(  4-C ,  6-N ) :   1.2521
B(  5-O ,  6-N ) :   0.2916 B(  6-N ,  7-H ) :   0.7790 B(  6-N ,  8-C ) :   0.8749
B(  7-H , 12-O ) :   0.1294 B(  8-C ,  9-H ) :   0.9455 B(  8-C , 10-H ) :   0.9330
B(  8-C , 11-H ) :   0.9143 B( 12-O , 13-H ) :   0.9287 B( 12-O , 14-C ) :   0.8188
B( 14-C , 15-H ) :   0.9008 B( 14-C , 16-H ) :   0.8047 B( 14-C , 17-H ) :   0.8984

MP2 TOTAL ENERGY:     -363.710795676 Eh
FINAL SINGLE POINT ENERGY      -363.710795676402

DIPOLE MOMENT
-------------
                                X             Y             Z
Electronic contribution:     -4.31369       1.04850       0.45177
Nuclear contribution   :      7.06717      -0.73870      -0.50655
                        -----------------------------------------
Total Dipole Moment    :      2.75348       0.30980      -0.05478
                        -----------------------------------------
Magnitude (a.u.)       :      2.77139
Magnitude (Debye)      :      7.04433

Rotational constants in cm-1:     0.112112     0.048832     0.037322
Rotational constants in MHz :  3361.045962  1463.945657  1118.887569

                             ****ORCA TERMINATED NORMALLY****
TOTAL RUN TIME: 0 days 2 hours 3 minutes 59 seconds 111 msec
