                         Program Version 5.0.4 -  RELEASE  -
|  1> ! ri-mp2 aug-cc-pvdz aug-cc-pvdz/c tightscf
|  2> %pal nprocs 16 end
|  3> %maxcore 3800
|  4> %base "DZ_S66by10_20_0.95_dimer"
|  5> %scf STABPerform true end
|  6>
|  7> *xyz 0 1
|  8> C   -1.06170920    1.29714057    0.29206000
|  9> O   -0.35816112    2.27045861    0.53181267
| 10> O   -0.58930352    0.09491776    0.00378881
| 11> H    0.40443566    0.12772262    0.01841184
| 12> C   -2.55842780    1.34254982    0.29625732
| 13> H   -2.89599798    2.34746400    0.51831634
| 14> H   -2.93288928    1.02239045   -0.67299555
| 15> H   -2.93721196    0.64491043    1.03955708
| 16> C    2.71508944    1.10809064    0.27061547
| 17> O    2.01147108    0.13477615    0.03082786
| 18> O    2.24266311    2.31052602    0.55839394
| 19> H    1.24887457    2.27762779    0.54399343
| 20> C    4.21180189    1.06218789    0.26865107
| 21> H    4.54938145    0.06086870    0.03112558
| 22> H    4.59330043    1.77254083   -0.46081783
| 23> H    4.58331820    1.36488241    1.24470643
| 24> *
| 25>
| 26> $new_job
| 27> ! ri-mp2 aug-cc-pvtz aug-cc-pvtz/c tightscf
| 28> %pal nprocs 16 end
| 29> %maxcore 3800
| 30> %base "TZ_S66by10_20_0.95_dimer"
| 31>
| 32> *xyz 0 1
| 33> C   -1.06170920    1.29714057    0.29206000
| 34> O   -0.35816112    2.27045861    0.53181267
| 35> O   -0.58930352    0.09491776    0.00378881
| 36> H    0.40443566    0.12772262    0.01841184
| 37> C   -2.55842780    1.34254982    0.29625732
| 38> H   -2.89599798    2.34746400    0.51831634
| 39> H   -2.93288928    1.02239045   -0.67299555
| 40> H   -2.93721196    0.64491043    1.03955708
| 41> C    2.71508944    1.10809064    0.27061547
| 42> O    2.01147108    0.13477615    0.03082786
| 43> O    2.24266311    2.31052602    0.55839394
| 44> H    1.24887457    2.27762779    0.54399343
| 45> C    4.21180189    1.06218789    0.26865107
| 46> H    4.54938145    0.06086870    0.03112558
| 47> H    4.59330043    1.77254083   -0.46081783
| 48> H    4.58331820    1.36488241    1.24470643
| 49> *
| 50>
| 51> $new_job
| 52> ! ri-mp2 aug-cc-pvqz aug-cc-pvqz/c tightscf
| 53> %pal nprocs 16 end
| 54> %maxcore 3800
| 55> %base "QZ_S66by10_20_0.95_dimer"
| 56>
| 57> *xyz 0 1
| 58> C   -1.06170920    1.29714057    0.29206000
| 59> O   -0.35816112    2.27045861    0.53181267
| 60> O   -0.58930352    0.09491776    0.00378881
| 61> H    0.40443566    0.12772262    0.01841184
| 62> C   -2.55842780    1.34254982    0.29625732
| 63> H   -2.89599798    2.34746400    0.51831634
| 64> H   -2.93288928    1.02239045   -0.67299555
| 65> H   -2.93721196    0.64491043    1.03955708
| 66> C    2.71508944    1.10809064    0.27061547
| 67> O    2.01147108    0.13477615    0.03082786
| 68> O    2.24266311    2.31052602    0.55839394
| 69> H    1.24887457    2.27762779    0.54399343
| 70> C    4.21180189    1.06218789    0.26865107
| 71> H    4.54938145    0.06086870    0.03112558
| 72> H    4.59330043    1.77254083   -0.46081783
| 73> H    4.58331820    1.36488241    1.24470643
| 74> *
| 75>
| 76>
| 77>
| 78>
| 79>                          ****END OF INPUT****
 Total Charge           Charge          ....    0
 Multiplicity           Mult            ....    1
 Number of Electrons    NEL             ....   64
MP2 TOTAL ENERGY:     -457.074058133 Eh
FINAL SINGLE POINT ENERGY      -457.074058133121
MP2 TOTAL ENERGY:     -457.472481542 Eh
FINAL SINGLE POINT ENERGY      -457.472481542035

CARTESIAN COORDINATES (ANGSTROEM)
---------------------------------
  C     -1.061709    1.297141    0.292060
  O     -0.358161    2.270459    0.531813
  O     -0.589304    0.094918    0.003789
  H      0.404436    0.127723    0.018412
  C     -2.558428    1.342550    0.296257
  H     -2.895998    2.347464    0.518316
  H     -2.932889    1.022390   -0.672996
  H     -2.937212    0.644910    1.039557
  C      2.715089    1.108091    0.270615
  O      2.011471    0.134776    0.030828
  O      2.242663    2.310526    0.558394
  H      1.248875    2.277628    0.543993
  C      4.211802    1.062188    0.268651
  H      4.549381    0.060869    0.031126
  H      4.593300    1.772541   -0.460818
  H      4.583318    1.364882    1.244706

 Multiplicity           Mult            ....    1
 Number of Electrons    NEL             ....   64
 Basis Dimension        Dim             .... 1008

ORBITAL ENERGIES
----------------

  NO   OCC          E(Eh)            E(eV)
   0   2.0000     -20.592511      -560.3507
   1   2.0000     -20.592505      -560.3506
   2   2.0000     -20.556242      -559.3638
   3   2.0000     -20.556228      -559.3634
   4   2.0000     -11.396280      -310.1085
   5   2.0000     -11.396261      -310.1080
   6   2.0000     -11.242775      -305.9315
   7   2.0000     -11.242770      -305.9313
   8   2.0000      -1.472144       -40.0591
   9   2.0000      -1.456725       -39.6395
  10   2.0000      -1.371420       -37.3182
  11   2.0000      -1.354072       -36.8462
  12   2.0000      -1.034891       -28.1608
  13   2.0000      -1.025343       -27.9010
  14   2.0000      -0.841022       -22.8854
  15   2.0000      -0.815025       -22.1780
  16   2.0000      -0.751624       -20.4527
  17   2.0000      -0.696235       -18.9455
  18   2.0000      -0.685334       -18.6489
  19   2.0000      -0.674592       -18.3566
  20   2.0000      -0.655998       -17.8506
  21   2.0000      -0.648501       -17.6466
  22   2.0000      -0.591292       -16.0899
  23   2.0000      -0.582287       -15.8448
  24   2.0000      -0.573905       -15.6167
  25   2.0000      -0.561566       -15.2810
  26   2.0000      -0.557452       -15.1691
  27   2.0000      -0.556585       -15.1455
  28   2.0000      -0.494724       -13.4621
  29   2.0000      -0.481369       -13.0987
  30   2.0000      -0.474907       -12.9229
  31   2.0000      -0.455407       -12.3922
  32   0.0000       0.025480         0.6933
  33   0.0000       0.027582         0.7505
  34   0.0000       0.039272         1.0687
  35   0.0000       0.040815         1.1106
  36   0.0000       0.046216         1.2576

MULLIKEN ATOMIC CHARGES
-----------------------
   0 C :    0.922409
   1 O :   -0.647550
   2 O :   -0.674212
   3 H :    0.242797
   4 C :   -0.756422
   5 H :    0.328278
   6 H :    0.290798
   7 H :    0.293896
   8 C :    0.922416
   9 O :   -0.647513
  10 O :   -0.674235
  11 H :    0.242820
  12 C :   -0.756622
  13 H :    0.328423
  14 H :    0.292617
  15 H :    0.292102
Sum of atomic charges:    0.0000000

LOEWDIN ATOMIC CHARGES
----------------------
   0 C :   -0.909422
   1 O :    0.890544
   2 O :    1.269879
   3 H :   -1.208835
   4 C :    0.884266
   5 H :   -0.322822
   6 H :   -0.302261
   7 H :   -0.301369
   8 C :   -0.909289
   9 O :    0.890519
  10 O :    1.269806
  11 H :   -1.208785
  12 C :    0.884341
  13 H :   -0.322867
  14 H :   -0.301829
  15 H :   -0.301878

  Mayer bond orders larger than 0.100000
B(  0-C ,  1-O ) :   1.5063 B(  0-C ,  2-O ) :   0.9783 B(  0-C ,  4-C ) :   0.7309
B(  1-O , 11-H ) :   0.1126 B(  2-O ,  3-H ) :   0.9000 B(  3-H ,  9-O ) :   0.1126
B(  4-C ,  5-H ) :   0.9668 B(  4-C ,  6-H ) :   0.9403 B(  4-C ,  7-H ) :   0.9319
B(  8-C ,  9-O ) :   1.5062 B(  8-C , 10-O ) :   0.9783 B(  8-C , 12-C ) :   0.7308
B( 10-O , 11-H ) :   0.9001 B( 12-C , 13-H ) :   0.9667 B( 12-C , 14-H ) :   0.9355
B( 12-C , 15-H ) :   0.9367

MP2 TOTAL ENERGY:     -457.602296940 Eh
FINAL SINGLE POINT ENERGY      -457.602296940440

DIPOLE MOMENT
-------------
                                X             Y             Z
Electronic contribution:      0.00030       0.00156      -0.00734
Nuclear contribution   :     -0.00018      -0.00204       0.00898
                        -----------------------------------------
Total Dipole Moment    :      0.00012      -0.00049       0.00163
                        -----------------------------------------
Magnitude (a.u.)       :      0.00171
Magnitude (Debye)      :      0.00434

Rotational constants in cm-1:     0.187953     0.030178     0.026254
Rotational constants in MHz :  5634.700848   904.728600   787.086755

                             ****ORCA TERMINATED NORMALLY****
TOTAL RUN TIME: 0 days 1 hours 32 minutes 32 seconds 941 msec
