                         Program Version 5.0.4 -  RELEASE  -
|  1> ! ri-mp2 aug-cc-pvdz aug-cc-pvdz/c tightscf
|  2> %pal nprocs 16 end
|  3> %maxcore 3800
|  4> %base "DZ_S66by10_25_0.8_dimer"
|  5>
|  6> *xyz 0 1
|  7> N    1.57248145    0.25454916   -0.25648131
|  8> C    0.96935990   -0.90316032    0.04452614
|  9> H    1.61363891   -1.77218121    0.10234520
| 10> C   -0.39815811   -1.02881911    0.28096043
| 11> H   -0.81842477   -1.99173710    0.53356364
| 12> C   -1.19580525    0.10655779    0.19539732
| 13> H   -2.26068964    0.04953865    0.37344280
| 14> C   -0.58712829    1.31741239   -0.12010544
| 15> H   -1.16181223    2.22950003   -0.20046257
| 16> C    0.78854733    1.33970567   -0.33224053
| 17> H    1.28843202    2.26879436   -0.57852690
| 18> N   -0.44472636   -1.44034576    3.06730688
| 19> C   -1.37720446   -0.47971630    3.14115804
| 20> H   -2.37999370   -0.81067110    3.38335090
| 21> C   -1.11520142    0.87135212    2.93177865
| 22> H   -1.91375918    1.59585756    3.01004975
| 23> C    0.18422591    1.26059340    2.62151025
| 24> H    0.42621047    2.29959189    2.44563899
| 25> C    1.16378522    0.27769525    2.53814878
| 26> H    2.18608646    0.52444099    2.28971180
| 27> C    0.80130550   -1.04744251    2.77134178
| 28> H    1.54516627   -1.83299714    2.71489318
| 29> *
| 30>
| 31> $new_job
| 32> ! ri-mp2 aug-cc-pvtz aug-cc-pvtz/c tightscf
| 33> %pal nprocs 16 end
| 34> %maxcore 3800
| 35> %base "TZ_S66by10_25_0.8_dimer"
| 36>
| 37> *xyz 0 1
| 38> N    1.57248145    0.25454916   -0.25648131
| 39> C    0.96935990   -0.90316032    0.04452614
| 40> H    1.61363891   -1.77218121    0.10234520
| 41> C   -0.39815811   -1.02881911    0.28096043
| 42> H   -0.81842477   -1.99173710    0.53356364
| 43> C   -1.19580525    0.10655779    0.19539732
| 44> H   -2.26068964    0.04953865    0.37344280
| 45> C   -0.58712829    1.31741239   -0.12010544
| 46> H   -1.16181223    2.22950003   -0.20046257
| 47> C    0.78854733    1.33970567   -0.33224053
| 48> H    1.28843202    2.26879436   -0.57852690
| 49> N   -0.44472636   -1.44034576    3.06730688
| 50> C   -1.37720446   -0.47971630    3.14115804
| 51> H   -2.37999370   -0.81067110    3.38335090
| 52> C   -1.11520142    0.87135212    2.93177865
| 53> H   -1.91375918    1.59585756    3.01004975
| 54> C    0.18422591    1.26059340    2.62151025
| 55> H    0.42621047    2.29959189    2.44563899
| 56> C    1.16378522    0.27769525    2.53814878
| 57> H    2.18608646    0.52444099    2.28971180
| 58> C    0.80130550   -1.04744251    2.77134178
| 59> H    1.54516627   -1.83299714    2.71489318
| 60> *
| 61>
| 62> $new_job
| 63> ! ri-mp2 aug-cc-pvqz aug-cc-pvqz/c tightscf
| 64> %pal nprocs 16 end
| 65> %maxcore 3800
| 66> %base "QZ_S66by10_25_0.8_dimer"
| 67>
| 68> *xyz 0 1
| 69> N    1.57248145    0.25454916   -0.25648131
| 70> C    0.96935990   -0.90316032    0.04452614
| 71> H    1.61363891   -1.77218121    0.10234520
| 72> C   -0.39815811   -1.02881911    0.28096043
| 73> H   -0.81842477   -1.99173710    0.53356364
| 74> C   -1.19580525    0.10655779    0.19539732
| 75> H   -2.26068964    0.04953865    0.37344280
| 76> C   -0.58712829    1.31741239   -0.12010544
| 77> H   -1.16181223    2.22950003   -0.20046257
| 78> C    0.78854733    1.33970567   -0.33224053
| 79> H    1.28843202    2.26879436   -0.57852690
| 80> N   -0.44472636   -1.44034576    3.06730688
| 81> C   -1.37720446   -0.47971630    3.14115804
| 82> H   -2.37999370   -0.81067110    3.38335090
| 83> C   -1.11520142    0.87135212    2.93177865
| 84> H   -1.91375918    1.59585756    3.01004975
| 85> C    0.18422591    1.26059340    2.62151025
| 86> H    0.42621047    2.29959189    2.44563899
| 87> C    1.16378522    0.27769525    2.53814878
| 88> H    2.18608646    0.52444099    2.28971180
| 89> C    0.80130550   -1.04744251    2.77134178
| 90> H    1.54516627   -1.83299714    2.71489318
| 91> *
| 92>
| 93>
| 94>
| 95>
| 96>                          ****END OF INPUT****
 Total Charge           Charge          ....    0
 Multiplicity           Mult            ....    1
 Number of Electrons    NEL             ....   84
MP2 TOTAL ENERGY:     -495.126872789 Eh
FINAL SINGLE POINT ENERGY      -495.126872789247
MP2 TOTAL ENERGY:     -495.552043218 Eh
FINAL SINGLE POINT ENERGY      -495.552043217977

CARTESIAN COORDINATES (ANGSTROEM)
---------------------------------
  N      1.572481    0.254549   -0.256481
  C      0.969360   -0.903160    0.044526
  H      1.613639   -1.772181    0.102345
  C     -0.398158   -1.028819    0.280960
  H     -0.818425   -1.991737    0.533564
  C     -1.195805    0.106558    0.195397
  H     -2.260690    0.049539    0.373443
  C     -0.587128    1.317412   -0.120105
  H     -1.161812    2.229500   -0.200463
  C      0.788547    1.339706   -0.332241
  H      1.288432    2.268794   -0.578527
  N     -0.444726   -1.440346    3.067307
  C     -1.377204   -0.479716    3.141158
  H     -2.379994   -0.810671    3.383351
  C     -1.115201    0.871352    2.931779
  H     -1.913759    1.595858    3.010050
  C      0.184226    1.260593    2.621510
  H      0.426210    2.299592    2.445639
  C      1.163785    0.277695    2.538149
  H      2.186086    0.524441    2.289712
  C      0.801306   -1.047443    2.771342
  H      1.545166   -1.832997    2.714893

 Multiplicity           Mult            ....    1
 Number of Electrons    NEL             ....   84
 Basis Dimension        Dim             .... 1420

ORBITAL ENERGIES
----------------

  NO   OCC          E(Eh)            E(eV)
   0   2.0000     -15.556568      -423.3157
   1   2.0000     -15.556444      -423.3124
   2   2.0000     -11.271766      -306.7204
   3   2.0000     -11.271659      -306.7174
   4   2.0000     -11.267933      -306.6160
   5   2.0000     -11.267827      -306.6132
   6   2.0000     -11.255172      -306.2688
   7   2.0000     -11.255083      -306.2664
   8   2.0000     -11.236348      -305.7566
   9   2.0000     -11.236165      -305.7516
  10   2.0000     -11.235754      -305.7404
  11   2.0000     -11.235564      -305.7352
  12   2.0000      -1.258942       -34.2576
  13   2.0000      -1.248412       -33.9710
  14   2.0000      -1.092771       -29.7358
  15   2.0000      -1.082909       -29.4675
  16   2.0000      -1.037562       -28.2335
  17   2.0000      -1.026173       -27.9236
  18   2.0000      -0.859536       -23.3892
  19   2.0000      -0.857987       -23.3470
  20   2.0000      -0.853716       -23.2308
  21   2.0000      -0.851121       -23.1602
  22   2.0000      -0.726697       -19.7744
  23   2.0000      -0.714325       -19.4378
  24   2.0000      -0.658316       -17.9137
  25   2.0000      -0.656401       -17.8616
  26   2.0000      -0.655647       -17.8411
  27   2.0000      -0.649800       -17.6820
  28   2.0000      -0.600733       -16.3468
  29   2.0000      -0.593836       -16.1591
  30   2.0000      -0.583739       -15.8844
  31   2.0000      -0.574001       -15.6194
  32   2.0000      -0.573363       -15.6020
  33   2.0000      -0.519433       -14.1345
  34   2.0000      -0.516055       -14.0426
  35   2.0000      -0.502203       -13.6656
  36   2.0000      -0.418083       -11.3766
  37   2.0000      -0.414665       -11.2836
  38   2.0000      -0.405534       -11.0351
  39   2.0000      -0.377926       -10.2839
  40   2.0000      -0.345168        -9.3925
  41   2.0000      -0.312783        -8.5113
  42   0.0000       0.020638         0.5616
  43   0.0000       0.027654         0.7525
  44   0.0000       0.030277         0.8239
  45   0.0000       0.034695         0.9441
  46   0.0000       0.038974         1.0605

MULLIKEN ATOMIC CHARGES
-----------------------
   0 N :   -0.849199
   1 C :   -0.009587
   2 H :    0.368012
   3 C :   -0.111280
   4 H :    0.276481
   5 C :   -0.078634
   6 H :    0.253844
   7 C :   -0.268816
   8 H :    0.245309
   9 C :   -0.219077
  10 H :    0.393394
  11 N :   -0.848181
  12 C :   -0.217908
  13 H :    0.391431
  14 C :   -0.264147
  15 H :    0.246273
  16 C :   -0.080920
  17 H :    0.253664
  18 C :   -0.115165
  19 H :    0.273609
  20 C :   -0.008106
  21 H :    0.369002
Sum of atomic charges:   -0.0000000

LOEWDIN ATOMIC CHARGES
----------------------
   0 N :    0.603569
   1 C :    0.031861
   2 H :   -0.327996
   3 C :    0.281438
   4 H :   -0.312442
   5 C :    0.293952
   6 H :   -0.291656
   7 C :    0.305424
   8 H :   -0.306775
   9 C :    0.059494
  10 H :   -0.338198
  11 N :    0.603398
  12 C :    0.059072
  13 H :   -0.337769
  14 C :    0.304903
  15 H :   -0.306465
  16 C :    0.294665
  17 H :   -0.291457
  18 C :    0.282513
  19 H :   -0.311560
  20 C :    0.031891
  21 H :   -0.327863

  Mayer bond orders larger than 0.100000
B(  0-N ,  1-C ) :   0.9771 B(  0-N ,  2-H ) :  -0.1464 B(  0-N ,  9-C ) :   1.1296
B(  0-N , 10-H ) :  -0.1384 B(  1-C ,  2-H ) :   1.0308 B(  1-C ,  3-C ) :   1.0918
B(  1-C ,  4-H ) :  -0.1060 B(  1-C ,  7-C ) :   0.1009 B(  2-H ,  3-C ) :  -0.1480
B(  3-C ,  4-H ) :   1.0319 B(  3-C ,  5-C ) :   1.0755 B(  3-C ,  6-H ) :  -0.1144
B(  3-C ,  9-C ) :   0.1095 B(  4-H ,  5-C ) :  -0.1203 B(  5-C ,  6-H ) :   1.0319
B(  5-C ,  7-C ) :   1.1445 B(  7-C ,  8-H ) :   1.1057 B(  7-C ,  9-C ) :   1.2425
B(  9-C , 10-H ) :   0.9848 B( 11-N , 12-C ) :   1.1277 B( 11-N , 13-H ) :  -0.1387
B( 11-N , 20-C ) :   0.9769 B( 11-N , 21-H ) :  -0.1470 B( 12-C , 13-H ) :   0.9872
B( 12-C , 14-C ) :   1.2413 B( 12-C , 18-C ) :   0.1089 B( 14-C , 15-H ) :   1.1054
B( 14-C , 16-C ) :   1.1435 B( 16-C , 17-H ) :   1.0317 B( 16-C , 18-C ) :   1.0760
B( 16-C , 19-H ) :  -0.1202 B( 17-H , 18-C ) :  -0.1146 B( 18-C , 19-H ) :   1.0355
B( 18-C , 20-C ) :   1.0934 B( 18-C , 21-H ) :  -0.1481 B( 19-H , 20-C ) :  -0.1046
B( 20-C , 21-H ) :   1.0296

MP2 TOTAL ENERGY:     -495.687578519 Eh
FINAL SINGLE POINT ENERGY      -495.687578518917

DIPOLE MOMENT
-------------
                                X             Y             Z
Electronic contribution:      1.05472      -1.25915      -0.00007
Nuclear contribution   :     -1.68087       2.00584       0.00438
                        -----------------------------------------
Total Dipole Moment    :     -0.62616       0.74670       0.00431
                        -----------------------------------------
Magnitude (a.u.)       :      0.97450
Magnitude (Debye)      :      2.47699

Rotational constants in cm-1:     0.055842     0.033264     0.031066
Rotational constants in MHz :  1674.092648   997.241604   931.336682

                             ****ORCA TERMINATED NORMALLY****
TOTAL RUN TIME: 0 days 2 hours 18 minutes 33 seconds 859 msec
