                         Program Version 5.0.4 -  RELEASE  -
|  1> ! ri-mp2 aug-cc-pvdz aug-cc-pvdz/c tightscf
|  2> %pal nprocs 16 end
|  3> %maxcore 3800
|  4> %base "DZ_S66by10_14_1.1_dimer"
|  5> %scf STABPerform true end
|  6>
|  7> *xyz 0 1
|  8> C   -0.77857334   -0.46332064    2.49038768
|  9> H    0.22474462   -0.05095294    2.41348355
| 10> H   -0.72247994   -1.48709180    2.85458464
| 11> H   -1.35190757    0.11081693    3.21368365
| 12> C   -1.52050259   -0.45662769    1.17232500
| 13> O   -2.70083521   -0.78358573    1.08959682
| 14> N   -0.79195361   -0.06964048    0.10058937
| 15> H    0.19411165    0.14570790    0.20292464
| 16> C   -1.39779834   -0.05608245   -1.21131793
| 17> H   -2.31492801    0.52889121   -1.19970991
| 18> H   -0.69880422    0.38726130   -1.91536621
| 19> H   -1.65298232   -1.06152895   -1.54543495
| 20> N    2.46158082    0.26646613    0.29121364
| 21> H    2.86524714    0.80638566    1.04641373
| 22> H    2.87958469    0.63384738   -0.55443228
| 23> C    2.83388366   -1.14471668    0.44496639
| 24> H    2.40759626   -1.71574926   -0.37640906
| 25> H    3.90928230   -1.33140613    0.47074978
| 26> H    2.39941108   -1.52912369    1.36480239
| 27> *
| 28>
| 29> $new_job
| 30> ! ri-mp2 aug-cc-pvtz aug-cc-pvtz/c tightscf
| 31> %pal nprocs 16 end
| 32> %maxcore 3800
| 33> %base "TZ_S66by10_14_1.1_dimer"
| 34>
| 35> *xyz 0 1
| 36> C   -0.77857334   -0.46332064    2.49038768
| 37> H    0.22474462   -0.05095294    2.41348355
| 38> H   -0.72247994   -1.48709180    2.85458464
| 39> H   -1.35190757    0.11081693    3.21368365
| 40> C   -1.52050259   -0.45662769    1.17232500
| 41> O   -2.70083521   -0.78358573    1.08959682
| 42> N   -0.79195361   -0.06964048    0.10058937
| 43> H    0.19411165    0.14570790    0.20292464
| 44> C   -1.39779834   -0.05608245   -1.21131793
| 45> H   -2.31492801    0.52889121   -1.19970991
| 46> H   -0.69880422    0.38726130   -1.91536621
| 47> H   -1.65298232   -1.06152895   -1.54543495
| 48> N    2.46158082    0.26646613    0.29121364
| 49> H    2.86524714    0.80638566    1.04641373
| 50> H    2.87958469    0.63384738   -0.55443228
| 51> C    2.83388366   -1.14471668    0.44496639
| 52> H    2.40759626   -1.71574926   -0.37640906
| 53> H    3.90928230   -1.33140613    0.47074978
| 54> H    2.39941108   -1.52912369    1.36480239
| 55> *
| 56>
| 57> $new_job
| 58> ! ri-mp2 aug-cc-pvqz aug-cc-pvqz/c tightscf
| 59> %pal nprocs 16 end
| 60> %maxcore 3800
| 61> %base "QZ_S66by10_14_1.1_dimer"
| 62>
| 63> *xyz 0 1
| 64> C   -0.77857334   -0.46332064    2.49038768
| 65> H    0.22474462   -0.05095294    2.41348355
| 66> H   -0.72247994   -1.48709180    2.85458464
| 67> H   -1.35190757    0.11081693    3.21368365
| 68> C   -1.52050259   -0.45662769    1.17232500
| 69> O   -2.70083521   -0.78358573    1.08959682
| 70> N   -0.79195361   -0.06964048    0.10058937
| 71> H    0.19411165    0.14570790    0.20292464
| 72> C   -1.39779834   -0.05608245   -1.21131793
| 73> H   -2.31492801    0.52889121   -1.19970991
| 74> H   -0.69880422    0.38726130   -1.91536621
| 75> H   -1.65298232   -1.06152895   -1.54543495
| 76> N    2.46158082    0.26646613    0.29121364
| 77> H    2.86524714    0.80638566    1.04641373
| 78> H    2.87958469    0.63384738   -0.55443228
| 79> C    2.83388366   -1.14471668    0.44496639
| 80> H    2.40759626   -1.71574926   -0.37640906
| 81> H    3.90928230   -1.33140613    0.47074978
| 82> H    2.39941108   -1.52912369    1.36480239
| 83> *
| 84>
| 85>
| 86>
| 87>
| 88>                          ****END OF INPUT****
 Total Charge           Charge          ....    0
 Multiplicity           Mult            ....    1
 Number of Electrons    NEL             ....   58
MP2 TOTAL ENERGY:     -343.433141184 Eh
FINAL SINGLE POINT ENERGY      -343.433141183916
MP2 TOTAL ENERGY:     -343.749661808 Eh
FINAL SINGLE POINT ENERGY      -343.749661807554

CARTESIAN COORDINATES (ANGSTROEM)
---------------------------------
  C     -0.778573   -0.463321    2.490388
  H      0.224745   -0.050953    2.413484
  H     -0.722480   -1.487092    2.854585
  H     -1.351908    0.110817    3.213684
  C     -1.520503   -0.456628    1.172325
  O     -2.700835   -0.783586    1.089597
  N     -0.791954   -0.069640    0.100589
  H      0.194112    0.145708    0.202925
  C     -1.397798   -0.056082   -1.211318
  H     -2.314928    0.528891   -1.199710
  H     -0.698804    0.387261   -1.915366
  H     -1.652982   -1.061529   -1.545435
  N      2.461581    0.266466    0.291214
  H      2.865247    0.806386    1.046414
  H      2.879585    0.633847   -0.554432
  C      2.833884   -1.144717    0.444966
  H      2.407596   -1.715749   -0.376409
  H      3.909282   -1.331406    0.470750
  H      2.399411   -1.529124    1.364802

 Multiplicity           Mult            ....    1
 Number of Electrons    NEL             ....   58
 Basis Dimension        Dim             .... 1112

ORBITAL ENERGIES
----------------

  NO   OCC          E(Eh)            E(eV)
   0   2.0000     -20.493921      -557.6679
   1   2.0000     -15.566362      -423.5823
   2   2.0000     -15.563314      -423.4993
   3   2.0000     -11.329102      -308.2805
   4   2.0000     -11.260047      -306.4014
   5   2.0000     -11.243783      -305.9589
   6   2.0000     -11.221940      -305.3645
   7   2.0000      -1.357159       -36.9302
   8   2.0000      -1.212215       -32.9861
   9   2.0000      -1.197010       -32.5723
  10   2.0000      -1.004732       -27.3402
  11   2.0000      -0.919302       -25.0155
  12   2.0000      -0.917876       -24.9767
  13   2.0000      -0.772638       -21.0246
  14   2.0000      -0.687853       -18.7174
  15   2.0000      -0.675492       -18.3811
  16   2.0000      -0.638535       -17.3754
  17   2.0000      -0.628127       -17.0922
  18   2.0000      -0.619984       -16.8706
  19   2.0000      -0.580078       -15.7847
  20   2.0000      -0.572118       -15.5681
  21   2.0000      -0.564680       -15.3657
  22   2.0000      -0.543708       -14.7951
  23   2.0000      -0.539429       -14.6786
  24   2.0000      -0.534364       -14.5408
  25   2.0000      -0.486244       -13.2314
  26   2.0000      -0.425218       -11.5708
  27   2.0000      -0.405725       -11.0403
  28   2.0000      -0.375639       -10.2216
  29   0.0000       0.016308         0.4438
  30   0.0000       0.028862         0.7854
  31   0.0000       0.029586         0.8051
  32   0.0000       0.034627         0.9422
  33   0.0000       0.045464         1.2371

MULLIKEN ATOMIC CHARGES
-----------------------
   0 C :   -0.860157
   1 H :    0.266831
   2 H :    0.253223
   3 H :    0.280212
   4 C :    0.989152
   5 O :   -0.884422
   6 N :   -0.583595
   7 H :    0.398037
   8 C :   -0.877815
   9 H :    0.338213
  10 H :    0.336718
  11 H :    0.321039
  12 N :   -0.511104
  13 H :    0.219891
  14 H :    0.205810
  15 C :   -0.890190
  16 H :    0.283368
  17 H :    0.421575
  18 H :    0.293212
Sum of atomic charges:   -0.0000000

LOEWDIN ATOMIC CHARGES
----------------------
   0 C :    0.886063
   1 H :   -0.330551
   2 H :   -0.296055
   3 H :   -0.302196
   4 C :   -0.853642
   5 O :    0.687142
   6 N :    0.808875
   7 H :   -0.602654
   8 C :    0.764119
   9 H :   -0.304742
  10 H :   -0.297862
  11 H :   -0.289722
  12 N :    1.264518
  13 H :   -0.501619
  14 H :   -0.500202
  15 C :    0.771498
  16 H :   -0.304829
  17 H :   -0.286562
  18 H :   -0.311580

  Mayer bond orders larger than 0.100000
B(  0-C ,  1-H ) :   0.9594 B(  0-C ,  2-H ) :   0.9405 B(  0-C ,  3-H ) :   0.9729
B(  0-C ,  4-C ) :   0.8882 B(  0-C ,  5-O ) :   0.1223 B(  4-C ,  5-O ) :   1.1089
B(  4-C ,  6-N ) :   1.2343 B(  5-O ,  6-N ) :   0.2845 B(  6-N ,  7-H ) :   0.8528
B(  6-N ,  8-C ) :   0.8210 B(  8-C ,  9-H ) :   0.9111 B(  8-C , 10-H ) :   0.9059
B(  8-C , 11-H ) :   0.9305 B( 12-N , 13-H ) :   0.9813 B( 12-N , 14-H ) :   0.9930
B( 12-N , 15-C ) :   0.9741 B( 15-C , 16-H ) :   0.9230 B( 15-C , 17-H ) :   0.8079
B( 15-C , 18-H ) :   0.9157

MP2 TOTAL ENERGY:     -343.849057262 Eh
FINAL SINGLE POINT ENERGY      -343.849057262217

DIPOLE MOMENT
-------------
                                X             Y             Z
Electronic contribution:     -7.51151       0.40979       1.02810
Nuclear contribution   :      9.98687       0.02614      -1.28054
                        -----------------------------------------
Total Dipole Moment    :      2.47535       0.43593      -0.25244
                        -----------------------------------------
Magnitude (a.u.)       :      2.52609
Magnitude (Debye)      :      6.42081

Rotational constants in cm-1:     0.109503     0.038051     0.030809
Rotational constants in MHz :  3282.814765  1140.735063   923.632333

                             ****ORCA TERMINATED NORMALLY****
TOTAL RUN TIME: 0 days 2 hours 5 minutes 51 seconds 782 msec
