                         Program Version 5.0.4 -  RELEASE  -
|  1> ! ri-mp2 aug-cc-pvdz aug-cc-pvdz/c tightscf
|  2> %pal nprocs 16 end
|  3> %maxcore 3800
|  4> %base "DZ_S66by10_9_0.8_dimer"
|  5> %scf STABPerform true end
|  6>
|  7> *xyz 0 1
|  8> N   -0.89345122   -0.04384432   -0.04299745
|  9> H    0.09694826   -0.25605945   -0.07106993
| 10> H   -1.36843879   -0.93339065    0.03383773
| 11> C   -1.17578248    0.75790769    1.14523719
| 12> H   -2.24162660    0.97221601    1.19502464
| 13> H   -0.88078955    0.30424674    2.09720910
| 14> H   -0.66300572    1.71432940    1.06080916
| 15> O    1.89721202   -0.08440121    0.01031815
| 16> H    2.17923814    0.28554755   -0.82954593
| 17> C    2.28312587    0.82718305    1.02975432
| 18> H    1.95994282    0.39755038    1.97282086
| 19> H    3.36418111    0.96626652    1.06879428
| 20> H    1.80465131    1.80078090    0.91457778
| 21> *
| 22>
| 23> $new_job
| 24> ! ri-mp2 aug-cc-pvtz aug-cc-pvtz/c tightscf
| 25> %pal nprocs 16 end
| 26> %maxcore 3800
| 27> %base "TZ_S66by10_9_0.8_dimer"
| 28>
| 29> *xyz 0 1
| 30> N   -0.89345122   -0.04384432   -0.04299745
| 31> H    0.09694826   -0.25605945   -0.07106993
| 32> H   -1.36843879   -0.93339065    0.03383773
| 33> C   -1.17578248    0.75790769    1.14523719
| 34> H   -2.24162660    0.97221601    1.19502464
| 35> H   -0.88078955    0.30424674    2.09720910
| 36> H   -0.66300572    1.71432940    1.06080916
| 37> O    1.89721202   -0.08440121    0.01031815
| 38> H    2.17923814    0.28554755   -0.82954593
| 39> C    2.28312587    0.82718305    1.02975432
| 40> H    1.95994282    0.39755038    1.97282086
| 41> H    3.36418111    0.96626652    1.06879428
| 42> H    1.80465131    1.80078090    0.91457778
| 43> *
| 44>
| 45> $new_job
| 46> ! ri-mp2 aug-cc-pvqz aug-cc-pvqz/c tightscf
| 47> %pal nprocs 16 end
| 48> %maxcore 3800
| 49> %base "QZ_S66by10_9_0.8_dimer"
| 50>
| 51> *xyz 0 1
| 52> N   -0.89345122   -0.04384432   -0.04299745
| 53> H    0.09694826   -0.25605945   -0.07106993
| 54> H   -1.36843879   -0.93339065    0.03383773
| 55> C   -1.17578248    0.75790769    1.14523719
| 56> H   -2.24162660    0.97221601    1.19502464
| 57> H   -0.88078955    0.30424674    2.09720910
| 58> H   -0.66300572    1.71432940    1.06080916
| 59> O    1.89721202   -0.08440121    0.01031815
| 60> H    2.17923814    0.28554755   -0.82954593
| 61> C    2.28312587    0.82718305    1.02975432
| 62> H    1.95994282    0.39755038    1.97282086
| 63> H    3.36418111    0.96626652    1.06879428
| 64> H    1.80465131    1.80078090    0.91457778
| 65> *
| 66>
| 67>
| 68>
| 69>
| 70>                          ****END OF INPUT****
 Total Charge           Charge          ....    0
 Multiplicity           Mult            ....    1
 Number of Electrons    NEL             ....   36
MP2 TOTAL ENERGY:     -210.997410389 Eh
FINAL SINGLE POINT ENERGY      -210.997410389039
MP2 TOTAL ENERGY:     -211.198447907 Eh
FINAL SINGLE POINT ENERGY      -211.198447906509

CARTESIAN COORDINATES (ANGSTROEM)
---------------------------------
  N     -0.893451   -0.043844   -0.042997
  H      0.096948   -0.256059   -0.071070
  H     -1.368439   -0.933391    0.033838
  C     -1.175782    0.757908    1.145237
  H     -2.241627    0.972216    1.195025
  H     -0.880790    0.304247    2.097209
  H     -0.663006    1.714329    1.060809
  O      1.897212   -0.084401    0.010318
  H      2.179238    0.285548   -0.829546
  C      2.283126    0.827183    1.029754
  H      1.959943    0.397550    1.972821
  H      3.364181    0.966267    1.068794
  H      1.804651    1.800781    0.914578

 Multiplicity           Mult            ....    1
 Number of Electrons    NEL             ....   36
 Basis Dimension        Dim             ....  734

ORBITAL ENERGIES
----------------

  NO   OCC          E(Eh)            E(eV)
   0   2.0000     -20.571926      -559.7906
   1   2.0000     -15.507774      -421.9880
   2   2.0000     -11.280062      -306.9461
   3   2.0000     -11.226534      -305.4895
   4   2.0000      -1.377329       -37.4790
   5   2.0000      -1.148934       -31.2641
   6   2.0000      -0.939654       -25.5693
   7   2.0000      -0.880453       -23.9583
   8   2.0000      -0.710206       -19.3257
   9   2.0000      -0.665273       -18.1030
  10   2.0000      -0.621362       -16.9081
  11   2.0000      -0.607704       -16.5365
  12   2.0000      -0.583443       -15.8763
  13   2.0000      -0.540899       -14.7186
  14   2.0000      -0.522682       -14.2229
  15   2.0000      -0.504361       -13.7244
  16   2.0000      -0.457752       -12.4561
  17   2.0000      -0.370994       -10.0953
  18   0.0000       0.023509         0.6397
  19   0.0000       0.034141         0.9290
  20   0.0000       0.037185         1.0119
  21   0.0000       0.040175         1.0932
  22   0.0000       0.050797         1.3823

MULLIKEN ATOMIC CHARGES
-----------------------
   0 N :   -0.656245
   1 H :    0.269015
   2 H :    0.224355
   3 C :   -0.745653
   4 H :    0.405396
   5 H :    0.213179
   6 H :    0.251696
   7 O :   -0.689717
   8 H :    0.358752
   9 C :   -0.617059
  10 H :    0.269753
  11 H :    0.478107
  12 H :    0.238423
Sum of atomic charges:    0.0000000

LOEWDIN ATOMIC CHARGES
----------------------
   0 N :    1.258420
   1 H :   -0.788023
   2 H :   -0.516543
   3 C :    0.732156
   4 H :   -0.312604
   5 H :   -0.292312
   6 H :   -0.331334
   7 O :    1.304956
   8 H :   -0.733166
   9 C :    0.622646
  10 H :   -0.326662
  11 H :   -0.303916
  12 H :   -0.313618

  Mayer bond orders larger than 0.100000
B(  0-N ,  1-H ) :   0.8955 B(  0-N ,  2-H ) :   0.9461 B(  0-N ,  3-C ) :   0.9852
B(  3-C ,  4-H ) :   0.8188 B(  3-C ,  5-H ) :   0.9654 B(  3-C ,  6-H ) :   0.9378
B(  7-O ,  8-H ) :   0.8494 B(  7-O ,  9-C ) :   0.8684 B(  9-C , 10-H ) :   0.9229
B(  9-C , 11-H ) :   0.7548 B(  9-C , 12-H ) :   0.9380

MP2 TOTAL ENERGY:     -211.261017375 Eh
FINAL SINGLE POINT ENERGY      -211.261017374565

DIPOLE MOMENT
-------------
                                X             Y             Z
Electronic contribution:      1.51854      -1.62215      -2.19292
Nuclear contribution   :     -0.74020       1.92507       2.53051
                        -----------------------------------------
Total Dipole Moment    :      0.77833       0.30292       0.33760
                        -----------------------------------------
Magnitude (a.u.)       :      0.90085
Magnitude (Debye)      :      2.28978

Rotational constants in cm-1:     0.408450     0.102748     0.085674
Rotational constants in MHz : 12245.028230  3080.314241  2568.437148

                             ****ORCA TERMINATED NORMALLY****
TOTAL RUN TIME: 0 days 0 hours 27 minutes 13 seconds 218 msec
