                         Program Version 5.0.4 -  RELEASE  -
|  1> ! ri-mp2 aug-cc-pvdz aug-cc-pvdz/c tightscf
|  2> %pal nprocs 16 end
|  3> %maxcore 3800
|  4> %base "DZ_S66by10_45_1.05_dimer"
|  5> %scf STABPerform true end
|  6>
|  7> *xyz 0 1
|  8> C   -0.60618936    0.05587406    0.58900491
|  9> H   -1.66803667    0.05577624    0.58901162
| 10> C    0.60584873    0.05554087    0.58926624
| 11> H    1.66767817    0.05486328    0.58972794
| 12> C   -2.53039449   -0.35054529    4.38313482
| 13> H   -2.53876112   -1.01249883    3.51672423
| 14> H   -2.58231282   -0.97681451    5.27372560
| 15> H   -3.43280911    0.25835876    4.35037320
| 16> C   -1.26986237    0.50405542    4.39420409
| 17> H   -1.28651403    1.17705465    5.25461321
| 18> H   -1.24459538    1.13827143    3.50540798
| 19> C    0.00005625   -0.33427558    4.43465943
| 20> H    0.00005898   -0.95206523    5.33772082
| 21> H    0.00012335   -1.02257473    3.58541824
| 22> C    1.26995481    0.50410049    4.39429097
| 23> H    1.28658264    1.17706761    5.25471227
| 24> H    1.24480989    1.13827281    3.50548978
| 25> C    2.53047730   -0.35053609    4.38334455
| 26> H    2.53885707   -1.01251884    3.51696548
| 27> H    3.43285607    0.25839525    4.35061819
| 28> H    2.58229453   -0.97675082    5.27397810
| 29> *
| 30>
| 31> $new_job
| 32> ! ri-mp2 aug-cc-pvtz aug-cc-pvtz/c tightscf
| 33> %pal nprocs 16 end
| 34> %maxcore 3800
| 35> %base "TZ_S66by10_45_1.05_dimer"
| 36>
| 37> *xyz 0 1
| 38> C   -0.60618936    0.05587406    0.58900491
| 39> H   -1.66803667    0.05577624    0.58901162
| 40> C    0.60584873    0.05554087    0.58926624
| 41> H    1.66767817    0.05486328    0.58972794
| 42> C   -2.53039449   -0.35054529    4.38313482
| 43> H   -2.53876112   -1.01249883    3.51672423
| 44> H   -2.58231282   -0.97681451    5.27372560
| 45> H   -3.43280911    0.25835876    4.35037320
| 46> C   -1.26986237    0.50405542    4.39420409
| 47> H   -1.28651403    1.17705465    5.25461321
| 48> H   -1.24459538    1.13827143    3.50540798
| 49> C    0.00005625   -0.33427558    4.43465943
| 50> H    0.00005898   -0.95206523    5.33772082
| 51> H    0.00012335   -1.02257473    3.58541824
| 52> C    1.26995481    0.50410049    4.39429097
| 53> H    1.28658264    1.17706761    5.25471227
| 54> H    1.24480989    1.13827281    3.50548978
| 55> C    2.53047730   -0.35053609    4.38334455
| 56> H    2.53885707   -1.01251884    3.51696548
| 57> H    3.43285607    0.25839525    4.35061819
| 58> H    2.58229453   -0.97675082    5.27397810
| 59> *
| 60>
| 61> $new_job
| 62> ! ri-mp2 aug-cc-pvqz aug-cc-pvqz/c tightscf
| 63> %pal nprocs 16 end
| 64> %maxcore 3800
| 65> %base "QZ_S66by10_45_1.05_dimer"
| 66>
| 67> *xyz 0 1
| 68> C   -0.60618936    0.05587406    0.58900491
| 69> H   -1.66803667    0.05577624    0.58901162
| 70> C    0.60584873    0.05554087    0.58926624
| 71> H    1.66767817    0.05486328    0.58972794
| 72> C   -2.53039449   -0.35054529    4.38313482
| 73> H   -2.53876112   -1.01249883    3.51672423
| 74> H   -2.58231282   -0.97681451    5.27372560
| 75> H   -3.43280911    0.25835876    4.35037320
| 76> C   -1.26986237    0.50405542    4.39420409
| 77> H   -1.28651403    1.17705465    5.25461321
| 78> H   -1.24459538    1.13827143    3.50540798
| 79> C    0.00005625   -0.33427558    4.43465943
| 80> H    0.00005898   -0.95206523    5.33772082
| 81> H    0.00012335   -1.02257473    3.58541824
| 82> C    1.26995481    0.50410049    4.39429097
| 83> H    1.28658264    1.17706761    5.25471227
| 84> H    1.24480989    1.13827281    3.50548978
| 85> C    2.53047730   -0.35053609    4.38334455
| 86> H    2.53885707   -1.01251884    3.51696548
| 87> H    3.43285607    0.25839525    4.35061819
| 88> H    2.58229453   -0.97675082    5.27397810
| 89> *
| 90>
| 91>
| 92>
| 93>
| 94>                          ****END OF INPUT****
 Total Charge           Charge          ....    0
 Multiplicity           Mult            ....    1
 Number of Electrons    NEL             ....   56
MP2 TOTAL ENERGY:     -274.209225009 Eh
FINAL SINGLE POINT ENERGY      -274.209225008903
MP2 TOTAL ENERGY:     -274.477850739 Eh
FINAL SINGLE POINT ENERGY      -274.477850738680

CARTESIAN COORDINATES (ANGSTROEM)
---------------------------------
  C     -0.606189    0.055874    0.589005
  H     -1.668037    0.055776    0.589012
  C      0.605849    0.055541    0.589266
  H      1.667678    0.054863    0.589728
  C     -2.530394   -0.350545    4.383135
  H     -2.538761   -1.012499    3.516724
  H     -2.582313   -0.976815    5.273726
  H     -3.432809    0.258359    4.350373
  C     -1.269862    0.504055    4.394204
  H     -1.286514    1.177055    5.254613
  H     -1.244595    1.138271    3.505408
  C      0.000056   -0.334276    4.434659
  H      0.000059   -0.952065    5.337721
  H      0.000123   -1.022575    3.585418
  C      1.269955    0.504100    4.394291
  H      1.286583    1.177068    5.254712
  H      1.244810    1.138273    3.505490
  C      2.530477   -0.350536    4.383345
  H      2.538857   -1.012519    3.516965
  H      3.432856    0.258395    4.350618
  H      2.582295   -0.976751    5.273978

 Multiplicity           Mult            ....    1
 Number of Electrons    NEL             ....   56
 Basis Dimension        Dim             .... 1204

ORBITAL ENERGIES
----------------

  NO   OCC          E(Eh)            E(eV)
   0   2.0000     -11.246797      -306.0409
   1   2.0000     -11.243184      -305.9426
   2   2.0000     -11.208146      -304.9891
   3   2.0000     -11.208106      -304.9881
   4   2.0000     -11.205321      -304.9123
   5   2.0000     -11.205319      -304.9122
   6   2.0000     -11.204176      -304.8811
   7   2.0000      -1.078229       -29.3401
   8   2.0000      -1.029542       -28.0153
   9   2.0000      -1.013353       -27.5747
  10   2.0000      -0.916923       -24.9507
  11   2.0000      -0.817761       -22.2524
  12   2.0000      -0.781721       -21.2717
  13   2.0000      -0.771159       -20.9843
  14   2.0000      -0.683284       -18.5931
  15   2.0000      -0.644873       -17.5479
  16   2.0000      -0.596657       -16.2359
  17   2.0000      -0.591256       -16.0889
  18   2.0000      -0.551504       -15.0072
  19   2.0000      -0.546813       -14.8795
  20   2.0000      -0.524045       -14.2600
  21   2.0000      -0.492930       -13.4133
  22   2.0000      -0.474101       -12.9010
  23   2.0000      -0.459438       -12.5020
  24   2.0000      -0.456796       -12.4301
  25   2.0000      -0.444159       -12.0862
  26   2.0000      -0.410299       -11.1648
  27   2.0000      -0.409998       -11.1566
  28   0.0000       0.026526         0.7218
  29   0.0000       0.027119         0.7380
  30   0.0000       0.034126         0.9286
  31   0.0000       0.034444         0.9373
  32   0.0000       0.039857         1.0846

MULLIKEN ATOMIC CHARGES
-----------------------
   0 C :   -0.568771
   1 H :    0.563704
   2 C :   -0.568720
   3 H :    0.563681
   4 C :   -0.935189
   5 H :    0.234135
   6 H :    0.246271
   7 H :    0.253389
   8 C :   -0.513748
   9 H :    0.283471
  10 H :    0.259154
  11 C :   -0.223656
  12 H :    0.303019
  13 H :    0.275713
  14 C :   -0.513728
  15 H :    0.283469
  16 H :    0.259160
  17 C :   -0.935191
  18 H :    0.234173
  19 H :    0.253382
  20 H :    0.246283
Sum of atomic charges:    0.0000000

LOEWDIN ATOMIC CHARGES
----------------------
   0 C :    0.497062
   1 H :   -0.459230
   2 C :    0.497054
   3 H :   -0.459248
   4 C :    0.923915
   5 H :   -0.290086
   6 H :   -0.284650
   7 H :   -0.282746
   8 C :    0.493417
   9 H :   -0.268484
  10 H :   -0.289587
  11 C :    0.477221
  12 H :   -0.264671
  13 H :   -0.291745
  14 C :    0.493429
  15 H :   -0.268487
  16 H :   -0.289596
  17 C :    0.923924
  18 H :   -0.290091
  19 H :   -0.282757
  20 H :   -0.284644

  Mayer bond orders larger than 0.100000
B(  0-C ,  1-H ) :   0.6981 B(  0-C ,  2-C ) :   2.5639 B(  2-C ,  3-H ) :   0.6981
B(  4-C ,  5-H ) :   0.9380 B(  4-C ,  6-H ) :   0.9643 B(  4-C ,  7-H ) :   1.0353
B(  4-C ,  8-C ) :   0.9845 B(  8-C ,  9-H ) :   0.8738 B(  8-C , 10-H ) :   0.8706
B(  8-C , 11-C ) :   0.8170 B( 11-C , 12-H ) :   0.8748 B( 11-C , 13-H ) :   0.8694
B( 11-C , 14-C ) :   0.8171 B( 14-C , 15-H ) :   0.8738 B( 14-C , 16-H ) :   0.8706
B( 14-C , 17-C ) :   0.9845 B( 17-C , 18-H ) :   0.9380 B( 17-C , 19-H ) :   1.0353
B( 17-C , 20-H ) :   0.9643

MP2 TOTAL ENERGY:     -274.557604973 Eh
FINAL SINGLE POINT ENERGY      -274.557604972559

DIPOLE MOMENT
-------------
                                X             Y             Z
Electronic contribution:     -0.00039       0.72838      -6.10500
Nuclear contribution   :      0.00036      -0.69376       6.08021
                        -----------------------------------------
Total Dipole Moment    :     -0.00002       0.03463      -0.02479
                        -----------------------------------------
Magnitude (a.u.)       :      0.04258
Magnitude (Debye)      :      0.10824

Rotational constants in cm-1:     0.059044     0.054873     0.030707
Rotational constants in MHz :  1770.103473  1645.039206   920.568723

                             ****ORCA TERMINATED NORMALLY****
TOTAL RUN TIME: 0 days 3 hours 37 minutes 32 seconds 548 msec
