                         Program Version 5.0.4 -  RELEASE  -
|  1> ! ri-mp2 aug-cc-pvdz aug-cc-pvdz/c tightscf
|  2> %pal nprocs 16 end
|  3> %maxcore 3800
|  4> %base "DZ_S66by10_2_1.05_dimer"
|  5> %scf STABPerform true end
|  6>
|  7> *xyz 0 1
|  8> O   -0.52532979   -0.05097108   -0.31451686
|  9> H   -0.94200663    0.74790163    0.01125282
| 10> H    0.40369652    0.05978598   -0.07356837
| 11> O    2.45827492    0.04444312    0.08262638
| 12> H    2.82625775   -0.52763428    0.76015471
| 13> C    2.92327999   -0.42718680   -1.17953273
| 14> H    2.49246290    0.22390689   -1.93264676
| 15> H    4.00924368   -0.37639394   -1.25384466
| 16> H    2.59493738   -1.44705629   -1.37861337
| 17> *
| 18>
| 19> $new_job
| 20> ! ri-mp2 aug-cc-pvtz aug-cc-pvtz/c tightscf
| 21> %pal nprocs 16 end
| 22> %maxcore 3800
| 23> %base "TZ_S66by10_2_1.05_dimer"
| 24>
| 25> *xyz 0 1
| 26> O   -0.52532979   -0.05097108   -0.31451686
| 27> H   -0.94200663    0.74790163    0.01125282
| 28> H    0.40369652    0.05978598   -0.07356837
| 29> O    2.45827492    0.04444312    0.08262638
| 30> H    2.82625775   -0.52763428    0.76015471
| 31> C    2.92327999   -0.42718680   -1.17953273
| 32> H    2.49246290    0.22390689   -1.93264676
| 33> H    4.00924368   -0.37639394   -1.25384466
| 34> H    2.59493738   -1.44705629   -1.37861337
| 35> *
| 36>
| 37> $new_job
| 38> ! ri-mp2 aug-cc-pvqz aug-cc-pvqz/c tightscf
| 39> %pal nprocs 16 end
| 40> %maxcore 3800
| 41> %base "QZ_S66by10_2_1.05_dimer"
| 42>
| 43> *xyz 0 1
| 44> O   -0.52532979   -0.05097108   -0.31451686
| 45> H   -0.94200663    0.74790163    0.01125282
| 46> H    0.40369652    0.05978598   -0.07356837
| 47> O    2.45827492    0.04444312    0.08262638
| 48> H    2.82625775   -0.52763428    0.76015471
| 49> C    2.92327999   -0.42718680   -1.17953273
| 50> H    2.49246290    0.22390689   -1.93264676
| 51> H    4.00924368   -0.37639394   -1.25384466
| 52> H    2.59493738   -1.44705629   -1.37861337
| 53> *
| 54>
| 55>
| 56>
| 57>
| 58>                          ****END OF INPUT****
 Total Charge           Charge          ....    0
 Multiplicity           Mult            ....    1
 Number of Electrons    NEL             ....   28
MP2 TOTAL ENERGY:     -191.691598689 Eh
FINAL SINGLE POINT ENERGY      -191.691598689310
MP2 TOTAL ENERGY:     -191.866962556 Eh
FINAL SINGLE POINT ENERGY      -191.866962556100

CARTESIAN COORDINATES (ANGSTROEM)
---------------------------------
  O     -0.525330   -0.050971   -0.314517
  H     -0.942007    0.747902    0.011253
  H      0.403697    0.059786   -0.073568
  O      2.458275    0.044443    0.082626
  H      2.826258   -0.527634    0.760155
  C      2.923280   -0.427187   -1.179533
  H      2.492463    0.223907   -1.932647
  H      4.009244   -0.376394   -1.253845
  H      2.594937   -1.447056   -1.378613

 Multiplicity           Mult            ....    1
 Number of Electrons    NEL             ....   28
 Basis Dimension        Dim             ....  516

ORBITAL ENERGIES
----------------

  NO   OCC          E(Eh)            E(eV)
   0   2.0000     -20.576007      -559.9016
   1   2.0000     -20.537947      -558.8660
   2   2.0000     -11.279741      -306.9373
   3   2.0000      -1.376306       -37.4512
   4   2.0000      -1.325337       -36.0643
   5   2.0000      -0.938835       -25.5470
   6   2.0000      -0.712219       -19.3805
   7   2.0000      -0.689664       -18.7667
   8   2.0000      -0.633066       -17.2266
   9   2.0000      -0.608698       -16.5635
  10   2.0000      -0.562163       -15.2972
  11   2.0000      -0.520319       -14.1586
  12   2.0000      -0.485236       -13.2039
  13   2.0000      -0.469943       -12.7878
  14   0.0000       0.022887         0.6228
  15   0.0000       0.036321         0.9883
  16   0.0000       0.038351         1.0436
  17   0.0000       0.043793         1.1917
  18   0.0000       0.055845         1.5196

MULLIKEN ATOMIC CHARGES
-----------------------
   0 O :   -0.624683
   1 H :    0.305748
   2 H :    0.291772
   3 O :   -0.675389
   4 H :    0.337147
   5 C :   -0.508060
   6 H :    0.281894
   7 H :    0.333996
   8 H :    0.257575
Sum of atomic charges:    0.0000000

LOEWDIN ATOMIC CHARGES
----------------------
   0 O :    1.608138
   1 H :   -0.795609
   2 H :   -0.952259
   3 O :    1.261783
   4 H :   -0.774413
   5 C :    0.610216
   6 H :   -0.333935
   7 H :   -0.313890
   8 H :   -0.310031

  Mayer bond orders larger than 0.100000
B(  0-O ,  1-H ) :   0.9522 B(  0-O ,  2-H ) :   0.9694 B(  3-O ,  4-H ) :   0.8878
B(  3-O ,  5-C ) :   0.8461 B(  5-C ,  6-H ) :   0.9100 B(  5-C ,  7-H ) :   0.8816
B(  5-C ,  8-H ) :   0.9196

MP2 TOTAL ENERGY:     -191.923819162 Eh
FINAL SINGLE POINT ENERGY      -191.923819162358

DIPOLE MOMENT
-------------
                                X             Y             Z
Electronic contribution:     -0.98520       0.50571       1.38973
Nuclear contribution   :      1.94704      -0.49583      -1.17001
                        -----------------------------------------
Total Dipole Moment    :      0.96184       0.00989       0.21972
                        -----------------------------------------
Magnitude (a.u.)       :      0.98667
Magnitude (Debye)      :      2.50791

Rotational constants in cm-1:     0.894354     0.132692     0.119610
Rotational constants in MHz : 26812.050063  3977.993663  3585.819126

                             ****ORCA TERMINATED NORMALLY****
TOTAL RUN TIME: 0 days 0 hours 11 minutes 38 seconds 415 msec
