                         Program Version 5.0.4 -  RELEASE  -
|  1> ! ri-mp2 aug-cc-pvdz aug-cc-pvdz/c tightscf
|  2> %pal nprocs 16 end
|  3> %maxcore 3800
|  4> %base "DZ_S66by10_5_0.8_dimer"
|  5> %scf STABPerform true end
|  6>
|  7> *xyz 0 1
|  8> O   -0.63613493   -0.02328241    0.28059932
|  9> H    0.30809737   -0.04707875    0.07646369
| 10> C   -1.15206541   -1.31128778    0.01525955
| 11> H   -2.20994502   -1.29626539    0.26395586
| 12> H   -1.05661024   -1.59267086   -1.03619061
| 13> H   -0.67483575   -2.08627276    0.62051145
| 14> O    1.85481431   -0.10809382    0.00445320
| 15> H    2.32360362    0.50629070   -0.56521276
| 16> C    2.36364824    0.04892512    1.32617052
| 17> H    1.81007916   -0.63927131    1.95630140
| 18> H    3.42264434   -0.20151378    1.38289366
| 19> H    2.21120860    1.05961917    1.70406307
| 20> *
| 21>
| 22> $new_job
| 23> ! ri-mp2 aug-cc-pvtz aug-cc-pvtz/c tightscf
| 24> %pal nprocs 16 end
| 25> %maxcore 3800
| 26> %base "TZ_S66by10_5_0.8_dimer"
| 27>
| 28> *xyz 0 1
| 29> O   -0.63613493   -0.02328241    0.28059932
| 30> H    0.30809737   -0.04707875    0.07646369
| 31> C   -1.15206541   -1.31128778    0.01525955
| 32> H   -2.20994502   -1.29626539    0.26395586
| 33> H   -1.05661024   -1.59267086   -1.03619061
| 34> H   -0.67483575   -2.08627276    0.62051145
| 35> O    1.85481431   -0.10809382    0.00445320
| 36> H    2.32360362    0.50629070   -0.56521276
| 37> C    2.36364824    0.04892512    1.32617052
| 38> H    1.81007916   -0.63927131    1.95630140
| 39> H    3.42264434   -0.20151378    1.38289366
| 40> H    2.21120860    1.05961917    1.70406307
| 41> *
| 42>
| 43> $new_job
| 44> ! ri-mp2 aug-cc-pvqz aug-cc-pvqz/c tightscf
| 45> %pal nprocs 16 end
| 46> %maxcore 3800
| 47> %base "QZ_S66by10_5_0.8_dimer"
| 48>
| 49> *xyz 0 1
| 50> O   -0.63613493   -0.02328241    0.28059932
| 51> H    0.30809737   -0.04707875    0.07646369
| 52> C   -1.15206541   -1.31128778    0.01525955
| 53> H   -2.20994502   -1.29626539    0.26395586
| 54> H   -1.05661024   -1.59267086   -1.03619061
| 55> H   -0.67483575   -2.08627276    0.62051145
| 56> O    1.85481431   -0.10809382    0.00445320
| 57> H    2.32360362    0.50629070   -0.56521276
| 58> C    2.36364824    0.04892512    1.32617052
| 59> H    1.81007916   -0.63927131    1.95630140
| 60> H    3.42264434   -0.20151378    1.38289366
| 61> H    2.21120860    1.05961917    1.70406307
| 62> *
| 63>
| 64>
| 65>
| 66>
| 67>                          ****END OF INPUT****
 Total Charge           Charge          ....    0
 Multiplicity           Mult            ....    1
 Number of Electrons    NEL             ....   36
MP2 TOTAL ENERGY:     -230.847997021 Eh
FINAL SINGLE POINT ENERGY      -230.847997020872
MP2 TOTAL ENERGY:     -231.063076904 Eh
FINAL SINGLE POINT ENERGY      -231.063076904279

CARTESIAN COORDINATES (ANGSTROEM)
---------------------------------
  O     -0.636135   -0.023282    0.280599
  H      0.308097   -0.047079    0.076464
  C     -1.152065   -1.311288    0.015260
  H     -2.209945   -1.296265    0.263956
  H     -1.056610   -1.592671   -1.036191
  H     -0.674836   -2.086273    0.620511
  O      1.854814   -0.108094    0.004453
  H      2.323604    0.506291   -0.565213
  C      2.363648    0.048925    1.326171
  H      1.810079   -0.639271    1.956301
  H      3.422644   -0.201514    1.382894
  H      2.211209    1.059619    1.704063

 Multiplicity           Mult            ....    1
 Number of Electrons    NEL             ....   36
 Basis Dimension        Dim             ....  688

ORBITAL ENERGIES
----------------

  NO   OCC          E(Eh)            E(eV)
   0   2.0000     -20.589292      -560.2631
   1   2.0000     -20.505782      -557.9907
   2   2.0000     -11.287956      -307.1609
   3   2.0000     -11.243103      -305.9404
   4   2.0000      -1.398183       -38.0465
   5   2.0000      -1.317217       -35.8433
   6   2.0000      -0.949556       -25.8387
   7   2.0000      -0.898149       -24.4399
   8   2.0000      -0.736631       -20.0448
   9   2.0000      -0.680140       -18.5075
  10   2.0000      -0.638572       -17.3764
  11   2.0000      -0.610064       -16.6007
  12   2.0000      -0.590103       -16.0575
  13   2.0000      -0.561288       -15.2734
  14   2.0000      -0.535631       -14.5753
  15   2.0000      -0.492287       -13.3958
  16   2.0000      -0.454503       -12.3676
  17   2.0000      -0.414001       -11.2655
  18   0.0000       0.020589         0.5602
  19   0.0000       0.034776         0.9463
  20   0.0000       0.037873         1.0306
  21   0.0000       0.039620         1.0781
  22   0.0000       0.052649         1.4326

MULLIKEN ATOMIC CHARGES
-----------------------
   0 O :   -0.762858
   1 H :    0.331244
   2 C :   -0.510993
   3 H :    0.352423
   4 H :    0.239347
   5 H :    0.248379
   6 O :   -0.607481
   7 H :    0.343686
   8 C :   -0.587961
   9 H :    0.307267
  10 H :    0.369161
  11 H :    0.277786
Sum of atomic charges:    0.0000000

LOEWDIN ATOMIC CHARGES
----------------------
   0 O :    1.249151
   1 H :   -1.254421
   2 C :    0.564617
   3 H :   -0.347281
   4 H :   -0.318598
   5 H :   -0.321114
   6 O :    1.351273
   7 H :   -0.686259
   8 C :    0.672978
   9 H :   -0.317628
  10 H :   -0.301146
  11 H :   -0.291573

  Mayer bond orders larger than 0.100000
B(  0-O ,  1-H ) :   0.8949 B(  0-O ,  2-C ) :   0.8704 B(  2-C ,  3-H ) :   0.8846
B(  2-C ,  4-H ) :   0.9308 B(  2-C ,  5-H ) :   0.9162 B(  6-O ,  7-H ) :   0.8787
B(  6-O ,  8-C ) :   0.8613 B(  8-C ,  9-H ) :   0.8956 B(  8-C , 10-H ) :   0.8560
B(  8-C , 11-H ) :   0.9148

MP2 TOTAL ENERGY:     -231.131012234 Eh
FINAL SINGLE POINT ENERGY      -231.131012234406

DIPOLE MOMENT
-------------
                                X             Y             Z
Electronic contribution:      0.28250       1.50404      -1.15221
Nuclear contribution   :      1.04240      -1.49422       1.18232
                        -----------------------------------------
Total Dipole Moment    :      1.32490       0.00982       0.03011
                        -----------------------------------------
Magnitude (a.u.)       :      1.32528
Magnitude (Debye)      :      3.36859

Rotational constants in cm-1:     0.559121     0.092619     0.091105
Rotational constants in MHz : 16762.024261  2776.662179  2731.244877

                             ****ORCA TERMINATED NORMALLY****
TOTAL RUN TIME: 0 days 0 hours 25 minutes 26 seconds 23 msec
