                         Program Version 5.0.4 -  RELEASE  -
|  1> ! ri-mp2 aug-cc-pvdz aug-cc-pvdz/c tightscf
|  2> %pal nprocs 16 end
|  3> %maxcore 3800
|  4> %base "DZ_S66by10_39_0.95_dimer"
|  5>
|  6> *xyz 0 1
|  7> C    0.76554546    0.86824433    0.82099095
|  8> H    1.43747647    1.68000664    1.06510281
|  9> C    1.23765260   -0.44283807    0.79388795
| 10> H    2.27575877   -0.64853808    1.01771141
| 11> C    0.37223723   -1.48853667    0.47726862
| 12> H    0.73818789   -2.50608012    0.45705609
| 13> C   -0.96493318   -1.22297162    0.18687834
| 14> H   -1.63645949   -2.03456079   -0.05777362
| 15> C   -1.43706509    0.08840558    0.21327714
| 16> H   -2.47468432    0.29430216   -0.01146746
| 17> C   -0.57190649    1.13402416    0.53081281
| 18> H   -0.93769935    2.15171058    0.55107764
| 19> C   -0.77206390   -0.74200286    3.86954434
| 20> H   -0.87831775   -0.56705370    2.79723747
| 21> H   -1.42370148   -1.57126676    4.14269500
| 22> C    0.69747728   -0.99906595    4.21367422
| 23> H    1.19270806   -1.63665100    3.48308994
| 24> H    0.76075646   -1.49927973    5.18114085
| 25> C    1.33761433    0.40633072    4.30462707
| 26> H    1.98788264    0.59900165    3.45277415
| 27> H    1.95048151    0.49550014    5.20035244
| 28> C    0.15856820    1.40550774    4.33149911
| 29> H    0.04141672    1.86447813    3.34921377
| 30> H    0.30416180    2.20701257    5.05389771
| 31> C   -1.07520356    0.54841255    4.62714797
| 32> H   -2.00619207    1.02415000    4.32123483
| 33> H   -1.14062932    0.33909164    5.69768322
| 34> *
| 35>
| 36> $new_job
| 37> ! ri-mp2 aug-cc-pvtz aug-cc-pvtz/c tightscf
| 38> %pal nprocs 16 end
| 39> %maxcore 3800
| 40> %base "TZ_S66by10_39_0.95_dimer"
| 41>
| 42> *xyz 0 1
| 43> C    0.76554546    0.86824433    0.82099095
| 44> H    1.43747647    1.68000664    1.06510281
| 45> C    1.23765260   -0.44283807    0.79388795
| 46> H    2.27575877   -0.64853808    1.01771141
| 47> C    0.37223723   -1.48853667    0.47726862
| 48> H    0.73818789   -2.50608012    0.45705609
| 49> C   -0.96493318   -1.22297162    0.18687834
| 50> H   -1.63645949   -2.03456079   -0.05777362
| 51> C   -1.43706509    0.08840558    0.21327714
| 52> H   -2.47468432    0.29430216   -0.01146746
| 53> C   -0.57190649    1.13402416    0.53081281
| 54> H   -0.93769935    2.15171058    0.55107764
| 55> C   -0.77206390   -0.74200286    3.86954434
| 56> H   -0.87831775   -0.56705370    2.79723747
| 57> H   -1.42370148   -1.57126676    4.14269500
| 58> C    0.69747728   -0.99906595    4.21367422
| 59> H    1.19270806   -1.63665100    3.48308994
| 60> H    0.76075646   -1.49927973    5.18114085
| 61> C    1.33761433    0.40633072    4.30462707
| 62> H    1.98788264    0.59900165    3.45277415
| 63> H    1.95048151    0.49550014    5.20035244
| 64> C    0.15856820    1.40550774    4.33149911
| 65> H    0.04141672    1.86447813    3.34921377
| 66> H    0.30416180    2.20701257    5.05389771
| 67> C   -1.07520356    0.54841255    4.62714797
| 68> H   -2.00619207    1.02415000    4.32123483
| 69> H   -1.14062932    0.33909164    5.69768322
| 70> *
| 71>
| 72> $new_job
| 73> ! ri-mp2 aug-cc-pvqz aug-cc-pvqz/c tightscf
| 74> %pal nprocs 16 end
| 75> %maxcore 3800
| 76> %base "QZ_S66by10_39_0.95_dimer"
| 77>
| 78> *xyz 0 1
| 79> C    0.76554546    0.86824433    0.82099095
| 80> H    1.43747647    1.68000664    1.06510281
| 81> C    1.23765260   -0.44283807    0.79388795
| 82> H    2.27575877   -0.64853808    1.01771141
| 83> C    0.37223723   -1.48853667    0.47726862
| 84> H    0.73818789   -2.50608012    0.45705609
| 85> C   -0.96493318   -1.22297162    0.18687834
| 86> H   -1.63645949   -2.03456079   -0.05777362
| 87> C   -1.43706509    0.08840558    0.21327714
| 88> H   -2.47468432    0.29430216   -0.01146746
| 89> C   -0.57190649    1.13402416    0.53081281
| 90> H   -0.93769935    2.15171058    0.55107764
| 91> C   -0.77206390   -0.74200286    3.86954434
| 92> H   -0.87831775   -0.56705370    2.79723747
| 93> H   -1.42370148   -1.57126676    4.14269500
| 94> C    0.69747728   -0.99906595    4.21367422
| 95> H    1.19270806   -1.63665100    3.48308994
| 96> H    0.76075646   -1.49927973    5.18114085
| 97> C    1.33761433    0.40633072    4.30462707
| 98> H    1.98788264    0.59900165    3.45277415
| 99> H    1.95048151    0.49550014    5.20035244
|100> C    0.15856820    1.40550774    4.33149911
|101> H    0.04141672    1.86447813    3.34921377
|102> H    0.30416180    2.20701257    5.05389771
|103> C   -1.07520356    0.54841255    4.62714797
|104> H   -2.00619207    1.02415000    4.32123483
|105> H   -1.14062932    0.33909164    5.69768322
|106> *
|107>
|108>
|109>
|110>
|111>                          ****END OF INPUT****
 Total Charge           Charge          ....    0
 Multiplicity           Mult            ....    1
 Number of Electrons    NEL             ....   82
MP2 TOTAL ENERGY:     -427.473222323 Eh
FINAL SINGLE POINT ENERGY      -427.473222323341
MP2 TOTAL ENERGY:     -427.865231400 Eh
FINAL SINGLE POINT ENERGY      -427.865231400123

CARTESIAN COORDINATES (ANGSTROEM)
---------------------------------
  C      0.765545    0.868244    0.820991
  H      1.437476    1.680007    1.065103
  C      1.237653   -0.442838    0.793888
  H      2.275759   -0.648538    1.017711
  C      0.372237   -1.488537    0.477269
  H      0.738188   -2.506080    0.457056
  C     -0.964933   -1.222972    0.186878
  H     -1.636459   -2.034561   -0.057774
  C     -1.437065    0.088406    0.213277
  H     -2.474684    0.294302   -0.011467
  C     -0.571906    1.134024    0.530813
  H     -0.937699    2.151711    0.551078
  C     -0.772064   -0.742003    3.869544
  H     -0.878318   -0.567054    2.797237
  H     -1.423701   -1.571267    4.142695
  C      0.697477   -0.999066    4.213674
  H      1.192708   -1.636651    3.483090
  H      0.760756   -1.499280    5.181141
  C      1.337614    0.406331    4.304627
  H      1.987883    0.599002    3.452774
  H      1.950482    0.495500    5.200352
  C      0.158568    1.405508    4.331499
  H      0.041417    1.864478    3.349214
  H      0.304162    2.207013    5.053898
  C     -1.075204    0.548413    4.627148
  H     -2.006192    1.024150    4.321235
  H     -1.140629    0.339092    5.697683

 Multiplicity           Mult            ....    1
 Number of Electrons    NEL             ....   82
 Basis Dimension        Dim             .... 1616

ORBITAL ENERGIES
----------------

  NO   OCC          E(Eh)            E(eV)
   0   2.0000     -11.237164      -305.7788
   1   2.0000     -11.236545      -305.7619
   2   2.0000     -11.236511      -305.7610
   3   2.0000     -11.235352      -305.7295
   4   2.0000     -11.235250      -305.7267
   5   2.0000     -11.234645      -305.7102
   6   2.0000     -11.202495      -304.8354
   7   2.0000     -11.201395      -304.8055
   8   2.0000     -11.200671      -304.7857
   9   2.0000     -11.200376      -304.7777
  10   2.0000     -11.195364      -304.6413
  11   2.0000      -1.153161       -31.3791
  12   2.0000      -1.107668       -30.1412
  13   2.0000      -1.017318       -27.6826
  14   2.0000      -1.017224       -27.6801
  15   2.0000      -0.948523       -25.8106
  16   2.0000      -0.947634       -25.7864
  17   2.0000      -0.826606       -22.4931
  18   2.0000      -0.826585       -22.4925
  19   2.0000      -0.768306       -20.9067
  20   2.0000      -0.759661       -20.6714
  21   2.0000      -0.712592       -19.3906
  22   2.0000      -0.646689       -17.5973
  23   2.0000      -0.643874       -17.5207
  24   2.0000      -0.636620       -17.3233
  25   2.0000      -0.621526       -16.9126
  26   2.0000      -0.590819       -16.0770
  27   2.0000      -0.590700       -16.0738
  28   2.0000      -0.562679       -15.3113
  29   2.0000      -0.561870       -15.2893
  30   2.0000      -0.507956       -13.8222
  31   2.0000      -0.497330       -13.5330
  32   2.0000      -0.497296       -13.5321
  33   2.0000      -0.467101       -12.7105
  34   2.0000      -0.465652       -12.6710
  35   2.0000      -0.456128       -12.4119
  36   2.0000      -0.450472       -12.2580
  37   2.0000      -0.446591       -12.1524
  38   2.0000      -0.441710       -12.0195
  39   2.0000      -0.339573        -9.2402
  40   2.0000      -0.339244        -9.2313
  41   0.0000       0.022383         0.6091
  42   0.0000       0.028312         0.7704
  43   0.0000       0.028964         0.7882
  44   0.0000       0.033163         0.9024
  45   0.0000       0.039473         1.0741

MULLIKEN ATOMIC CHARGES
-----------------------
   0 C :   -0.116782
   1 H :    0.322383
   2 C :   -0.192125
   3 H :    0.263241
   4 C :   -0.391471
   5 H :    0.218313
   6 C :   -0.249011
   7 H :    0.282462
   8 C :   -0.326069
   9 H :    0.256741
  10 C :   -0.384575
  11 H :    0.271546
  12 C :   -0.715390
  13 H :    0.614395
  14 H :    0.322593
  15 C :   -0.664649
  16 H :    0.348656
  17 H :    0.253147
  18 C :   -0.503311
  19 H :    0.179193
  20 H :    0.325873
  21 C :   -0.692088
  22 H :    0.294657
  23 H :    0.323246
  24 C :   -0.570769
  25 H :    0.281803
  26 H :    0.247991
Sum of atomic charges:    0.0000000

LOEWDIN ATOMIC CHARGES
----------------------
   0 C :    0.319424
   1 H :   -0.311274
   2 C :    0.321105
   3 H :   -0.310017
   4 C :    0.333881
   5 H :   -0.313123
   6 C :    0.334387
   7 H :   -0.316586
   8 C :    0.337212
   9 H :   -0.317293
  10 C :    0.337248
  11 H :   -0.312910
  12 C :    0.515222
  13 H :   -0.353358
  14 H :   -0.242757
  15 C :    0.537120
  16 H :   -0.276233
  17 H :   -0.265019
  18 C :    0.547911
  19 H :   -0.296406
  20 H :   -0.263619
  21 C :    0.534658
  22 H :   -0.304454
  23 H :   -0.255502
  24 C :    0.535014
  25 H :   -0.252575
  26 H :   -0.262058

  Mayer bond orders larger than 0.100000
B(  0-C ,  1-H ) :   1.0206 B(  0-C ,  2-C ) :   1.0870 B(  0-C ,  6-C ) :   0.1539
B(  0-C , 10-C ) :   1.1439 B(  1-H ,  2-C ) :  -0.1049 B(  2-C ,  3-H ) :   1.0739
B(  2-C ,  4-C ) :   1.1917 B(  2-C ,  8-C ) :   0.1722 B(  4-C ,  5-H ) :   1.1685
B(  4-C ,  6-C ) :   1.1974 B(  4-C , 10-C ) :   0.1716 B(  6-C ,  7-H ) :   1.0949
B(  6-C ,  8-C ) :   1.1841 B(  8-C ,  9-H ) :   1.1148 B(  8-C , 10-C ) :   1.2160
B( 10-C , 11-H ) :   1.0925 B( 12-C , 13-H ) :   0.6720 B( 12-C , 14-H ) :   0.9286
B( 12-C , 15-C ) :   0.8674 B( 12-C , 24-C ) :   0.9976 B( 15-C , 16-H ) :   0.8483
B( 15-C , 17-H ) :   0.9801 B( 15-C , 18-C ) :   0.9628 B( 18-C , 19-H ) :   0.9942
B( 18-C , 20-H ) :   0.8912 B( 18-C , 21-C ) :   0.9721 B( 21-C , 22-H ) :   0.8479
B( 21-C , 23-H ) :   0.8941 B( 21-C , 24-C ) :   0.9952 B( 24-C , 25-H ) :   0.8858
B( 24-C , 26-H ) :   0.9458

MP2 TOTAL ENERGY:     -427.985941495 Eh
FINAL SINGLE POINT ENERGY      -427.985941495043

DIPOLE MOMENT
-------------
                                X             Y             Z
Electronic contribution:     -0.49158      -0.72521      -8.69806
Nuclear contribution   :      0.46639       0.70096       8.57377
                        -----------------------------------------
Total Dipole Moment    :     -0.02519      -0.02425      -0.12430
                        -----------------------------------------
Magnitude (a.u.)       :      0.12912
Magnitude (Debye)      :      0.32820

Rotational constants in cm-1:     0.057410     0.024230     0.023789
Rotational constants in MHz :  1721.109845   726.406913   713.178647

                             ****ORCA TERMINATED NORMALLY****
TOTAL RUN TIME: 0 days 1 hours 52 minutes 13 seconds 230 msec
