                         Program Version 5.0.4 -  RELEASE  -
|  1> ! ri-mp2 aug-cc-pvdz aug-cc-pvdz/c tightscf
|  2> %pal nprocs 16 end
|  3> %maxcore 3800
|  4> %base "DZ_S66by10_52_1.05_dimer"
|  5>
|  6> *xyz 0 1
|  7> C    0.96408039    0.87509331    0.37801364
|  8> H    1.65982961    1.69993082    0.44604227
|  9> C    1.43105709   -0.41313344    0.11899152
| 10> H    2.48952453   -0.58720917   -0.01701261
| 11> C    0.53412766   -1.47763890    0.04241755
| 12> H    0.89696129   -2.47738838   -0.15201199
| 13> C   -0.83032682   -1.25360409    0.22085611
| 14> H   -1.52576001   -2.07962435    0.16411655
| 15> C   -1.29758715    0.03441261    0.48024263
| 16> H   -2.35439607    0.20801612    0.62856096
| 17> C   -0.40044509    1.09977921    0.56160137
| 18> H   -0.76045514    2.09376880    0.78475698
| 19> C   -0.10864318    0.51179719    4.51186324
| 20> O   -0.57683277    1.56124381    4.13260286
| 21> O    0.29456940   -0.46576608    3.67257798
| 22> H    0.12586458   -0.13985249    2.77117273
| 23> C    0.10131112    0.11481010    5.94326903
| 24> H   -0.20865503    0.92414668    6.59325792
| 25> H   -0.47476961   -0.78181387    6.16022015
| 26> H    1.14980854   -0.12132199    6.10828762
| 27> *
| 28>
| 29> $new_job
| 30> ! ri-mp2 aug-cc-pvtz aug-cc-pvtz/c tightscf
| 31> %pal nprocs 16 end
| 32> %maxcore 3800
| 33> %base "TZ_S66by10_52_1.05_dimer"
| 34>
| 35> *xyz 0 1
| 36> C    0.96408039    0.87509331    0.37801364
| 37> H    1.65982961    1.69993082    0.44604227
| 38> C    1.43105709   -0.41313344    0.11899152
| 39> H    2.48952453   -0.58720917   -0.01701261
| 40> C    0.53412766   -1.47763890    0.04241755
| 41> H    0.89696129   -2.47738838   -0.15201199
| 42> C   -0.83032682   -1.25360409    0.22085611
| 43> H   -1.52576001   -2.07962435    0.16411655
| 44> C   -1.29758715    0.03441261    0.48024263
| 45> H   -2.35439607    0.20801612    0.62856096
| 46> C   -0.40044509    1.09977921    0.56160137
| 47> H   -0.76045514    2.09376880    0.78475698
| 48> C   -0.10864318    0.51179719    4.51186324
| 49> O   -0.57683277    1.56124381    4.13260286
| 50> O    0.29456940   -0.46576608    3.67257798
| 51> H    0.12586458   -0.13985249    2.77117273
| 52> C    0.10131112    0.11481010    5.94326903
| 53> H   -0.20865503    0.92414668    6.59325792
| 54> H   -0.47476961   -0.78181387    6.16022015
| 55> H    1.14980854   -0.12132199    6.10828762
| 56> *
| 57>
| 58> $new_job
| 59> ! ri-mp2 aug-cc-pvqz aug-cc-pvqz/c tightscf
| 60> %pal nprocs 16 end
| 61> %maxcore 3800
| 62> %base "QZ_S66by10_52_1.05_dimer"
| 63>
| 64> *xyz 0 1
| 65> C    0.96408039    0.87509331    0.37801364
| 66> H    1.65982961    1.69993082    0.44604227
| 67> C    1.43105709   -0.41313344    0.11899152
| 68> H    2.48952453   -0.58720917   -0.01701261
| 69> C    0.53412766   -1.47763890    0.04241755
| 70> H    0.89696129   -2.47738838   -0.15201199
| 71> C   -0.83032682   -1.25360409    0.22085611
| 72> H   -1.52576001   -2.07962435    0.16411655
| 73> C   -1.29758715    0.03441261    0.48024263
| 74> H   -2.35439607    0.20801612    0.62856096
| 75> C   -0.40044509    1.09977921    0.56160137
| 76> H   -0.76045514    2.09376880    0.78475698
| 77> C   -0.10864318    0.51179719    4.51186324
| 78> O   -0.57683277    1.56124381    4.13260286
| 79> O    0.29456940   -0.46576608    3.67257798
| 80> H    0.12586458   -0.13985249    2.77117273
| 81> C    0.10131112    0.11481010    5.94326903
| 82> H   -0.20865503    0.92414668    6.59325792
| 83> H   -0.47476961   -0.78181387    6.16022015
| 84> H    1.14980854   -0.12132199    6.10828762
| 85> *
| 86>
| 87>
| 88>
| 89>
| 90>                          ****END OF INPUT****
 Total Charge           Charge          ....    0
 Multiplicity           Mult            ....    1
 Number of Electrons    NEL             ....   74
MP2 TOTAL ENERGY:     -460.072729674 Eh
FINAL SINGLE POINT ENERGY      -460.072729674105
MP2 TOTAL ENERGY:     -460.476462748 Eh
FINAL SINGLE POINT ENERGY      -460.476462747735

CARTESIAN COORDINATES (ANGSTROEM)
---------------------------------
  C      0.964080    0.875093    0.378014
  H      1.659830    1.699931    0.446042
  C      1.431057   -0.413133    0.118992
  H      2.489525   -0.587209   -0.017013
  C      0.534128   -1.477639    0.042418
  H      0.896961   -2.477388   -0.152012
  C     -0.830327   -1.253604    0.220856
  H     -1.525760   -2.079624    0.164117
  C     -1.297587    0.034413    0.480243
  H     -2.354396    0.208016    0.628561
  C     -0.400445    1.099779    0.561601
  H     -0.760455    2.093769    0.784757
  C     -0.108643    0.511797    4.511863
  O     -0.576833    1.561244    4.132603
  O      0.294569   -0.465766    3.672578
  H      0.125865   -0.139852    2.771173
  C      0.101311    0.114810    5.943269
  H     -0.208655    0.924147    6.593258
  H     -0.474770   -0.781814    6.160220
  H      1.149809   -0.121322    6.108288

 Multiplicity           Mult            ....    1
 Number of Electrons    NEL             ....   74
 Basis Dimension        Dim             .... 1260

ORBITAL ENERGIES
----------------

  NO   OCC          E(Eh)            E(eV)
   0   2.0000     -20.597111      -560.4759
   1   2.0000     -20.538246      -558.8741
   2   2.0000     -11.378703      -309.6303
   3   2.0000     -11.242275      -305.9179
   4   2.0000     -11.241779      -305.9044
   5   2.0000     -11.241076      -305.8852
   6   2.0000     -11.240247      -305.8627
   7   2.0000     -11.240200      -305.8614
   8   2.0000     -11.239184      -305.8337
   9   2.0000     -11.236595      -305.7633
  10   2.0000      -1.452496       -39.5244
  11   2.0000      -1.349702       -36.7273
  12   2.0000      -1.158019       -31.5113
  13   2.0000      -1.021913       -27.8077
  14   2.0000      -1.021792       -27.8044
  15   2.0000      -1.020248       -27.7624
  16   2.0000      -0.830510       -22.5993
  17   2.0000      -0.830277       -22.5930
  18   2.0000      -0.812314       -22.1042
  19   2.0000      -0.716245       -19.4900
  20   2.0000      -0.696527       -18.9535
  21   2.0000      -0.671001       -18.2589
  22   2.0000      -0.649800       -17.6820
  23   2.0000      -0.641671       -17.4608
  24   2.0000      -0.625607       -17.0236
  25   2.0000      -0.594764       -16.1843
  26   2.0000      -0.594209       -16.1693
  27   2.0000      -0.575665       -15.6646
  28   2.0000      -0.566922       -15.4267
  29   2.0000      -0.553525       -15.0622
  30   2.0000      -0.510570       -13.8933
  31   2.0000      -0.501091       -13.6354
  32   2.0000      -0.500907       -13.6304
  33   2.0000      -0.473450       -12.8832
  34   2.0000      -0.446055       -12.1378
  35   2.0000      -0.345686        -9.4066
  36   2.0000      -0.344811        -9.3828
  37   0.0000       0.022697         0.6176
  38   0.0000       0.029330         0.7981
  39   0.0000       0.030631         0.8335
  40   0.0000       0.033501         0.9116
  41   0.0000       0.043274         1.1775

MULLIKEN ATOMIC CHARGES
-----------------------
   0 C :   -0.369677
   1 H :    0.285023
   2 C :   -0.323603
   3 H :    0.317136
   4 C :   -0.270470
   5 H :    0.329748
   6 C :   -0.332336
   7 H :    0.313713
   8 C :   -0.353518
   9 H :    0.283246
  10 C :   -0.224995
  11 H :    0.299336
  12 C :    0.930771
  13 O :   -0.763051
  14 O :   -0.675355
  15 H :    0.360434
  16 C :   -0.717943
  17 H :    0.310428
  18 H :    0.303086
  19 H :    0.298026
Sum of atomic charges:   -0.0000000

LOEWDIN ATOMIC CHARGES
----------------------
   0 C :    0.329576
   1 H :   -0.318590
   2 C :    0.331855
   3 H :   -0.322059
   4 C :    0.331797
   5 H :   -0.323171
   6 C :    0.331815
   7 H :   -0.321818
   8 C :    0.328283
   9 H :   -0.317810
  10 C :    0.318888
  11 H :   -0.316371
  12 C :   -1.027897
  13 O :    0.696493
  14 O :    1.269233
  15 H :   -0.922195
  16 C :    0.868194
  17 H :   -0.326056
  18 H :   -0.304580
  19 H :   -0.305585

  Mayer bond orders larger than 0.100000
B(  0-C ,  1-H ) :   1.0773 B(  0-C ,  2-C ) :   1.2361 B(  0-C ,  6-C ) :   0.1589
B(  0-C , 10-C ) :   1.1865 B(  2-C ,  3-H ) :   1.0389 B(  2-C ,  4-C ) :   1.1775
B(  2-C ,  8-C ) :   0.1535 B(  4-C ,  5-H ) :   1.0308 B(  4-C ,  6-C ) :   1.1821
B(  4-C , 10-C ) :   0.1052 B(  6-C ,  7-H ) :   1.0422 B(  6-C ,  8-C ) :   1.2419
B(  8-C ,  9-H ) :   1.0789 B(  8-C , 10-C ) :   1.1770 B( 10-C , 11-H ) :   1.0503
B( 12-C , 13-O ) :   1.4297 B( 12-C , 14-O ) :   0.9942 B( 12-C , 16-C ) :   0.8275
B( 13-O , 15-H ) :   0.1298 B( 14-O , 15-H ) :   0.7877 B( 16-C , 17-H ) :   0.9688
B( 16-C , 18-H ) :   0.9145 B( 16-C , 19-H ) :   0.9241

MP2 TOTAL ENERGY:     -460.605894178 Eh
FINAL SINGLE POINT ENERGY      -460.605894178402

DIPOLE MOMENT
-------------
                                X             Y             Z
Electronic contribution:     -0.56647       1.20533      -1.94924
Nuclear contribution   :      0.84917      -1.85839       2.00387
                        -----------------------------------------
Total Dipole Moment    :      0.28270      -0.65306       0.05462
                        -----------------------------------------
Magnitude (a.u.)       :      0.71372
Magnitude (Debye)      :      1.81413

Rotational constants in cm-1:     0.079308     0.021831     0.020954
Rotational constants in MHz :  2377.601431   654.475949   628.179119

                             ****ORCA TERMINATED NORMALLY****
TOTAL RUN TIME: 0 days 0 hours 51 minutes 26 seconds 400 msec
