                         Program Version 5.0.4 -  RELEASE  -
|  1> ! ri-mp2 aug-cc-pvdz aug-cc-pvdz/c tightscf
|  2> %pal nprocs 16 end
|  3> %maxcore 3800
|  4> %base "DZ_S66by10_52_2.0_dimer"
|  5>
|  6> *xyz 0 1
|  7> C    0.96408039    0.87509331    0.37801364
|  8> H    1.65982961    1.69993082    0.44604227
|  9> C    1.43105709   -0.41313344    0.11899152
| 10> H    2.48952453   -0.58720917   -0.01701261
| 11> C    0.53412766   -1.47763890    0.04241755
| 12> H    0.89696129   -2.47738838   -0.15201199
| 13> C   -0.83032682   -1.25360409    0.22085611
| 14> H   -1.52576001   -2.07962435    0.16411655
| 15> C   -1.29758715    0.03441261    0.48024263
| 16> H   -2.35439607    0.20801612    0.62856096
| 17> C   -0.40044509    1.09977921    0.56160137
| 18> H   -0.76045514    2.09376880    0.78475698
| 19> C    0.06863906    0.15457276    6.91181764
| 20> O   -0.39955053    1.20401938    6.53255726
| 21> O    0.47185164   -0.82299051    6.07253238
| 22> H    0.30314682   -0.49707693    5.17112713
| 23> C    0.27859336   -0.24241433    8.34322343
| 24> H   -0.03137279    0.56692225    8.99321232
| 25> H   -0.29748737   -1.13903830    8.56017455
| 26> H    1.32709078   -0.47854642    8.50824202
| 27> *
| 28>
| 29> $new_job
| 30> ! ri-mp2 aug-cc-pvtz aug-cc-pvtz/c tightscf
| 31> %pal nprocs 16 end
| 32> %maxcore 3800
| 33> %base "TZ_S66by10_52_2.0_dimer"
| 34>
| 35> *xyz 0 1
| 36> C    0.96408039    0.87509331    0.37801364
| 37> H    1.65982961    1.69993082    0.44604227
| 38> C    1.43105709   -0.41313344    0.11899152
| 39> H    2.48952453   -0.58720917   -0.01701261
| 40> C    0.53412766   -1.47763890    0.04241755
| 41> H    0.89696129   -2.47738838   -0.15201199
| 42> C   -0.83032682   -1.25360409    0.22085611
| 43> H   -1.52576001   -2.07962435    0.16411655
| 44> C   -1.29758715    0.03441261    0.48024263
| 45> H   -2.35439607    0.20801612    0.62856096
| 46> C   -0.40044509    1.09977921    0.56160137
| 47> H   -0.76045514    2.09376880    0.78475698
| 48> C    0.06863906    0.15457276    6.91181764
| 49> O   -0.39955053    1.20401938    6.53255726
| 50> O    0.47185164   -0.82299051    6.07253238
| 51> H    0.30314682   -0.49707693    5.17112713
| 52> C    0.27859336   -0.24241433    8.34322343
| 53> H   -0.03137279    0.56692225    8.99321232
| 54> H   -0.29748737   -1.13903830    8.56017455
| 55> H    1.32709078   -0.47854642    8.50824202
| 56> *
| 57>
| 58> $new_job
| 59> ! ri-mp2 aug-cc-pvqz aug-cc-pvqz/c tightscf
| 60> %pal nprocs 16 end
| 61> %maxcore 3800
| 62> %base "QZ_S66by10_52_2.0_dimer"
| 63>
| 64> *xyz 0 1
| 65> C    0.96408039    0.87509331    0.37801364
| 66> H    1.65982961    1.69993082    0.44604227
| 67> C    1.43105709   -0.41313344    0.11899152
| 68> H    2.48952453   -0.58720917   -0.01701261
| 69> C    0.53412766   -1.47763890    0.04241755
| 70> H    0.89696129   -2.47738838   -0.15201199
| 71> C   -0.83032682   -1.25360409    0.22085611
| 72> H   -1.52576001   -2.07962435    0.16411655
| 73> C   -1.29758715    0.03441261    0.48024263
| 74> H   -2.35439607    0.20801612    0.62856096
| 75> C   -0.40044509    1.09977921    0.56160137
| 76> H   -0.76045514    2.09376880    0.78475698
| 77> C    0.06863906    0.15457276    6.91181764
| 78> O   -0.39955053    1.20401938    6.53255726
| 79> O    0.47185164   -0.82299051    6.07253238
| 80> H    0.30314682   -0.49707693    5.17112713
| 81> C    0.27859336   -0.24241433    8.34322343
| 82> H   -0.03137279    0.56692225    8.99321232
| 83> H   -0.29748737   -1.13903830    8.56017455
| 84> H    1.32709078   -0.47854642    8.50824202
| 85> *
| 86>
| 87>
| 88>
| 89>
| 90>                          ****END OF INPUT****
 Total Charge           Charge          ....    0
 Multiplicity           Mult            ....    1
 Number of Electrons    NEL             ....   74
MP2 TOTAL ENERGY:     -460.063259876 Eh
FINAL SINGLE POINT ENERGY      -460.063259875510
MP2 TOTAL ENERGY:     -460.468103049 Eh
FINAL SINGLE POINT ENERGY      -460.468103049358

CARTESIAN COORDINATES (ANGSTROEM)
---------------------------------
  C      0.964080    0.875093    0.378014
  H      1.659830    1.699931    0.446042
  C      1.431057   -0.413133    0.118992
  H      2.489525   -0.587209   -0.017013
  C      0.534128   -1.477639    0.042418
  H      0.896961   -2.477388   -0.152012
  C     -0.830327   -1.253604    0.220856
  H     -1.525760   -2.079624    0.164117
  C     -1.297587    0.034413    0.480243
  H     -2.354396    0.208016    0.628561
  C     -0.400445    1.099779    0.561601
  H     -0.760455    2.093769    0.784757
  C      0.068639    0.154573    6.911818
  O     -0.399551    1.204019    6.532557
  O      0.471852   -0.822991    6.072532
  H      0.303147   -0.497077    5.171127
  C      0.278593   -0.242414    8.343223
  H     -0.031373    0.566922    8.993212
  H     -0.297487   -1.139038    8.560175
  H      1.327091   -0.478546    8.508242

 Multiplicity           Mult            ....    1
 Number of Electrons    NEL             ....   74
 Basis Dimension        Dim             .... 1260

ORBITAL ENERGIES
----------------

  NO   OCC          E(Eh)            E(eV)
   0   2.0000     -20.611304      -560.8621
   1   2.0000     -20.546417      -559.0964
   2   2.0000     -11.386841      -309.8517
   3   2.0000     -11.242315      -305.9189
   4   2.0000     -11.237056      -305.7758
   5   2.0000     -11.236487      -305.7604
   6   2.0000     -11.236383      -305.7575
   7   2.0000     -11.235230      -305.7261
   8   2.0000     -11.235194      -305.7252
   9   2.0000     -11.234552      -305.7077
  10   2.0000      -1.463474       -39.8231
  11   2.0000      -1.359050       -36.9816
  12   2.0000      -1.151368       -31.3303
  13   2.0000      -1.027207       -27.9517
  14   2.0000      -1.016026       -27.6475
  15   2.0000      -1.015963       -27.6458
  16   2.0000      -0.825588       -22.4654
  17   2.0000      -0.825559       -22.4646
  18   2.0000      -0.822470       -22.3805
  19   2.0000      -0.711208       -19.3529
  20   2.0000      -0.704893       -19.1811
  21   2.0000      -0.679471       -18.4893
  22   2.0000      -0.650424       -17.6989
  23   2.0000      -0.645983       -17.5781
  24   2.0000      -0.620523       -16.8853
  25   2.0000      -0.589779       -16.0487
  26   2.0000      -0.589629       -16.0446
  27   2.0000      -0.583208       -15.8699
  28   2.0000      -0.572714       -15.5844
  29   2.0000      -0.561296       -15.2736
  30   2.0000      -0.504162       -13.7189
  31   2.0000      -0.496769       -13.5178
  32   2.0000      -0.496395       -13.5076
  33   2.0000      -0.482254       -13.1228
  34   2.0000      -0.453981       -12.3535
  35   2.0000      -0.338670        -9.2157
  36   2.0000      -0.338531        -9.2119
  37   0.0000       0.023383         0.6363
  38   0.0000       0.029531         0.8036
  39   0.0000       0.029620         0.8060
  40   0.0000       0.032205         0.8764
  41   0.0000       0.042674         1.1612

MULLIKEN ATOMIC CHARGES
-----------------------
   0 C :   -0.335178
   1 H :    0.338605
   2 C :   -0.328680
   3 H :    0.333775
   4 C :   -0.319929
   5 H :    0.331980
   6 C :   -0.331923
   7 H :    0.335192
   8 C :   -0.341701
   9 H :    0.339752
  10 C :   -0.358025
  11 H :    0.337182
  12 C :    0.937168
  13 O :   -0.705606
  14 O :   -0.673093
  15 H :    0.355153
  16 C :   -0.780671
  17 H :    0.289742
  18 H :    0.289400
  19 H :    0.286858
Sum of atomic charges:   -0.0000000

LOEWDIN ATOMIC CHARGES
----------------------
   0 C :    0.328533
   1 H :   -0.328126
   2 C :    0.327286
   3 H :   -0.328413
   4 C :    0.326903
   5 H :   -0.328492
   6 C :    0.327312
   7 H :   -0.328447
   8 C :    0.328679
   9 H :   -0.328082
  10 C :    0.330618
  11 H :   -0.327975
  12 C :   -1.036072
  13 O :    0.683367
  14 O :    1.239420
  15 H :   -0.813040
  16 C :    0.862957
  17 H :   -0.325426
  18 H :   -0.304999
  19 H :   -0.306004

  Mayer bond orders larger than 0.100000
B(  0-C ,  1-H ) :   0.9882 B(  0-C ,  2-C ) :   1.2338 B(  0-C ,  6-C ) :   0.1129
B(  0-C , 10-C ) :   1.2355 B(  2-C ,  3-H ) :   0.9941 B(  2-C ,  4-C ) :   1.2259
B(  2-C ,  8-C ) :   0.1116 B(  4-C ,  5-H ) :   0.9972 B(  4-C ,  6-C ) :   1.2283
B(  4-C , 10-C ) :   0.1094 B(  6-C ,  7-H ) :   0.9921 B(  6-C ,  8-C ) :   1.2352
B(  8-C ,  9-H ) :   0.9870 B(  8-C , 10-C ) :   1.2347 B( 10-C , 11-H ) :   0.9847
B( 12-C , 13-O ) :   1.5215 B( 12-C , 14-O ) :   0.9225 B( 12-C , 16-C ) :   0.9611
B( 14-O , 15-H ) :   0.8677 B( 16-C , 17-H ) :   0.9597 B( 16-C , 18-H ) :   0.9140
B( 16-C , 19-H ) :   0.9205

MP2 TOTAL ENERGY:     -460.598403149 Eh
FINAL SINGLE POINT ENERGY      -460.598403149167

DIPOLE MOMENT
-------------
                                X             Y             Z
Electronic contribution:     -0.49811       1.07819      -1.03503
Nuclear contribution   :      0.79452      -1.74828       1.26413
                        -----------------------------------------
Total Dipole Moment    :      0.29642      -0.67009       0.22910
                        -----------------------------------------
Magnitude (a.u.)       :      0.76770
Magnitude (Debye)      :      1.95135

Rotational constants in cm-1:     0.077299     0.010272     0.010040
Rotational constants in MHz :  2317.351594   307.951411   301.005274

                             ****ORCA TERMINATED NORMALLY****
TOTAL RUN TIME: 0 days 0 hours 30 minutes 6 seconds 14 msec
