                         Program Version 5.0.4 -  RELEASE  -
|  1> ! ri-mp2 aug-cc-pvdz aug-cc-pvdz/c tightscf
|  2> %pal nprocs 16 end
|  3> %maxcore 3800
|  4> %base "DZ_S66by10_66_0.9_dimer"
|  5>
|  6> *xyz 0 1
|  7> N   -0.54105920    0.02957620   -0.20899508
|  8> H    0.05555335   -0.78611810   -0.13029335
|  9> H   -1.46966940   -0.27470845    0.05314338
| 10> C   -0.07879927    1.04239036    0.73845886
| 11> H   -0.72015294    1.91941377    0.67198026
| 12> H   -0.05075819    0.72382293    1.78551453
| 13> H    0.92643072    1.35660379    0.46199919
| 14> N    2.12842999   -1.21286309    0.01517572
| 15> C    2.46686631   -0.40051902   -0.99653675
| 16> H    1.92419909   -0.54505700   -1.92191811
| 17> C    3.43819557    0.59161477   -0.89616975
| 18> H    3.66304801    1.21595506   -1.74902044
| 19> C    4.09903564    0.76115621    0.31609469
| 20> H    4.85688958    1.52339355    0.43247882
| 21> C    3.75890273   -0.07380631    1.37521764
| 22> H    4.24149114    0.01665592    2.33791830
| 23> C    2.77512116   -1.03859532    1.17603426
| 24> H    2.48903683   -1.70234293    1.98264492
| 25> *
| 26>
| 27> $new_job
| 28> ! ri-mp2 aug-cc-pvtz aug-cc-pvtz/c tightscf
| 29> %pal nprocs 16 end
| 30> %maxcore 3800
| 31> %base "TZ_S66by10_66_0.9_dimer"
| 32>
| 33> *xyz 0 1
| 34> N   -0.54105920    0.02957620   -0.20899508
| 35> H    0.05555335   -0.78611810   -0.13029335
| 36> H   -1.46966940   -0.27470845    0.05314338
| 37> C   -0.07879927    1.04239036    0.73845886
| 38> H   -0.72015294    1.91941377    0.67198026
| 39> H   -0.05075819    0.72382293    1.78551453
| 40> H    0.92643072    1.35660379    0.46199919
| 41> N    2.12842999   -1.21286309    0.01517572
| 42> C    2.46686631   -0.40051902   -0.99653675
| 43> H    1.92419909   -0.54505700   -1.92191811
| 44> C    3.43819557    0.59161477   -0.89616975
| 45> H    3.66304801    1.21595506   -1.74902044
| 46> C    4.09903564    0.76115621    0.31609469
| 47> H    4.85688958    1.52339355    0.43247882
| 48> C    3.75890273   -0.07380631    1.37521764
| 49> H    4.24149114    0.01665592    2.33791830
| 50> C    2.77512116   -1.03859532    1.17603426
| 51> H    2.48903683   -1.70234293    1.98264492
| 52> *
| 53>
| 54> $new_job
| 55> ! ri-mp2 aug-cc-pvqz aug-cc-pvqz/c tightscf
| 56> %pal nprocs 16 end
| 57> %maxcore 3800
| 58> %base "QZ_S66by10_66_0.9_dimer"
| 59>
| 60> *xyz 0 1
| 61> N   -0.54105920    0.02957620   -0.20899508
| 62> H    0.05555335   -0.78611810   -0.13029335
| 63> H   -1.46966940   -0.27470845    0.05314338
| 64> C   -0.07879927    1.04239036    0.73845886
| 65> H   -0.72015294    1.91941377    0.67198026
| 66> H   -0.05075819    0.72382293    1.78551453
| 67> H    0.92643072    1.35660379    0.46199919
| 68> N    2.12842999   -1.21286309    0.01517572
| 69> C    2.46686631   -0.40051902   -0.99653675
| 70> H    1.92419909   -0.54505700   -1.92191811
| 71> C    3.43819557    0.59161477   -0.89616975
| 72> H    3.66304801    1.21595506   -1.74902044
| 73> C    4.09903564    0.76115621    0.31609469
| 74> H    4.85688958    1.52339355    0.43247882
| 75> C    3.75890273   -0.07380631    1.37521764
| 76> H    4.24149114    0.01665592    2.33791830
| 77> C    2.77512116   -1.03859532    1.17603426
| 78> H    2.48903683   -1.70234293    1.98264492
| 79> *
| 80>
| 81>
| 82>
| 83>
| 84>                          ****END OF INPUT****
 Total Charge           Charge          ....    0
 Multiplicity           Mult            ....    1
 Number of Electrons    NEL             ....   60
MP2 TOTAL ENERGY:     -343.145236484 Eh
FINAL SINGLE POINT ENERGY      -343.145236483714
MP2 TOTAL ENERGY:     -343.452493807 Eh
FINAL SINGLE POINT ENERGY      -343.452493806692

CARTESIAN COORDINATES (ANGSTROEM)
---------------------------------
  N     -0.541059    0.029576   -0.208995
  H      0.055553   -0.786118   -0.130293
  H     -1.469669   -0.274708    0.053143
  C     -0.078799    1.042390    0.738459
  H     -0.720153    1.919414    0.671980
  H     -0.050758    0.723823    1.785515
  H      0.926431    1.356604    0.461999
  N      2.128430   -1.212863    0.015176
  C      2.466866   -0.400519   -0.996537
  H      1.924199   -0.545057   -1.921918
  C      3.438196    0.591615   -0.896170
  H      3.663048    1.215955   -1.749020
  C      4.099036    0.761156    0.316095
  H      4.856890    1.523394    0.432479
  C      3.758903   -0.073806    1.375218
  H      4.241491    0.016656    2.337918
  C      2.775121   -1.038595    1.176034
  H      2.489037   -1.702343    1.982645

 Multiplicity           Mult            ....    1
 Number of Electrons    NEL             ....   60
 Basis Dimension        Dim             .... 1100

ORBITAL ENERGIES
----------------

  NO   OCC          E(Eh)            E(eV)
   0   2.0000     -15.568342      -423.6361
   1   2.0000     -15.516661      -422.2298
   2   2.0000     -11.279364      -306.9271
   3   2.0000     -11.276681      -306.8541
   4   2.0000     -11.263266      -306.4891
   5   2.0000     -11.244563      -305.9801
   6   2.0000     -11.243343      -305.9469
   7   2.0000     -11.224917      -305.4455
   8   2.0000      -1.262022       -34.3414
   9   2.0000      -1.153292       -31.3827
  10   2.0000      -1.093617       -29.7588
  11   2.0000      -1.037367       -28.2282
  12   2.0000      -0.881097       -23.9759
  13   2.0000      -0.862991       -23.4832
  14   2.0000      -0.859923       -23.3997
  15   2.0000      -0.726682       -19.7740
  16   2.0000      -0.665192       -18.1008
  17   2.0000      -0.657458       -17.8903
  18   2.0000      -0.651149       -17.7187
  19   2.0000      -0.601917       -16.3790
  20   2.0000      -0.590400       -16.0656
  21   2.0000      -0.580506       -15.7964
  22   2.0000      -0.547859       -14.9080
  23   2.0000      -0.534252       -14.5377
  24   2.0000      -0.523451       -14.2438
  25   2.0000      -0.501610       -13.6495
  26   2.0000      -0.426147       -11.5960
  27   2.0000      -0.388890       -10.5822
  28   2.0000      -0.375799       -10.2260
  29   2.0000      -0.351209        -9.5569
  30   0.0000       0.021698         0.5904
  31   0.0000       0.028464         0.7745
  32   0.0000       0.031767         0.8644
  33   0.0000       0.038177         1.0388
  34   0.0000       0.043257         1.1771

MULLIKEN ATOMIC CHARGES
-----------------------
   0 N :   -0.686983
   1 H :    0.250285
   2 H :    0.206467
   3 C :   -0.772613
   4 H :    0.363434
   5 H :    0.244903
   6 H :    0.319132
   7 N :   -0.536581
   8 C :    0.033499
   9 H :    0.445412
  10 C :   -0.406240
  11 H :    0.322504
  12 C :   -0.340166
  13 H :    0.382200
  14 C :   -0.400628
  15 H :    0.318748
  16 C :   -0.214990
  17 H :    0.471614
Sum of atomic charges:   -0.0000000

LOEWDIN ATOMIC CHARGES
----------------------
   0 N :    1.262445
   1 H :   -0.674122
   2 H :   -0.511905
   3 C :    0.736608
   4 H :   -0.303687
   5 H :   -0.281699
   6 H :   -0.351661
   7 N :    0.597208
   8 C :    0.066602
   9 H :   -0.332558
  10 C :    0.340118
  11 H :   -0.322514
  12 C :    0.334037
  13 H :   -0.311015
  14 C :    0.334302
  15 H :   -0.327555
  16 C :    0.086801
  17 H :   -0.341406

  Mayer bond orders larger than 0.100000
B(  0-N ,  1-H ) :   0.8848 B(  0-N ,  2-H ) :   0.9740 B(  0-N ,  3-C ) :   0.9564
B(  3-C ,  4-H ) :   0.8740 B(  3-C ,  5-H ) :   0.9408 B(  3-C ,  6-H ) :   0.8605
B(  7-N ,  8-C ) :   1.1024 B(  7-N ,  9-H ) :  -0.1327 B(  7-N , 16-C ) :   1.2123
B(  7-N , 17-H ) :  -0.1150 B(  8-C ,  9-H ) :   0.8945 B(  8-C , 10-C ) :   1.1868
B(  8-C , 14-C ) :   0.1338 B( 10-C , 11-H ) :   1.0041 B( 10-C , 12-C ) :   1.2330
B( 10-C , 16-C ) :   0.1022 B( 12-C , 13-H ) :   0.9510 B( 12-C , 14-C ) :   1.2684
B( 14-C , 15-H ) :   1.0157 B( 14-C , 16-C ) :   1.2001 B( 16-C , 17-H ) :   0.8857

MP2 TOTAL ENERGY:     -343.549220504 Eh
FINAL SINGLE POINT ENERGY      -343.549220504470

DIPOLE MOMENT
-------------
                                X             Y             Z
Electronic contribution:      5.94313      -3.06647      -1.26517
Nuclear contribution   :     -5.17918       3.44133       1.82053
                        -----------------------------------------
Total Dipole Moment    :      0.76394       0.37486       0.55536
                        -----------------------------------------
Magnitude (a.u.)       :      1.01615
Magnitude (Debye)      :      2.58284

Rotational constants in cm-1:     0.107001     0.044059     0.042345
Rotational constants in MHz :  3207.820774  1320.863937  1269.483785

                             ****ORCA TERMINATED NORMALLY****
TOTAL RUN TIME: 0 days 0 hours 36 minutes 21 seconds 503 msec
