                         Program Version 5.0.4 -  RELEASE  -
|  1> ! ri-mp2 aug-cc-pvdz aug-cc-pvdz/c tightscf
|  2> %pal nprocs 16 end
|  3> %maxcore 3800
|  4> %base "DZ_S66by10_50_1.05_dimer"
|  5>
|  6> *xyz 0 1
|  7> C    0.83661195    1.11485600    0.23100790
|  8> H    1.48545250    1.97968049    0.21470491
|  9> C    1.38418781   -0.16696533    0.26005688
| 10> H    2.45768419   -0.29628753    0.26605977
| 11> C    0.54747934   -1.28184652    0.28693051
| 12> H    0.97191784   -2.27597918    0.31387670
| 13> C   -0.83666710   -1.11500365    0.28456279
| 14> H   -1.48555353   -1.97956851    0.30969784
| 15> C   -1.38416274    0.16685015    0.25560540
| 16> H   -2.45764469    0.29645927    0.25854055
| 17> C   -0.54749833    1.28174826    0.22897743
| 18> H   -0.97214124    2.27600137    0.21116093
| 19> C    0.00601481    0.07838186    3.91720223
| 20> H    0.00300568    0.06082631    2.85312672
| 21> C    0.00967526    0.09796271    5.12957840
| 22> H    0.01278767    0.11513564    6.19077541
| 23> *
| 24>
| 25> $new_job
| 26> ! ri-mp2 aug-cc-pvtz aug-cc-pvtz/c tightscf
| 27> %pal nprocs 16 end
| 28> %maxcore 3800
| 29> %base "TZ_S66by10_50_1.05_dimer"
| 30>
| 31> *xyz 0 1
| 32> C    0.83661195    1.11485600    0.23100790
| 33> H    1.48545250    1.97968049    0.21470491
| 34> C    1.38418781   -0.16696533    0.26005688
| 35> H    2.45768419   -0.29628753    0.26605977
| 36> C    0.54747934   -1.28184652    0.28693051
| 37> H    0.97191784   -2.27597918    0.31387670
| 38> C   -0.83666710   -1.11500365    0.28456279
| 39> H   -1.48555353   -1.97956851    0.30969784
| 40> C   -1.38416274    0.16685015    0.25560540
| 41> H   -2.45764469    0.29645927    0.25854055
| 42> C   -0.54749833    1.28174826    0.22897743
| 43> H   -0.97214124    2.27600137    0.21116093
| 44> C    0.00601481    0.07838186    3.91720223
| 45> H    0.00300568    0.06082631    2.85312672
| 46> C    0.00967526    0.09796271    5.12957840
| 47> H    0.01278767    0.11513564    6.19077541
| 48> *
| 49>
| 50> $new_job
| 51> ! ri-mp2 aug-cc-pvqz aug-cc-pvqz/c tightscf
| 52> %pal nprocs 16 end
| 53> %maxcore 3800
| 54> %base "QZ_S66by10_50_1.05_dimer"
| 55>
| 56> *xyz 0 1
| 57> C    0.83661195    1.11485600    0.23100790
| 58> H    1.48545250    1.97968049    0.21470491
| 59> C    1.38418781   -0.16696533    0.26005688
| 60> H    2.45768419   -0.29628753    0.26605977
| 61> C    0.54747934   -1.28184652    0.28693051
| 62> H    0.97191784   -2.27597918    0.31387670
| 63> C   -0.83666710   -1.11500365    0.28456279
| 64> H   -1.48555353   -1.97956851    0.30969784
| 65> C   -1.38416274    0.16685015    0.25560540
| 66> H   -2.45764469    0.29645927    0.25854055
| 67> C   -0.54749833    1.28174826    0.22897743
| 68> H   -0.97214124    2.27600137    0.21116093
| 69> C    0.00601481    0.07838186    3.91720223
| 70> H    0.00300568    0.06082631    2.85312672
| 71> C    0.00967526    0.09796271    5.12957840
| 72> H    0.01278767    0.11513564    6.19077541
| 73> *
| 74>
| 75>
| 76>
| 77>
| 78>                          ****END OF INPUT****
 Total Charge           Charge          ....    0
 Multiplicity           Mult            ....    1
 Number of Electrons    NEL             ....   56
MP2 TOTAL ENERGY:     -308.638875267 Eh
FINAL SINGLE POINT ENERGY      -308.638875266508
MP2 TOTAL ENERGY:     -308.915031529 Eh
FINAL SINGLE POINT ENERGY      -308.915031529419

CARTESIAN COORDINATES (ANGSTROEM)
---------------------------------
  C      0.836612    1.114856    0.231008
  H      1.485452    1.979680    0.214705
  C      1.384188   -0.166965    0.260057
  H      2.457684   -0.296288    0.266060
  C      0.547479   -1.281847    0.286931
  H      0.971918   -2.275979    0.313877
  C     -0.836667   -1.115004    0.284563
  H     -1.485554   -1.979569    0.309698
  C     -1.384163    0.166850    0.255605
  H     -2.457645    0.296459    0.258541
  C     -0.547498    1.281748    0.228977
  H     -0.972141    2.276001    0.211161
  C      0.006015    0.078382    3.917202
  H      0.003006    0.060826    2.853127
  C      0.009675    0.097963    5.129578
  H      0.012788    0.115136    6.190775

 Multiplicity           Mult            ....    1
 Number of Electrons    NEL             ....   56
 Basis Dimension        Dim             .... 1008

ORBITAL ENERGIES
----------------

  NO   OCC          E(Eh)            E(eV)
   0   2.0000     -11.242188      -305.9155
   1   2.0000     -11.241613      -305.8998
   2   2.0000     -11.241609      -305.8997
   3   2.0000     -11.240369      -305.8660
   4   2.0000     -11.240365      -305.8659
   5   2.0000     -11.239758      -305.8494
   6   2.0000     -11.232735      -305.6583
   7   2.0000     -11.229054      -305.5581
   8   2.0000      -1.157923       -31.5087
   9   2.0000      -1.021790       -27.8043
  10   2.0000      -1.021780       -27.8041
  11   2.0000      -1.015577       -27.6353
  12   2.0000      -0.830793       -22.6070
  13   2.0000      -0.830775       -22.6065
  14   2.0000      -0.756375       -20.5820
  15   2.0000      -0.716558       -19.4985
  16   2.0000      -0.668746       -18.1975
  17   2.0000      -0.650431       -17.6991
  18   2.0000      -0.626033       -17.0352
  19   2.0000      -0.594908       -16.1883
  20   2.0000      -0.594893       -16.1878
  21   2.0000      -0.509571       -13.8661
  22   2.0000      -0.501545       -13.6477
  23   2.0000      -0.501516       -13.6470
  24   2.0000      -0.397503       -10.8166
  25   2.0000      -0.397503       -10.8166
  26   2.0000      -0.344859        -9.3841
  27   2.0000      -0.344853        -9.3839
  28   0.0000       0.023902         0.6504
  29   0.0000       0.030110         0.8193
  30   0.0000       0.030111         0.8194
  31   0.0000       0.030954         0.8423
  32   0.0000       0.042296         1.1509

MULLIKEN ATOMIC CHARGES
-----------------------
   0 C :   -0.314043
   1 H :    0.309579
   2 C :   -0.313479
   3 H :    0.309242
   4 C :   -0.313288
   5 H :    0.308310
   6 C :   -0.313353
   7 H :    0.308926
   8 C :   -0.313848
   9 H :    0.309475
  10 C :   -0.313830
  11 H :    0.309866
  12 C :   -0.809940
  13 H :    1.281929
  14 C :   -0.840466
  15 H :    0.394919
Sum of atomic charges:    0.0000000

LOEWDIN ATOMIC CHARGES
----------------------
   0 C :    0.322423
   1 H :   -0.321416
   2 C :    0.322469
   3 H :   -0.321403
   4 C :    0.322365
   5 H :   -0.321407
   6 C :    0.322428
   7 H :   -0.321395
   8 C :    0.322453
   9 H :   -0.321412
  10 C :    0.322420
  11 H :   -0.321426
  12 C :    0.498765
  13 H :   -0.523145
  14 C :    0.502671
  15 H :   -0.484393

  Mayer bond orders larger than 0.100000
B(  0-C ,  1-H ) :   1.0651 B(  0-C ,  2-C ) :   1.1788 B(  0-C ,  6-C ) :   0.1348
B(  0-C , 10-C ) :   1.1788 B(  2-C ,  3-H ) :   1.0653 B(  2-C ,  4-C ) :   1.1789
B(  2-C ,  8-C ) :   0.1349 B(  4-C ,  5-H ) :   1.0663 B(  4-C ,  6-C ) :   1.1789
B(  4-C , 10-C ) :   0.1349 B(  6-C ,  7-H ) :   1.0656 B(  6-C ,  8-C ) :   1.1788
B(  8-C ,  9-H ) :   1.0652 B(  8-C , 10-C ) :   1.1788 B( 10-C , 11-H ) :   1.0649
B( 12-C , 13-H ) :  -0.3085 B( 12-C , 14-C ) :   2.4662 B( 12-C , 15-H ) :  -0.1212
B( 13-H , 14-C ) :  -0.2155 B( 13-H , 15-H ) :  -0.1214 B( 14-C , 15-H ) :   1.0622

MP2 TOTAL ENERGY:     -309.001167950 Eh
FINAL SINGLE POINT ENERGY      -309.001167949544

DIPOLE MOMENT
-------------
                                X             Y             Z
Electronic contribution:     -0.00005      -0.00521      -0.21767
Nuclear contribution   :     -0.00011       0.00025       0.02079
                        -----------------------------------------
Total Dipole Moment    :     -0.00016      -0.00497      -0.19688
                        -----------------------------------------
Magnitude (a.u.)       :      0.19694
Magnitude (Debye)      :      0.50058

Rotational constants in cm-1:     0.095168     0.036775     0.036774
Rotational constants in MHz :  2853.055028  1102.474759  1102.458864

                             ****ORCA TERMINATED NORMALLY****
TOTAL RUN TIME: 0 days 0 hours 15 minutes 3 seconds 509 msec
