                         Program Version 5.0.4 -  RELEASE  -
|  1> ! ri-mp2 aug-cc-pvdz aug-cc-pvdz/c tightscf
|  2> %pal nprocs 16 end
|  3> %maxcore 3800
|  4> %base "DZ_S66by10_30_1.05_dimer"
|  5>
|  6> *xyz 0 1
|  7> C    0.83551718    1.11516693    0.02140131
|  8> H    1.48432398    1.98060858    0.01953430
|  9> C    1.38327497   -0.16614721    0.02376531
| 10> H    2.45714902   -0.29520468    0.02277108
| 11> C    0.54755466   -1.28131632    0.02168563
| 12> H    0.97293610   -2.27580453    0.01977853
| 13> C   -0.83552313   -1.11516159    0.02139907
| 14> H   -1.48433419   -1.98060639    0.01953009
| 15> C   -1.38328358    0.16615413    0.02375775
| 16> H   -2.45715618    0.29520906    0.02275707
| 17> C   -0.54756577    1.28132347    0.02168025
| 18> H   -0.97294284    2.27580548    0.01976873
| 19> C    0.65578079   -0.11679054    3.63420968
| 20> H    1.04724157   -1.12390937    3.62974141
| 21> H    1.37085458    0.69327343    3.62970809
| 22> C   -0.65577573    0.11679209    3.63421857
| 23> H   -1.37084767   -0.69327243    3.62972248
| 24> H   -1.04723883    1.12391098    3.62976037
| 25> *
| 26>
| 27> $new_job
| 28> ! ri-mp2 aug-cc-pvtz aug-cc-pvtz/c tightscf
| 29> %pal nprocs 16 end
| 30> %maxcore 3800
| 31> %base "TZ_S66by10_30_1.05_dimer"
| 32>
| 33> *xyz 0 1
| 34> C    0.83551718    1.11516693    0.02140131
| 35> H    1.48432398    1.98060858    0.01953430
| 36> C    1.38327497   -0.16614721    0.02376531
| 37> H    2.45714902   -0.29520468    0.02277108
| 38> C    0.54755466   -1.28131632    0.02168563
| 39> H    0.97293610   -2.27580453    0.01977853
| 40> C   -0.83552313   -1.11516159    0.02139907
| 41> H   -1.48433419   -1.98060639    0.01953009
| 42> C   -1.38328358    0.16615413    0.02375775
| 43> H   -2.45715618    0.29520906    0.02275707
| 44> C   -0.54756577    1.28132347    0.02168025
| 45> H   -0.97294284    2.27580548    0.01976873
| 46> C    0.65578079   -0.11679054    3.63420968
| 47> H    1.04724157   -1.12390937    3.62974141
| 48> H    1.37085458    0.69327343    3.62970809
| 49> C   -0.65577573    0.11679209    3.63421857
| 50> H   -1.37084767   -0.69327243    3.62972248
| 51> H   -1.04723883    1.12391098    3.62976037
| 52> *
| 53>
| 54> $new_job
| 55> ! ri-mp2 aug-cc-pvqz aug-cc-pvqz/c tightscf
| 56> %pal nprocs 16 end
| 57> %maxcore 3800
| 58> %base "QZ_S66by10_30_1.05_dimer"
| 59>
| 60> *xyz 0 1
| 61> C    0.83551718    1.11516693    0.02140131
| 62> H    1.48432398    1.98060858    0.01953430
| 63> C    1.38327497   -0.16614721    0.02376531
| 64> H    2.45714902   -0.29520468    0.02277108
| 65> C    0.54755466   -1.28131632    0.02168563
| 66> H    0.97293610   -2.27580453    0.01977853
| 67> C   -0.83552313   -1.11516159    0.02139907
| 68> H   -1.48433419   -1.98060639    0.01953009
| 69> C   -1.38328358    0.16615413    0.02375775
| 70> H   -2.45715618    0.29520906    0.02275707
| 71> C   -0.54756577    1.28132347    0.02168025
| 72> H   -0.97294284    2.27580548    0.01976873
| 73> C    0.65578079   -0.11679054    3.63420968
| 74> H    1.04724157   -1.12390937    3.62974141
| 75> H    1.37085458    0.69327343    3.62970809
| 76> C   -0.65577573    0.11679209    3.63421857
| 77> H   -1.37084767   -0.69327243    3.62972248
| 78> H   -1.04723883    1.12391098    3.62976037
| 79> *
| 80>
| 81>
| 82>
| 83>
| 84>                          ****END OF INPUT****
 Total Charge           Charge          ....    0
 Multiplicity           Mult            ....    1
 Number of Electrons    NEL             ....   58
MP2 TOTAL ENERGY:     -309.871570505 Eh
FINAL SINGLE POINT ENERGY      -309.871570505425
MP2 TOTAL ENERGY:     -310.153349554 Eh
FINAL SINGLE POINT ENERGY      -310.153349553823

CARTESIAN COORDINATES (ANGSTROEM)
---------------------------------
  C      0.835517    1.115167    0.021401
  H      1.484324    1.980609    0.019534
  C      1.383275   -0.166147    0.023765
  H      2.457149   -0.295205    0.022771
  C      0.547555   -1.281316    0.021686
  H      0.972936   -2.275805    0.019779
  C     -0.835523   -1.115162    0.021399
  H     -1.484334   -1.980606    0.019530
  C     -1.383284    0.166154    0.023758
  H     -2.457156    0.295209    0.022757
  C     -0.547566    1.281323    0.021680
  H     -0.972943    2.275805    0.019769
  C      0.655781   -0.116791    3.634210
  H      1.047242   -1.123909    3.629741
  H      1.370855    0.693273    3.629708
  C     -0.655776    0.116792    3.634219
  H     -1.370848   -0.693272    3.629722
  H     -1.047239    1.123911    3.629760

 Multiplicity           Mult            ....    1
 Number of Electrons    NEL             ....   58
 Basis Dimension        Dim             .... 1100

ORBITAL ENERGIES
----------------

  NO   OCC          E(Eh)            E(eV)
   0   2.0000     -11.232846      -305.6613
   1   2.0000     -11.232348      -305.6477
   2   2.0000     -11.232176      -305.6431
   3   2.0000     -11.231087      -305.6134
   4   2.0000     -11.230925      -305.6090
   5   2.0000     -11.230391      -305.5945
   6   2.0000     -11.219292      -305.2925
   7   2.0000     -11.217564      -305.2454
   8   2.0000      -1.147903       -31.2360
   9   2.0000      -1.023991       -27.8642
  10   2.0000      -1.012450       -27.5502
  11   2.0000      -1.012377       -27.5482
  12   2.0000      -0.822092       -22.3703
  13   2.0000      -0.821985       -22.3673
  14   2.0000      -0.783716       -21.3260
  15   2.0000      -0.707823       -19.2608
  16   2.0000      -0.642307       -17.4781
  17   2.0000      -0.635157       -17.2835
  18   2.0000      -0.617197       -16.7948
  19   2.0000      -0.586181       -15.9508
  20   2.0000      -0.586119       -15.9491
  21   2.0000      -0.577924       -15.7261
  22   2.0000      -0.501596       -13.6491
  23   2.0000      -0.499212       -13.5843
  24   2.0000      -0.493123       -13.4186
  25   2.0000      -0.492981       -13.4147
  26   2.0000      -0.364619        -9.9218
  27   2.0000      -0.334681        -9.1071
  28   2.0000      -0.334676        -9.1070
  29   0.0000       0.026098         0.7102
  30   0.0000       0.028965         0.7882
  31   0.0000       0.029435         0.8010
  32   0.0000       0.041116         1.1188
  33   0.0000       0.041311         1.1241

MULLIKEN ATOMIC CHARGES
-----------------------
   0 C :   -0.315879
   1 H :    0.322708
   2 C :   -0.298146
   3 H :    0.304449
   4 C :   -0.339464
   5 H :    0.322727
   6 C :   -0.315889
   7 H :    0.322704
   8 C :   -0.298138
   9 H :    0.304450
  10 C :   -0.339470
  11 H :    0.322736
  12 C :   -0.841857
  13 H :    0.428760
  14 H :    0.416704
  15 C :   -0.841861
  16 H :    0.416704
  17 H :    0.428761
Sum of atomic charges:    0.0000000

LOEWDIN ATOMIC CHARGES
----------------------
   0 C :    0.318438
   1 H :   -0.323379
   2 C :    0.315451
   3 H :   -0.322965
   4 C :    0.318084
   5 H :   -0.323347
   6 C :    0.318434
   7 H :   -0.323374
   8 C :    0.315453
   9 H :   -0.322967
  10 C :    0.318091
  11 H :   -0.323355
  12 C :    0.741087
  13 H :   -0.361680
  14 H :   -0.361690
  15 C :    0.741087
  16 H :   -0.361692
  17 H :   -0.361678

  Mayer bond orders larger than 0.100000
B(  0-C ,  1-H ) :   1.0228 B(  0-C ,  2-C ) :   1.2485 B(  0-C ,  6-C ) :   0.1508
B(  0-C , 10-C ) :   1.2362 B(  2-C ,  3-H ) :   1.0338 B(  2-C ,  4-C ) :   1.2376
B(  2-C ,  8-C ) :   0.1921 B(  4-C ,  5-H ) :   1.0227 B(  4-C ,  6-C ) :   1.2362
B(  4-C , 10-C ) :   0.1325 B(  6-C ,  7-H ) :   1.0228 B(  6-C ,  8-C ) :   1.2484
B(  8-C ,  9-H ) :   1.0338 B(  8-C , 10-C ) :   1.2376 B( 10-C , 11-H ) :   1.0227
B( 12-C , 13-H ) :   0.8028 B( 12-C , 14-H ) :   0.8209 B( 12-C , 15-C ) :   2.0038
B( 15-C , 16-H ) :   0.8209 B( 15-C , 17-H ) :   0.8028

MP2 TOTAL ENERGY:     -310.241277993 Eh
FINAL SINGLE POINT ENERGY      -310.241277992959

DIPOLE MOMENT
-------------
                                X             Y             Z
Electronic contribution:     -0.00001       0.00002      -4.63150
Nuclear contribution   :      0.00001      -0.00001       4.57702
                        -----------------------------------------
Total Dipole Moment    :     -0.00000       0.00000      -0.05447
                        -----------------------------------------
Magnitude (a.u.)       :      0.05447
Magnitude (Debye)      :      0.13846

Rotational constants in cm-1:     0.085514     0.046679     0.045025
Rotational constants in MHz :  2563.643555  1399.391040  1349.829829

                             ****ORCA TERMINATED NORMALLY****
TOTAL RUN TIME: 0 days 0 hours 30 minutes 41 seconds 865 msec
