                         Program Version 5.0.4 -  RELEASE  -
|  1> ! ri-mp2 aug-cc-pvdz aug-cc-pvdz/c tightscf
|  2> %pal nprocs 16 end
|  3> %maxcore 3800
|  4> %base "DZ_S66by10_13_1.05_dimer"
|  5> %scf STABPerform true end
|  6>
|  7> *xyz 0 1
|  8> C   -0.84931672   -0.33949876    2.49171664
|  9> H    0.18434396   -0.01104732    2.41618542
| 10> H   -0.88249791   -1.34205140    2.91270310
| 11> H   -1.39080263    0.31687828    3.16842897
| 12> C   -1.56403192   -0.35332311    1.15947545
| 13> O   -2.74952638   -0.65153776    1.05676087
| 14> N   -0.80165352   -0.02735461    0.08834167
| 15> H    0.16118756    0.24036035    0.21871364
| 16> C   -1.38534986   -0.00235149   -1.23413683
| 17> H   -1.89161720   -0.94280123   -1.44009631
| 18> H   -2.11997230    0.79621180   -1.33087952
| 19> H   -0.59464593    0.14957065   -1.96312772
| 20> O    2.26198736    0.25275437    0.46857662
| 21> H    2.98284217    0.88005399    0.55899143
| 22> C    2.78107152   -1.05261129    0.70245841
| 23> H    1.94850002   -1.74139898    0.59688184
| 24> H    3.54721028   -1.32160403   -0.02442237
| 25> H    3.18916856   -1.15406048    1.70809290
| 26> *
| 27>
| 28> $new_job
| 29> ! ri-mp2 aug-cc-pvtz aug-cc-pvtz/c tightscf
| 30> %pal nprocs 16 end
| 31> %maxcore 3800
| 32> %base "TZ_S66by10_13_1.05_dimer"
| 33>
| 34> *xyz 0 1
| 35> C   -0.84931672   -0.33949876    2.49171664
| 36> H    0.18434396   -0.01104732    2.41618542
| 37> H   -0.88249791   -1.34205140    2.91270310
| 38> H   -1.39080263    0.31687828    3.16842897
| 39> C   -1.56403192   -0.35332311    1.15947545
| 40> O   -2.74952638   -0.65153776    1.05676087
| 41> N   -0.80165352   -0.02735461    0.08834167
| 42> H    0.16118756    0.24036035    0.21871364
| 43> C   -1.38534986   -0.00235149   -1.23413683
| 44> H   -1.89161720   -0.94280123   -1.44009631
| 45> H   -2.11997230    0.79621180   -1.33087952
| 46> H   -0.59464593    0.14957065   -1.96312772
| 47> O    2.26198736    0.25275437    0.46857662
| 48> H    2.98284217    0.88005399    0.55899143
| 49> C    2.78107152   -1.05261129    0.70245841
| 50> H    1.94850002   -1.74139898    0.59688184
| 51> H    3.54721028   -1.32160403   -0.02442237
| 52> H    3.18916856   -1.15406048    1.70809290
| 53> *
| 54>
| 55> $new_job
| 56> ! ri-mp2 aug-cc-pvqz aug-cc-pvqz/c tightscf
| 57> %pal nprocs 16 end
| 58> %maxcore 3800
| 59> %base "QZ_S66by10_13_1.05_dimer"
| 60>
| 61> *xyz 0 1
| 62> C   -0.84931672   -0.33949876    2.49171664
| 63> H    0.18434396   -0.01104732    2.41618542
| 64> H   -0.88249791   -1.34205140    2.91270310
| 65> H   -1.39080263    0.31687828    3.16842897
| 66> C   -1.56403192   -0.35332311    1.15947545
| 67> O   -2.74952638   -0.65153776    1.05676087
| 68> N   -0.80165352   -0.02735461    0.08834167
| 69> H    0.16118756    0.24036035    0.21871364
| 70> C   -1.38534986   -0.00235149   -1.23413683
| 71> H   -1.89161720   -0.94280123   -1.44009631
| 72> H   -2.11997230    0.79621180   -1.33087952
| 73> H   -0.59464593    0.14957065   -1.96312772
| 74> O    2.26198736    0.25275437    0.46857662
| 75> H    2.98284217    0.88005399    0.55899143
| 76> C    2.78107152   -1.05261129    0.70245841
| 77> H    1.94850002   -1.74139898    0.59688184
| 78> H    3.54721028   -1.32160403   -0.02442237
| 79> H    3.18916856   -1.15406048    1.70809290
| 80> *
| 81>
| 82>
| 83>
| 84>
| 85>                          ****END OF INPUT****
 Total Charge           Charge          ....    0
 Multiplicity           Mult            ....    1
 Number of Electrons    NEL             ....   58
MP2 TOTAL ENERGY:     -363.279618559 Eh
FINAL SINGLE POINT ENERGY      -363.279618559349
MP2 TOTAL ENERGY:     -363.610220353 Eh
FINAL SINGLE POINT ENERGY      -363.610220353269

CARTESIAN COORDINATES (ANGSTROEM)
---------------------------------
  C     -0.849317   -0.339499    2.491717
  H      0.184344   -0.011047    2.416185
  H     -0.882498   -1.342051    2.912703
  H     -1.390803    0.316878    3.168429
  C     -1.564032   -0.353323    1.159475
  O     -2.749526   -0.651538    1.056761
  N     -0.801654   -0.027355    0.088342
  H      0.161188    0.240360    0.218714
  C     -1.385350   -0.002351   -1.234137
  H     -1.891617   -0.942801   -1.440096
  H     -2.119972    0.796212   -1.330880
  H     -0.594646    0.149571   -1.963128
  O      2.261987    0.252754    0.468577
  H      2.982842    0.880054    0.558991
  C      2.781072   -1.052611    0.702458
  H      1.948500   -1.741399    0.596882
  H      3.547210   -1.321604   -0.024422
  H      3.189169   -1.154060    1.708093

 Multiplicity           Mult            ....    1
 Number of Electrons    NEL             ....   58
 Basis Dimension        Dim             .... 1066

ORBITAL ENERGIES
----------------

  NO   OCC          E(Eh)            E(eV)
   0   2.0000     -20.585338      -560.1555
   1   2.0000     -20.494595      -557.6863
   2   2.0000     -15.564487      -423.5312
   3   2.0000     -11.329768      -308.2987
   4   2.0000     -11.290249      -307.2233
   5   2.0000     -11.243651      -305.9553
   6   2.0000     -11.221096      -305.3416
   7   2.0000      -1.385950       -37.7136
   8   2.0000      -1.358276       -36.9606
   9   2.0000      -1.212895       -33.0045
  10   2.0000      -1.004766       -27.3411
  11   2.0000      -0.949283       -25.8313
  12   2.0000      -0.918346       -24.9895
  13   2.0000      -0.776429       -21.1277
  14   2.0000      -0.718578       -19.5535
  15   2.0000      -0.675579       -18.3835
  16   2.0000      -0.646386       -17.5891
  17   2.0000      -0.637331       -17.3427
  18   2.0000      -0.621512       -16.9122
  19   2.0000      -0.617817       -16.8116
  20   2.0000      -0.571948       -15.5635
  21   2.0000      -0.565570       -15.3899
  22   2.0000      -0.546190       -14.8626
  23   2.0000      -0.535718       -14.5776
  24   2.0000      -0.527524       -14.3547
  25   2.0000      -0.486598       -13.2410
  26   2.0000      -0.479845       -13.0572
  27   2.0000      -0.406857       -11.0711
  28   2.0000      -0.376668       -10.2497
  29   0.0000       0.015916         0.4331
  30   0.0000       0.029253         0.7960
  31   0.0000       0.029314         0.7977
  32   0.0000       0.036279         0.9872
  33   0.0000       0.046015         1.2521

MULLIKEN ATOMIC CHARGES
-----------------------
   0 C :   -0.850452
   1 H :    0.294971
   2 H :    0.250892
   3 H :    0.273765
   4 C :    0.971806
   5 O :   -0.893630
   6 N :   -0.523351
   7 H :    0.364784
   8 C :   -0.860989
   9 H :    0.314530
  10 H :    0.328129
  11 H :    0.336249
  12 O :   -0.683051
  13 H :    0.319367
  14 C :   -0.677366
  15 H :    0.306236
  16 H :    0.427217
  17 H :    0.300892
Sum of atomic charges:    0.0000000

LOEWDIN ATOMIC CHARGES
----------------------
   0 C :    0.887875
   1 H :   -0.332418
   2 H :   -0.298001
   3 H :   -0.300172
   4 C :   -0.851482
   5 O :    0.687871
   6 N :    0.812651
   7 H :   -0.643839
   8 C :    0.769002
   9 H :   -0.306478
  10 H :   -0.288760
  11 H :   -0.296963
  12 O :    1.271990
  13 H :   -0.770024
  14 C :    0.611809
  15 H :   -0.335945
  16 H :   -0.308528
  17 H :   -0.308588

  Mayer bond orders larger than 0.100000
B(  0-C ,  1-H ) :   0.9546 B(  0-C ,  2-H ) :   0.9519 B(  0-C ,  3-H ) :   0.9609
B(  0-C ,  4-C ) :   0.8822 B(  0-C ,  5-O ) :   0.1054 B(  4-C ,  5-O ) :   1.1484
B(  4-C ,  6-N ) :   1.2056 B(  5-O ,  6-N ) :   0.2643 B(  6-N ,  7-H ) :   0.8547
B(  6-N ,  8-C ) :   0.8358 B(  8-C ,  9-H ) :   0.9330 B(  8-C , 10-H ) :   0.9269
B(  8-C , 11-H ) :   0.9035 B( 12-O , 13-H ) :   0.9146 B( 12-O , 14-C ) :   0.8236
B( 14-C , 15-H ) :   0.8926 B( 14-C , 16-H ) :   0.8010 B( 14-C , 17-H ) :   0.9097

MP2 TOTAL ENERGY:     -363.715008650 Eh
FINAL SINGLE POINT ENERGY      -363.715008650333

DIPOLE MOMENT
-------------
                                X             Y             Z
Electronic contribution:     -4.81972       1.03248       0.41534
Nuclear contribution   :      7.37303      -0.73690      -0.47017
                        -----------------------------------------
Total Dipole Moment    :      2.55331       0.29558      -0.05483
                        -----------------------------------------
Magnitude (a.u.)       :      2.57095
Magnitude (Debye)      :      6.53484

Rotational constants in cm-1:     0.112101     0.039342     0.031504
Rotational constants in MHz :  3360.691463  1179.453325   944.468518

                             ****ORCA TERMINATED NORMALLY****
TOTAL RUN TIME: 0 days 2 hours 7 minutes 18 seconds 725 msec
