                         Program Version 5.0.4 -  RELEASE  -
|  1> ! ri-mp2 aug-cc-pvdz aug-cc-pvdz/c tightscf
|  2> %pal nprocs 16 end
|  3> %maxcore 3800
|  4> %base "DZ_S66by10_6_0.9_dimer"
|  5> %scf STABPerform true end
|  6>
|  7> *xyz 0 1
|  8> O   -0.70692019    0.04583037    0.00638610
|  9> H    0.26562361    0.07171014    0.00133929
| 10> C   -1.07667067   -1.31391581    0.00161428
| 11> H   -2.16292358   -1.36319577    0.00586542
| 12> H   -0.72340594   -1.84465168   -0.88774350
| 13> H   -0.71607978   -1.85282083    0.88307978
| 14> N    2.03538442   -0.02715388   -0.00293750
| 15> H    2.40600397    0.48062262    0.79019489
| 16> H    2.40612726    0.43718468   -0.82219634
| 17> C    2.51313636   -1.41318733    0.03452370
| 18> H    2.12125152   -1.94721261   -0.82766803
| 19> H    3.59984751   -1.51992250    0.03755820
| 20> H    2.12100996   -1.89991750    0.92415585
| 21> *
| 22>
| 23> $new_job
| 24> ! ri-mp2 aug-cc-pvtz aug-cc-pvtz/c tightscf
| 25> %pal nprocs 16 end
| 26> %maxcore 3800
| 27> %base "TZ_S66by10_6_0.9_dimer"
| 28>
| 29> *xyz 0 1
| 30> O   -0.70692019    0.04583037    0.00638610
| 31> H    0.26562361    0.07171014    0.00133929
| 32> C   -1.07667067   -1.31391581    0.00161428
| 33> H   -2.16292358   -1.36319577    0.00586542
| 34> H   -0.72340594   -1.84465168   -0.88774350
| 35> H   -0.71607978   -1.85282083    0.88307978
| 36> N    2.03538442   -0.02715388   -0.00293750
| 37> H    2.40600397    0.48062262    0.79019489
| 38> H    2.40612726    0.43718468   -0.82219634
| 39> C    2.51313636   -1.41318733    0.03452370
| 40> H    2.12125152   -1.94721261   -0.82766803
| 41> H    3.59984751   -1.51992250    0.03755820
| 42> H    2.12100996   -1.89991750    0.92415585
| 43> *
| 44>
| 45> $new_job
| 46> ! ri-mp2 aug-cc-pvqz aug-cc-pvqz/c tightscf
| 47> %pal nprocs 16 end
| 48> %maxcore 3800
| 49> %base "QZ_S66by10_6_0.9_dimer"
| 50>
| 51> *xyz 0 1
| 52> O   -0.70692019    0.04583037    0.00638610
| 53> H    0.26562361    0.07171014    0.00133929
| 54> C   -1.07667067   -1.31391581    0.00161428
| 55> H   -2.16292358   -1.36319577    0.00586542
| 56> H   -0.72340594   -1.84465168   -0.88774350
| 57> H   -0.71607978   -1.85282083    0.88307978
| 58> N    2.03538442   -0.02715388   -0.00293750
| 59> H    2.40600397    0.48062262    0.79019489
| 60> H    2.40612726    0.43718468   -0.82219634
| 61> C    2.51313636   -1.41318733    0.03452370
| 62> H    2.12125152   -1.94721261   -0.82766803
| 63> H    3.59984751   -1.51992250    0.03755820
| 64> H    2.12100996   -1.89991750    0.92415585
| 65> *
| 66>
| 67>
| 68>
| 69>
| 70>                          ****END OF INPUT****
 Total Charge           Charge          ....    0
 Multiplicity           Mult            ....    1
 Number of Electrons    NEL             ....   36
MP2 TOTAL ENERGY:     -211.007054475 Eh
FINAL SINGLE POINT ENERGY      -211.007054474630
MP2 TOTAL ENERGY:     -211.207990281 Eh
FINAL SINGLE POINT ENERGY      -211.207990280571

CARTESIAN COORDINATES (ANGSTROEM)
---------------------------------
  O     -0.706920    0.045830    0.006386
  H      0.265624    0.071710    0.001339
  C     -1.076671   -1.313916    0.001614
  H     -2.162924   -1.363196    0.005865
  H     -0.723406   -1.844652   -0.887743
  H     -0.716080   -1.852821    0.883080
  N      2.035384   -0.027154   -0.002938
  H      2.406004    0.480623    0.790195
  H      2.406127    0.437185   -0.822196
  C      2.513136   -1.413187    0.034524
  H      2.121252   -1.947213   -0.827668
  H      3.599848   -1.519923    0.037558
  H      2.121010   -1.899917    0.924156

 Multiplicity           Mult            ....    1
 Number of Electrons    NEL             ....   36
 Basis Dimension        Dim             ....  734

ORBITAL ENERGIES
----------------

  NO   OCC          E(Eh)            E(eV)
   0   2.0000     -20.507378      -558.0341
   1   2.0000     -15.565717      -423.5647
   2   2.0000     -11.259036      -306.3740
   3   2.0000     -11.244917      -305.9898
   4   2.0000      -1.318528       -35.8790
   5   2.0000      -1.199868       -32.6501
   6   2.0000      -0.920602       -25.0509
   7   2.0000      -0.895939       -24.3797
   8   2.0000      -0.689097       -18.7513
   9   2.0000      -0.673342       -18.3226
  10   2.0000      -0.623380       -16.9630
  11   2.0000      -0.591278       -16.0895
  12   2.0000      -0.577242       -15.7076
  13   2.0000      -0.562114       -15.2959
  14   2.0000      -0.539321       -14.6757
  15   2.0000      -0.483902       -13.1677
  16   2.0000      -0.414922       -11.2906
  17   2.0000      -0.413415       -11.2496
  18   0.0000       0.020408         0.5553
  19   0.0000       0.033742         0.9182
  20   0.0000       0.036105         0.9825
  21   0.0000       0.036918         1.0046
  22   0.0000       0.050490         1.3739

MULLIKEN ATOMIC CHARGES
-----------------------
   0 O :   -0.732459
   1 H :    0.266461
   2 C :   -0.577770
   3 H :    0.494526
   4 H :    0.210475
   5 H :    0.211350
   6 N :   -0.286628
   7 H :    0.177276
   8 H :    0.176830
   9 C :   -0.841776
  10 H :    0.242603
  11 H :    0.417683
  12 H :    0.241428
Sum of atomic charges:   -0.0000000

LOEWDIN ATOMIC CHARGES
----------------------
   0 O :    1.244257
   1 H :   -1.070359
   2 C :    0.544351
   3 H :   -0.343566
   4 H :   -0.321527
   5 H :   -0.322096
   6 N :    1.276324
   7 H :   -0.458769
   8 H :   -0.458840
   9 C :    0.797546
  10 H :   -0.302814
  11 H :   -0.281944
  12 H :   -0.302563

  Mayer bond orders larger than 0.100000
B(  0-O ,  1-H ) :   0.9301 B(  0-O ,  2-C ) :   0.8500 B(  1-H ,  6-N ) :   0.1287
B(  2-C ,  3-H ) :   0.7329 B(  2-C ,  4-H ) :   0.9543 B(  2-C ,  5-H ) :   0.9543
B(  6-N ,  7-H ) :   1.0074 B(  6-N ,  8-H ) :   1.0072 B(  6-N ,  9-C ) :   1.0184
B(  9-C , 10-H ) :   0.9598 B(  9-C , 11-H ) :   0.7898 B(  9-C , 12-H ) :   0.9625

MP2 TOTAL ENERGY:     -211.270512893 Eh
FINAL SINGLE POINT ENERGY      -211.270512892591

DIPOLE MOMENT
-------------
                                X             Y             Z
Electronic contribution:     -1.41871       2.75613      -0.02240
Nuclear contribution   :      2.86104      -3.23179       0.01765
                        -----------------------------------------
Total Dipole Moment    :      1.44234      -0.47566      -0.00475
                        -----------------------------------------
Magnitude (a.u.)       :      1.51875
Magnitude (Debye)      :      3.86036

Rotational constants in cm-1:     0.418805     0.099438     0.083915
Rotational constants in MHz : 12555.449679  2981.072871  2515.708179

                             ****ORCA TERMINATED NORMALLY****
TOTAL RUN TIME: 0 days 0 hours 22 minutes 8 seconds 64 msec
