                         Program Version 5.0.4 -  RELEASE  -
|  1> ! ri-mp2 aug-cc-pvdz aug-cc-pvdz/c tightscf
|  2> %pal nprocs 16 end
|  3> %maxcore 3800
|  4> %base "DZ_S66by10_39_0.8_dimer"
|  5>
|  6> *xyz 0 1
|  7> C    0.76554546    0.86824433    0.82099095
|  8> H    1.43747647    1.68000664    1.06510281
|  9> C    1.23765260   -0.44283807    0.79388795
| 10> H    2.27575877   -0.64853808    1.01771141
| 11> C    0.37223723   -1.48853667    0.47726862
| 12> H    0.73818789   -2.50608012    0.45705609
| 13> C   -0.96493318   -1.22297162    0.18687834
| 14> H   -1.63645949   -2.03456079   -0.05777362
| 15> C   -1.43706509    0.08840558    0.21327714
| 16> H   -2.47468432    0.29430216   -0.01146746
| 17> C   -0.57190649    1.13402416    0.53081281
| 18> H   -0.93769935    2.15171058    0.55107764
| 19> C   -0.79359624   -0.78008520    3.39371406
| 20> H   -0.89985008   -0.60513605    2.32140719
| 21> H   -1.44523382   -1.60934910    3.66686472
| 22> C    0.67594495   -1.03714830    3.73784393
| 23> H    1.17117572   -1.67473334    3.00725966
| 24> H    0.73922412   -1.53736207    4.70531057
| 25> C    1.31608199    0.36824838    3.82879679
| 26> H    1.96635031    0.56091931    2.97694387
| 27> H    1.92894917    0.45741780    4.72452215
| 28> C    0.13703587    1.36742540    3.85566883
| 29> H    0.01988438    1.82639579    2.87338349
| 30> H    0.28262946    2.16893023    4.57806743
| 31> C   -1.09673590    0.51033021    4.15131769
| 32> H   -2.02772441    0.98606765    3.84540455
| 33> H   -1.16216166    0.30100930    5.22185293
| 34> *
| 35>
| 36> $new_job
| 37> ! ri-mp2 aug-cc-pvtz aug-cc-pvtz/c tightscf
| 38> %pal nprocs 16 end
| 39> %maxcore 3800
| 40> %base "TZ_S66by10_39_0.8_dimer"
| 41>
| 42> *xyz 0 1
| 43> C    0.76554546    0.86824433    0.82099095
| 44> H    1.43747647    1.68000664    1.06510281
| 45> C    1.23765260   -0.44283807    0.79388795
| 46> H    2.27575877   -0.64853808    1.01771141
| 47> C    0.37223723   -1.48853667    0.47726862
| 48> H    0.73818789   -2.50608012    0.45705609
| 49> C   -0.96493318   -1.22297162    0.18687834
| 50> H   -1.63645949   -2.03456079   -0.05777362
| 51> C   -1.43706509    0.08840558    0.21327714
| 52> H   -2.47468432    0.29430216   -0.01146746
| 53> C   -0.57190649    1.13402416    0.53081281
| 54> H   -0.93769935    2.15171058    0.55107764
| 55> C   -0.79359624   -0.78008520    3.39371406
| 56> H   -0.89985008   -0.60513605    2.32140719
| 57> H   -1.44523382   -1.60934910    3.66686472
| 58> C    0.67594495   -1.03714830    3.73784393
| 59> H    1.17117572   -1.67473334    3.00725966
| 60> H    0.73922412   -1.53736207    4.70531057
| 61> C    1.31608199    0.36824838    3.82879679
| 62> H    1.96635031    0.56091931    2.97694387
| 63> H    1.92894917    0.45741780    4.72452215
| 64> C    0.13703587    1.36742540    3.85566883
| 65> H    0.01988438    1.82639579    2.87338349
| 66> H    0.28262946    2.16893023    4.57806743
| 67> C   -1.09673590    0.51033021    4.15131769
| 68> H   -2.02772441    0.98606765    3.84540455
| 69> H   -1.16216166    0.30100930    5.22185293
| 70> *
| 71>
| 72> $new_job
| 73> ! ri-mp2 aug-cc-pvqz aug-cc-pvqz/c tightscf
| 74> %pal nprocs 16 end
| 75> %maxcore 3800
| 76> %base "QZ_S66by10_39_0.8_dimer"
| 77>
| 78> *xyz 0 1
| 79> C    0.76554546    0.86824433    0.82099095
| 80> H    1.43747647    1.68000664    1.06510281
| 81> C    1.23765260   -0.44283807    0.79388795
| 82> H    2.27575877   -0.64853808    1.01771141
| 83> C    0.37223723   -1.48853667    0.47726862
| 84> H    0.73818789   -2.50608012    0.45705609
| 85> C   -0.96493318   -1.22297162    0.18687834
| 86> H   -1.63645949   -2.03456079   -0.05777362
| 87> C   -1.43706509    0.08840558    0.21327714
| 88> H   -2.47468432    0.29430216   -0.01146746
| 89> C   -0.57190649    1.13402416    0.53081281
| 90> H   -0.93769935    2.15171058    0.55107764
| 91> C   -0.79359624   -0.78008520    3.39371406
| 92> H   -0.89985008   -0.60513605    2.32140719
| 93> H   -1.44523382   -1.60934910    3.66686472
| 94> C    0.67594495   -1.03714830    3.73784393
| 95> H    1.17117572   -1.67473334    3.00725966
| 96> H    0.73922412   -1.53736207    4.70531057
| 97> C    1.31608199    0.36824838    3.82879679
| 98> H    1.96635031    0.56091931    2.97694387
| 99> H    1.92894917    0.45741780    4.72452215
|100> C    0.13703587    1.36742540    3.85566883
|101> H    0.01988438    1.82639579    2.87338349
|102> H    0.28262946    2.16893023    4.57806743
|103> C   -1.09673590    0.51033021    4.15131769
|104> H   -2.02772441    0.98606765    3.84540455
|105> H   -1.16216166    0.30100930    5.22185293
|106> *
|107>
|108>
|109>
|110>
|111>                          ****END OF INPUT****
 Total Charge           Charge          ....    0
 Multiplicity           Mult            ....    1
 Number of Electrons    NEL             ....   82
MP2 TOTAL ENERGY:     -427.463877334 Eh
FINAL SINGLE POINT ENERGY      -427.463877334429
MP2 TOTAL ENERGY:     -427.855582870 Eh
FINAL SINGLE POINT ENERGY      -427.855582869695

CARTESIAN COORDINATES (ANGSTROEM)
---------------------------------
  C      0.765545    0.868244    0.820991
  H      1.437476    1.680007    1.065103
  C      1.237653   -0.442838    0.793888
  H      2.275759   -0.648538    1.017711
  C      0.372237   -1.488537    0.477269
  H      0.738188   -2.506080    0.457056
  C     -0.964933   -1.222972    0.186878
  H     -1.636459   -2.034561   -0.057774
  C     -1.437065    0.088406    0.213277
  H     -2.474684    0.294302   -0.011467
  C     -0.571906    1.134024    0.530813
  H     -0.937699    2.151711    0.551078
  C     -0.793596   -0.780085    3.393714
  H     -0.899850   -0.605136    2.321407
  H     -1.445234   -1.609349    3.666865
  C      0.675945   -1.037148    3.737844
  H      1.171176   -1.674733    3.007260
  H      0.739224   -1.537362    4.705311
  C      1.316082    0.368248    3.828797
  H      1.966350    0.560919    2.976944
  H      1.928949    0.457418    4.724522
  C      0.137036    1.367425    3.855669
  H      0.019884    1.826396    2.873383
  H      0.282629    2.168930    4.578067
  C     -1.096736    0.510330    4.151318
  H     -2.027724    0.986068    3.845405
  H     -1.162162    0.301009    5.221853

 Multiplicity           Mult            ....    1
 Number of Electrons    NEL             ....   82
 Basis Dimension        Dim             .... 1616

ORBITAL ENERGIES
----------------

  NO   OCC          E(Eh)            E(eV)
   0   2.0000     -11.237109      -305.7773
   1   2.0000     -11.236107      -305.7500
   2   2.0000     -11.235726      -305.7396
   3   2.0000     -11.235018      -305.7204
   4   2.0000     -11.234403      -305.7037
   5   2.0000     -11.233641      -305.6829
   6   2.0000     -11.200712      -304.7869
   7   2.0000     -11.198817      -304.7353
   8   2.0000     -11.198201      -304.7185
   9   2.0000     -11.197865      -304.7094
  10   2.0000     -11.188674      -304.4593
  11   2.0000      -1.156184       -31.4614
  12   2.0000      -1.105297       -30.0767
  13   2.0000      -1.019641       -27.7458
  14   2.0000      -1.018792       -27.7227
  15   2.0000      -0.946998       -25.7691
  16   2.0000      -0.945848       -25.7378
  17   2.0000      -0.828177       -22.5359
  18   2.0000      -0.828091       -22.5335
  19   2.0000      -0.767473       -20.8840
  20   2.0000      -0.758603       -20.6426
  21   2.0000      -0.714940       -19.4545
  22   2.0000      -0.648350       -17.6425
  23   2.0000      -0.646870       -17.6022
  24   2.0000      -0.634955       -17.2780
  25   2.0000      -0.622294       -16.9335
  26   2.0000      -0.592248       -16.1159
  27   2.0000      -0.591598       -16.0982
  28   2.0000      -0.563951       -15.3459
  29   2.0000      -0.561690       -15.2844
  30   2.0000      -0.509725       -13.8703
  31   2.0000      -0.498053       -13.5527
  32   2.0000      -0.497900       -13.5485
  33   2.0000      -0.465365       -12.6632
  34   2.0000      -0.463489       -12.6122
  35   2.0000      -0.454425       -12.3655
  36   2.0000      -0.448189       -12.1958
  37   2.0000      -0.442549       -12.0424
  38   2.0000      -0.433379       -11.7928
  39   2.0000      -0.338563        -9.2128
  40   2.0000      -0.336498        -9.1566
  41   0.0000       0.021954         0.5974
  42   0.0000       0.028107         0.7648
  43   0.0000       0.028656         0.7798
  44   0.0000       0.033316         0.9066
  45   0.0000       0.039445         1.0734

MULLIKEN ATOMIC CHARGES
-----------------------
   0 C :   -0.048848
   1 H :    0.440457
   2 C :   -0.060424
   3 H :    0.321862
   4 C :   -0.488236
   5 H :    0.176937
   6 C :   -0.351618
   7 H :    0.252603
   8 C :   -0.429991
   9 H :    0.211093
  10 C :   -0.401407
  11 H :    0.243987
  12 C :   -0.796074
  13 H :    0.928186
  14 H :    0.254406
  15 C :   -0.618670
  16 H :    0.335143
  17 H :    0.221353
  18 C :   -0.548221
  19 H :    0.229247
  20 H :    0.307846
  21 C :   -0.695474
  22 H :    0.279785
  23 H :    0.322817
  24 C :   -0.563658
  25 H :    0.239873
  26 H :    0.237029
Sum of atomic charges:    0.0000000

LOEWDIN ATOMIC CHARGES
----------------------
   0 C :    0.326233
   1 H :   -0.296480
   2 C :    0.326570
   3 H :   -0.293823
   4 C :    0.345895
   5 H :   -0.296660
   6 C :    0.342702
   7 H :   -0.302240
   8 C :    0.352734
   9 H :   -0.304876
  10 C :    0.358412
  11 H :   -0.296029
  12 C :    0.516259
  13 H :   -0.473450
  14 H :   -0.229709
  15 C :    0.547925
  16 H :   -0.303364
  17 H :   -0.257529
  18 C :    0.557304
  19 H :   -0.345135
  20 H :   -0.254396
  21 C :    0.544175
  22 H :   -0.359764
  23 H :   -0.247660
  24 C :    0.550953
  25 H :   -0.248290
  26 H :   -0.259756

  Mayer bond orders larger than 0.100000
B(  0-C ,  1-H ) :   0.9415 B(  0-C ,  2-C ) :   1.0256 B(  0-C ,  3-H ) :  -0.1474
B(  0-C ,  6-C ) :   0.1573 B(  0-C , 10-C ) :   1.1524 B(  1-H ,  2-C ) :  -0.1457
B(  1-H , 10-C ) :  -0.1321 B(  2-C ,  3-H ) :   1.0498 B(  2-C ,  4-C ) :   1.1813
B(  2-C ,  5-H ) :  -0.1006 B(  2-C ,  8-C ) :   0.1787 B(  3-H ,  4-C ) :  -0.1087
B(  4-C ,  5-H ) :   1.2057 B(  4-C ,  6-C ) :   1.2999 B(  4-C ,  7-H ) :  -0.1011
B(  4-C , 10-C ) :   0.1306 B(  4-C , 13-H ) :  -0.2100 B(  6-C ,  7-H ) :   1.1192
B(  6-C ,  8-C ) :   1.2327 B(  6-C , 12-C ) :   0.1280 B(  6-C , 13-H ) :  -0.2666
B(  8-C ,  9-H ) :   1.1550 B(  8-C , 10-C ) :   1.2644 B(  8-C , 13-H ) :  -0.1766
B( 10-C , 11-H ) :   1.1066 B( 12-C , 13-H ) :   0.6449 B( 12-C , 14-H ) :   0.9903
B( 12-C , 15-C ) :   0.7709 B( 12-C , 18-C ) :  -0.1014 B( 12-C , 24-C ) :   0.9877
B( 13-H , 24-C ) :  -0.1083 B( 15-C , 16-H ) :   0.8811 B( 15-C , 17-H ) :   1.0096
B( 15-C , 18-C ) :   0.9447 B( 18-C , 19-H ) :   0.9781 B( 18-C , 20-H ) :   0.9166
B( 18-C , 21-C ) :   0.9574 B( 21-C , 22-H ) :   0.8258 B( 21-C , 23-H ) :   0.9100
B( 21-C , 24-C ) :   1.0040 B( 24-C , 25-H ) :   0.9310 B( 24-C , 26-H ) :   0.9654

MP2 TOTAL ENERGY:     -427.975693634 Eh
FINAL SINGLE POINT ENERGY      -427.975693634255

DIPOLE MOMENT
-------------
                                X             Y             Z
Electronic contribution:     -0.42281      -0.63344      -7.61820
Nuclear contribution   :      0.41729       0.61412       7.48873
                        -----------------------------------------
Total Dipole Moment    :     -0.00553      -0.01932      -0.12948
                        -----------------------------------------
Magnitude (a.u.)       :      0.13103
Magnitude (Debye)      :      0.33304

Rotational constants in cm-1:     0.057697     0.029542     0.028817
Rotational constants in MHz :  1729.726240   885.650055   863.917979

                             ****ORCA TERMINATED NORMALLY****
TOTAL RUN TIME: 0 days 2 hours 10 minutes 20 seconds 341 msec
