                         Program Version 5.0.4 -  RELEASE  -
|  1> ! ri-mp2 aug-cc-pvdz aug-cc-pvdz/c tightscf
|  2> %pal nprocs 16 end
|  3> %maxcore 3800
|  4> %base "DZ_S66by10_16_0.8_dimer"
|  5> %scf STABPerform true end
|  6>
|  7> *xyz 0 1
|  8> C   -0.72430464   -0.70493582    2.28386786
|  9> H    0.33531828   -0.62994325    2.05318235
| 10> H   -0.95169666   -1.71198961    2.62565146
| 11> H   -0.96962784   -0.02207955    3.09376537
| 12> C   -1.61493501   -0.38742925    1.10406897
| 13> O   -2.83732387   -0.41502209    1.19413277
| 14> N   -0.95342037   -0.07640442   -0.04081980
| 15> H    0.05380860   -0.07556651   -0.03664022
| 16> C   -1.65812397    0.25009358   -1.25855306
| 17> H   -2.72037197    0.17694444   -1.04665270
| 18> H   -1.43030493    1.26296263   -1.58809384
| 19> H   -1.40562611   -0.44433518   -2.05858358
| 20> O    1.71572724   -0.06164841   -0.13270406
| 21> H    2.28070453   -0.77460703   -0.43790346
| 22> H    2.29547886    0.70254516   -0.10880556
| 23> *
| 24>
| 25> $new_job
| 26> ! ri-mp2 aug-cc-pvtz aug-cc-pvtz/c tightscf
| 27> %pal nprocs 16 end
| 28> %maxcore 3800
| 29> %base "TZ_S66by10_16_0.8_dimer"
| 30>
| 31> *xyz 0 1
| 32> C   -0.72430464   -0.70493582    2.28386786
| 33> H    0.33531828   -0.62994325    2.05318235
| 34> H   -0.95169666   -1.71198961    2.62565146
| 35> H   -0.96962784   -0.02207955    3.09376537
| 36> C   -1.61493501   -0.38742925    1.10406897
| 37> O   -2.83732387   -0.41502209    1.19413277
| 38> N   -0.95342037   -0.07640442   -0.04081980
| 39> H    0.05380860   -0.07556651   -0.03664022
| 40> C   -1.65812397    0.25009358   -1.25855306
| 41> H   -2.72037197    0.17694444   -1.04665270
| 42> H   -1.43030493    1.26296263   -1.58809384
| 43> H   -1.40562611   -0.44433518   -2.05858358
| 44> O    1.71572724   -0.06164841   -0.13270406
| 45> H    2.28070453   -0.77460703   -0.43790346
| 46> H    2.29547886    0.70254516   -0.10880556
| 47> *
| 48>
| 49> $new_job
| 50> ! ri-mp2 aug-cc-pvqz aug-cc-pvqz/c tightscf
| 51> %pal nprocs 16 end
| 52> %maxcore 3800
| 53> %base "QZ_S66by10_16_0.8_dimer"
| 54>
| 55> *xyz 0 1
| 56> C   -0.72430464   -0.70493582    2.28386786
| 57> H    0.33531828   -0.62994325    2.05318235
| 58> H   -0.95169666   -1.71198961    2.62565146
| 59> H   -0.96962784   -0.02207955    3.09376537
| 60> C   -1.61493501   -0.38742925    1.10406897
| 61> O   -2.83732387   -0.41502209    1.19413277
| 62> N   -0.95342037   -0.07640442   -0.04081980
| 63> H    0.05380860   -0.07556651   -0.03664022
| 64> C   -1.65812397    0.25009358   -1.25855306
| 65> H   -2.72037197    0.17694444   -1.04665270
| 66> H   -1.43030493    1.26296263   -1.58809384
| 67> H   -1.40562611   -0.44433518   -2.05858358
| 68> O    1.71572724   -0.06164841   -0.13270406
| 69> H    2.28070453   -0.77460703   -0.43790346
| 70> H    2.29547886    0.70254516   -0.10880556
| 71> *
| 72>
| 73>
| 74>
| 75>
| 76>                          ****END OF INPUT****
 Total Charge           Charge          ....    0
 Multiplicity           Mult            ....    1
 Number of Electrons    NEL             ....   50
MP2 TOTAL ENERGY:     -324.112326925 Eh
FINAL SINGLE POINT ENERGY      -324.112326925277
MP2 TOTAL ENERGY:     -324.404086473 Eh
FINAL SINGLE POINT ENERGY      -324.404086472863

CARTESIAN COORDINATES (ANGSTROEM)
---------------------------------
  C     -0.724305   -0.704936    2.283868
  H      0.335318   -0.629943    2.053182
  H     -0.951697   -1.711990    2.625651
  H     -0.969628   -0.022080    3.093765
  C     -1.614935   -0.387429    1.104069
  O     -2.837324   -0.415022    1.194133
  N     -0.953420   -0.076404   -0.040820
  H      0.053809   -0.075567   -0.036640
  C     -1.658124    0.250094   -1.258553
  H     -2.720372    0.176944   -1.046653
  H     -1.430305    1.262963   -1.588094
  H     -1.405626   -0.444335   -2.058584
  O      1.715727   -0.061648   -0.132704
  H      2.280705   -0.774607   -0.437903
  H      2.295479    0.702545   -0.108806

 Multiplicity           Mult            ....    1
 Number of Electrons    NEL             ....   50
 Basis Dimension        Dim             ....  894

ORBITAL ENERGIES
----------------

  NO   OCC          E(Eh)            E(eV)
   0   2.0000     -20.608637      -560.7895
   1   2.0000     -20.486110      -557.4554
   2   2.0000     -15.548512      -423.0965
   3   2.0000     -11.323321      -308.1232
   4   2.0000     -11.235771      -305.7409
   5   2.0000     -11.214862      -305.1719
   6   2.0000      -1.402834       -38.1731
   7   2.0000      -1.350217       -36.7413
   8   2.0000      -1.203785       -32.7567
   9   2.0000      -0.998418       -27.1683
  10   2.0000      -0.911594       -24.8057
  11   2.0000      -0.777055       -21.1448
  12   2.0000      -0.762873       -20.7588
  13   2.0000      -0.678773       -18.4703
  14   2.0000      -0.644088       -17.5265
  15   2.0000      -0.621132       -16.9019
  16   2.0000      -0.612151       -16.6575
  17   2.0000      -0.569273       -15.4907
  18   2.0000      -0.563682       -15.3386
  19   2.0000      -0.554789       -15.0966
  20   2.0000      -0.530447       -14.4342
  21   2.0000      -0.516799       -14.0628
  22   2.0000      -0.484635       -13.1876
  23   2.0000      -0.399144       -10.8613
  24   2.0000      -0.365767        -9.9530
  25   0.0000       0.008571         0.2332
  26   0.0000       0.030261         0.8234
  27   0.0000       0.032691         0.8896
  28   0.0000       0.038039         1.0351
  29   0.0000       0.051923         1.4129

MULLIKEN ATOMIC CHARGES
-----------------------
   0 C :   -0.826553
   1 H :    0.298521
   2 H :    0.268446
   3 H :    0.267233
   4 C :    0.906892
   5 O :   -0.859885
   6 N :   -0.382320
   7 H :    0.225047
   8 C :   -0.771169
   9 H :    0.301825
  10 H :    0.282015
  11 H :    0.280520
  12 O :   -0.677037
  13 H :    0.345052
  14 H :    0.341413
Sum of atomic charges:   -0.0000000

LOEWDIN ATOMIC CHARGES
----------------------
   0 C :    0.884877
   1 H :   -0.340485
   2 H :   -0.300678
   3 H :   -0.301259
   4 C :   -0.831136
   5 O :    0.689769
   6 N :    0.814924
   7 H :   -0.859173
   8 C :    0.783359
   9 H :   -0.370338
  10 H :   -0.286959
  11 H :   -0.287387
  12 O :    1.747038
  13 H :   -0.671219
  14 H :   -0.671331

  Mayer bond orders larger than 0.100000
B(  0-C ,  1-H ) :   0.9628 B(  0-C ,  2-H ) :   0.9500 B(  0-C ,  3-H ) :   0.9553
B(  0-C ,  4-C ) :   0.9139 B(  0-C ,  5-O ) :   0.1211 B(  4-C ,  5-O ) :   1.2083
B(  4-C ,  6-N ) :   1.1584 B(  5-O ,  6-N ) :   0.2208 B(  6-N ,  7-H ) :   1.0090
B(  6-N ,  8-C ) :   0.7847 B(  8-C ,  9-H ) :   0.9336 B(  8-C , 10-H ) :   0.9585
B(  8-C , 11-H ) :   0.9575 B( 12-O , 13-H ) :   0.9137 B( 12-O , 14-H ) :   0.9168

MP2 TOTAL ENERGY:     -324.497918578 Eh
FINAL SINGLE POINT ENERGY      -324.497918577995

DIPOLE MOMENT
-------------
                                X             Y             Z
Electronic contribution:     -2.44006      -0.29089       1.09511
Nuclear contribution   :      5.23752       0.46313      -1.78425
                        -----------------------------------------
Total Dipole Moment    :      2.79746       0.17224      -0.68914
                        -----------------------------------------
Magnitude (a.u.)       :      2.88624
Magnitude (Debye)      :      7.33625

Rotational constants in cm-1:     0.132162     0.074465     0.048811
Rotational constants in MHz :  3962.115762  2232.410642  1463.308115

                             ****ORCA TERMINATED NORMALLY****
TOTAL RUN TIME: 0 days 1 hours 12 minutes 39 seconds 127 msec
