                         Program Version 5.0.4 -  RELEASE  -
|  1> ! ri-mp2 aug-cc-pvdz aug-cc-pvdz/c tightscf
|  2> %pal nprocs 16 end
|  3> %maxcore 3800
|  4> %base "DZ_S66by10_37_1.0_dimer"
|  5> %scf STABPerform true end
|  6>
|  7> *xyz 0 1
|  8> C    0.79991408   -1.02205164    0.68773696
|  9> H    0.85355588   -1.12205101   -0.39801435
| 10> H    1.49140210   -1.74416936    1.11972040
| 11> C    1.11688700    0.42495279    1.09966205
| 12> H    1.83814230    0.89014504    0.43045256
| 13> H    1.55556959    0.43982464    2.09708356
| 14> C   -0.24455916    1.16568959    1.10297714
| 15> H   -0.25807760    2.00086313    0.40532333
| 16> H   -0.44880450    1.57699582    2.09098447
| 17> C   -1.29871418    0.10381191    0.73930899
| 18> H   -1.47356078    0.10524338   -0.33800545
| 19> H   -2.25673428    0.27804118    1.22715843
| 20> C   -0.64687993   -1.22006836    1.13630660
| 21> H   -1.12443918   -2.08762702    0.68299327
| 22> H   -0.68601864   -1.34528332    2.22022006
| 23> C    0.04975087    0.09402205    5.61200898
| 24> C   -0.04659333   -0.05806392    7.12764946
| 25> H    0.94595304   -0.07353013    7.58000668
| 26> H   -0.60551810    0.76982058    7.56608437
| 27> H   -0.55375803   -0.98673000    7.39299904
| 28> C    0.76380411    1.40092717    5.27638410
| 29> H    0.84532366    1.53442630    4.19670222
| 30> H    0.22033172    2.25561560    5.68188548
| 31> H    1.77140865    1.41157758    5.69461710
| 32> C   -1.35526094    0.11384670    5.01468945
| 33> H   -1.31832936    0.23103663    3.93084049
| 34> H   -1.93756048    0.94127026    5.42303537
| 35> H   -1.88516401   -0.81394014    5.23601875
| 36> C    0.83765068   -1.07946285    5.03467080
| 37> H    0.34243037   -2.02645359    5.25491395
| 38> H    0.93249386   -0.99228009    3.95153603
| 39> H    1.84236877   -1.11686749    5.45841926
| 40> *
| 41>
| 42> $new_job
| 43> ! ri-mp2 aug-cc-pvtz aug-cc-pvtz/c tightscf
| 44> %pal nprocs 16 end
| 45> %maxcore 3800
| 46> %base "TZ_S66by10_37_1.0_dimer"
| 47>
| 48> *xyz 0 1
| 49> C    0.79991408   -1.02205164    0.68773696
| 50> H    0.85355588   -1.12205101   -0.39801435
| 51> H    1.49140210   -1.74416936    1.11972040
| 52> C    1.11688700    0.42495279    1.09966205
| 53> H    1.83814230    0.89014504    0.43045256
| 54> H    1.55556959    0.43982464    2.09708356
| 55> C   -0.24455916    1.16568959    1.10297714
| 56> H   -0.25807760    2.00086313    0.40532333
| 57> H   -0.44880450    1.57699582    2.09098447
| 58> C   -1.29871418    0.10381191    0.73930899
| 59> H   -1.47356078    0.10524338   -0.33800545
| 60> H   -2.25673428    0.27804118    1.22715843
| 61> C   -0.64687993   -1.22006836    1.13630660
| 62> H   -1.12443918   -2.08762702    0.68299327
| 63> H   -0.68601864   -1.34528332    2.22022006
| 64> C    0.04975087    0.09402205    5.61200898
| 65> C   -0.04659333   -0.05806392    7.12764946
| 66> H    0.94595304   -0.07353013    7.58000668
| 67> H   -0.60551810    0.76982058    7.56608437
| 68> H   -0.55375803   -0.98673000    7.39299904
| 69> C    0.76380411    1.40092717    5.27638410
| 70> H    0.84532366    1.53442630    4.19670222
| 71> H    0.22033172    2.25561560    5.68188548
| 72> H    1.77140865    1.41157758    5.69461710
| 73> C   -1.35526094    0.11384670    5.01468945
| 74> H   -1.31832936    0.23103663    3.93084049
| 75> H   -1.93756048    0.94127026    5.42303537
| 76> H   -1.88516401   -0.81394014    5.23601875
| 77> C    0.83765068   -1.07946285    5.03467080
| 78> H    0.34243037   -2.02645359    5.25491395
| 79> H    0.93249386   -0.99228009    3.95153603
| 80> H    1.84236877   -1.11686749    5.45841926
| 81> *
| 82>
| 83> $new_job
| 84> ! ri-mp2 aug-cc-pvqz aug-cc-pvqz/c tightscf
| 85> %pal nprocs 16 end
| 86> %maxcore 3800
| 87> %base "QZ_S66by10_37_1.0_dimer"
| 88>
| 89> *xyz 0 1
| 90> C    0.79991408   -1.02205164    0.68773696
| 91> H    0.85355588   -1.12205101   -0.39801435
| 92> H    1.49140210   -1.74416936    1.11972040
| 93> C    1.11688700    0.42495279    1.09966205
| 94> H    1.83814230    0.89014504    0.43045256
| 95> H    1.55556959    0.43982464    2.09708356
| 96> C   -0.24455916    1.16568959    1.10297714
| 97> H   -0.25807760    2.00086313    0.40532333
| 98> H   -0.44880450    1.57699582    2.09098447
| 99> C   -1.29871418    0.10381191    0.73930899
|100> H   -1.47356078    0.10524338   -0.33800545
|101> H   -2.25673428    0.27804118    1.22715843
|102> C   -0.64687993   -1.22006836    1.13630660
|103> H   -1.12443918   -2.08762702    0.68299327
|104> H   -0.68601864   -1.34528332    2.22022006
|105> C    0.04975087    0.09402205    5.61200898
|106> C   -0.04659333   -0.05806392    7.12764946
|107> H    0.94595304   -0.07353013    7.58000668
|108> H   -0.60551810    0.76982058    7.56608437
|109> H   -0.55375803   -0.98673000    7.39299904
|110> C    0.76380411    1.40092717    5.27638410
|111> H    0.84532366    1.53442630    4.19670222
|112> H    0.22033172    2.25561560    5.68188548
|113> H    1.77140865    1.41157758    5.69461710
|114> C   -1.35526094    0.11384670    5.01468945
|115> H   -1.31832936    0.23103663    3.93084049
|116> H   -1.93756048    0.94127026    5.42303537
|117> H   -1.88516401   -0.81394014    5.23601875
|118> C    0.83765068   -1.07946285    5.03467080
|119> H    0.34243037   -2.02645359    5.25491395
|120> H    0.93249386   -0.99228009    3.95153603
|121> H    1.84236877   -1.11686749    5.45841926
|122> *
|123>
|124>
|125>
|126>
|127>                          ****END OF INPUT****
 Total Charge           Charge          ....    0
 Multiplicity           Mult            ....    1
 Number of Electrons    NEL             ....   82
MP2 TOTAL ENERGY:     -393.051248386 Eh
FINAL SINGLE POINT ENERGY      -393.051248386276
MP2 TOTAL ENERGY:     -393.434361761 Eh
FINAL SINGLE POINT ENERGY      -393.434361760733

CARTESIAN COORDINATES (ANGSTROEM)
---------------------------------
  C      0.799914   -1.022052    0.687737
  H      0.853556   -1.122051   -0.398014
  H      1.491402   -1.744169    1.119720
  C      1.116887    0.424953    1.099662
  H      1.838142    0.890145    0.430453
  H      1.555570    0.439825    2.097084
  C     -0.244559    1.165690    1.102977
  H     -0.258078    2.000863    0.405323
  H     -0.448804    1.576996    2.090984
  C     -1.298714    0.103812    0.739309
  H     -1.473561    0.105243   -0.338005
  H     -2.256734    0.278041    1.227158
  C     -0.646880   -1.220068    1.136307
  H     -1.124439   -2.087627    0.682993
  H     -0.686019   -1.345283    2.220220
  C      0.049751    0.094022    5.612009
  C     -0.046593   -0.058064    7.127649
  H      0.945953   -0.073530    7.580007
  H     -0.605518    0.769821    7.566084
  H     -0.553758   -0.986730    7.392999
  C      0.763804    1.400927    5.276384
  H      0.845324    1.534426    4.196702
  H      0.220332    2.255616    5.681885
  H      1.771409    1.411578    5.694617
  C     -1.355261    0.113847    5.014689
  H     -1.318329    0.231037    3.930840
  H     -1.937560    0.941270    5.423035
  H     -1.885164   -0.813940    5.236019
  C      0.837651   -1.079463    5.034671
  H      0.342430   -2.026454    5.254914
  H      0.932494   -0.992280    3.951536
  H      1.842369   -1.116867    5.458419

 Multiplicity           Mult            ....    1
 Number of Electrons    NEL             ....   82
 Basis Dimension        Dim             .... 1812

ORBITAL ENERGIES
----------------

  NO   OCC          E(Eh)            E(eV)
   0   2.0000     -11.226053      -305.4764
   1   2.0000     -11.209917      -305.0374
   2   2.0000     -11.209542      -305.0271
   3   2.0000     -11.209285      -305.0202
   4   2.0000     -11.208934      -305.0106
   5   2.0000     -11.208115      -304.9883
   6   2.0000     -11.204728      -304.8962
   7   2.0000     -11.204693      -304.8952
   8   2.0000     -11.204662      -304.8944
   9   2.0000     -11.204534      -304.8909
  10   2.0000      -1.116481       -30.3810
  11   2.0000      -1.106538       -30.1104
  12   2.0000      -0.957393       -26.0520
  13   2.0000      -0.956957       -26.0401
  14   2.0000      -0.929417       -25.2907
  15   2.0000      -0.929028       -25.2801
  16   2.0000      -0.928849       -25.2753
  17   2.0000      -0.777516       -21.1573
  18   2.0000      -0.768301       -20.9065
  19   2.0000      -0.730593       -19.8804
  20   2.0000      -0.652602       -17.7582
  21   2.0000      -0.645243       -17.5580
  22   2.0000      -0.612847       -16.6764
  23   2.0000      -0.612504       -16.6671
  24   2.0000      -0.610838       -16.6217
  25   2.0000      -0.573632       -15.6093
  26   2.0000      -0.570962       -15.5367
  27   2.0000      -0.552553       -15.0357
  28   2.0000      -0.551586       -15.0094
  29   2.0000      -0.509915       -13.8755
  30   2.0000      -0.509877       -13.8744
  31   2.0000      -0.509670       -13.8688
  32   2.0000      -0.475720       -12.9450
  33   2.0000      -0.475469       -12.9382
  34   2.0000      -0.464752       -12.6465
  35   2.0000      -0.464055       -12.6276
  36   2.0000      -0.460291       -12.5251
  37   2.0000      -0.453339       -12.3360
  38   2.0000      -0.452791       -12.3211
  39   2.0000      -0.449533       -12.2324
  40   2.0000      -0.447523       -12.1777
  41   0.0000       0.022888         0.6228
  42   0.0000       0.028267         0.7692
  43   0.0000       0.029360         0.7989
  44   0.0000       0.029538         0.8038
  45   0.0000       0.039383         1.0717

MULLIKEN ATOMIC CHARGES
-----------------------
   0 C :   -0.668587
   1 H :    0.269086
   2 H :    0.268830
   3 C :   -0.617889
   4 H :    0.327355
   5 H :    0.332635
   6 C :   -0.578115
   7 H :    0.316405
   8 H :    0.324044
   9 C :   -0.678491
  10 H :    0.264698
  11 H :    0.268616
  12 C :   -0.537875
  13 H :    0.324890
  14 H :    0.344446
  15 C :    1.951682
  16 C :   -1.136842
  17 H :    0.235249
  18 H :    0.234515
  19 H :    0.214111
  20 C :   -1.314676
  21 H :    0.458176
  22 H :    0.185712
  23 H :    0.186514
  24 C :   -1.304463
  25 H :    0.435832
  26 H :    0.169953
  27 H :    0.210308
  28 C :   -1.299273
  29 H :    0.209166
  30 H :    0.437748
  31 H :    0.166240
Sum of atomic charges:   -0.0000000

LOEWDIN ATOMIC CHARGES
----------------------
   0 C :    0.533941
   1 H :   -0.265296
   2 H :   -0.255589
   3 C :    0.547802
   4 H :   -0.258543
   5 H :   -0.294073
   6 C :    0.550010
   7 H :   -0.259822
   8 H :   -0.292774
   9 C :    0.535011
  10 H :   -0.266068
  11 H :   -0.256916
  12 C :    0.520511
  13 H :   -0.249071
  14 H :   -0.296630
  15 C :   -0.318913
  16 C :    0.904476
  17 H :   -0.271121
  18 H :   -0.271088
  19 H :   -0.270575
  20 C :    0.907615
  21 H :   -0.294902
  22 H :   -0.265515
  23 H :   -0.265479
  24 C :    0.906855
  25 H :   -0.304583
  26 H :   -0.263571
  27 H :   -0.262796
  28 C :    0.907133
  29 H :   -0.262982
  30 H :   -0.303259
  31 H :   -0.263788

  Mayer bond orders larger than 0.100000
B(  0-C ,  1-H ) :   0.9396 B(  0-C ,  2-H ) :   0.9004 B(  0-C ,  3-C ) :   0.9583
B(  0-C , 12-C ) :   0.9028 B(  3-C ,  4-H ) :   0.9192 B(  3-C ,  5-H ) :   0.8389
B(  3-C ,  6-C ) :   0.9011 B(  3-C , 12-C ) :  -0.1010 B(  6-C ,  7-H ) :   0.9289
B(  6-C ,  8-H ) :   0.8473 B(  6-C ,  9-C ) :   0.9617 B(  6-C , 12-C ) :  -0.1044
B(  9-C , 10-H ) :   0.9494 B(  9-C , 11-H ) :   0.9002 B(  9-C , 12-C ) :   0.8899
B( 12-C , 13-H ) :   0.8848 B( 12-C , 14-H ) :   0.7979 B( 15-C , 17-H ) :  -0.1665
B( 15-C , 18-H ) :  -0.1667 B( 15-C , 19-H ) :  -0.1905 B( 15-C , 20-C ) :   0.3828
B( 15-C , 24-C ) :   0.3471 B( 15-C , 25-H ) :  -0.1113 B( 15-C , 28-C ) :   0.3278
B( 16-C , 17-H ) :   1.0739 B( 16-C , 18-H ) :   1.0736 B( 16-C , 19-H ) :   1.0979
B( 16-C , 20-C ) :   0.1728 B( 16-C , 24-C ) :   0.1745 B( 16-C , 28-C ) :   0.1729
B( 20-C , 21-H ) :   0.7939 B( 20-C , 22-H ) :   1.1052 B( 20-C , 23-H ) :   1.1047
B( 20-C , 24-C ) :   0.1739 B( 20-C , 28-C ) :   0.1732 B( 24-C , 25-H ) :   0.8717
B( 24-C , 26-H ) :   1.1289 B( 24-C , 27-H ) :   1.0686 B( 24-C , 28-C ) :   0.1470
B( 28-C , 29-H ) :   1.0745 B( 28-C , 30-H ) :   0.8670 B( 28-C , 31-H ) :   1.1390

MP2 TOTAL ENERGY:     -393.548760273 Eh
FINAL SINGLE POINT ENERGY      -393.548760273473

DIPOLE MOMENT
-------------
                                X             Y             Z
Electronic contribution:     -0.11715      -0.23962      -3.71786
Nuclear contribution   :      0.11390       0.23284       3.70312
                        -----------------------------------------
Total Dipole Moment    :     -0.00326      -0.00678      -0.01474
                        -----------------------------------------
Magnitude (a.u.)       :      0.01655
Magnitude (Debye)      :      0.04207

Rotational constants in cm-1:     0.068752     0.017491     0.017472
Rotational constants in MHz :  2061.124771   524.355126   523.801743

                             ****ORCA TERMINATED NORMALLY****
TOTAL RUN TIME: 0 days 21 hours 28 minutes 3 seconds 156 msec
