                         Program Version 5.0.4 -  RELEASE  -
|  1> ! ri-mp2 aug-cc-pvdz aug-cc-pvdz/c tightscf
|  2> %pal nprocs 16 end
|  3> %maxcore 3800
|  4> %base "DZ_S66by10_3_0.8_dimer"
|  5> %scf STABPerform true end
|  6>
|  7> *xyz 0 1
|  8> O   -0.68746490   -0.11174433   -0.01962547
|  9> H   -1.04612154    0.77593821    0.01270684
| 10> H    0.27404252    0.02585065   -0.00349726
| 11> N    1.88254365    0.08931633    0.00417698
| 12> H    2.17790808   -0.46332164   -0.79061388
| 13> H    2.19262414   -0.42140476    0.82103647
| 14> C    2.54187892    1.39768030   -0.03606466
| 15> H    2.23133650    1.97940526    0.82845076
| 16> H    3.63318821    1.35838533   -0.04502033
| 17> H    2.21516665    1.93359777   -0.92388847
| 18> *
| 19>
| 20> $new_job
| 21> ! ri-mp2 aug-cc-pvtz aug-cc-pvtz/c tightscf
| 22> %pal nprocs 16 end
| 23> %maxcore 3800
| 24> %base "TZ_S66by10_3_0.8_dimer"
| 25>
| 26> *xyz 0 1
| 27> O   -0.68746490   -0.11174433   -0.01962547
| 28> H   -1.04612154    0.77593821    0.01270684
| 29> H    0.27404252    0.02585065   -0.00349726
| 30> N    1.88254365    0.08931633    0.00417698
| 31> H    2.17790808   -0.46332164   -0.79061388
| 32> H    2.19262414   -0.42140476    0.82103647
| 33> C    2.54187892    1.39768030   -0.03606466
| 34> H    2.23133650    1.97940526    0.82845076
| 35> H    3.63318821    1.35838533   -0.04502033
| 36> H    2.21516665    1.93359777   -0.92388847
| 37> *
| 38>
| 39> $new_job
| 40> ! ri-mp2 aug-cc-pvqz aug-cc-pvqz/c tightscf
| 41> %pal nprocs 16 end
| 42> %maxcore 3800
| 43> %base "QZ_S66by10_3_0.8_dimer"
| 44>
| 45> *xyz 0 1
| 46> O   -0.68746490   -0.11174433   -0.01962547
| 47> H   -1.04612154    0.77593821    0.01270684
| 48> H    0.27404252    0.02585065   -0.00349726
| 49> N    1.88254365    0.08931633    0.00417698
| 50> H    2.17790808   -0.46332164   -0.79061388
| 51> H    2.19262414   -0.42140476    0.82103647
| 52> C    2.54187892    1.39768030   -0.03606466
| 53> H    2.23133650    1.97940526    0.82845076
| 54> H    3.63318821    1.35838533   -0.04502033
| 55> H    2.21516665    1.93359777   -0.92388847
| 56> *
| 57>
| 58>
| 59>
| 60>
| 61>                          ****END OF INPUT****
 Total Charge           Charge          ....    0
 Multiplicity           Mult            ....    1
 Number of Electrons    NEL             ....   28
MP2 TOTAL ENERGY:     -171.841027670 Eh
FINAL SINGLE POINT ENERGY      -171.841027669599
MP2 TOTAL ENERGY:     -172.003229647 Eh
FINAL SINGLE POINT ENERGY      -172.003229646719

CARTESIAN COORDINATES (ANGSTROEM)
---------------------------------
  O     -0.687465   -0.111744   -0.019625
  H     -1.046122    0.775938    0.012707
  H      0.274043    0.025851   -0.003497
  N      1.882544    0.089316    0.004177
  H      2.177908   -0.463322   -0.790614
  H      2.192624   -0.421405    0.821036
  C      2.541879    1.397680   -0.036065
  H      2.231336    1.979405    0.828451
  H      3.633188    1.358385   -0.045020
  H      2.215167    1.933598   -0.923888

 Multiplicity           Mult            ....    1
 Number of Electrons    NEL             ....   28
 Basis Dimension        Dim             ....  562

ORBITAL ENERGIES
----------------

  NO   OCC          E(Eh)            E(eV)
   0   2.0000     -20.497844      -557.7747
   1   2.0000     -15.566784      -423.5937
   2   2.0000     -11.261542      -306.4421
   3   2.0000      -1.295734       -35.2587
   4   2.0000      -1.203470       -32.7481
   5   2.0000      -0.923156       -25.1203
   6   2.0000      -0.692151       -18.8344
   7   2.0000      -0.679889       -18.5007
   8   2.0000      -0.630076       -17.1452
   9   2.0000      -0.580079       -15.7848
  10   2.0000      -0.541836       -14.7441
  11   2.0000      -0.536888       -14.6095
  12   2.0000      -0.451722       -12.2920
  13   2.0000      -0.419432       -11.4133
  14   0.0000       0.020251         0.5511
  15   0.0000       0.033724         0.9177
  16   0.0000       0.036361         0.9894
  17   0.0000       0.039417         1.0726
  18   0.0000       0.057569         1.5665

MULLIKEN ATOMIC CHARGES
-----------------------
   0 O :   -0.657908
   1 H :    0.298038
   2 H :    0.193922
   3 N :   -0.197076
   4 H :    0.169680
   5 H :    0.169707
   6 C :   -0.770685
   7 H :    0.254599
   8 H :    0.283900
   9 H :    0.255823
Sum of atomic charges:   -0.0000000

LOEWDIN ATOMIC CHARGES
----------------------
   0 O :    1.606800
   1 H :   -0.790655
   2 H :   -1.151819
   3 N :    1.273192
   4 H :   -0.441006
   5 H :   -0.440659
   6 C :    0.822741
   7 H :   -0.297700
   8 H :   -0.283416
   9 H :   -0.297478

  Mayer bond orders larger than 0.100000
B(  0-O ,  1-H ) :   0.9430 B(  0-O ,  2-H ) :   0.9809 B(  2-H ,  3-N ) :   0.1343
B(  3-N ,  4-H ) :   1.0073 B(  3-N ,  5-H ) :   1.0095 B(  3-N ,  6-C ) :   1.0126
B(  6-C ,  7-H ) :   0.9438 B(  6-C ,  8-H ) :   0.9256 B(  6-C ,  9-H ) :   0.9432

MP2 TOTAL ENERGY:     -172.054740955 Eh
FINAL SINGLE POINT ENERGY      -172.054740954588

DIPOLE MOMENT
-------------
                                X             Y             Z
Electronic contribution:     -1.76171      -1.35238       0.01803
Nuclear contribution   :      3.21449       1.98296       0.01123
                        -----------------------------------------
Total Dipole Moment    :      1.45278       0.63057       0.02926
                        -----------------------------------------
Magnitude (a.u.)       :      1.58400
Magnitude (Debye)      :      4.02620

Rotational constants in cm-1:     1.042691     0.145793     0.133717
Rotational constants in MHz : 31259.098173  4370.776937  4008.744819

                             ****ORCA TERMINATED NORMALLY****
TOTAL RUN TIME: 0 days 0 hours 8 minutes 32 seconds 720 msec
