                         Program Version 5.0.4 -  RELEASE  -
|  1> ! ri-mp2 aug-cc-pvdz aug-cc-pvdz/c tightscf
|  2> %pal nprocs 16 end
|  3> %maxcore 3800
|  4> %base "DZ_S66by10_13_0.95_dimer"
|  5> %scf STABPerform true end
|  6>
|  7> *xyz 0 1
|  8> C   -0.84931672   -0.33949876    2.49171664
|  9> H    0.18434396   -0.01104732    2.41618542
| 10> H   -0.88249791   -1.34205140    2.91270310
| 11> H   -1.39080263    0.31687828    3.16842897
| 12> C   -1.56403192   -0.35332311    1.15947545
| 13> O   -2.74952638   -0.65153776    1.05676087
| 14> N   -0.80165352   -0.02735461    0.08834167
| 15> H    0.16118756    0.24036035    0.21871364
| 16> C   -1.38534986   -0.00235149   -1.23413683
| 17> H   -1.89161720   -0.94280123   -1.44009631
| 18> H   -2.11997230    0.79621180   -1.33087952
| 19> H   -0.59464593    0.14957065   -1.96312772
| 20> O    2.06192064    0.25157404    0.44478127
| 21> H    2.78277545    0.87887366    0.53519608
| 22> C    2.58100480   -1.05379161    0.67866306
| 23> H    1.74843330   -1.74257930    0.57308649
| 24> H    3.34714356   -1.32278436   -0.04821772
| 25> H    2.98910185   -1.15524081    1.68429755
| 26> *
| 27>
| 28> $new_job
| 29> ! ri-mp2 aug-cc-pvtz aug-cc-pvtz/c tightscf
| 30> %pal nprocs 16 end
| 31> %maxcore 3800
| 32> %base "TZ_S66by10_13_0.95_dimer"
| 33>
| 34> *xyz 0 1
| 35> C   -0.84931672   -0.33949876    2.49171664
| 36> H    0.18434396   -0.01104732    2.41618542
| 37> H   -0.88249791   -1.34205140    2.91270310
| 38> H   -1.39080263    0.31687828    3.16842897
| 39> C   -1.56403192   -0.35332311    1.15947545
| 40> O   -2.74952638   -0.65153776    1.05676087
| 41> N   -0.80165352   -0.02735461    0.08834167
| 42> H    0.16118756    0.24036035    0.21871364
| 43> C   -1.38534986   -0.00235149   -1.23413683
| 44> H   -1.89161720   -0.94280123   -1.44009631
| 45> H   -2.11997230    0.79621180   -1.33087952
| 46> H   -0.59464593    0.14957065   -1.96312772
| 47> O    2.06192064    0.25157404    0.44478127
| 48> H    2.78277545    0.87887366    0.53519608
| 49> C    2.58100480   -1.05379161    0.67866306
| 50> H    1.74843330   -1.74257930    0.57308649
| 51> H    3.34714356   -1.32278436   -0.04821772
| 52> H    2.98910185   -1.15524081    1.68429755
| 53> *
| 54>
| 55> $new_job
| 56> ! ri-mp2 aug-cc-pvqz aug-cc-pvqz/c tightscf
| 57> %pal nprocs 16 end
| 58> %maxcore 3800
| 59> %base "QZ_S66by10_13_0.95_dimer"
| 60>
| 61> *xyz 0 1
| 62> C   -0.84931672   -0.33949876    2.49171664
| 63> H    0.18434396   -0.01104732    2.41618542
| 64> H   -0.88249791   -1.34205140    2.91270310
| 65> H   -1.39080263    0.31687828    3.16842897
| 66> C   -1.56403192   -0.35332311    1.15947545
| 67> O   -2.74952638   -0.65153776    1.05676087
| 68> N   -0.80165352   -0.02735461    0.08834167
| 69> H    0.16118756    0.24036035    0.21871364
| 70> C   -1.38534986   -0.00235149   -1.23413683
| 71> H   -1.89161720   -0.94280123   -1.44009631
| 72> H   -2.11997230    0.79621180   -1.33087952
| 73> H   -0.59464593    0.14957065   -1.96312772
| 74> O    2.06192064    0.25157404    0.44478127
| 75> H    2.78277545    0.87887366    0.53519608
| 76> C    2.58100480   -1.05379161    0.67866306
| 77> H    1.74843330   -1.74257930    0.57308649
| 78> H    3.34714356   -1.32278436   -0.04821772
| 79> H    2.98910185   -1.15524081    1.68429755
| 80> *
| 81>
| 82>
| 83>
| 84>
| 85>                          ****END OF INPUT****
 Total Charge           Charge          ....    0
 Multiplicity           Mult            ....    1
 Number of Electrons    NEL             ....   58
MP2 TOTAL ENERGY:     -363.279992764 Eh
FINAL SINGLE POINT ENERGY      -363.279992764417
MP2 TOTAL ENERGY:     -363.610627150 Eh
FINAL SINGLE POINT ENERGY      -363.610627149578

CARTESIAN COORDINATES (ANGSTROEM)
---------------------------------
  C     -0.849317   -0.339499    2.491717
  H      0.184344   -0.011047    2.416185
  H     -0.882498   -1.342051    2.912703
  H     -1.390803    0.316878    3.168429
  C     -1.564032   -0.353323    1.159475
  O     -2.749526   -0.651538    1.056761
  N     -0.801654   -0.027355    0.088342
  H      0.161188    0.240360    0.218714
  C     -1.385350   -0.002351   -1.234137
  H     -1.891617   -0.942801   -1.440096
  H     -2.119972    0.796212   -1.330880
  H     -0.594646    0.149571   -1.963128
  O      2.061921    0.251574    0.444781
  H      2.782775    0.878874    0.535196
  C      2.581005   -1.053792    0.678663
  H      1.748433   -1.742579    0.573086
  H      3.347144   -1.322784   -0.048218
  H      2.989102   -1.155241    1.684298

 Multiplicity           Mult            ....    1
 Number of Electrons    NEL             ....   58
 Basis Dimension        Dim             .... 1066

ORBITAL ENERGIES
----------------

  NO   OCC          E(Eh)            E(eV)
   0   2.0000     -20.589297      -560.2633
   1   2.0000     -20.492322      -557.6244
   2   2.0000     -15.559332      -423.3910
   3   2.0000     -11.327337      -308.2325
   4   2.0000     -11.292527      -307.2853
   5   2.0000     -11.241580      -305.8989
   6   2.0000     -11.219840      -305.3074
   7   2.0000      -1.391270       -37.8584
   8   2.0000      -1.355984       -36.8982
   9   2.0000      -1.209781       -32.9198
  10   2.0000      -1.003150       -27.2971
  11   2.0000      -0.952258       -25.9123
  12   2.0000      -0.916364       -24.9355
  13   2.0000      -0.777585       -21.1592
  14   2.0000      -0.721500       -19.6330
  15   2.0000      -0.673917       -18.3382
  16   2.0000      -0.650138       -17.6912
  17   2.0000      -0.636018       -17.3069
  18   2.0000      -0.622311       -16.9339
  19   2.0000      -0.617179       -16.7943
  20   2.0000      -0.570470       -15.5233
  21   2.0000      -0.563911       -15.3448
  22   2.0000      -0.547717       -14.9041
  23   2.0000      -0.534673       -14.5492
  24   2.0000      -0.525254       -14.2929
  25   2.0000      -0.484802       -13.1921
  26   2.0000      -0.483804       -13.1650
  27   2.0000      -0.404706       -11.0126
  28   2.0000      -0.373522       -10.1640
  29   0.0000       0.015235         0.4146
  30   0.0000       0.028872         0.7857
  31   0.0000       0.029086         0.7915
  32   0.0000       0.036592         0.9957
  33   0.0000       0.046294         1.2597

MULLIKEN ATOMIC CHARGES
-----------------------
   0 C :   -0.849154
   1 H :    0.290800
   2 H :    0.249192
   3 H :    0.281090
   4 C :    0.971002
   5 O :   -0.902471
   6 N :   -0.473875
   7 H :    0.332896
   8 C :   -0.869511
   9 H :    0.313432
  10 H :    0.329674
  11 H :    0.327206
  12 O :   -0.666191
  13 H :    0.312800
  14 C :   -0.691928
  15 H :    0.305989
  16 H :    0.434511
  17 H :    0.304538
Sum of atomic charges:   -0.0000000

LOEWDIN ATOMIC CHARGES
----------------------
   0 C :    0.887400
   1 H :   -0.338138
   2 H :   -0.297411
   3 H :   -0.299662
   4 C :   -0.849327
   5 O :    0.687163
   6 N :    0.811197
   7 H :   -0.722464
   8 C :    0.770499
   9 H :   -0.306627
  10 H :   -0.288820
  11 H :   -0.296560
  12 O :    1.298992
  13 H :   -0.746401
  14 C :    0.629610
  15 H :   -0.332045
  16 H :   -0.303671
  17 H :   -0.303735

  Mayer bond orders larger than 0.100000
B(  0-C ,  1-H ) :   0.9654 B(  0-C ,  2-H ) :   0.9541 B(  0-C ,  3-H ) :   0.9529
B(  0-C ,  4-C ) :   0.8747 B(  4-C ,  5-O ) :   1.1438 B(  4-C ,  6-N ) :   1.2220
B(  5-O ,  6-N ) :   0.2704 B(  6-N ,  7-H ) :   0.8330 B(  6-N ,  8-C ) :   0.8499
B(  8-C ,  9-H ) :   0.9368 B(  8-C , 10-H ) :   0.9291 B(  8-C , 11-H ) :   0.9063
B( 12-O , 13-H ) :   0.9276 B( 12-O , 14-C ) :   0.8210 B( 14-C , 15-H ) :   0.8970
B( 14-C , 16-H ) :   0.7942 B( 14-C , 17-H ) :   0.9063

MP2 TOTAL ENERGY:     -363.715351164 Eh
FINAL SINGLE POINT ENERGY      -363.715351164105

DIPOLE MOMENT
-------------
                                X             Y             Z
Electronic contribution:     -4.63497       1.03759       0.42874
Nuclear contribution   :      7.25066      -0.73762      -0.48472
                        -----------------------------------------
Total Dipole Moment    :      2.61569       0.29997      -0.05598
                        -----------------------------------------
Magnitude (a.u.)       :      2.63343
Magnitude (Debye)      :      6.69365

Rotational constants in cm-1:     0.112096     0.042807     0.033691
Rotational constants in MHz :  3360.551417  1283.334164  1010.016791

                             ****ORCA TERMINATED NORMALLY****
TOTAL RUN TIME: 0 days 1 hours 46 minutes 43 seconds 285 msec
