                         Program Version 5.0.4 -  RELEASE  -
|  1> ! ri-mp2 aug-cc-pvdz aug-cc-pvdz/c tightscf
|  2> %pal nprocs 16 end
|  3> %maxcore 3800
|  4> %base "DZ_S66by10_22_0.7_dimer"
|  5> %scf STABPerform true end
|  6>
|  7> *xyz 0 1
|  8> C   -1.11362611    1.32702009    0.27516705
|  9> O   -0.46708264    2.34938778    0.46153746
| 10> O   -0.57808939    0.13692049    0.04961747
| 11> H    0.41332036    0.20325661    0.05548711
| 12> C   -2.61142469    1.28618957    0.27736131
| 13> H   -3.00664872    2.27688545    0.46578983
| 14> H   -2.96425623    0.91525868   -0.68200123
| 15> H   -2.95311421    0.59179821    1.04124041
| 16> N    3.68566292    1.07526155    0.18477872
| 17> H    4.07886803    0.15987132    0.01305929
| 18> C    4.60719083    2.12337717    0.36623183
| 19> O    5.80433721    1.90508136    0.31335186
| 20> C    3.96812476    3.40283955    0.60683898
| 21> H    4.58765952    4.26976443    0.75831625
| 22> C    2.62104055    3.48282970    0.63622021
| 23> H    2.09820036    4.41127671    0.81151842
| 24> N    1.81730980    2.39214772    0.44581418
| 25> H    0.79325797    2.46209541    0.46960445
| 26> C    2.31724229    1.14192493    0.21164196
| 27> O    1.60520984    0.15242005    0.03817178
| 28> *
| 29>
| 30> $new_job
| 31> ! ri-mp2 aug-cc-pvtz aug-cc-pvtz/c tightscf
| 32> %pal nprocs 16 end
| 33> %maxcore 3800
| 34> %base "TZ_S66by10_22_0.7_dimer"
| 35>
| 36> *xyz 0 1
| 37> C   -1.11362611    1.32702009    0.27516705
| 38> O   -0.46708264    2.34938778    0.46153746
| 39> O   -0.57808939    0.13692049    0.04961747
| 40> H    0.41332036    0.20325661    0.05548711
| 41> C   -2.61142469    1.28618957    0.27736131
| 42> H   -3.00664872    2.27688545    0.46578983
| 43> H   -2.96425623    0.91525868   -0.68200123
| 44> H   -2.95311421    0.59179821    1.04124041
| 45> N    3.68566292    1.07526155    0.18477872
| 46> H    4.07886803    0.15987132    0.01305929
| 47> C    4.60719083    2.12337717    0.36623183
| 48> O    5.80433721    1.90508136    0.31335186
| 49> C    3.96812476    3.40283955    0.60683898
| 50> H    4.58765952    4.26976443    0.75831625
| 51> C    2.62104055    3.48282970    0.63622021
| 52> H    2.09820036    4.41127671    0.81151842
| 53> N    1.81730980    2.39214772    0.44581418
| 54> H    0.79325797    2.46209541    0.46960445
| 55> C    2.31724229    1.14192493    0.21164196
| 56> O    1.60520984    0.15242005    0.03817178
| 57> *
| 58>
| 59> $new_job
| 60> ! ri-mp2 aug-cc-pvqz aug-cc-pvqz/c tightscf
| 61> %pal nprocs 16 end
| 62> %maxcore 3800
| 63> %base "QZ_S66by10_22_0.7_dimer"
| 64>
| 65> *xyz 0 1
| 66> C   -1.11362611    1.32702009    0.27516705
| 67> O   -0.46708264    2.34938778    0.46153746
| 68> O   -0.57808939    0.13692049    0.04961747
| 69> H    0.41332036    0.20325661    0.05548711
| 70> C   -2.61142469    1.28618957    0.27736131
| 71> H   -3.00664872    2.27688545    0.46578983
| 72> H   -2.96425623    0.91525868   -0.68200123
| 73> H   -2.95311421    0.59179821    1.04124041
| 74> N    3.68566292    1.07526155    0.18477872
| 75> H    4.07886803    0.15987132    0.01305929
| 76> C    4.60719083    2.12337717    0.36623183
| 77> O    5.80433721    1.90508136    0.31335186
| 78> C    3.96812476    3.40283955    0.60683898
| 79> H    4.58765952    4.26976443    0.75831625
| 80> C    2.62104055    3.48282970    0.63622021
| 81> H    2.09820036    4.41127671    0.81151842
| 82> N    1.81730980    2.39214772    0.44581418
| 83> H    0.79325797    2.46209541    0.46960445
| 84> C    2.31724229    1.14192493    0.21164196
| 85> O    1.60520984    0.15242005    0.03817178
| 86> *
| 87>
| 88>
| 89>
| 90>
| 91>                          ****END OF INPUT****
 Total Charge           Charge          ....    0
 Multiplicity           Mult            ....    1
 Number of Electrons    NEL             ....   90
MP2 TOTAL ENERGY:     -642.283576911 Eh
FINAL SINGLE POINT ENERGY      -642.283576911140
MP2 TOTAL ENERGY:     -642.832940602 Eh
FINAL SINGLE POINT ENERGY      -642.832940602286

CARTESIAN COORDINATES (ANGSTROEM)
---------------------------------
  C     -1.113626    1.327020    0.275167
  O     -0.467083    2.349388    0.461537
  O     -0.578089    0.136920    0.049617
  H      0.413320    0.203257    0.055487
  C     -2.611425    1.286190    0.277361
  H     -3.006649    2.276885    0.465790
  H     -2.964256    0.915259   -0.682001
  H     -2.953114    0.591798    1.041240
  N      3.685663    1.075262    0.184779
  H      4.078868    0.159871    0.013059
  C      4.607191    2.123377    0.366232
  O      5.804337    1.905081    0.313352
  C      3.968125    3.402840    0.606839
  H      4.587660    4.269764    0.758316
  C      2.621041    3.482830    0.636220
  H      2.098200    4.411277    0.811518
  N      1.817310    2.392148    0.445814
  H      0.793258    2.462095    0.469604
  C      2.317242    1.141925    0.211642
  O      1.605210    0.152420    0.038172

 Multiplicity           Mult            ....    1
 Number of Electrons    NEL             ....   90
 Basis Dimension        Dim             .... 1328

ORBITAL ENERGIES
----------------

  NO   OCC          E(Eh)            E(eV)
   0   2.0000     -20.567218      -559.6624
   1   2.0000     -20.563424      -559.5592
   2   2.0000     -20.562577      -559.5362
   3   2.0000     -20.536528      -558.8273
   4   2.0000     -15.632236      -425.3748
   5   2.0000     -15.598061      -424.4448
   6   2.0000     -11.431257      -311.0603
   7   2.0000     -11.402777      -310.2853
   8   2.0000     -11.377880      -309.6079
   9   2.0000     -11.326045      -308.1974
  10   2.0000     -11.244970      -305.9912
  11   2.0000     -11.244860      -305.9882
  12   2.0000      -1.487043       -40.4645
  13   2.0000      -1.451519       -39.4978
  14   2.0000      -1.401112       -38.1262
  15   2.0000      -1.374206       -37.3940
  16   2.0000      -1.309036       -35.6207
  17   2.0000      -1.244131       -33.8545
  18   2.0000      -1.081931       -29.4408
  19   2.0000      -1.037424       -28.2297
  20   2.0000      -0.928840       -25.2750
  21   2.0000      -0.920489       -25.0478
  22   2.0000      -0.852178       -23.1889
  23   2.0000      -0.834519       -22.7084
  24   2.0000      -0.772390       -21.0178
  25   2.0000      -0.742191       -20.1960
  26   2.0000      -0.703818       -19.1519
  27   2.0000      -0.696192       -18.9444
  28   2.0000      -0.678286       -18.4571
  29   2.0000      -0.677720       -18.4417
  30   2.0000      -0.652371       -17.7519
  31   2.0000      -0.641291       -17.4504
  32   2.0000      -0.607864       -16.5408
  33   2.0000      -0.602211       -16.3870
  34   2.0000      -0.580294       -15.7906
  35   2.0000      -0.578174       -15.7329
  36   2.0000      -0.570755       -15.5310
  37   2.0000      -0.558989       -15.2109
  38   2.0000      -0.525739       -14.3061
  39   2.0000      -0.491883       -13.3848
  40   2.0000      -0.487685       -13.2706
  41   2.0000      -0.460384       -12.5277
  42   2.0000      -0.451718       -12.2919
  43   2.0000      -0.448310       -12.1991
  44   2.0000      -0.359333        -9.7780
  45   0.0000       0.018655         0.5076
  46   0.0000       0.026270         0.7148
  47   0.0000       0.032637         0.8881
  48   0.0000       0.038228         1.0402
  49   0.0000       0.039535         1.0758

MULLIKEN ATOMIC CHARGES
-----------------------
   0 C :    0.961813
   1 O :   -0.656120
   2 O :   -0.644399
   3 H :    0.310100
   4 C :   -0.684490
   5 H :    0.317452
   6 H :    0.287781
   7 H :    0.286827
   8 N :   -0.669169
   9 H :    0.129214
  10 C :    1.116160
  11 O :   -0.831253
  12 C :   -0.366460
  13 H :    0.277654
  14 C :   -0.395521
  15 H :    0.281677
  16 N :   -0.614084
  17 H :    0.305363
  18 C :    1.384632
  19 O :   -0.797176
Sum of atomic charges:   -0.0000000

LOEWDIN ATOMIC CHARGES
----------------------
   0 C :   -0.762320
   1 O :    1.089138
   2 O :    1.275737
   3 H :   -1.653093
   4 C :    0.902154
   5 H :   -0.321402
   6 H :   -0.300342
   7 H :   -0.300372
   8 N :    0.816289
   9 H :   -0.508645
  10 C :   -0.858805
  11 O :    0.680345
  12 C :    0.338275
  13 H :   -0.356215
  14 C :    0.265427
  15 H :   -0.289007
  16 N :    0.809319
  17 H :   -1.271002
  18 C :   -0.686815
  19 O :    1.131332

  Mayer bond orders larger than 0.100000
B(  0-C ,  1-O ) :   1.5263 B(  0-C ,  2-O ) :   0.9842 B(  0-C ,  4-C ) :   0.6169
B(  0-C ,  5-H ) :  -0.1177 B(  2-O ,  3-H ) :   0.7994 B(  2-O , 19-O ) :  -0.1096
B(  3-H , 19-O ) :   0.1065 B(  4-C ,  5-H ) :   0.9819 B(  4-C ,  6-H ) :   0.9544
B(  4-C ,  7-H ) :   0.9558 B(  8-N ,  9-H ) :   1.1819 B(  8-N , 10-C ) :   1.0160
B(  8-N , 11-O ) :   0.1639 B(  8-N , 18-C ) :   1.0429 B(  8-N , 19-O ) :   0.1302
B( 10-C , 11-O ) :   1.0120 B( 10-C , 12-C ) :   1.1599 B( 11-O , 12-C ) :   0.2816
B( 12-C , 13-H ) :   1.0160 B( 12-C , 14-C ) :   1.4364 B( 12-C , 16-N ) :  -0.1030
B( 13-H , 14-C ) :  -0.1083 B( 14-C , 15-H ) :   1.0409 B( 14-C , 16-N ) :   1.1876
B( 16-N , 17-H ) :   0.8162 B( 16-N , 18-C ) :   1.2795 B( 16-N , 19-O ) :   0.2022
B( 18-C , 19-O ) :   1.2379

MP2 TOTAL ENERGY:     -643.012791423 Eh
FINAL SINGLE POINT ENERGY      -643.012791423158

DIPOLE MOMENT
-------------
                                X             Y             Z
Electronic contribution:      8.58009      -0.91771      -0.23558
Nuclear contribution   :    -10.19916       1.66936       0.38712
                        -----------------------------------------
Total Dipole Moment    :     -1.61908       0.75165       0.15154
                        -----------------------------------------
Magnitude (a.u.)       :      1.79147
Magnitude (Debye)      :      4.55355

Rotational constants in cm-1:     0.093373     0.015435     0.013278
Rotational constants in MHz :  2799.247912   462.739777   398.066462

                             ****ORCA TERMINATED NORMALLY****
TOTAL RUN TIME: 0 days 6 hours 35 minutes 15 seconds 617 msec
