                         Program Version 5.0.4 -  RELEASE  -
|  1> ! ri-mp2 aug-cc-pvdz aug-cc-pvdz/c tightscf
|  2> %pal nprocs 16 end
|  3> %maxcore 3800
|  4> %base "DZ_S66by10_15_0.8_dimer"
|  5> %scf STABPerform true end
|  6>
|  7> *xyz 0 1
|  8> C   -0.70150294   -0.29062770    2.40688440
|  9> H   -1.18329596    0.39564777    3.09887422
| 10> H    0.34956157   -0.03032157    2.30783303
| 11> H   -0.79405685   -1.29160545    2.82403929
| 12> C   -1.44854625   -0.24487664    1.09181530
| 13> O   -2.66045000   -0.42847909    1.03434577
| 14> N   -0.67005656    0.00591656    0.00977691
| 15> H    0.32667532    0.12256396    0.14159284
| 16> C   -1.22705457    0.08979374   -1.31996754
| 17> H   -2.29202426   -0.10650119   -1.24087756
| 18> H   -1.07780169    1.07994030   -1.74854354
| 19> H   -0.77662849   -0.64799919   -1.98337273
| 20> C    1.67218172   -2.32911032    0.65748030
| 21> H    2.23040653   -3.23911356    0.45157229
| 22> H    0.74348987   -2.33563977    0.09315488
| 23> H    1.41296279   -2.30566362    1.71442130
| 24> C    2.43981767   -1.07469828    0.32124356
| 25> O    1.89463102    0.02673852    0.26427117
| 26> N    3.76657588   -1.24351205    0.10749559
| 27> H    4.14289718   -2.17075774    0.18425291
| 28> C    4.65381406   -0.13704608   -0.18145295
| 29> H    4.03962168    0.75376370   -0.26127666
| 30> H    5.38122861    0.00241966    0.61595036
| 31> H    5.17880435   -0.29702780   -1.12059528
| 32> *
| 33>
| 34> $new_job
| 35> ! ri-mp2 aug-cc-pvtz aug-cc-pvtz/c tightscf
| 36> %pal nprocs 16 end
| 37> %maxcore 3800
| 38> %base "TZ_S66by10_15_0.8_dimer"
| 39>
| 40> *xyz 0 1
| 41> C   -0.70150294   -0.29062770    2.40688440
| 42> H   -1.18329596    0.39564777    3.09887422
| 43> H    0.34956157   -0.03032157    2.30783303
| 44> H   -0.79405685   -1.29160545    2.82403929
| 45> C   -1.44854625   -0.24487664    1.09181530
| 46> O   -2.66045000   -0.42847909    1.03434577
| 47> N   -0.67005656    0.00591656    0.00977691
| 48> H    0.32667532    0.12256396    0.14159284
| 49> C   -1.22705457    0.08979374   -1.31996754
| 50> H   -2.29202426   -0.10650119   -1.24087756
| 51> H   -1.07780169    1.07994030   -1.74854354
| 52> H   -0.77662849   -0.64799919   -1.98337273
| 53> C    1.67218172   -2.32911032    0.65748030
| 54> H    2.23040653   -3.23911356    0.45157229
| 55> H    0.74348987   -2.33563977    0.09315488
| 56> H    1.41296279   -2.30566362    1.71442130
| 57> C    2.43981767   -1.07469828    0.32124356
| 58> O    1.89463102    0.02673852    0.26427117
| 59> N    3.76657588   -1.24351205    0.10749559
| 60> H    4.14289718   -2.17075774    0.18425291
| 61> C    4.65381406   -0.13704608   -0.18145295
| 62> H    4.03962168    0.75376370   -0.26127666
| 63> H    5.38122861    0.00241966    0.61595036
| 64> H    5.17880435   -0.29702780   -1.12059528
| 65> *
| 66>
| 67> $new_job
| 68> ! ri-mp2 aug-cc-pvqz aug-cc-pvqz/c tightscf
| 69> %pal nprocs 16 end
| 70> %maxcore 3800
| 71> %base "QZ_S66by10_15_0.8_dimer"
| 72>
| 73> *xyz 0 1
| 74> C   -0.70150294   -0.29062770    2.40688440
| 75> H   -1.18329596    0.39564777    3.09887422
| 76> H    0.34956157   -0.03032157    2.30783303
| 77> H   -0.79405685   -1.29160545    2.82403929
| 78> C   -1.44854625   -0.24487664    1.09181530
| 79> O   -2.66045000   -0.42847909    1.03434577
| 80> N   -0.67005656    0.00591656    0.00977691
| 81> H    0.32667532    0.12256396    0.14159284
| 82> C   -1.22705457    0.08979374   -1.31996754
| 83> H   -2.29202426   -0.10650119   -1.24087756
| 84> H   -1.07780169    1.07994030   -1.74854354
| 85> H   -0.77662849   -0.64799919   -1.98337273
| 86> C    1.67218172   -2.32911032    0.65748030
| 87> H    2.23040653   -3.23911356    0.45157229
| 88> H    0.74348987   -2.33563977    0.09315488
| 89> H    1.41296279   -2.30566362    1.71442130
| 90> C    2.43981767   -1.07469828    0.32124356
| 91> O    1.89463102    0.02673852    0.26427117
| 92> N    3.76657588   -1.24351205    0.10749559
| 93> H    4.14289718   -2.17075774    0.18425291
| 94> C    4.65381406   -0.13704608   -0.18145295
| 95> H    4.03962168    0.75376370   -0.26127666
| 96> H    5.38122861    0.00241966    0.61595036
| 97> H    5.17880435   -0.29702780   -1.12059528
| 98> *
| 99>
|100>
|101>
|102>
|103>                          ****END OF INPUT****
 Total Charge           Charge          ....    0
 Multiplicity           Mult            ....    1
 Number of Electrons    NEL             ....   80
MP2 TOTAL ENERGY:     -495.703721469 Eh
FINAL SINGLE POINT ENERGY      -495.703721469044
MP2 TOTAL ENERGY:     -496.150512443 Eh
FINAL SINGLE POINT ENERGY      -496.150512443430

CARTESIAN COORDINATES (ANGSTROEM)
---------------------------------
  C     -0.701503   -0.290628    2.406884
  H     -1.183296    0.395648    3.098874
  H      0.349562   -0.030322    2.307833
  H     -0.794057   -1.291605    2.824039
  C     -1.448546   -0.244877    1.091815
  O     -2.660450   -0.428479    1.034346
  N     -0.670057    0.005917    0.009777
  H      0.326675    0.122564    0.141593
  C     -1.227055    0.089794   -1.319968
  H     -2.292024   -0.106501   -1.240878
  H     -1.077802    1.079940   -1.748544
  H     -0.776628   -0.647999   -1.983373
  C      1.672182   -2.329110    0.657480
  H      2.230407   -3.239114    0.451572
  H      0.743490   -2.335640    0.093155
  H      1.412963   -2.305664    1.714421
  C      2.439818   -1.074698    0.321244
  O      1.894631    0.026739    0.264271
  N      3.766576   -1.243512    0.107496
  H      4.142897   -2.170758    0.184253
  C      4.653814   -0.137046   -0.181453
  H      4.039622    0.753764   -0.261277
  H      5.381229    0.002420    0.615950
  H      5.178804   -0.297028   -1.120595

 Multiplicity           Mult            ....    1
 Number of Electrons    NEL             ....   80
 Basis Dimension        Dim             .... 1444

ORBITAL ENERGIES
----------------

  NO   OCC          E(Eh)            E(eV)
   0   2.0000     -20.540729      -558.9416
   1   2.0000     -20.479545      -557.2767
   2   2.0000     -15.611978      -424.8235
   3   2.0000     -15.534599      -422.7179
   4   2.0000     -11.379524      -309.6526
   5   2.0000     -11.316243      -307.9306
   6   2.0000     -11.275023      -306.8090
   7   2.0000     -11.253048      -306.2110
   8   2.0000     -11.228818      -305.5517
   9   2.0000     -11.211039      -305.0679
  10   2.0000      -1.411837       -38.4180
  11   2.0000      -1.343060       -36.5465
  12   2.0000      -1.259986       -34.2860
  13   2.0000      -1.194330       -32.4994
  14   2.0000      -1.042703       -28.3734
  15   2.0000      -0.993424       -27.0324
  16   2.0000      -0.954736       -25.9797
  17   2.0000      -0.905065       -24.6281
  18   2.0000      -0.826633       -22.4938
  19   2.0000      -0.758633       -20.6435
  20   2.0000      -0.717085       -19.5129
  21   2.0000      -0.685172       -18.6445
  22   2.0000      -0.667177       -18.1548
  23   2.0000      -0.657341       -17.8872
  24   2.0000      -0.630094       -17.1457
  25   2.0000      -0.609638       -16.5891
  26   2.0000      -0.608035       -16.5455
  27   2.0000      -0.604882       -16.4597
  28   2.0000      -0.576236       -15.6802
  29   2.0000      -0.567035       -15.4298
  30   2.0000      -0.563720       -15.3396
  31   2.0000      -0.551488       -15.0067
  32   2.0000      -0.537793       -14.6341
  33   2.0000      -0.525392       -14.2966
  34   2.0000      -0.517569       -14.0838
  35   2.0000      -0.479186       -13.0393
  36   2.0000      -0.448970       -12.2171
  37   2.0000      -0.422733       -11.5031
  38   2.0000      -0.392202       -10.6724
  39   2.0000      -0.356013        -9.6876
  40   0.0000       0.010510         0.2860
  41   0.0000       0.024154         0.6573
  42   0.0000       0.026644         0.7250
  43   0.0000       0.031912         0.8684
  44   0.0000       0.042331         1.1519

MULLIKEN ATOMIC CHARGES
-----------------------
   0 C :   -0.863512
   1 H :    0.305817
   2 H :    0.310969
   3 H :    0.246632
   4 C :    0.979706
   5 O :   -0.944069
   6 N :   -0.378491
   7 H :    0.432807
   8 C :   -0.945673
   9 H :    0.308455
  10 H :    0.297562
  11 H :    0.335153
  12 C :   -0.806784
  13 H :    0.352404
  14 H :    0.240271
  15 H :    0.286855
  16 C :    1.111703
  17 O :   -1.014573
  18 N :   -0.580508
  19 H :    0.237458
  20 C :   -0.852846
  21 H :    0.292648
  22 H :    0.310736
  23 H :    0.337279
Sum of atomic charges:    0.0000000

LOEWDIN ATOMIC CHARGES
----------------------
   0 C :    0.879343
   1 H :   -0.296462
   2 H :   -0.349728
   3 H :   -0.298711
   4 C :   -0.831067
   5 O :    0.688816
   6 N :    0.800823
   7 H :   -0.990468
   8 C :    0.786985
   9 H :   -0.367426
  10 H :   -0.283170
  11 H :   -0.287117
  12 C :    0.927724
  13 H :   -0.295456
  14 H :   -0.305074
  15 H :   -0.293029
  16 C :   -0.667762
  17 O :    0.941066
  18 N :    0.854893
  19 H :   -0.500306
  20 C :    0.806372
  21 H :   -0.356430
  22 H :   -0.280901
  23 H :   -0.282916

  Mayer bond orders larger than 0.100000
B(  0-C ,  1-H ) :   0.9388 B(  0-C ,  2-H ) :   0.9590 B(  0-C ,  3-H ) :   0.9525
B(  0-C ,  4-C ) :   0.9103 B(  0-C ,  5-O ) :   0.1313 B(  4-C ,  5-O ) :   0.9775
B(  4-C ,  6-N ) :   1.2435 B(  5-O ,  6-N ) :   0.2987 B(  6-N ,  7-H ) :   0.8108
B(  6-N ,  8-C ) :   0.8621 B(  6-N , 17-O ) :  -0.1150 B(  8-C ,  9-H ) :   0.9290
B(  8-C , 10-H ) :   0.9762 B(  8-C , 11-H ) :   0.9095 B( 12-C , 13-H ) :   0.9372
B( 12-C , 14-H ) :   0.9785 B( 12-C , 15-H ) :   0.8971 B( 12-C , 16-C ) :   0.7884
B( 16-C , 17-O ) :   1.2470 B( 16-C , 18-N ) :   1.0905 B( 16-C , 20-C ) :  -0.1140
B( 18-N , 19-H ) :   1.0029 B( 18-N , 20-C ) :   0.8955 B( 20-C , 21-H ) :   0.9265
B( 20-C , 22-H ) :   0.9387 B( 20-C , 23-H ) :   0.9117

MP2 TOTAL ENERGY:     -496.292146691 Eh
FINAL SINGLE POINT ENERGY      -496.292146690559

DIPOLE MOMENT
-------------
                                X             Y             Z
Electronic contribution:     -3.04547       0.99925       0.67146
Nuclear contribution   :      6.35035      -2.08878      -0.92012
                        -----------------------------------------
Total Dipole Moment    :      3.30488      -1.08953      -0.24867
                        -----------------------------------------
Magnitude (a.u.)       :      3.48872
Magnitude (Debye)      :      8.86762

Rotational constants in cm-1:     0.080229     0.018799     0.017389
Rotational constants in MHz :  2405.195170   563.571130   521.308222

                             ****ORCA TERMINATED NORMALLY****
TOTAL RUN TIME: 0 days 7 hours 32 minutes 18 seconds 660 msec
