                         Program Version 5.0.4 -  RELEASE  -
|  1> ! ri-mp2 aug-cc-pvdz aug-cc-pvdz/c tightscf
|  2> %pal nprocs 16 end
|  3> %maxcore 3800
|  4> %base "DZ_S66by10_12_0.9_dimer"
|  5> %scf STABPerform true end
|  6>
|  7> *xyz 0 1
|  8> N   -0.53346397   -0.27959351    0.10699576
|  9> H   -0.62915138   -1.24842455    0.38284867
| 10> H   -1.12260363   -0.16615944   -0.70776410
| 11> C   -1.01690943    0.58848610    1.18737346
| 12> H   -0.91275967    1.62555174    0.87952116
| 13> H   -2.05473726    0.41508213    1.47850360
| 14> H   -0.38502338    0.44880090    2.06061419
| 15> O    1.94454133    0.85971566    0.21769144
| 16> H    1.12702392    0.36344317    0.04453854
| 17> H    2.52644277    0.60121779   -0.49805466
| 18> *
| 19>
| 20> $new_job
| 21> ! ri-mp2 aug-cc-pvtz aug-cc-pvtz/c tightscf
| 22> %pal nprocs 16 end
| 23> %maxcore 3800
| 24> %base "TZ_S66by10_12_0.9_dimer"
| 25>
| 26> *xyz 0 1
| 27> N   -0.53346397   -0.27959351    0.10699576
| 28> H   -0.62915138   -1.24842455    0.38284867
| 29> H   -1.12260363   -0.16615944   -0.70776410
| 30> C   -1.01690943    0.58848610    1.18737346
| 31> H   -0.91275967    1.62555174    0.87952116
| 32> H   -2.05473726    0.41508213    1.47850360
| 33> H   -0.38502338    0.44880090    2.06061419
| 34> O    1.94454133    0.85971566    0.21769144
| 35> H    1.12702392    0.36344317    0.04453854
| 36> H    2.52644277    0.60121779   -0.49805466
| 37> *
| 38>
| 39> $new_job
| 40> ! ri-mp2 aug-cc-pvqz aug-cc-pvqz/c tightscf
| 41> %pal nprocs 16 end
| 42> %maxcore 3800
| 43> %base "QZ_S66by10_12_0.9_dimer"
| 44>
| 45> *xyz 0 1
| 46> N   -0.53346397   -0.27959351    0.10699576
| 47> H   -0.62915138   -1.24842455    0.38284867
| 48> H   -1.12260363   -0.16615944   -0.70776410
| 49> C   -1.01690943    0.58848610    1.18737346
| 50> H   -0.91275967    1.62555174    0.87952116
| 51> H   -2.05473726    0.41508213    1.47850360
| 52> H   -0.38502338    0.44880090    2.06061419
| 53> O    1.94454133    0.85971566    0.21769144
| 54> H    1.12702392    0.36344317    0.04453854
| 55> H    2.52644277    0.60121779   -0.49805466
| 56> *
| 57>
| 58>
| 59>
| 60>
| 61>                          ****END OF INPUT****
 Total Charge           Charge          ....    0
 Multiplicity           Mult            ....    1
 Number of Electrons    NEL             ....   28
MP2 TOTAL ENERGY:     -171.846060839 Eh
FINAL SINGLE POINT ENERGY      -171.846060838982
MP2 TOTAL ENERGY:     -172.007837321 Eh
FINAL SINGLE POINT ENERGY      -172.007837320681

CARTESIAN COORDINATES (ANGSTROEM)
---------------------------------
  N     -0.533464   -0.279594    0.106996
  H     -0.629151   -1.248425    0.382849
  H     -1.122604   -0.166159   -0.707764
  C     -1.016909    0.588486    1.187373
  H     -0.912760    1.625552    0.879521
  H     -2.054737    0.415082    1.478504
  H     -0.385023    0.448801    2.060614
  O      1.944541    0.859716    0.217691
  H      1.127024    0.363443    0.044539
  H      2.526443    0.601218   -0.498055

 Multiplicity           Mult            ....    1
 Number of Electrons    NEL             ....   28
 Basis Dimension        Dim             ....  562

ORBITAL ENERGIES
----------------

  NO   OCC          E(Eh)            E(eV)
   0   2.0000     -20.513622      -558.2040
   1   2.0000     -15.561461      -423.4489
   2   2.0000     -11.249540      -306.1156
   3   2.0000      -1.305751       -35.5313
   4   2.0000      -1.194057       -32.4919
   5   2.0000      -0.910961       -24.7885
   6   2.0000      -0.686719       -18.6866
   7   2.0000      -0.683156       -18.5896
   8   2.0000      -0.613808       -16.7026
   9   2.0000      -0.570394       -15.5212
  10   2.0000      -0.546507       -14.8712
  11   2.0000      -0.530183       -14.4270
  12   2.0000      -0.464437       -12.6380
  13   2.0000      -0.418389       -11.3849
  14   0.0000       0.021211         0.5772
  15   0.0000       0.034709         0.9445
  16   0.0000       0.037824         1.0292
  17   0.0000       0.041128         1.1192
  18   0.0000       0.054965         1.4957

MULLIKEN ATOMIC CHARGES
-----------------------
   0 N :   -0.348802
   1 H :    0.180663
   2 H :    0.181897
   3 C :   -0.777558
   4 H :    0.266989
   5 H :    0.363368
   6 H :    0.269325
   7 O :   -0.681692
   8 H :    0.268621
   9 H :    0.277189
Sum of atomic charges:   -0.0000000

LOEWDIN ATOMIC CHARGES
----------------------
   0 N :    1.267119
   1 H :   -0.469343
   2 H :   -0.470050
   3 C :    0.790972
   4 H :   -0.298533
   5 H :   -0.283051
   6 H :   -0.298734
   7 O :    1.614822
   8 H :   -1.067584
   9 H :   -0.785619

  Mayer bond orders larger than 0.100000
B(  0-N ,  1-H ) :   1.0074 B(  0-N ,  2-H ) :   1.0098 B(  0-N ,  3-C ) :   0.9934
B(  0-N ,  8-H ) :   0.1518 B(  3-C ,  4-H ) :   0.9362 B(  3-C ,  5-H ) :   0.8328
B(  3-C ,  6-H ) :   0.9347 B(  7-O ,  8-H ) :   0.8886 B(  7-O ,  9-H ) :   0.9918

MP2 TOTAL ENERGY:     -172.059276904 Eh
FINAL SINGLE POINT ENERGY      -172.059276903812

DIPOLE MOMENT
-------------
                                X             Y             Z
Electronic contribution:      1.64679      -0.09474      -0.75627
Nuclear contribution   :     -2.67258      -0.62091       0.34322
                        -----------------------------------------
Total Dipole Moment    :     -1.02579      -0.71565      -0.41305
                        -----------------------------------------
Magnitude (a.u.)       :      1.31720
Magnitude (Debye)      :      3.34805

Rotational constants in cm-1:     0.751392     0.168312     0.144269
Rotational constants in MHz : 22526.161303  5045.868455  4325.078462

                             ****ORCA TERMINATED NORMALLY****
TOTAL RUN TIME: 0 days 0 hours 15 minutes 49 seconds 398 msec
