                         Program Version 5.0.4 -  RELEASE  -
|  1> ! ri-mp2 aug-cc-pvdz aug-cc-pvdz/c tightscf
|  2> %pal nprocs 16 end
|  3> %maxcore 3800
|  4> %base "DZ_S66by10_14_0.7_dimer"
|  5> %scf STABPerform true end
|  6>
|  7> *xyz 0 1
|  8> C   -0.77857334   -0.46332064    2.49038768
|  9> H    0.22474462   -0.05095294    2.41348355
| 10> H   -0.72247994   -1.48709180    2.85458464
| 11> H   -1.35190757    0.11081693    3.21368365
| 12> C   -1.52050259   -0.45662769    1.17232500
| 13> O   -2.70083521   -0.78358573    1.08959682
| 14> N   -0.79195361   -0.06964048    0.10058937
| 15> H    0.19411165    0.14570790    0.20292464
| 16> C   -1.39779834   -0.05608245   -1.21131793
| 17> H   -2.31492801    0.52889121   -1.19970991
| 18> H   -0.69880422    0.38726130   -1.91536621
| 19> H   -1.65298232   -1.06152895   -1.54543495
| 20> N    1.63728243    0.22256661    0.25911773
| 21> H    2.04094875    0.76248614    1.01431782
| 22> H    2.05528630    0.58994786   -0.58652819
| 23> C    2.00958527   -1.18861620    0.41287048
| 24> H    1.58329787   -1.75964879   -0.40850497
| 25> H    3.08498391   -1.37530565    0.43865388
| 26> H    1.57511269   -1.57302321    1.33270648
| 27> *
| 28>
| 29> $new_job
| 30> ! ri-mp2 aug-cc-pvtz aug-cc-pvtz/c tightscf
| 31> %pal nprocs 16 end
| 32> %maxcore 3800
| 33> %base "TZ_S66by10_14_0.7_dimer"
| 34>
| 35> *xyz 0 1
| 36> C   -0.77857334   -0.46332064    2.49038768
| 37> H    0.22474462   -0.05095294    2.41348355
| 38> H   -0.72247994   -1.48709180    2.85458464
| 39> H   -1.35190757    0.11081693    3.21368365
| 40> C   -1.52050259   -0.45662769    1.17232500
| 41> O   -2.70083521   -0.78358573    1.08959682
| 42> N   -0.79195361   -0.06964048    0.10058937
| 43> H    0.19411165    0.14570790    0.20292464
| 44> C   -1.39779834   -0.05608245   -1.21131793
| 45> H   -2.31492801    0.52889121   -1.19970991
| 46> H   -0.69880422    0.38726130   -1.91536621
| 47> H   -1.65298232   -1.06152895   -1.54543495
| 48> N    1.63728243    0.22256661    0.25911773
| 49> H    2.04094875    0.76248614    1.01431782
| 50> H    2.05528630    0.58994786   -0.58652819
| 51> C    2.00958527   -1.18861620    0.41287048
| 52> H    1.58329787   -1.75964879   -0.40850497
| 53> H    3.08498391   -1.37530565    0.43865388
| 54> H    1.57511269   -1.57302321    1.33270648
| 55> *
| 56>
| 57> $new_job
| 58> ! ri-mp2 aug-cc-pvqz aug-cc-pvqz/c tightscf
| 59> %pal nprocs 16 end
| 60> %maxcore 3800
| 61> %base "QZ_S66by10_14_0.7_dimer"
| 62>
| 63> *xyz 0 1
| 64> C   -0.77857334   -0.46332064    2.49038768
| 65> H    0.22474462   -0.05095294    2.41348355
| 66> H   -0.72247994   -1.48709180    2.85458464
| 67> H   -1.35190757    0.11081693    3.21368365
| 68> C   -1.52050259   -0.45662769    1.17232500
| 69> O   -2.70083521   -0.78358573    1.08959682
| 70> N   -0.79195361   -0.06964048    0.10058937
| 71> H    0.19411165    0.14570790    0.20292464
| 72> C   -1.39779834   -0.05608245   -1.21131793
| 73> H   -2.31492801    0.52889121   -1.19970991
| 74> H   -0.69880422    0.38726130   -1.91536621
| 75> H   -1.65298232   -1.06152895   -1.54543495
| 76> N    1.63728243    0.22256661    0.25911773
| 77> H    2.04094875    0.76248614    1.01431782
| 78> H    2.05528630    0.58994786   -0.58652819
| 79> C    2.00958527   -1.18861620    0.41287048
| 80> H    1.58329787   -1.75964879   -0.40850497
| 81> H    3.08498391   -1.37530565    0.43865388
| 82> H    1.57511269   -1.57302321    1.33270648
| 83> *
| 84>
| 85>
| 86>
| 87>
| 88>                          ****END OF INPUT****
 Total Charge           Charge          ....    0
 Multiplicity           Mult            ....    1
 Number of Electrons    NEL             ....   58
MP2 TOTAL ENERGY:     -343.415196831 Eh
FINAL SINGLE POINT ENERGY      -343.415196830705
MP2 TOTAL ENERGY:     -343.732352298 Eh
FINAL SINGLE POINT ENERGY      -343.732352298202

CARTESIAN COORDINATES (ANGSTROEM)
---------------------------------
  C     -0.778573   -0.463321    2.490388
  H      0.224745   -0.050953    2.413484
  H     -0.722480   -1.487092    2.854585
  H     -1.351908    0.110817    3.213684
  C     -1.520503   -0.456628    1.172325
  O     -2.700835   -0.783586    1.089597
  N     -0.791954   -0.069640    0.100589
  H      0.194112    0.145708    0.202925
  C     -1.397798   -0.056082   -1.211318
  H     -2.314928    0.528891   -1.199710
  H     -0.698804    0.387261   -1.915366
  H     -1.652982   -1.061529   -1.545435
  N      1.637282    0.222567    0.259118
  H      2.040949    0.762486    1.014318
  H      2.055286    0.589948   -0.586528
  C      2.009585   -1.188616    0.412870
  H      1.583298   -1.759649   -0.408505
  H      3.084984   -1.375306    0.438654
  H      1.575113   -1.573023    1.332706

 Multiplicity           Mult            ....    1
 Number of Electrons    NEL             ....   58
 Basis Dimension        Dim             .... 1112

ORBITAL ENERGIES
----------------

  NO   OCC          E(Eh)            E(eV)
   0   2.0000     -20.479290      -557.2698
   1   2.0000     -15.581517      -423.9946
   2   2.0000     -15.522383      -422.3855
   3   2.0000     -11.313452      -307.8547
   4   2.0000     -11.271205      -306.7051
   5   2.0000     -11.232037      -305.6393
   6   2.0000     -11.218114      -305.2604
   7   2.0000      -1.342743       -36.5379
   8   2.0000      -1.234205       -33.5844
   9   2.0000      -1.186010       -32.2730
  10   2.0000      -0.997478       -27.1427
  11   2.0000      -0.935799       -25.4644
  12   2.0000      -0.907018       -24.6812
  13   2.0000      -0.776632       -21.1332
  14   2.0000      -0.711774       -19.3684
  15   2.0000      -0.675925       -18.3929
  16   2.0000      -0.642922       -17.4948
  17   2.0000      -0.621900       -16.9228
  18   2.0000      -0.608082       -16.5468
  19   2.0000      -0.593233       -16.1427
  20   2.0000      -0.566684       -15.4203
  21   2.0000      -0.557544       -15.1715
  22   2.0000      -0.550112       -14.9693
  23   2.0000      -0.542695       -14.7675
  24   2.0000      -0.525474       -14.2989
  25   2.0000      -0.475292       -12.9334
  26   2.0000      -0.428363       -11.6564
  27   2.0000      -0.388893       -10.5823
  28   2.0000      -0.354000        -9.6328
  29   0.0000       0.012925         0.3517
  30   0.0000       0.027416         0.7460
  31   0.0000       0.028185         0.7670
  32   0.0000       0.035436         0.9643
  33   0.0000       0.046553         1.2668

MULLIKEN ATOMIC CHARGES
-----------------------
   0 C :   -0.812396
   1 H :    0.239547
   2 H :    0.232997
   3 H :    0.275321
   4 C :    1.007011
   5 O :   -0.929902
   6 N :   -0.712850
   7 H :    0.514450
   8 C :   -0.899398
   9 H :    0.331694
  10 H :    0.290429
  11 H :    0.320354
  12 N :   -0.137280
  13 H :    0.168460
  14 H :    0.105353
  15 C :   -0.956885
  16 H :    0.271492
  17 H :    0.382533
  18 H :    0.309069
Sum of atomic charges:   -0.0000000

LOEWDIN ATOMIC CHARGES
----------------------
   0 C :    0.890000
   1 H :   -0.355320
   2 H :   -0.289743
   3 H :   -0.295996
   4 C :   -0.834397
   5 O :    0.681680
   6 N :    0.797551
   7 H :   -0.989783
   8 C :    0.773659
   9 H :   -0.304745
  10 H :   -0.296861
  11 H :   -0.289260
  12 N :    1.312280
  13 H :   -0.408583
  14 H :   -0.401686
  15 C :    0.848522
  16 H :   -0.271346
  17 H :   -0.261762
  18 H :   -0.304210

  Mayer bond orders larger than 0.100000
B(  0-C ,  1-H ) :   0.9707 B(  0-C ,  2-H ) :   0.9557 B(  0-C ,  3-H ) :   0.9675
B(  0-C ,  4-C ) :   0.8926 B(  0-C ,  5-O ) :   0.1100 B(  4-C ,  5-O ) :   1.0146
B(  4-C ,  6-N ) :   1.3229 B(  5-O ,  6-N ) :   0.3389 B(  6-N ,  7-H ) :   0.7708
B(  6-N ,  8-C ) :   0.8682 B(  6-N , 12-N ) :   0.1272 B(  8-C ,  9-H ) :   0.9344
B(  8-C , 10-H ) :   0.9356 B(  8-C , 11-H ) :   0.9345 B( 12-N , 13-H ) :   0.9966
B( 12-N , 14-H ) :   1.0602 B( 12-N , 15-C ) :   0.9504 B( 15-C , 16-H ) :   0.9489
B( 15-C , 17-H ) :   0.8684 B( 15-C , 18-H ) :   0.9057

MP2 TOTAL ENERGY:     -343.831647446 Eh
FINAL SINGLE POINT ENERGY      -343.831647445635

DIPOLE MOMENT
-------------
                                X             Y             Z
Electronic contribution:     -6.05250       0.50366       1.06693
Nuclear contribution   :      8.88926      -0.03231      -1.32328
                        -----------------------------------------
Total Dipole Moment    :      2.83676       0.47135      -0.25635
                        -----------------------------------------
Magnitude (a.u.)       :      2.88706
Magnitude (Debye)      :      7.33831

Rotational constants in cm-1:     0.109662     0.054169     0.040662
Rotational constants in MHz :  3287.587001  1623.953690  1219.027575

                             ****ORCA TERMINATED NORMALLY****
TOTAL RUN TIME: 0 days 2 hours 35 minutes 14 seconds 199 msec
