                         Program Version 5.0.4 -  RELEASE  -
|  1> ! ri-mp2 aug-cc-pvdz aug-cc-pvdz/c tightscf
|  2> %pal nprocs 16 end
|  3> %maxcore 3800
|  4> %base "DZ_S66by10_45_0.9_dimer"
|  5> %scf STABPerform true end
|  6>
|  7> *xyz 0 1
|  8> C   -0.60618936    0.05587406    0.58900491
|  9> H   -1.66803667    0.05577624    0.58901162
| 10> C    0.60584873    0.05554087    0.58926624
| 11> H    1.66767817    0.05486328    0.58972794
| 12> C   -2.53042272   -0.34128342    3.88959258
| 13> H   -2.53878935   -1.00323696    3.02318199
| 14> H   -2.58234105   -0.96755264    4.78018336
| 15> H   -3.43283734    0.26762064    3.85683096
| 16> C   -1.26989059    0.51331730    3.90066185
| 17> H   -1.28654226    1.18631652    4.76107097
| 18> H   -1.24462360    1.14753331    3.01186574
| 19> C    0.00002803   -0.32501371    3.94111719
| 20> H    0.00003076   -0.94280335    4.84417858
| 21> H    0.00009512   -1.01331286    3.09187600
| 22> C    1.26992659    0.51336236    3.90074873
| 23> H    1.28655441    1.18632948    4.76117003
| 24> H    1.24478167    1.14753468    3.01194753
| 25> C    2.53044908   -0.34127421    3.88980231
| 26> H    2.53882884   -1.00325697    3.02342324
| 27> H    3.43282785    0.26765713    3.85707595
| 28> H    2.58226631   -0.96748895    4.78043586
| 29> *
| 30>
| 31> $new_job
| 32> ! ri-mp2 aug-cc-pvtz aug-cc-pvtz/c tightscf
| 33> %pal nprocs 16 end
| 34> %maxcore 3800
| 35> %base "TZ_S66by10_45_0.9_dimer"
| 36>
| 37> *xyz 0 1
| 38> C   -0.60618936    0.05587406    0.58900491
| 39> H   -1.66803667    0.05577624    0.58901162
| 40> C    0.60584873    0.05554087    0.58926624
| 41> H    1.66767817    0.05486328    0.58972794
| 42> C   -2.53042272   -0.34128342    3.88959258
| 43> H   -2.53878935   -1.00323696    3.02318199
| 44> H   -2.58234105   -0.96755264    4.78018336
| 45> H   -3.43283734    0.26762064    3.85683096
| 46> C   -1.26989059    0.51331730    3.90066185
| 47> H   -1.28654226    1.18631652    4.76107097
| 48> H   -1.24462360    1.14753331    3.01186574
| 49> C    0.00002803   -0.32501371    3.94111719
| 50> H    0.00003076   -0.94280335    4.84417858
| 51> H    0.00009512   -1.01331286    3.09187600
| 52> C    1.26992659    0.51336236    3.90074873
| 53> H    1.28655441    1.18632948    4.76117003
| 54> H    1.24478167    1.14753468    3.01194753
| 55> C    2.53044908   -0.34127421    3.88980231
| 56> H    2.53882884   -1.00325697    3.02342324
| 57> H    3.43282785    0.26765713    3.85707595
| 58> H    2.58226631   -0.96748895    4.78043586
| 59> *
| 60>
| 61> $new_job
| 62> ! ri-mp2 aug-cc-pvqz aug-cc-pvqz/c tightscf
| 63> %pal nprocs 16 end
| 64> %maxcore 3800
| 65> %base "QZ_S66by10_45_0.9_dimer"
| 66>
| 67> *xyz 0 1
| 68> C   -0.60618936    0.05587406    0.58900491
| 69> H   -1.66803667    0.05577624    0.58901162
| 70> C    0.60584873    0.05554087    0.58926624
| 71> H    1.66767817    0.05486328    0.58972794
| 72> C   -2.53042272   -0.34128342    3.88959258
| 73> H   -2.53878935   -1.00323696    3.02318199
| 74> H   -2.58234105   -0.96755264    4.78018336
| 75> H   -3.43283734    0.26762064    3.85683096
| 76> C   -1.26989059    0.51331730    3.90066185
| 77> H   -1.28654226    1.18631652    4.76107097
| 78> H   -1.24462360    1.14753331    3.01186574
| 79> C    0.00002803   -0.32501371    3.94111719
| 80> H    0.00003076   -0.94280335    4.84417858
| 81> H    0.00009512   -1.01331286    3.09187600
| 82> C    1.26992659    0.51336236    3.90074873
| 83> H    1.28655441    1.18632948    4.76117003
| 84> H    1.24478167    1.14753468    3.01194753
| 85> C    2.53044908   -0.34127421    3.88980231
| 86> H    2.53882884   -1.00325697    3.02342324
| 87> H    3.43282785    0.26765713    3.85707595
| 88> H    2.58226631   -0.96748895    4.78043586
| 89> *
| 90>
| 91>
| 92>
| 93>
| 94>                          ****END OF INPUT****
 Total Charge           Charge          ....    0
 Multiplicity           Mult            ....    1
 Number of Electrons    NEL             ....   56
MP2 TOTAL ENERGY:     -274.209437388 Eh
FINAL SINGLE POINT ENERGY      -274.209437388274
MP2 TOTAL ENERGY:     -274.477789488 Eh
FINAL SINGLE POINT ENERGY      -274.477789487772

CARTESIAN COORDINATES (ANGSTROEM)
---------------------------------
  C     -0.606189    0.055874    0.589005
  H     -1.668037    0.055776    0.589012
  C      0.605849    0.055541    0.589266
  H      1.667678    0.054863    0.589728
  C     -2.530423   -0.341283    3.889593
  H     -2.538789   -1.003237    3.023182
  H     -2.582341   -0.967553    4.780183
  H     -3.432837    0.267621    3.856831
  C     -1.269891    0.513317    3.900662
  H     -1.286542    1.186317    4.761071
  H     -1.244624    1.147533    3.011866
  C      0.000028   -0.325014    3.941117
  H      0.000031   -0.942803    4.844179
  H      0.000095   -1.013313    3.091876
  C      1.269927    0.513362    3.900749
  H      1.286554    1.186329    4.761170
  H      1.244782    1.147535    3.011948
  C      2.530449   -0.341274    3.889802
  H      2.538829   -1.003257    3.023423
  H      3.432828    0.267657    3.857076
  H      2.582266   -0.967489    4.780436

 Multiplicity           Mult            ....    1
 Number of Electrons    NEL             ....   56
 Basis Dimension        Dim             .... 1204

ORBITAL ENERGIES
----------------

  NO   OCC          E(Eh)            E(eV)
   0   2.0000     -11.245042      -305.9931
   1   2.0000     -11.241426      -305.8948
   2   2.0000     -11.207521      -304.9722
   3   2.0000     -11.207495      -304.9714
   4   2.0000     -11.206022      -304.9314
   5   2.0000     -11.206020      -304.9313
   6   2.0000     -11.202203      -304.8274
   7   2.0000      -1.078247       -29.3406
   8   2.0000      -1.028907       -27.9980
   9   2.0000      -1.013798       -27.5868
  10   2.0000      -0.917148       -24.9569
  11   2.0000      -0.818110       -22.2619
  12   2.0000      -0.781355       -21.2618
  13   2.0000      -0.771229       -20.9862
  14   2.0000      -0.683515       -18.5994
  15   2.0000      -0.644831       -17.5468
  16   2.0000      -0.596854       -16.2412
  17   2.0000      -0.591635       -16.0992
  18   2.0000      -0.551428       -15.0051
  19   2.0000      -0.547440       -14.8966
  20   2.0000      -0.524825       -14.2812
  21   2.0000      -0.493218       -13.4212
  22   2.0000      -0.474696       -12.9171
  23   2.0000      -0.459973       -12.5165
  24   2.0000      -0.458502       -12.4765
  25   2.0000      -0.443954       -12.0806
  26   2.0000      -0.407676       -11.0934
  27   2.0000      -0.406562       -11.0631
  28   0.0000       0.026605         0.7240
  29   0.0000       0.027362         0.7446
  30   0.0000       0.033920         0.9230
  31   0.0000       0.034491         0.9386
  32   0.0000       0.040621         1.1054

MULLIKEN ATOMIC CHARGES
-----------------------
   0 C :   -0.557169
   1 H :    0.525440
   2 C :   -0.556960
   3 H :    0.525462
   4 C :   -0.948971
   5 H :    0.224154
   6 H :    0.255526
   7 H :    0.258450
   8 C :   -0.527347
   9 H :    0.291641
  10 H :    0.251862
  11 C :   -0.153898
  12 H :    0.297553
  13 H :    0.308884
  14 C :   -0.527293
  15 H :    0.291637
  16 H :    0.251821
  17 C :   -0.948966
  18 H :    0.224207
  19 H :    0.258453
  20 H :    0.255513
Sum of atomic charges:    0.0000000

LOEWDIN ATOMIC CHARGES
----------------------
   0 C :    0.516381
   1 H :   -0.435915
   2 C :    0.516361
   3 H :   -0.435937
   4 C :    0.924326
   5 H :   -0.294278
   6 H :   -0.282811
   7 H :   -0.280657
   8 C :    0.488284
   9 H :   -0.265691
  10 H :   -0.312357
  11 C :    0.469163
  12 H :   -0.262204
  13 H :   -0.321491
  14 C :    0.488298
  15 H :   -0.265694
  16 H :   -0.312356
  17 C :    0.924337
  18 H :   -0.294286
  19 H :   -0.280667
  20 H :   -0.282805

  Mayer bond orders larger than 0.100000
B(  0-C ,  1-H ) :   0.7337 B(  0-C ,  2-C ) :   2.5938 B(  2-C ,  3-H ) :   0.7337
B(  4-C ,  5-H ) :   0.9474 B(  4-C ,  6-H ) :   0.9621 B(  4-C ,  7-H ) :   1.0306
B(  4-C ,  8-C ) :   0.9819 B(  4-C , 11-C ) :  -0.1134 B(  8-C ,  9-H ) :   0.8693
B(  8-C , 10-H ) :   0.8896 B(  8-C , 11-C ) :   0.7892 B( 11-C , 12-H ) :   0.8827
B( 11-C , 13-H ) :   0.8595 B( 11-C , 14-C ) :   0.7892 B( 11-C , 17-C ) :  -0.1134
B( 14-C , 15-H ) :   0.8693 B( 14-C , 16-H ) :   0.8896 B( 14-C , 17-C ) :   0.9818
B( 17-C , 18-H ) :   0.9473 B( 17-C , 19-H ) :   1.0306 B( 17-C , 20-H ) :   0.9621

MP2 TOTAL ENERGY:     -274.557390824 Eh
FINAL SINGLE POINT ENERGY      -274.557390823502

DIPOLE MOMENT
-------------
                                X             Y             Z
Electronic contribution:     -0.00034       0.71389      -5.29004
Nuclear contribution   :      0.00032      -0.67888       5.28725
                        -----------------------------------------
Total Dipole Moment    :     -0.00002       0.03501      -0.00279
                        -----------------------------------------
Magnitude (a.u.)       :      0.03512
Magnitude (Debye)      :      0.08928

Rotational constants in cm-1:     0.070260     0.059044     0.034996
Rotational constants in MHz :  2106.350446  1770.104217  1049.150596

                             ****ORCA TERMINATED NORMALLY****
TOTAL RUN TIME: 0 days 4 hours 7 minutes 59 seconds 749 msec
