                         Program Version 5.0.4 -  RELEASE  -
|  1> ! ri-mp2 aug-cc-pvdz aug-cc-pvdz/c tightscf
|  2> %pal nprocs 16 end
|  3> %maxcore 3800
|  4> %base "DZ_S66by10_60_0.7_dimer"
|  5> %scf STABPerform true end
|  6>
|  7> *xyz 0 1
|  8> C   -0.61056257    0.22750310   -0.17060207
|  9> H    0.10738506    0.86143603   -0.63420924
| 10> C   -1.38627573   -0.52532550    0.37997353
| 11> H   -2.08070324   -1.17406739    0.85437937
| 12> C    2.23217639   -0.37374799    0.26919227
| 13> O    1.97799733    0.58235426   -0.42964547
| 14> O    1.28427177   -1.14808821    0.83687888
| 15> H    0.42327238   -0.78078923    0.56910774
| 16> C    3.60781154   -0.85519782    0.61934318
| 17> H    4.34619736   -0.21764773    0.14849286
| 18> H    3.73402206   -0.84334309    1.69937851
| 19> H    3.73008869   -1.88304236    0.28610885
| 20> *
| 21>
| 22> $new_job
| 23> ! ri-mp2 aug-cc-pvtz aug-cc-pvtz/c tightscf
| 24> %pal nprocs 16 end
| 25> %maxcore 3800
| 26> %base "TZ_S66by10_60_0.7_dimer"
| 27>
| 28> *xyz 0 1
| 29> C   -0.61056257    0.22750310   -0.17060207
| 30> H    0.10738506    0.86143603   -0.63420924
| 31> C   -1.38627573   -0.52532550    0.37997353
| 32> H   -2.08070324   -1.17406739    0.85437937
| 33> C    2.23217639   -0.37374799    0.26919227
| 34> O    1.97799733    0.58235426   -0.42964547
| 35> O    1.28427177   -1.14808821    0.83687888
| 36> H    0.42327238   -0.78078923    0.56910774
| 37> C    3.60781154   -0.85519782    0.61934318
| 38> H    4.34619736   -0.21764773    0.14849286
| 39> H    3.73402206   -0.84334309    1.69937851
| 40> H    3.73008869   -1.88304236    0.28610885
| 41> *
| 42>
| 43> $new_job
| 44> ! ri-mp2 aug-cc-pvqz aug-cc-pvqz/c tightscf
| 45> %pal nprocs 16 end
| 46> %maxcore 3800
| 47> %base "QZ_S66by10_60_0.7_dimer"
| 48>
| 49> *xyz 0 1
| 50> C   -0.61056257    0.22750310   -0.17060207
| 51> H    0.10738506    0.86143603   -0.63420924
| 52> C   -1.38627573   -0.52532550    0.37997353
| 53> H   -2.08070324   -1.17406739    0.85437937
| 54> C    2.23217639   -0.37374799    0.26919227
| 55> O    1.97799733    0.58235426   -0.42964547
| 56> O    1.28427177   -1.14808821    0.83687888
| 57> H    0.42327238   -0.78078923    0.56910774
| 58> C    3.60781154   -0.85519782    0.61934318
| 59> H    4.34619736   -0.21764773    0.14849286
| 60> H    3.73402206   -0.84334309    1.69937851
| 61> H    3.73008869   -1.88304236    0.28610885
| 62> *
| 63>
| 64>
| 65>
| 66>
| 67>                          ****END OF INPUT****
 Total Charge           Charge          ....    0
 Multiplicity           Mult            ....    1
 Number of Electrons    NEL             ....   46
MP2 TOTAL ENERGY:     -305.602853643 Eh
FINAL SINGLE POINT ENERGY      -305.602853643258
MP2 TOTAL ENERGY:     -305.874576425 Eh
FINAL SINGLE POINT ENERGY      -305.874576424921

CARTESIAN COORDINATES (ANGSTROEM)
---------------------------------
  C     -0.610563    0.227503   -0.170602
  H      0.107385    0.861436   -0.634209
  C     -1.386276   -0.525326    0.379974
  H     -2.080703   -1.174067    0.854379
  C      2.232176   -0.373748    0.269192
  O      1.977997    0.582354   -0.429645
  O      1.284272   -1.148088    0.836879
  H      0.423272   -0.780789    0.569108
  C      3.607812   -0.855198    0.619343
  H      4.346197   -0.217648    0.148493
  H      3.734022   -0.843343    1.699379
  H      3.730089   -1.883042    0.286109

 Multiplicity           Mult            ....    1
 Number of Electrons    NEL             ....   46
 Basis Dimension        Dim             ....  756

ORBITAL ENERGIES
----------------

  NO   OCC          E(Eh)            E(eV)
   0   2.0000     -20.578462      -559.9684
   1   2.0000     -20.541662      -558.9670
   2   2.0000     -11.383374      -309.7573
   3   2.0000     -11.258219      -306.3517
   4   2.0000     -11.250502      -306.1417
   5   2.0000     -11.236577      -305.7628
   6   2.0000      -1.454239       -39.5718
   7   2.0000      -1.353882       -36.8410
   8   2.0000      -1.063165       -28.9302
   9   2.0000      -1.019173       -27.7331
  10   2.0000      -0.815761       -22.1980
  11   2.0000      -0.784421       -21.3452
  12   2.0000      -0.719397       -19.5758
  13   2.0000      -0.693645       -18.8750
  14   2.0000      -0.657600       -17.8942
  15   2.0000      -0.641857       -17.4658
  16   2.0000      -0.577697       -15.7199
  17   2.0000      -0.571063       -15.5394
  18   2.0000      -0.552200       -15.0261
  19   2.0000      -0.477166       -12.9844
  20   2.0000      -0.458668       -12.4810
  21   2.0000      -0.427492       -11.6326
  22   2.0000      -0.414339       -11.2747
  23   0.0000       0.023827         0.6484
  24   0.0000       0.029245         0.7958
  25   0.0000       0.039115         1.0644
  26   0.0000       0.042388         1.1534
  27   0.0000       0.047564         1.2943

MULLIKEN ATOMIC CHARGES
-----------------------
   0 C :   -0.519578
   1 H :    0.664873
   2 C :   -0.760771
   3 H :    0.508929
   4 C :    0.922766
   5 O :   -0.710309
   6 O :   -0.593587
   7 H :    0.325415
   8 C :   -0.716343
   9 H :    0.307847
  10 H :    0.285421
  11 H :    0.285337
Sum of atomic charges:    0.0000000

LOEWDIN ATOMIC CHARGES
----------------------
   0 C :    0.565588
   1 H :   -0.557705
   2 C :    0.666274
   3 H :   -0.390473
   4 C :   -0.956061
   5 O :    0.778819
   6 O :    1.294349
   7 H :   -1.350470
   8 C :    0.881572
   9 H :   -0.325119
  10 H :   -0.303308
  11 H :   -0.303465

  Mayer bond orders larger than 0.100000
B(  0-C ,  1-H ) :   0.5287 B(  0-C ,  2-C ) :   2.7050 B(  2-C ,  3-H ) :   0.7982
B(  4-C ,  5-O ) :   1.4576 B(  4-C ,  6-O ) :   1.0001 B(  4-C ,  7-H ) :   0.1130
B(  4-C ,  8-C ) :   0.8043 B(  6-O ,  7-H ) :   0.8683 B(  8-C ,  9-H ) :   0.9773
B(  8-C , 10-H ) :   0.9295 B(  8-C , 11-H ) :   0.9303

MP2 TOTAL ENERGY:     -305.961357880 Eh
FINAL SINGLE POINT ENERGY      -305.961357880081

DIPOLE MOMENT
-------------
                                X             Y             Z
Electronic contribution:     -2.58702       1.19692      -0.87183
Nuclear contribution   :      2.52970      -1.72844       1.25986
                        -----------------------------------------
Total Dipole Moment    :     -0.05731      -0.53152       0.38802
                        -----------------------------------------
Magnitude (a.u.)       :      0.66057
Magnitude (Debye)      :      1.67904

Rotational constants in cm-1:     0.305894     0.067333     0.055752
Rotational constants in MHz :  9170.465490  2018.590753  1671.400094

                             ****ORCA TERMINATED NORMALLY****
TOTAL RUN TIME: 0 days 1 hours 53 minutes 48 seconds 942 msec
