                         Program Version 5.0.4 -  RELEASE  -
|  1> ! ri-mp2 aug-cc-pvdz aug-cc-pvdz/c tightscf
|  2> %pal nprocs 16 end
|  3> %maxcore 3800
|  4> %base "DZ_S66by10_30_0.95_dimer"
|  5>
|  6> *xyz 0 1
|  7> C    0.83551718    1.11516693    0.02140131
|  8> H    1.48432398    1.98060858    0.01953430
|  9> C    1.38327497   -0.16614721    0.02376531
| 10> H    2.45714902   -0.29520468    0.02277108
| 11> C    0.54755466   -1.28131632    0.02168563
| 12> H    0.97293610   -2.27580453    0.01977853
| 13> C   -0.83552313   -1.11516159    0.02139907
| 14> H   -1.48433419   -1.98060639    0.01953009
| 15> C   -1.38328358    0.16615413    0.02375775
| 16> H   -2.45715618    0.29520906    0.02275707
| 17> C   -0.54756577    1.28132347    0.02168025
| 18> H   -0.97294284    2.27580548    0.01976873
| 19> C    0.65578013   -0.11679032    3.28295975
| 20> H    1.04724091   -1.12390915    3.27849148
| 21> H    1.37085392    0.69327366    3.27845816
| 22> C   -0.65577639    0.11679231    3.28296864
| 23> H   -1.37084833   -0.69327221    3.27847255
| 24> H   -1.04723949    1.12391121    3.27851044
| 25> *
| 26>
| 27> $new_job
| 28> ! ri-mp2 aug-cc-pvtz aug-cc-pvtz/c tightscf
| 29> %pal nprocs 16 end
| 30> %maxcore 3800
| 31> %base "TZ_S66by10_30_0.95_dimer"
| 32>
| 33> *xyz 0 1
| 34> C    0.83551718    1.11516693    0.02140131
| 35> H    1.48432398    1.98060858    0.01953430
| 36> C    1.38327497   -0.16614721    0.02376531
| 37> H    2.45714902   -0.29520468    0.02277108
| 38> C    0.54755466   -1.28131632    0.02168563
| 39> H    0.97293610   -2.27580453    0.01977853
| 40> C   -0.83552313   -1.11516159    0.02139907
| 41> H   -1.48433419   -1.98060639    0.01953009
| 42> C   -1.38328358    0.16615413    0.02375775
| 43> H   -2.45715618    0.29520906    0.02275707
| 44> C   -0.54756577    1.28132347    0.02168025
| 45> H   -0.97294284    2.27580548    0.01976873
| 46> C    0.65578013   -0.11679032    3.28295975
| 47> H    1.04724091   -1.12390915    3.27849148
| 48> H    1.37085392    0.69327366    3.27845816
| 49> C   -0.65577639    0.11679231    3.28296864
| 50> H   -1.37084833   -0.69327221    3.27847255
| 51> H   -1.04723949    1.12391121    3.27851044
| 52> *
| 53>
| 54> $new_job
| 55> ! ri-mp2 aug-cc-pvqz aug-cc-pvqz/c tightscf
| 56> %pal nprocs 16 end
| 57> %maxcore 3800
| 58> %base "QZ_S66by10_30_0.95_dimer"
| 59>
| 60> *xyz 0 1
| 61> C    0.83551718    1.11516693    0.02140131
| 62> H    1.48432398    1.98060858    0.01953430
| 63> C    1.38327497   -0.16614721    0.02376531
| 64> H    2.45714902   -0.29520468    0.02277108
| 65> C    0.54755466   -1.28131632    0.02168563
| 66> H    0.97293610   -2.27580453    0.01977853
| 67> C   -0.83552313   -1.11516159    0.02139907
| 68> H   -1.48433419   -1.98060639    0.01953009
| 69> C   -1.38328358    0.16615413    0.02375775
| 70> H   -2.45715618    0.29520906    0.02275707
| 71> C   -0.54756577    1.28132347    0.02168025
| 72> H   -0.97294284    2.27580548    0.01976873
| 73> C    0.65578013   -0.11679032    3.28295975
| 74> H    1.04724091   -1.12390915    3.27849148
| 75> H    1.37085392    0.69327366    3.27845816
| 76> C   -0.65577639    0.11679231    3.28296864
| 77> H   -1.37084833   -0.69327221    3.27847255
| 78> H   -1.04723949    1.12391121    3.27851044
| 79> *
| 80>
| 81>
| 82>
| 83>
| 84>                          ****END OF INPUT****
 Total Charge           Charge          ....    0
 Multiplicity           Mult            ....    1
 Number of Electrons    NEL             ....   58
MP2 TOTAL ENERGY:     -309.872831220 Eh
FINAL SINGLE POINT ENERGY      -309.872831220335
MP2 TOTAL ENERGY:     -310.154010354 Eh
FINAL SINGLE POINT ENERGY      -310.154010353629

CARTESIAN COORDINATES (ANGSTROEM)
---------------------------------
  C      0.835517    1.115167    0.021401
  H      1.484324    1.980609    0.019534
  C      1.383275   -0.166147    0.023765
  H      2.457149   -0.295205    0.022771
  C      0.547555   -1.281316    0.021686
  H      0.972936   -2.275805    0.019779
  C     -0.835523   -1.115162    0.021399
  H     -1.484334   -1.980606    0.019530
  C     -1.383284    0.166154    0.023758
  H     -2.457156    0.295209    0.022757
  C     -0.547566    1.281323    0.021680
  H     -0.972943    2.275805    0.019769
  C      0.655780   -0.116790    3.282960
  H      1.047241   -1.123909    3.278491
  H      1.370854    0.693274    3.278458
  C     -0.655776    0.116792    3.282969
  H     -1.370848   -0.693272    3.278473
  H     -1.047239    1.123911    3.278510

 Multiplicity           Mult            ....    1
 Number of Electrons    NEL             ....   58
 Basis Dimension        Dim             .... 1100

ORBITAL ENERGIES
----------------

  NO   OCC          E(Eh)            E(eV)
   0   2.0000     -11.232883      -305.6623
   1   2.0000     -11.232484      -305.6514
   2   2.0000     -11.232072      -305.6402
   3   2.0000     -11.231163      -305.6155
   4   2.0000     -11.230819      -305.6061
   5   2.0000     -11.230365      -305.5938
   6   2.0000     -11.216070      -305.2048
   7   2.0000     -11.214341      -305.1577
   8   2.0000      -1.148180       -31.2436
   9   2.0000      -1.021511       -27.7967
  10   2.0000      -1.012723       -27.5576
  11   2.0000      -1.012602       -27.5543
  12   2.0000      -0.822339       -22.3770
  13   2.0000      -0.822253       -22.3747
  14   2.0000      -0.781661       -21.2701
  15   2.0000      -0.708065       -19.2674
  16   2.0000      -0.642643       -17.4872
  17   2.0000      -0.633021       -17.2254
  18   2.0000      -0.617315       -16.7980
  19   2.0000      -0.586397       -15.9567
  20   2.0000      -0.586305       -15.9542
  21   2.0000      -0.575612       -15.6632
  22   2.0000      -0.503839       -13.7102
  23   2.0000      -0.497079       -13.5262
  24   2.0000      -0.493338       -13.4244
  25   2.0000      -0.493186       -13.4203
  26   2.0000      -0.359316        -9.7775
  27   2.0000      -0.335168        -9.1204
  28   2.0000      -0.334909        -9.1133
  29   0.0000       0.026109         0.7105
  30   0.0000       0.028931         0.7873
  31   0.0000       0.029428         0.8008
  32   0.0000       0.041281         1.1233
  33   0.0000       0.041515         1.1297

MULLIKEN ATOMIC CHARGES
-----------------------
   0 C :   -0.288078
   1 H :    0.321161
   2 C :   -0.332044
   3 H :    0.288987
   4 C :   -0.319886
   5 H :    0.325231
   6 C :   -0.288091
   7 H :    0.321156
   8 C :   -0.332031
   9 H :    0.288989
  10 C :   -0.319899
  11 H :    0.325239
  12 C :   -0.775152
  13 H :    0.396915
  14 H :    0.382873
  15 C :   -0.775159
  16 H :    0.382873
  17 H :    0.396915
Sum of atomic charges:   -0.0000000

LOEWDIN ATOMIC CHARGES
----------------------
   0 C :    0.315115
   1 H :   -0.320094
   2 C :    0.308655
   3 H :   -0.319069
   4 C :    0.314235
   5 H :   -0.320045
   6 C :    0.315111
   7 H :   -0.320089
   8 C :    0.308657
   9 H :   -0.319072
  10 C :    0.314242
  11 H :   -0.320053
  12 C :    0.731286
  13 H :   -0.355056
  14 H :   -0.355026
  15 C :    0.731287
  16 H :   -0.355028
  17 H :   -0.355055

  Mayer bond orders larger than 0.100000
B(  0-C ,  1-H ) :   1.0287 B(  0-C ,  2-C ) :   1.2479 B(  0-C ,  6-C ) :   0.1648
B(  0-C , 10-C ) :   1.2462 B(  2-C ,  3-H ) :   1.0509 B(  2-C ,  4-C ) :   1.2444
B(  2-C ,  8-C ) :   0.1711 B(  4-C ,  5-H ) :   1.0245 B(  4-C ,  6-C ) :   1.2462
B(  4-C , 10-C ) :   0.1445 B(  6-C ,  7-H ) :   1.0287 B(  6-C ,  8-C ) :   1.2479
B(  8-C ,  9-H ) :   1.0509 B(  8-C , 10-C ) :   1.2444 B( 10-C , 11-H ) :   1.0245
B( 12-C , 13-H ) :   0.8300 B( 12-C , 14-H ) :   0.8486 B( 12-C , 15-C ) :   1.9651
B( 15-C , 16-H ) :   0.8486 B( 15-C , 17-H ) :   0.8300

MP2 TOTAL ENERGY:     -310.241779032 Eh
FINAL SINGLE POINT ENERGY      -310.241779032449

DIPOLE MOMENT
-------------
                                X             Y             Z
Electronic contribution:     -0.00001       0.00002      -4.20951
Nuclear contribution   :      0.00001      -0.00001       4.12965
                        -----------------------------------------
Total Dipole Moment    :     -0.00000       0.00000      -0.07986
                        -----------------------------------------
Magnitude (a.u.)       :      0.07986
Magnitude (Debye)      :      0.20298

Rotational constants in cm-1:     0.085514     0.054148     0.051936
Rotational constants in MHz :  2563.643555  1623.330674  1557.013915

                             ****ORCA TERMINATED NORMALLY****
TOTAL RUN TIME: 0 days 0 hours 22 minutes 49 seconds 828 msec
