                         Program Version 5.0.4 -  RELEASE  -
|  1> ! ri-mp2 aug-cc-pvdz aug-cc-pvdz/c tightscf
|  2> %pal nprocs 16 end
|  3> %maxcore 3800
|  4> %base "DZ_S66by10_12_2.0_dimer"
|  5> %scf STABPerform true end
|  6>
|  7> *xyz 0 1
|  8> N   -0.53346397   -0.27959351    0.10699576
|  9> H   -0.62915138   -1.24842455    0.38284867
| 10> H   -1.12260363   -0.16615944   -0.70776410
| 11> C   -1.01690943    0.58848610    1.18737346
| 12> H   -0.91275967    1.62555174    0.87952116
| 13> H   -2.05473726    0.41508213    1.47850360
| 14> H   -0.38502338    0.44880090    2.06061419
| 15> O    3.97391261    1.64560527    0.14135912
| 16> H    3.15639521    1.14933278   -0.03179378
| 17> H    4.55581406    1.38710740   -0.57438697
| 18> *
| 19>
| 20> $new_job
| 21> ! ri-mp2 aug-cc-pvtz aug-cc-pvtz/c tightscf
| 22> %pal nprocs 16 end
| 23> %maxcore 3800
| 24> %base "TZ_S66by10_12_2.0_dimer"
| 25>
| 26> *xyz 0 1
| 27> N   -0.53346397   -0.27959351    0.10699576
| 28> H   -0.62915138   -1.24842455    0.38284867
| 29> H   -1.12260363   -0.16615944   -0.70776410
| 30> C   -1.01690943    0.58848610    1.18737346
| 31> H   -0.91275967    1.62555174    0.87952116
| 32> H   -2.05473726    0.41508213    1.47850360
| 33> H   -0.38502338    0.44880090    2.06061419
| 34> O    3.97391261    1.64560527    0.14135912
| 35> H    3.15639521    1.14933278   -0.03179378
| 36> H    4.55581406    1.38710740   -0.57438697
| 37> *
| 38>
| 39> $new_job
| 40> ! ri-mp2 aug-cc-pvqz aug-cc-pvqz/c tightscf
| 41> %pal nprocs 16 end
| 42> %maxcore 3800
| 43> %base "QZ_S66by10_12_2.0_dimer"
| 44>
| 45> *xyz 0 1
| 46> N   -0.53346397   -0.27959351    0.10699576
| 47> H   -0.62915138   -1.24842455    0.38284867
| 48> H   -1.12260363   -0.16615944   -0.70776410
| 49> C   -1.01690943    0.58848610    1.18737346
| 50> H   -0.91275967    1.62555174    0.87952116
| 51> H   -2.05473726    0.41508213    1.47850360
| 52> H   -0.38502338    0.44880090    2.06061419
| 53> O    3.97391261    1.64560527    0.14135912
| 54> H    3.15639521    1.14933278   -0.03179378
| 55> H    4.55581406    1.38710740   -0.57438697
| 56> *
| 57>
| 58>
| 59>
| 60>
| 61>                          ****END OF INPUT****
 Total Charge           Charge          ....    0
 Multiplicity           Mult            ....    1
 Number of Electrons    NEL             ....   28
MP2 TOTAL ENERGY:     -171.836027064 Eh
FINAL SINGLE POINT ENERGY      -171.836027064038
MP2 TOTAL ENERGY:     -171.997964861 Eh
FINAL SINGLE POINT ENERGY      -171.997964861080

CARTESIAN COORDINATES (ANGSTROEM)
---------------------------------
  N     -0.533464   -0.279594    0.106996
  H     -0.629151   -1.248425    0.382849
  H     -1.122604   -0.166159   -0.707764
  C     -1.016909    0.588486    1.187373
  H     -0.912760    1.625552    0.879521
  H     -2.054737    0.415082    1.478504
  H     -0.385023    0.448801    2.060614
  O      3.973913    1.645605    0.141359
  H      3.156395    1.149333   -0.031794
  H      4.555814    1.387107   -0.574387

 Multiplicity           Mult            ....    1
 Number of Electrons    NEL             ....   28
 Basis Dimension        Dim             ....  562

ORBITAL ENERGIES
----------------

  NO   OCC          E(Eh)            E(eV)
   0   2.0000     -20.556974      -559.3837
   1   2.0000     -15.543867      -422.9701
   2   2.0000     -11.242826      -305.9328
   3   2.0000      -1.340184       -36.4683
   4   2.0000      -1.174626       -31.9632
   5   2.0000      -0.900619       -24.5071
   6   2.0000      -0.703079       -19.1318
   7   2.0000      -0.666549       -18.1377
   8   2.0000      -0.608500       -16.5581
   9   2.0000      -0.575852       -15.6697
  10   2.0000      -0.560125       -15.2418
  11   2.0000      -0.521342       -14.1864
  12   2.0000      -0.500996       -13.6328
  13   2.0000      -0.399732       -10.8772
  14   0.0000       0.023239         0.6324
  15   0.0000       0.033725         0.9177
  16   0.0000       0.038303         1.0423
  17   0.0000       0.038624         1.0510
  18   0.0000       0.049046         1.3346

MULLIKEN ATOMIC CHARGES
-----------------------
   0 N :   -0.633880
   1 H :    0.245826
   2 H :    0.247156
   3 C :   -0.676187
   4 H :    0.269670
   5 H :    0.282417
   6 H :    0.267940
   7 O :   -0.610028
   8 H :    0.307266
   9 H :    0.299821
Sum of atomic charges:    0.0000000

LOEWDIN ATOMIC CHARGES
----------------------
   0 N :    1.250063
   1 H :   -0.532660
   2 H :   -0.532739
   3 C :    0.750343
   4 H :   -0.318377
   5 H :   -0.296691
   6 H :   -0.318239
   7 O :    1.587056
   8 H :   -0.780019
   9 H :   -0.808736

  Mayer bond orders larger than 0.100000
B(  0-N ,  1-H ) :   0.9332 B(  0-N ,  2-H ) :   0.9331 B(  0-N ,  3-C ) :   0.9711
B(  3-C ,  4-H ) :   0.9243 B(  3-C ,  5-H ) :   0.9087 B(  3-C ,  6-H ) :   0.9247
B(  7-O ,  8-H ) :   0.9498 B(  7-O ,  9-H ) :   0.9617

MP2 TOTAL ENERGY:     -172.049574349 Eh
FINAL SINGLE POINT ENERGY      -172.049574349099

DIPOLE MOMENT
-------------
                                X             Y             Z
Electronic contribution:      3.00014       0.39927      -0.84066
Nuclear contribution   :     -3.74243      -1.03522       0.38346
                        -----------------------------------------
Total Dipole Moment    :     -0.74229      -0.63595      -0.45721
                        -----------------------------------------
Magnitude (a.u.)       :      1.07910
Magnitude (Debye)      :      2.74285

Rotational constants in cm-1:     0.726244     0.057565     0.054324
Rotational constants in MHz : 21772.234368  1725.748264  1628.600616

                             ****ORCA TERMINATED NORMALLY****
TOTAL RUN TIME: 0 days 0 hours 11 minutes 2 seconds 198 msec
