                         Program Version 5.0.4 -  RELEASE  -
|  1> ! ri-mp2 aug-cc-pvdz aug-cc-pvdz/c tightscf
|  2> %pal nprocs 16 end
|  3> %maxcore 3800
|  4> %base "DZ_S66by10_37_0.8_dimer"
|  5> %scf STABPerform true end
|  6>
|  7> *xyz 0 1
|  8> C    0.79991408   -1.02205164    0.68773696
|  9> H    0.85355588   -1.12205101   -0.39801435
| 10> H    1.49140210   -1.74416936    1.11972040
| 11> C    1.11688700    0.42495279    1.09966205
| 12> H    1.83814230    0.89014504    0.43045256
| 13> H    1.55556959    0.43982464    2.09708356
| 14> C   -0.24455916    1.16568959    1.10297714
| 15> H   -0.25807760    2.00086313    0.40532333
| 16> H   -0.44880450    1.57699582    2.09098447
| 17> C   -1.29871418    0.10381191    0.73930899
| 18> H   -1.47356078    0.10524338   -0.33800545
| 19> H   -2.25673428    0.27804118    1.22715843
| 20> C   -0.64687993   -1.22006836    1.13630660
| 21> H   -1.12443918   -2.08762702    0.68299327
| 22> H   -0.68601864   -1.34528332    2.22022006
| 23> C    0.03466148    0.06463632    4.93602588
| 24> C   -0.06168272   -0.08744965    6.45166636
| 25> H    0.93086365   -0.10291586    6.90402358
| 26> H   -0.62060749    0.74043485    6.89010127
| 27> H   -0.56884742   -1.01611573    6.71701595
| 28> C    0.74871472    1.37154144    4.60040100
| 29> H    0.83023427    1.50504057    3.52071912
| 30> H    0.20524233    2.22622987    5.00590238
| 31> H    1.75631926    1.38219185    5.01863400
| 32> C   -1.37035034    0.08446097    4.33870636
| 33> H   -1.33341875    0.20165091    3.25485739
| 34> H   -1.95264987    0.91188453    4.74705228
| 35> H   -1.90025340   -0.84332587    4.56003565
| 36> C    0.82256129   -1.10884858    4.35868771
| 37> H    0.32734097   -2.05583932    4.57893085
| 38> H    0.91740446   -1.02166582    3.27555293
| 39> H    1.82727937   -1.14625322    4.78243616
| 40> *
| 41>
| 42> $new_job
| 43> ! ri-mp2 aug-cc-pvtz aug-cc-pvtz/c tightscf
| 44> %pal nprocs 16 end
| 45> %maxcore 3800
| 46> %base "TZ_S66by10_37_0.8_dimer"
| 47>
| 48> *xyz 0 1
| 49> C    0.79991408   -1.02205164    0.68773696
| 50> H    0.85355588   -1.12205101   -0.39801435
| 51> H    1.49140210   -1.74416936    1.11972040
| 52> C    1.11688700    0.42495279    1.09966205
| 53> H    1.83814230    0.89014504    0.43045256
| 54> H    1.55556959    0.43982464    2.09708356
| 55> C   -0.24455916    1.16568959    1.10297714
| 56> H   -0.25807760    2.00086313    0.40532333
| 57> H   -0.44880450    1.57699582    2.09098447
| 58> C   -1.29871418    0.10381191    0.73930899
| 59> H   -1.47356078    0.10524338   -0.33800545
| 60> H   -2.25673428    0.27804118    1.22715843
| 61> C   -0.64687993   -1.22006836    1.13630660
| 62> H   -1.12443918   -2.08762702    0.68299327
| 63> H   -0.68601864   -1.34528332    2.22022006
| 64> C    0.03466148    0.06463632    4.93602588
| 65> C   -0.06168272   -0.08744965    6.45166636
| 66> H    0.93086365   -0.10291586    6.90402358
| 67> H   -0.62060749    0.74043485    6.89010127
| 68> H   -0.56884742   -1.01611573    6.71701595
| 69> C    0.74871472    1.37154144    4.60040100
| 70> H    0.83023427    1.50504057    3.52071912
| 71> H    0.20524233    2.22622987    5.00590238
| 72> H    1.75631926    1.38219185    5.01863400
| 73> C   -1.37035034    0.08446097    4.33870636
| 74> H   -1.33341875    0.20165091    3.25485739
| 75> H   -1.95264987    0.91188453    4.74705228
| 76> H   -1.90025340   -0.84332587    4.56003565
| 77> C    0.82256129   -1.10884858    4.35868771
| 78> H    0.32734097   -2.05583932    4.57893085
| 79> H    0.91740446   -1.02166582    3.27555293
| 80> H    1.82727937   -1.14625322    4.78243616
| 81> *
| 82>
| 83> $new_job
| 84> ! ri-mp2 aug-cc-pvqz aug-cc-pvqz/c tightscf
| 85> %pal nprocs 16 end
| 86> %maxcore 3800
| 87> %base "QZ_S66by10_37_0.8_dimer"
| 88>
| 89> *xyz 0 1
| 90> C    0.79991408   -1.02205164    0.68773696
| 91> H    0.85355588   -1.12205101   -0.39801435
| 92> H    1.49140210   -1.74416936    1.11972040
| 93> C    1.11688700    0.42495279    1.09966205
| 94> H    1.83814230    0.89014504    0.43045256
| 95> H    1.55556959    0.43982464    2.09708356
| 96> C   -0.24455916    1.16568959    1.10297714
| 97> H   -0.25807760    2.00086313    0.40532333
| 98> H   -0.44880450    1.57699582    2.09098447
| 99> C   -1.29871418    0.10381191    0.73930899
|100> H   -1.47356078    0.10524338   -0.33800545
|101> H   -2.25673428    0.27804118    1.22715843
|102> C   -0.64687993   -1.22006836    1.13630660
|103> H   -1.12443918   -2.08762702    0.68299327
|104> H   -0.68601864   -1.34528332    2.22022006
|105> C    0.03466148    0.06463632    4.93602588
|106> C   -0.06168272   -0.08744965    6.45166636
|107> H    0.93086365   -0.10291586    6.90402358
|108> H   -0.62060749    0.74043485    6.89010127
|109> H   -0.56884742   -1.01611573    6.71701595
|110> C    0.74871472    1.37154144    4.60040100
|111> H    0.83023427    1.50504057    3.52071912
|112> H    0.20524233    2.22622987    5.00590238
|113> H    1.75631926    1.38219185    5.01863400
|114> C   -1.37035034    0.08446097    4.33870636
|115> H   -1.33341875    0.20165091    3.25485739
|116> H   -1.95264987    0.91188453    4.74705228
|117> H   -1.90025340   -0.84332587    4.56003565
|118> C    0.82256129   -1.10884858    4.35868771
|119> H    0.32734097   -2.05583932    4.57893085
|120> H    0.91740446   -1.02166582    3.27555293
|121> H    1.82727937   -1.14625322    4.78243616
|122> *
|123>
|124>
|125>
|126>
|127>                          ****END OF INPUT****
 Total Charge           Charge          ....    0
 Multiplicity           Mult            ....    1
 Number of Electrons    NEL             ....   82
MP2 TOTAL ENERGY:     -393.045327191 Eh
FINAL SINGLE POINT ENERGY      -393.045327190704
MP2 TOTAL ENERGY:     -393.427922290 Eh
FINAL SINGLE POINT ENERGY      -393.427922290478

CARTESIAN COORDINATES (ANGSTROEM)
---------------------------------
  C      0.799914   -1.022052    0.687737
  H      0.853556   -1.122051   -0.398014
  H      1.491402   -1.744169    1.119720
  C      1.116887    0.424953    1.099662
  H      1.838142    0.890145    0.430453
  H      1.555570    0.439825    2.097084
  C     -0.244559    1.165690    1.102977
  H     -0.258078    2.000863    0.405323
  H     -0.448804    1.576996    2.090984
  C     -1.298714    0.103812    0.739309
  H     -1.473561    0.105243   -0.338005
  H     -2.256734    0.278041    1.227158
  C     -0.646880   -1.220068    1.136307
  H     -1.124439   -2.087627    0.682993
  H     -0.686019   -1.345283    2.220220
  C      0.034661    0.064636    4.936026
  C     -0.061683   -0.087450    6.451666
  H      0.930864   -0.102916    6.904024
  H     -0.620607    0.740435    6.890101
  H     -0.568847   -1.016116    6.717016
  C      0.748715    1.371541    4.600401
  H      0.830234    1.505041    3.520719
  H      0.205242    2.226230    5.005902
  H      1.756319    1.382192    5.018634
  C     -1.370350    0.084461    4.338706
  H     -1.333419    0.201651    3.254857
  H     -1.952650    0.911885    4.747052
  H     -1.900253   -0.843326    4.560036
  C      0.822561   -1.108849    4.358688
  H      0.327341   -2.055839    4.578931
  H      0.917404   -1.021666    3.275553
  H      1.827279   -1.146253    4.782436

 Multiplicity           Mult            ....    1
 Number of Electrons    NEL             ....   82
 Basis Dimension        Dim             .... 1812

ORBITAL ENERGIES
----------------

  NO   OCC          E(Eh)            E(eV)
   0   2.0000     -11.224880      -305.4445
   1   2.0000     -11.209913      -305.0373
   2   2.0000     -11.209831      -305.0350
   3   2.0000     -11.209099      -305.0151
   4   2.0000     -11.208572      -305.0007
   5   2.0000     -11.206212      -304.9365
   6   2.0000     -11.203190      -304.8543
   7   2.0000     -11.202097      -304.8246
   8   2.0000     -11.201920      -304.8197
   9   2.0000     -11.201584      -304.8106
  10   2.0000      -1.119326       -30.4584
  11   2.0000      -1.104820       -30.0637
  12   2.0000      -0.960021       -26.1235
  13   2.0000      -0.959221       -26.1017
  14   2.0000      -0.928622       -25.2691
  15   2.0000      -0.928175       -25.2569
  16   2.0000      -0.927868       -25.2486
  17   2.0000      -0.779964       -21.2239
  18   2.0000      -0.769799       -20.9473
  19   2.0000      -0.731020       -19.8921
  20   2.0000      -0.661689       -18.0055
  21   2.0000      -0.646110       -17.5815
  22   2.0000      -0.613790       -16.7021
  23   2.0000      -0.612511       -16.6673
  24   2.0000      -0.603971       -16.4349
  25   2.0000      -0.585007       -15.9189
  26   2.0000      -0.580683       -15.8012
  27   2.0000      -0.546397       -14.8682
  28   2.0000      -0.543025       -14.7765
  29   2.0000      -0.508953       -13.8493
  30   2.0000      -0.506900       -13.7935
  31   2.0000      -0.506245       -13.7756
  32   2.0000      -0.477292       -12.9878
  33   2.0000      -0.476471       -12.9654
  34   2.0000      -0.466058       -12.6821
  35   2.0000      -0.465416       -12.6646
  36   2.0000      -0.460771       -12.5382
  37   2.0000      -0.453134       -12.3304
  38   2.0000      -0.451061       -12.2740
  39   2.0000      -0.449474       -12.2308
  40   2.0000      -0.437869       -11.9150
  41   0.0000       0.022177         0.6035
  42   0.0000       0.028429         0.7736
  43   0.0000       0.029133         0.7928
  44   0.0000       0.029430         0.8008
  45   0.0000       0.040170         1.0931

MULLIKEN ATOMIC CHARGES
-----------------------
   0 C :   -0.670640
   1 H :    0.197805
   2 H :    0.279929
   3 C :   -0.547571
   4 H :    0.281310
   5 H :    0.401221
   6 C :   -0.559567
   7 H :    0.279480
   8 H :    0.402815
   9 C :   -0.650714
  10 H :    0.182442
  11 H :    0.286351
  12 C :   -0.546867
  13 H :    0.347609
  14 H :    0.381391
  15 C :    2.065848
  16 C :   -1.206501
  17 H :    0.210574
  18 H :    0.210409
  19 H :    0.198084
  20 C :   -1.239432
  21 H :    0.372246
  22 H :    0.149517
  23 H :    0.144709
  24 C :   -1.087312
  25 H :    0.309345
  26 H :    0.072717
  27 H :    0.214260
  28 C :   -1.082923
  29 H :    0.210219
  30 H :    0.326913
  31 H :    0.066333
Sum of atomic charges:   -0.0000000

LOEWDIN ATOMIC CHARGES
----------------------
   0 C :    0.558909
   1 H :   -0.259409
   2 H :   -0.249944
   3 C :    0.578462
   4 H :   -0.243928
   5 H :   -0.337683
   6 C :    0.581304
   7 H :   -0.245201
   8 H :   -0.333575
   9 C :    0.560199
  10 H :   -0.259249
  11 H :   -0.252962
  12 C :    0.542760
  13 H :   -0.234547
  14 H :   -0.361515
  15 C :   -0.276642
  16 C :    0.910638
  17 H :   -0.270665
  18 H :   -0.270598
  19 H :   -0.269839
  20 C :    0.929436
  21 H :   -0.367742
  22 H :   -0.251641
  23 H :   -0.251708
  24 C :    0.924357
  25 H :   -0.400208
  26 H :   -0.247086
  27 H :   -0.244671
  28 C :    0.925463
  29 H :   -0.245162
  30 H :   -0.389774
  31 H :   -0.247778

  Mayer bond orders larger than 0.100000
B(  0-C ,  1-H ) :   1.0313 B(  0-C ,  2-H ) :   0.9337 B(  0-C ,  3-C ) :   0.8662
B(  0-C , 12-C ) :   0.9156 B(  3-C ,  4-H ) :   0.9883 B(  3-C ,  5-H ) :   0.8776
B(  3-C ,  6-C ) :   0.8046 B(  6-C ,  7-H ) :   0.9869 B(  6-C ,  8-H ) :   0.8794
B(  6-C ,  9-C ) :   0.8614 B(  9-C , 10-H ) :   1.0473 B(  9-C , 11-H ) :   0.9496
B(  9-C , 12-C ) :   0.8845 B( 12-C , 13-H ) :   0.8927 B( 12-C , 14-H ) :   0.8592
B( 15-C , 16-C ) :  -0.1657 B( 15-C , 17-H ) :  -0.2180 B( 15-C , 18-H ) :  -0.2192
B( 15-C , 19-H ) :  -0.2340 B( 15-C , 20-C ) :   0.3188 B( 15-C , 22-H ) :  -0.1169
B( 15-C , 23-H ) :  -0.1170 B( 15-C , 24-C ) :   0.3536 B( 15-C , 28-C ) :   0.3447
B( 16-C , 17-H ) :   1.1258 B( 16-C , 18-H ) :   1.1268 B( 16-C , 19-H ) :   1.1469
B( 16-C , 20-C ) :   0.1835 B( 16-C , 24-C ) :   0.1615 B( 16-C , 28-C ) :   0.1579
B( 20-C , 21-H ) :   0.8509 B( 20-C , 22-H ) :   1.1632 B( 20-C , 23-H ) :   1.1698
B( 24-C , 25-H ) :   0.9131 B( 24-C , 26-H ) :   1.2531 B( 24-C , 27-H ) :   1.0822
B( 24-C , 28-C ) :   0.1102 B( 25-H , 26-H ) :  -0.1016 B( 28-C , 29-H ) :   1.0834
B( 28-C , 30-H ) :   0.9155 B( 28-C , 31-H ) :   1.2591

MP2 TOTAL ENERGY:     -393.541995689 Eh
FINAL SINGLE POINT ENERGY      -393.541995688653

DIPOLE MOMENT
-------------
                                X             Y             Z
Electronic contribution:     -0.10185      -0.20992      -3.23588
Nuclear contribution   :      0.10195       0.20956       3.16777
                        -----------------------------------------
Total Dipole Moment    :      0.00010      -0.00036      -0.06811
                        -----------------------------------------
Magnitude (a.u.)       :      0.06811
Magnitude (Debye)      :      0.17313

Rotational constants in cm-1:     0.068759     0.022313     0.022282
Rotational constants in MHz :  2061.337926   668.926513   668.003817

                             ****ORCA TERMINATED NORMALLY****
TOTAL RUN TIME: 0 days 19 hours 3 minutes 43 seconds 284 msec
