                         Program Version 5.0.4 -  RELEASE  -
|  1> ! ri-mp2 aug-cc-pvdz aug-cc-pvdz/c tightscf
|  2> %pal nprocs 16 end
|  3> %maxcore 3800
|  4> %base "DZ_S66by10_58_1.05_dimer"
|  5>
|  6> *xyz 0 1
|  7> N   -0.94121124    0.79004136    0.01171891
|  8> C   -0.92275524   -0.55237814    0.03537875
|  9> H    0.05724051   -1.01558800    0.05135491
| 10> C   -2.07651907   -1.33301813    0.03929035
| 11> H   -1.99652895   -2.41058573    0.05887720
| 12> C   -3.31631294   -0.70333955    0.01759905
| 13> H   -4.23157489   -1.27908429    0.01979377
| 14> C   -3.34889528    0.68701881   -0.00708596
| 15> H   -4.28544414    1.22610455   -0.02465899
| 16> C   -2.14310382    1.38263356   -0.00889005
| 17> H   -2.13809974    2.46565258   -0.02778297
| 18> N    2.71624585   -0.94516860    0.04227202
| 19> C    3.91802466   -1.53834483    0.04435186
| 20> H    3.91280081   -2.62130729    0.06624102
| 21> C    5.12396090   -0.84338628    0.02035047
| 22> H    6.06039923   -1.38292145    0.02344448
| 23> C    5.09164329    0.54691818   -0.00739624
| 24> H    6.00701823    1.12216923   -0.02657774
| 25> C    3.85196296    1.17720431   -0.00987334
| 26> H    3.77219023    2.25476289   -0.03096191
| 27> C    2.69804939    0.39719469    0.01532033
| 28> H    1.71813899    0.86085727    0.01365748
| 29> *
| 30>
| 31> $new_job
| 32> ! ri-mp2 aug-cc-pvtz aug-cc-pvtz/c tightscf
| 33> %pal nprocs 16 end
| 34> %maxcore 3800
| 35> %base "TZ_S66by10_58_1.05_dimer"
| 36>
| 37> *xyz 0 1
| 38> N   -0.94121124    0.79004136    0.01171891
| 39> C   -0.92275524   -0.55237814    0.03537875
| 40> H    0.05724051   -1.01558800    0.05135491
| 41> C   -2.07651907   -1.33301813    0.03929035
| 42> H   -1.99652895   -2.41058573    0.05887720
| 43> C   -3.31631294   -0.70333955    0.01759905
| 44> H   -4.23157489   -1.27908429    0.01979377
| 45> C   -3.34889528    0.68701881   -0.00708596
| 46> H   -4.28544414    1.22610455   -0.02465899
| 47> C   -2.14310382    1.38263356   -0.00889005
| 48> H   -2.13809974    2.46565258   -0.02778297
| 49> N    2.71624585   -0.94516860    0.04227202
| 50> C    3.91802466   -1.53834483    0.04435186
| 51> H    3.91280081   -2.62130729    0.06624102
| 52> C    5.12396090   -0.84338628    0.02035047
| 53> H    6.06039923   -1.38292145    0.02344448
| 54> C    5.09164329    0.54691818   -0.00739624
| 55> H    6.00701823    1.12216923   -0.02657774
| 56> C    3.85196296    1.17720431   -0.00987334
| 57> H    3.77219023    2.25476289   -0.03096191
| 58> C    2.69804939    0.39719469    0.01532033
| 59> H    1.71813899    0.86085727    0.01365748
| 60> *
| 61>
| 62> $new_job
| 63> ! ri-mp2 aug-cc-pvqz aug-cc-pvqz/c tightscf
| 64> %pal nprocs 16 end
| 65> %maxcore 3800
| 66> %base "QZ_S66by10_58_1.05_dimer"
| 67>
| 68> *xyz 0 1
| 69> N   -0.94121124    0.79004136    0.01171891
| 70> C   -0.92275524   -0.55237814    0.03537875
| 71> H    0.05724051   -1.01558800    0.05135491
| 72> C   -2.07651907   -1.33301813    0.03929035
| 73> H   -1.99652895   -2.41058573    0.05887720
| 74> C   -3.31631294   -0.70333955    0.01759905
| 75> H   -4.23157489   -1.27908429    0.01979377
| 76> C   -3.34889528    0.68701881   -0.00708596
| 77> H   -4.28544414    1.22610455   -0.02465899
| 78> C   -2.14310382    1.38263356   -0.00889005
| 79> H   -2.13809974    2.46565258   -0.02778297
| 80> N    2.71624585   -0.94516860    0.04227202
| 81> C    3.91802466   -1.53834483    0.04435186
| 82> H    3.91280081   -2.62130729    0.06624102
| 83> C    5.12396090   -0.84338628    0.02035047
| 84> H    6.06039923   -1.38292145    0.02344448
| 85> C    5.09164329    0.54691818   -0.00739624
| 86> H    6.00701823    1.12216923   -0.02657774
| 87> C    3.85196296    1.17720431   -0.00987334
| 88> H    3.77219023    2.25476289   -0.03096191
| 89> C    2.69804939    0.39719469    0.01532033
| 90> H    1.71813899    0.86085727    0.01365748
| 91> *
| 92>
| 93>
| 94>
| 95>
| 96>                          ****END OF INPUT****
 Total Charge           Charge          ....    0
 Multiplicity           Mult            ....    1
 Number of Electrons    NEL             ....   84
MP2 TOTAL ENERGY:     -495.134181216 Eh
FINAL SINGLE POINT ENERGY      -495.134181216214
MP2 TOTAL ENERGY:     -495.562140280 Eh
FINAL SINGLE POINT ENERGY      -495.562140280150

CARTESIAN COORDINATES (ANGSTROEM)
---------------------------------
  N     -0.941211    0.790041    0.011719
  C     -0.922755   -0.552378    0.035379
  H      0.057241   -1.015588    0.051355
  C     -2.076519   -1.333018    0.039290
  H     -1.996529   -2.410586    0.058877
  C     -3.316313   -0.703340    0.017599
  H     -4.231575   -1.279084    0.019794
  C     -3.348895    0.687019   -0.007086
  H     -4.285444    1.226105   -0.024659
  C     -2.143104    1.382634   -0.008890
  H     -2.138100    2.465653   -0.027783
  N      2.716246   -0.945169    0.042272
  C      3.918025   -1.538345    0.044352
  H      3.912801   -2.621307    0.066241
  C      5.123961   -0.843386    0.020350
  H      6.060399   -1.382921    0.023444
  C      5.091643    0.546918   -0.007396
  H      6.007018    1.122169   -0.026578
  C      3.851963    1.177204   -0.009873
  H      3.772190    2.254763   -0.030962
  C      2.698049    0.397195    0.015320
  H      1.718139    0.860857    0.013657

 Multiplicity           Mult            ....    1
 Number of Electrons    NEL             ....   84
 Basis Dimension        Dim             .... 1420

ORBITAL ENERGIES
----------------

  NO   OCC          E(Eh)            E(eV)
   0   2.0000     -15.560745      -423.4294
   1   2.0000     -15.560740      -423.4293
   2   2.0000     -11.270571      -306.6878
   3   2.0000     -11.270565      -306.6877
   4   2.0000     -11.265911      -306.5610
   5   2.0000     -11.265905      -306.5609
   6   2.0000     -11.254919      -306.2619
   7   2.0000     -11.254914      -306.2618
   8   2.0000     -11.236626      -305.7641
   9   2.0000     -11.236622      -305.7640
  10   2.0000     -11.234873      -305.7164
  11   2.0000     -11.234867      -305.7163
  12   2.0000      -1.251364       -34.0514
  13   2.0000      -1.250483       -34.0274
  14   2.0000      -1.084828       -29.5197
  15   2.0000      -1.084600       -29.5135
  16   2.0000      -1.028604       -27.9897
  17   2.0000      -1.027538       -27.9607
  18   2.0000      -0.854645       -23.2561
  19   2.0000      -0.853491       -23.2247
  20   2.0000      -0.852355       -23.1938
  21   2.0000      -0.848973       -23.1017
  22   2.0000      -0.720677       -19.6106
  23   2.0000      -0.713260       -19.4088
  24   2.0000      -0.655765       -17.8443
  25   2.0000      -0.655604       -17.8399
  26   2.0000      -0.648558       -17.6482
  27   2.0000      -0.648469       -17.6458
  28   2.0000      -0.594909       -16.1883
  29   2.0000      -0.591916       -16.1068
  30   2.0000      -0.576336       -15.6829
  31   2.0000      -0.568635       -15.4733
  32   2.0000      -0.537062       -14.6142
  33   2.0000      -0.535855       -14.5813
  34   2.0000      -0.514829       -14.0092
  35   2.0000      -0.514034       -13.9876
  36   2.0000      -0.422994       -11.5103
  37   2.0000      -0.409336       -11.1386
  38   2.0000      -0.380634       -10.3576
  39   2.0000      -0.379489       -10.3264
  40   2.0000      -0.342891        -9.3305
  41   2.0000      -0.341949        -9.3049
  42   0.0000       0.022857         0.6220
  43   0.0000       0.024086         0.6554
  44   0.0000       0.027886         0.7588
  45   0.0000       0.034048         0.9265
  46   0.0000       0.034502         0.9388

MULLIKEN ATOMIC CHARGES
-----------------------
   0 N :   -0.605474
   1 C :   -0.252561
   2 H :    0.744862
   3 C :   -0.303449
   4 H :    0.311879
   5 C :   -0.265697
   6 H :    0.329886
   7 C :   -0.208389
   8 H :    0.360171
   9 C :   -0.531816
  10 H :    0.420589
  11 N :   -0.605393
  12 C :   -0.531949
  13 H :    0.420592
  14 C :   -0.208348
  15 H :    0.360170
  16 C :   -0.265800
  17 H :    0.329894
  18 C :   -0.303368
  19 H :    0.311892
  20 C :   -0.252454
  21 H :    0.744764
Sum of atomic charges:   -0.0000000

LOEWDIN ATOMIC CHARGES
----------------------
   0 N :    0.591104
   1 C :    0.075364
   2 H :   -0.396892
   3 C :    0.337533
   4 H :   -0.329663
   5 C :    0.326828
   6 H :   -0.315839
   7 C :    0.325692
   8 H :   -0.332668
   9 C :    0.074666
  10 H :   -0.356165
  11 N :    0.591105
  12 C :    0.074678
  13 H :   -0.356162
  14 C :    0.325702
  15 H :   -0.332678
  16 C :    0.326832
  17 H :   -0.315837
  18 C :    0.337532
  19 H :   -0.329660
  20 C :    0.075371
  21 H :   -0.396845

  Mayer bond orders larger than 0.100000
B(  0-N ,  1-C ) :   1.2118 B(  0-N ,  9-C ) :   1.3203 B(  1-C ,  2-H ) :   0.4125
B(  1-C ,  3-C ) :   1.0837 B(  1-C ,  5-C ) :  -0.2558 B(  2-H ,  3-C ) :  -0.1306
B(  3-C ,  4-H ) :   0.9554 B(  3-C ,  5-C ) :   1.3668 B(  3-C ,  9-C ) :   0.1424
B(  5-C ,  6-H ) :   0.9852 B(  5-C ,  7-C ) :   1.1821 B(  7-C ,  8-H ) :   0.9509
B(  7-C ,  9-C ) :   1.2895 B(  8-H ,  9-C ) :  -0.1180 B(  9-C , 10-H ) :   0.9192
B( 11-N , 12-C ) :   1.3204 B( 11-N , 20-C ) :   1.2119 B( 12-C , 13-H ) :   0.9191
B( 12-C , 14-C ) :   1.2895 B( 12-C , 15-H ) :  -0.1180 B( 12-C , 18-C ) :   0.1424
B( 14-C , 15-H ) :   0.9509 B( 14-C , 16-C ) :   1.1821 B( 16-C , 17-H ) :   0.9852
B( 16-C , 18-C ) :   1.3669 B( 16-C , 20-C ) :  -0.2558 B( 18-C , 19-H ) :   0.9554
B( 18-C , 20-C ) :   1.0836 B( 18-C , 21-H ) :  -0.1306 B( 20-C , 21-H ) :   0.4127

MP2 TOTAL ENERGY:     -495.698859865 Eh
FINAL SINGLE POINT ENERGY      -495.698859864647

DIPOLE MOMENT
-------------
                                X             Y             Z
Electronic contribution:     -0.00002       0.00060       0.02143
Nuclear contribution   :      0.00022      -0.00103      -0.03538
                        -----------------------------------------
Total Dipole Moment    :      0.00020      -0.00043      -0.01396
                        -----------------------------------------
Magnitude (a.u.)       :      0.01396
Magnitude (Debye)      :      0.03550

Rotational constants in cm-1:     0.099773     0.010500     0.009500
Rotational constants in MHz :  2991.105382   314.783651   284.814257

                             ****ORCA TERMINATED NORMALLY****
TOTAL RUN TIME: 0 days 1 hours 10 minutes 2 seconds 533 msec
