                         Program Version 5.0.4 -  RELEASE  -
|  1> ! ri-mp2 aug-cc-pvdz aug-cc-pvdz/c tightscf
|  2> %pal nprocs 16 end
|  3> %maxcore 3800
|  4> %base "DZ_S66by10_13_1.0_dimer"
|  5> %scf STABPerform true end
|  6>
|  7> *xyz 0 1
|  8> C   -0.84931672   -0.33949876    2.49171664
|  9> H    0.18434396   -0.01104732    2.41618542
| 10> H   -0.88249791   -1.34205140    2.91270310
| 11> H   -1.39080263    0.31687828    3.16842897
| 12> C   -1.56403192   -0.35332311    1.15947545
| 13> O   -2.74952638   -0.65153776    1.05676087
| 14> N   -0.80165352   -0.02735461    0.08834167
| 15> H    0.16118756    0.24036035    0.21871364
| 16> C   -1.38534986   -0.00235149   -1.23413683
| 17> H   -1.89161720   -0.94280123   -1.44009631
| 18> H   -2.11997230    0.79621180   -1.33087952
| 19> H   -0.59464593    0.14957065   -1.96312772
| 20> O    2.16185470    0.25216362    0.45666713
| 21> H    2.88270951    0.87946324    0.54708194
| 22> C    2.68093886   -1.05320203    0.69054892
| 23> H    1.84836736   -1.74198973    0.58497235
| 24> H    3.44707762   -1.32219478   -0.03633185
| 25> H    3.08903591   -1.15465123    1.69618341
| 26> *
| 27>
| 28> $new_job
| 29> ! ri-mp2 aug-cc-pvtz aug-cc-pvtz/c tightscf
| 30> %pal nprocs 16 end
| 31> %maxcore 3800
| 32> %base "TZ_S66by10_13_1.0_dimer"
| 33>
| 34> *xyz 0 1
| 35> C   -0.84931672   -0.33949876    2.49171664
| 36> H    0.18434396   -0.01104732    2.41618542
| 37> H   -0.88249791   -1.34205140    2.91270310
| 38> H   -1.39080263    0.31687828    3.16842897
| 39> C   -1.56403192   -0.35332311    1.15947545
| 40> O   -2.74952638   -0.65153776    1.05676087
| 41> N   -0.80165352   -0.02735461    0.08834167
| 42> H    0.16118756    0.24036035    0.21871364
| 43> C   -1.38534986   -0.00235149   -1.23413683
| 44> H   -1.89161720   -0.94280123   -1.44009631
| 45> H   -2.11997230    0.79621180   -1.33087952
| 46> H   -0.59464593    0.14957065   -1.96312772
| 47> O    2.16185470    0.25216362    0.45666713
| 48> H    2.88270951    0.87946324    0.54708194
| 49> C    2.68093886   -1.05320203    0.69054892
| 50> H    1.84836736   -1.74198973    0.58497235
| 51> H    3.44707762   -1.32219478   -0.03633185
| 52> H    3.08903591   -1.15465123    1.69618341
| 53> *
| 54>
| 55> $new_job
| 56> ! ri-mp2 aug-cc-pvqz aug-cc-pvqz/c tightscf
| 57> %pal nprocs 16 end
| 58> %maxcore 3800
| 59> %base "QZ_S66by10_13_1.0_dimer"
| 60>
| 61> *xyz 0 1
| 62> C   -0.84931672   -0.33949876    2.49171664
| 63> H    0.18434396   -0.01104732    2.41618542
| 64> H   -0.88249791   -1.34205140    2.91270310
| 65> H   -1.39080263    0.31687828    3.16842897
| 66> C   -1.56403192   -0.35332311    1.15947545
| 67> O   -2.74952638   -0.65153776    1.05676087
| 68> N   -0.80165352   -0.02735461    0.08834167
| 69> H    0.16118756    0.24036035    0.21871364
| 70> C   -1.38534986   -0.00235149   -1.23413683
| 71> H   -1.89161720   -0.94280123   -1.44009631
| 72> H   -2.11997230    0.79621180   -1.33087952
| 73> H   -0.59464593    0.14957065   -1.96312772
| 74> O    2.16185470    0.25216362    0.45666713
| 75> H    2.88270951    0.87946324    0.54708194
| 76> C    2.68093886   -1.05320203    0.69054892
| 77> H    1.84836736   -1.74198973    0.58497235
| 78> H    3.44707762   -1.32219478   -0.03633185
| 79> H    3.08903591   -1.15465123    1.69618341
| 80> *
| 81>
| 82>
| 83>
| 84>
| 85>                          ****END OF INPUT****
 Total Charge           Charge          ....    0
 Multiplicity           Mult            ....    1
 Number of Electrons    NEL             ....   58
MP2 TOTAL ENERGY:     -363.279981307 Eh
FINAL SINGLE POINT ENERGY      -363.279981307276
MP2 TOTAL ENERGY:     -363.610590159 Eh
FINAL SINGLE POINT ENERGY      -363.610590159224

CARTESIAN COORDINATES (ANGSTROEM)
---------------------------------
  C     -0.849317   -0.339499    2.491717
  H      0.184344   -0.011047    2.416185
  H     -0.882498   -1.342051    2.912703
  H     -1.390803    0.316878    3.168429
  C     -1.564032   -0.353323    1.159475
  O     -2.749526   -0.651538    1.056761
  N     -0.801654   -0.027355    0.088342
  H      0.161188    0.240360    0.218714
  C     -1.385350   -0.002351   -1.234137
  H     -1.891617   -0.942801   -1.440096
  H     -2.119972    0.796212   -1.330880
  H     -0.594646    0.149571   -1.963128
  O      2.161855    0.252164    0.456667
  H      2.882710    0.879463    0.547082
  C      2.680939   -1.053202    0.690549
  H      1.848367   -1.741990    0.584972
  H      3.447078   -1.322195   -0.036332
  H      3.089036   -1.154651    1.696183

 Multiplicity           Mult            ....    1
 Number of Electrons    NEL             ....   58
 Basis Dimension        Dim             .... 1066

ORBITAL ENERGIES
----------------

  NO   OCC          E(Eh)            E(eV)
   0   2.0000     -20.587217      -560.2067
   1   2.0000     -20.493537      -557.6575
   2   2.0000     -15.562148      -423.4676
   3   2.0000     -11.328638      -308.2679
   4   2.0000     -11.291327      -307.2526
   5   2.0000     -11.242684      -305.9290
   6   2.0000     -11.220487      -305.3250
   7   2.0000      -1.388395       -37.7802
   8   2.0000      -1.357210       -36.9316
   9   2.0000      -1.211440       -32.9650
  10   2.0000      -1.003996       -27.3201
  11   2.0000      -0.950676       -25.8692
  12   2.0000      -0.917409       -24.9640
  13   2.0000      -0.776654       -21.1338
  14   2.0000      -0.720105       -19.5951
  15   2.0000      -0.674760       -18.3612
  16   2.0000      -0.648122       -17.6363
  17   2.0000      -0.636629       -17.3236
  18   2.0000      -0.621718       -16.9178
  19   2.0000      -0.617855       -16.8127
  20   2.0000      -0.571248       -15.5445
  21   2.0000      -0.564750       -15.3676
  22   2.0000      -0.546668       -14.8756
  23   2.0000      -0.535289       -14.5660
  24   2.0000      -0.526753       -14.3337
  25   2.0000      -0.485746       -13.2178
  26   2.0000      -0.481714       -13.1081
  27   2.0000      -0.405857       -11.0439
  28   2.0000      -0.375214       -10.2101
  29   0.0000       0.015595         0.4244
  30   0.0000       0.029075         0.7912
  31   0.0000       0.029207         0.7948
  32   0.0000       0.036436         0.9915
  33   0.0000       0.046156         1.2560

MULLIKEN ATOMIC CHARGES
-----------------------
   0 C :   -0.849889
   1 H :    0.293528
   2 H :    0.250389
   3 H :    0.277242
   4 C :    0.970832
   5 O :   -0.898346
   6 N :   -0.501851
   7 H :    0.349813
   8 C :   -0.865920
   9 H :    0.314244
  10 H :    0.328927
  11 H :    0.331977
  12 O :   -0.671762
  13 H :    0.315914
  14 C :   -0.685275
  15 H :    0.305508
  16 H :    0.431878
  17 H :    0.302792
Sum of atomic charges:   -0.0000000

LOEWDIN ATOMIC CHARGES
----------------------
   0 C :    0.887629
   1 H :   -0.335129
   2 H :   -0.297725
   3 H :   -0.299936
   4 C :   -0.850521
   5 O :    0.687551
   6 N :    0.812153
   7 H :   -0.679894
   8 C :    0.769681
   9 H :   -0.306547
  10 H :   -0.288784
  11 H :   -0.296762
  12 O :    1.284379
  13 H :   -0.759271
  14 C :    0.619934
  15 H :   -0.334148
  16 H :   -0.306290
  17 H :   -0.306321

  Mayer bond orders larger than 0.100000
B(  0-C ,  1-H ) :   0.9599 B(  0-C ,  2-H ) :   0.9526 B(  0-C ,  3-H ) :   0.9572
B(  0-C ,  4-C ) :   0.8783 B(  0-C ,  5-O ) :   0.1023 B(  4-C ,  5-O ) :   1.1461
B(  4-C ,  6-N ) :   1.2137 B(  5-O ,  6-N ) :   0.2672 B(  6-N ,  7-H ) :   0.8461
B(  6-N ,  8-C ) :   0.8427 B(  8-C ,  9-H ) :   0.9346 B(  8-C , 10-H ) :   0.9281
B(  8-C , 11-H ) :   0.9046 B( 12-O , 13-H ) :   0.9212 B( 12-O , 14-C ) :   0.8222
B( 14-C , 15-H ) :   0.8954 B( 14-C , 16-H ) :   0.7964 B( 14-C , 17-H ) :   0.9080

MP2 TOTAL ENERGY:     -363.715345575 Eh
FINAL SINGLE POINT ENERGY      -363.715345575406

DIPOLE MOMENT
-------------
                                X             Y             Z
Electronic contribution:     -4.72952       1.03485       0.42194
Nuclear contribution   :      7.31179      -0.73726      -0.47745
                        -----------------------------------------
Total Dipole Moment    :      2.58227       0.29759      -0.05551
                        -----------------------------------------
Magnitude (a.u.)       :      2.59995
Magnitude (Debye)      :      6.60855

Rotational constants in cm-1:     0.112097     0.041026     0.032576
Rotational constants in MHz :  3360.586610  1229.936048   976.602020

                             ****ORCA TERMINATED NORMALLY****
TOTAL RUN TIME: 0 days 1 hours 59 minutes 41 seconds 194 msec
