                         Program Version 5.0.4 -  RELEASE  -
|  1> ! ri-mp2 aug-cc-pvdz aug-cc-pvdz/c tightscf
|  2> %pal nprocs 16 end
|  3> %maxcore 3800
|  4> %base "DZ_S66by10_45_0.8_dimer"
|  5> %scf STABPerform true end
|  6>
|  7> *xyz 0 1
|  8> C   -0.60618936    0.05587406    0.58900491
|  9> H   -1.66803667    0.05577624    0.58901162
| 10> C    0.60584873    0.05554087    0.58926624
| 11> H    1.66767817    0.05486328    0.58972794
| 12> C   -2.53044163   -0.33507822    3.55893265
| 13> H   -2.53880826   -0.99703175    2.69252206
| 14> H   -2.58235996   -0.96134743    4.44952342
| 15> H   -3.43285625    0.27382584    3.52617102
| 16> C   -1.26990950    0.51952250    3.57000192
| 17> H   -1.28656117    1.19252172    4.43041104
| 18> H   -1.24464252    1.15373851    2.68120581
| 19> C    0.00000912   -0.31880850    3.61045725
| 20> H    0.00001185   -0.93659815    4.51351865
| 21> H    0.00007621   -1.00710766    2.76121606
| 22> C    1.26990767    0.51956757    3.57008879
| 23> H    1.28653550    1.19253468    4.43051010
| 24> H    1.24476276    1.15373989    2.68128760
| 25> C    2.53043017   -0.33506901    3.55914238
| 26> H    2.53880993   -0.99705177    2.69276330
| 27> H    3.43280894    0.27386233    3.52641602
| 28> H    2.58224740   -0.96128375    4.44977592
| 29> *
| 30>
| 31> $new_job
| 32> ! ri-mp2 aug-cc-pvtz aug-cc-pvtz/c tightscf
| 33> %pal nprocs 16 end
| 34> %maxcore 3800
| 35> %base "TZ_S66by10_45_0.8_dimer"
| 36>
| 37> *xyz 0 1
| 38> C   -0.60618936    0.05587406    0.58900491
| 39> H   -1.66803667    0.05577624    0.58901162
| 40> C    0.60584873    0.05554087    0.58926624
| 41> H    1.66767817    0.05486328    0.58972794
| 42> C   -2.53044163   -0.33507822    3.55893265
| 43> H   -2.53880826   -0.99703175    2.69252206
| 44> H   -2.58235996   -0.96134743    4.44952342
| 45> H   -3.43285625    0.27382584    3.52617102
| 46> C   -1.26990950    0.51952250    3.57000192
| 47> H   -1.28656117    1.19252172    4.43041104
| 48> H   -1.24464252    1.15373851    2.68120581
| 49> C    0.00000912   -0.31880850    3.61045725
| 50> H    0.00001185   -0.93659815    4.51351865
| 51> H    0.00007621   -1.00710766    2.76121606
| 52> C    1.26990767    0.51956757    3.57008879
| 53> H    1.28653550    1.19253468    4.43051010
| 54> H    1.24476276    1.15373989    2.68128760
| 55> C    2.53043017   -0.33506901    3.55914238
| 56> H    2.53880993   -0.99705177    2.69276330
| 57> H    3.43280894    0.27386233    3.52641602
| 58> H    2.58224740   -0.96128375    4.44977592
| 59> *
| 60>
| 61> $new_job
| 62> ! ri-mp2 aug-cc-pvqz aug-cc-pvqz/c tightscf
| 63> %pal nprocs 16 end
| 64> %maxcore 3800
| 65> %base "QZ_S66by10_45_0.8_dimer"
| 66>
| 67> *xyz 0 1
| 68> C   -0.60618936    0.05587406    0.58900491
| 69> H   -1.66803667    0.05577624    0.58901162
| 70> C    0.60584873    0.05554087    0.58926624
| 71> H    1.66767817    0.05486328    0.58972794
| 72> C   -2.53044163   -0.33507822    3.55893265
| 73> H   -2.53880826   -0.99703175    2.69252206
| 74> H   -2.58235996   -0.96134743    4.44952342
| 75> H   -3.43285625    0.27382584    3.52617102
| 76> C   -1.26990950    0.51952250    3.57000192
| 77> H   -1.28656117    1.19252172    4.43041104
| 78> H   -1.24464252    1.15373851    2.68120581
| 79> C    0.00000912   -0.31880850    3.61045725
| 80> H    0.00001185   -0.93659815    4.51351865
| 81> H    0.00007621   -1.00710766    2.76121606
| 82> C    1.26990767    0.51956757    3.57008879
| 83> H    1.28653550    1.19253468    4.43051010
| 84> H    1.24476276    1.15373989    2.68128760
| 85> C    2.53043017   -0.33506901    3.55914238
| 86> H    2.53880993   -0.99705177    2.69276330
| 87> H    3.43280894    0.27386233    3.52641602
| 88> H    2.58224740   -0.96128375    4.44977592
| 89> *
| 90>
| 91>
| 92>
| 93>
| 94>                          ****END OF INPUT****
 Total Charge           Charge          ....    0
 Multiplicity           Mult            ....    1
 Number of Electrons    NEL             ....   56
MP2 TOTAL ENERGY:     -274.204573344 Eh
FINAL SINGLE POINT ENERGY      -274.204573343587
MP2 TOTAL ENERGY:     -274.473071340 Eh
FINAL SINGLE POINT ENERGY      -274.473071340061

CARTESIAN COORDINATES (ANGSTROEM)
---------------------------------
  C     -0.606189    0.055874    0.589005
  H     -1.668037    0.055776    0.589012
  C      0.605849    0.055541    0.589266
  H      1.667678    0.054863    0.589728
  C     -2.530442   -0.335078    3.558933
  H     -2.538808   -0.997032    2.692522
  H     -2.582360   -0.961347    4.449523
  H     -3.432856    0.273826    3.526171
  C     -1.269909    0.519522    3.570002
  H     -1.286561    1.192522    4.430411
  H     -1.244643    1.153739    2.681206
  C      0.000009   -0.318808    3.610457
  H      0.000012   -0.936598    4.513519
  H      0.000076   -1.007108    2.761216
  C      1.269908    0.519568    3.570089
  H      1.286536    1.192535    4.430510
  H      1.244763    1.153740    2.681288
  C      2.530430   -0.335069    3.559142
  H      2.538810   -0.997052    2.692763
  H      3.432809    0.273862    3.526416
  H      2.582247   -0.961284    4.449776

 Multiplicity           Mult            ....    1
 Number of Electrons    NEL             ....   56
 Basis Dimension        Dim             .... 1204

ORBITAL ENERGIES
----------------

  NO   OCC          E(Eh)            E(eV)
   0   2.0000     -11.241952      -305.9091
   1   2.0000     -11.238333      -305.8106
   2   2.0000     -11.207373      -304.9681
   3   2.0000     -11.207363      -304.9679
   4   2.0000     -11.206748      -304.9511
   5   2.0000     -11.206740      -304.9509
   6   2.0000     -11.200134      -304.7712
   7   2.0000      -1.079739       -29.3812
   8   2.0000      -1.027446       -27.9582
   9   2.0000      -1.014854       -27.6156
  10   2.0000      -0.917771       -24.9738
  11   2.0000      -0.819127       -22.2896
  12   2.0000      -0.781696       -21.2710
  13   2.0000      -0.771384       -20.9904
  14   2.0000      -0.684507       -18.6264
  15   2.0000      -0.644810       -17.5462
  16   2.0000      -0.597450       -16.2575
  17   2.0000      -0.591871       -16.1056
  18   2.0000      -0.551844       -15.0164
  19   2.0000      -0.548363       -14.9217
  20   2.0000      -0.526466       -14.3259
  21   2.0000      -0.493841       -13.4381
  22   2.0000      -0.476017       -12.9531
  23   2.0000      -0.463088       -12.6013
  24   2.0000      -0.460661       -12.5352
  25   2.0000      -0.444104       -12.0847
  26   2.0000      -0.402284       -10.9467
  27   2.0000      -0.399987       -10.8842
  28   0.0000       0.026568         0.7230
  29   0.0000       0.027491         0.7481
  30   0.0000       0.033596         0.9142
  31   0.0000       0.034475         0.9381
  32   0.0000       0.041143         1.1196

MULLIKEN ATOMIC CHARGES
-----------------------
   0 C :   -0.549370
   1 H :    0.472021
   2 C :   -0.549082
   3 H :    0.472142
   4 C :   -0.961240
   5 H :    0.219457
   6 H :    0.250798
   7 H :    0.262126
   8 C :   -0.489909
   9 H :    0.286268
  10 H :    0.255516
  11 C :   -0.130494
  12 H :    0.308488
  13 H :    0.330197
  14 C :   -0.489840
  15 H :    0.286257
  16 H :    0.255447
  17 C :   -0.961186
  18 H :    0.219523
  19 H :    0.262116
  20 H :    0.250765
Sum of atomic charges:    0.0000000

LOEWDIN ATOMIC CHARGES
----------------------
   0 C :    0.537325
   1 H :   -0.414058
   2 C :    0.537288
   3 H :   -0.414095
   4 C :    0.927533
   5 H :   -0.299364
   6 H :   -0.280315
   7 H :   -0.277585
   8 C :    0.485847
   9 H :   -0.261673
  10 H :   -0.340435
  11 C :    0.462779
  12 H :   -0.258618
  13 H :   -0.358672
  14 C :    0.485864
  15 H :   -0.261676
  16 H :   -0.340418
  17 C :    0.927549
  18 H :   -0.299375
  19 H :   -0.277592
  20 H :   -0.280307

  Mayer bond orders larger than 0.100000
B(  0-C ,  1-H ) :   0.8013 B(  0-C ,  2-C ) :   2.6402 B(  2-C ,  3-H ) :   0.8011
B(  4-C ,  5-H ) :   0.9596 B(  4-C ,  6-H ) :   0.9737 B(  4-C ,  7-H ) :   1.0251
B(  4-C ,  8-C ) :   0.9523 B(  4-C , 11-C ) :  -0.1073 B(  8-C ,  9-H ) :   0.8872
B(  8-C , 10-H ) :   0.9012 B(  8-C , 11-C ) :   0.7776 B( 11-C , 12-H ) :   0.8932
B( 11-C , 13-H ) :   0.8581 B( 11-C , 14-C ) :   0.7775 B( 11-C , 17-C ) :  -0.1073
B( 14-C , 15-H ) :   0.8872 B( 14-C , 16-H ) :   0.9013 B( 14-C , 17-C ) :   0.9522
B( 17-C , 18-H ) :   0.9596 B( 17-C , 19-H ) :   1.0251 B( 17-C , 20-H ) :   0.9737

MP2 TOTAL ENERGY:     -274.552639393 Eh
FINAL SINGLE POINT ENERGY      -274.552639393072

DIPOLE MOMENT
-------------
                                X             Y             Z
Electronic contribution:     -0.00031       0.70457      -4.72342
Nuclear contribution   :      0.00029      -0.66891       4.75599
                        -----------------------------------------
Total Dipole Moment    :     -0.00002       0.03566       0.03257
                        -----------------------------------------
Magnitude (a.u.)       :      0.04830
Magnitude (Debye)      :      0.12276

Rotational constants in cm-1:     0.084259     0.059044     0.038153
Rotational constants in MHz :  2526.014971  1770.105335  1143.800942

                             ****ORCA TERMINATED NORMALLY****
TOTAL RUN TIME: 0 days 4 hours 7 minutes 58 seconds 705 msec
