                         Program Version 5.0.4 -  RELEASE  -
|  1> ! ri-mp2 aug-cc-pvdz aug-cc-pvdz/c tightscf
|  2> %pal nprocs 16 end
|  3> %maxcore 3800
|  4> %base "DZ_S66by10_42_0.9_dimer"
|  5> %scf STABPerform true end
|  6>
|  7> *xyz 0 1
|  8> N    0.19572959   -0.84468925    0.82384642
|  9> H    0.45039753   -1.79675294    1.04976794
| 10> C   -1.17904919   -0.57368440    0.75948349
| 11> O   -1.99364624   -1.45626527    0.96690066
| 12> C   -1.47671471    0.81115567    0.43755952
| 13> H   -2.50635592    1.11565059    0.36389469
| 14> C   -0.46811280    1.68296245    0.23489084
| 15> H   -0.63843522    2.72164296   -0.00616410
| 16> N    0.84562854    1.30599113    0.32683051
| 17> H    1.58969256    1.96887924    0.18595979
| 18> C    1.25426147    0.01946187    0.63624397
| 19> O    2.42230438   -0.30171639    0.73187948
| 20> C    1.04809438   -0.85880865    4.11874865
| 21> H    1.50194689   -0.95086488    3.13076609
| 22> H    1.59259688   -1.52278891    4.78794632
| 23> C    1.10240785    0.60714336    4.55168463
| 24> H    2.06069784    1.08004229    4.34096034
| 25> H    0.91429257    0.68878090    5.62490776
| 26> C   -0.06494373    1.21995783    3.78091343
| 27> H    0.20936055    1.30873944    2.72744181
| 28> H   -0.34935816    2.21109896    4.13254744
| 29> C   -1.18188822    0.18238592    3.95194174
| 30> H   -1.90742750    0.20599978    3.14056983
| 31> H   -1.72597385    0.38708308    4.87419036
| 32> C   -0.45885188   -1.18416191    4.05559863
| 33> H   -0.70151642   -1.82831803    3.21223896
| 34> H   -0.77395810   -1.71156432    4.95468505
| 35> *
| 36>
| 37> $new_job
| 38> ! ri-mp2 aug-cc-pvtz aug-cc-pvtz/c tightscf
| 39> %pal nprocs 16 end
| 40> %maxcore 3800
| 41> %base "TZ_S66by10_42_0.9_dimer"
| 42>
| 43> *xyz 0 1
| 44> N    0.19572959   -0.84468925    0.82384642
| 45> H    0.45039753   -1.79675294    1.04976794
| 46> C   -1.17904919   -0.57368440    0.75948349
| 47> O   -1.99364624   -1.45626527    0.96690066
| 48> C   -1.47671471    0.81115567    0.43755952
| 49> H   -2.50635592    1.11565059    0.36389469
| 50> C   -0.46811280    1.68296245    0.23489084
| 51> H   -0.63843522    2.72164296   -0.00616410
| 52> N    0.84562854    1.30599113    0.32683051
| 53> H    1.58969256    1.96887924    0.18595979
| 54> C    1.25426147    0.01946187    0.63624397
| 55> O    2.42230438   -0.30171639    0.73187948
| 56> C    1.04809438   -0.85880865    4.11874865
| 57> H    1.50194689   -0.95086488    3.13076609
| 58> H    1.59259688   -1.52278891    4.78794632
| 59> C    1.10240785    0.60714336    4.55168463
| 60> H    2.06069784    1.08004229    4.34096034
| 61> H    0.91429257    0.68878090    5.62490776
| 62> C   -0.06494373    1.21995783    3.78091343
| 63> H    0.20936055    1.30873944    2.72744181
| 64> H   -0.34935816    2.21109896    4.13254744
| 65> C   -1.18188822    0.18238592    3.95194174
| 66> H   -1.90742750    0.20599978    3.14056983
| 67> H   -1.72597385    0.38708308    4.87419036
| 68> C   -0.45885188   -1.18416191    4.05559863
| 69> H   -0.70151642   -1.82831803    3.21223896
| 70> H   -0.77395810   -1.71156432    4.95468505
| 71> *
| 72>
| 73> $new_job
| 74> ! ri-mp2 aug-cc-pvqz aug-cc-pvqz/c tightscf
| 75> %pal nprocs 16 end
| 76> %maxcore 3800
| 77> %base "QZ_S66by10_42_0.9_dimer"
| 78>
| 79> *xyz 0 1
| 80> N    0.19572959   -0.84468925    0.82384642
| 81> H    0.45039753   -1.79675294    1.04976794
| 82> C   -1.17904919   -0.57368440    0.75948349
| 83> O   -1.99364624   -1.45626527    0.96690066
| 84> C   -1.47671471    0.81115567    0.43755952
| 85> H   -2.50635592    1.11565059    0.36389469
| 86> C   -0.46811280    1.68296245    0.23489084
| 87> H   -0.63843522    2.72164296   -0.00616410
| 88> N    0.84562854    1.30599113    0.32683051
| 89> H    1.58969256    1.96887924    0.18595979
| 90> C    1.25426147    0.01946187    0.63624397
| 91> O    2.42230438   -0.30171639    0.73187948
| 92> C    1.04809438   -0.85880865    4.11874865
| 93> H    1.50194689   -0.95086488    3.13076609
| 94> H    1.59259688   -1.52278891    4.78794632
| 95> C    1.10240785    0.60714336    4.55168463
| 96> H    2.06069784    1.08004229    4.34096034
| 97> H    0.91429257    0.68878090    5.62490776
| 98> C   -0.06494373    1.21995783    3.78091343
| 99> H    0.20936055    1.30873944    2.72744181
|100> H   -0.34935816    2.21109896    4.13254744
|101> C   -1.18188822    0.18238592    3.95194174
|102> H   -1.90742750    0.20599978    3.14056983
|103> H   -1.72597385    0.38708308    4.87419036
|104> C   -0.45885188   -1.18416191    4.05559863
|105> H   -0.70151642   -1.82831803    3.21223896
|106> H   -0.77395810   -1.71156432    4.95468505
|107> *
|108>
|109>
|110>
|111>
|112>                          ****END OF INPUT****
 Total Charge           Charge          ....    0
 Multiplicity           Mult            ....    1
 Number of Electrons    NEL             ....   98
MP2 TOTAL ENERGY:     -609.712227640 Eh
FINAL SINGLE POINT ENERGY      -609.712227640328
MP2 TOTAL ENERGY:     -610.245800134 Eh
FINAL SINGLE POINT ENERGY      -610.245800134447

CARTESIAN COORDINATES (ANGSTROEM)
---------------------------------
  N      0.195730   -0.844689    0.823846
  H      0.450398   -1.796753    1.049768
  C     -1.179049   -0.573684    0.759483
  O     -1.993646   -1.456265    0.966901
  C     -1.476715    0.811156    0.437560
  H     -2.506356    1.115651    0.363895
  C     -0.468113    1.682962    0.234891
  H     -0.638435    2.721643   -0.006164
  N      0.845629    1.305991    0.326831
  H      1.589693    1.968879    0.185960
  C      1.254261    0.019462    0.636244
  O      2.422304   -0.301716    0.731879
  C      1.048094   -0.858809    4.118749
  H      1.501947   -0.950865    3.130766
  H      1.592597   -1.522789    4.787946
  C      1.102408    0.607143    4.551685
  H      2.060698    1.080042    4.340960
  H      0.914293    0.688781    5.624908
  C     -0.064944    1.219958    3.780913
  H      0.209361    1.308739    2.727442
  H     -0.349358    2.211099    4.132547
  C     -1.181888    0.182386    3.951942
  H     -1.907427    0.206000    3.140570
  H     -1.725974    0.387083    4.874190
  C     -0.458852   -1.184162    4.055599
  H     -0.701516   -1.828318    3.212239
  H     -0.773958   -1.711564    4.954685

 Multiplicity           Mult            ....    1
 Number of Electrons    NEL             ....   98
 Basis Dimension        Dim             .... 1684

ORBITAL ENERGIES
----------------

  NO   OCC          E(Eh)            E(eV)
   0   2.0000     -20.546484      -559.0982
   1   2.0000     -20.540194      -558.9271
   2   2.0000     -15.642999      -425.6677
   3   2.0000     -15.626302      -425.2133
   4   2.0000     -11.419177      -310.7316
   5   2.0000     -11.381083      -309.6950
   6   2.0000     -11.339631      -308.5670
   7   2.0000     -11.254837      -306.2597
   8   2.0000     -11.210904      -305.0642
   9   2.0000     -11.207919      -304.9830
  10   2.0000     -11.206447      -304.9429
  11   2.0000     -11.204308      -304.8847
  12   2.0000     -11.203399      -304.8600
  13   2.0000      -1.437806       -39.1247
  14   2.0000      -1.399741       -38.0889
  15   2.0000      -1.314558       -35.7709
  16   2.0000      -1.247060       -33.9342
  17   2.0000      -1.115120       -30.3440
  18   2.0000      -1.089245       -29.6399
  19   2.0000      -0.956091       -26.0166
  20   2.0000      -0.954347       -25.9691
  21   2.0000      -0.934374       -25.4256
  22   2.0000      -0.903002       -24.5719
  23   2.0000      -0.808439       -21.9987
  24   2.0000      -0.778589       -21.1865
  25   2.0000      -0.769121       -20.9288
  26   2.0000      -0.762554       -20.7501
  27   2.0000      -0.715650       -19.4738
  28   2.0000      -0.682064       -18.5599
  29   2.0000      -0.679319       -18.4852
  30   2.0000      -0.654754       -17.8168
  31   2.0000      -0.644624       -17.5411
  32   2.0000      -0.639031       -17.3889
  33   2.0000      -0.616570       -16.7777
  34   2.0000      -0.603120       -16.4117
  35   2.0000      -0.584889       -15.9156
  36   2.0000      -0.574575       -15.6350
  37   2.0000      -0.555495       -15.1158
  38   2.0000      -0.523024       -14.2322
  39   2.0000      -0.486660       -13.2427
  40   2.0000      -0.474535       -12.9128
  41   2.0000      -0.472383       -12.8542
  42   2.0000      -0.462314       -12.5802
  43   2.0000      -0.460962       -12.5434
  44   2.0000      -0.458987       -12.4897
  45   2.0000      -0.452415       -12.3108
  46   2.0000      -0.444824       -12.1043
  47   2.0000      -0.436387       -11.8747
  48   2.0000      -0.370013       -10.0686
  49   0.0000       0.011701         0.3184
  50   0.0000       0.027624         0.7517
  51   0.0000       0.028707         0.7812
  52   0.0000       0.032285         0.8785
  53   0.0000       0.040462         1.1010

MULLIKEN ATOMIC CHARGES
-----------------------
   0 N :   -0.718561
   1 H :    0.027961
   2 C :    1.724193
   3 O :   -0.995685
   4 C :   -0.568570
   5 H :    0.211096
   6 C :   -0.138053
   7 H :    0.345247
   8 N :   -0.757187
   9 H :    0.050287
  10 C :    1.960438
  11 O :   -0.942390
  12 C :   -0.675613
  13 H :    0.296295
  14 H :    0.303173
  15 C :   -0.559942
  16 H :    0.298764
  17 H :    0.231142
  18 C :   -0.676461
  19 H :    0.352506
  20 H :    0.276648
  21 C :   -0.648262
  22 H :    0.393510
  23 H :    0.260683
  24 C :   -0.572269
  25 H :    0.222769
  26 H :    0.298282
Sum of atomic charges:    0.0000000

LOEWDIN ATOMIC CHARGES
----------------------
   0 N :    0.793516
   1 H :   -0.513399
   2 C :   -0.878770
   3 O :    0.729813
   4 C :    0.338085
   5 H :   -0.337479
   6 C :    0.238291
   7 H :   -0.286095
   8 N :    0.823232
   9 H :   -0.478936
  10 C :   -0.992066
  11 O :    0.725044
  12 C :    0.535565
  13 H :   -0.337431
  14 H :   -0.250445
  15 C :    0.539829
  16 H :   -0.250654
  17 H :   -0.259780
  18 C :    0.521162
  19 H :   -0.362147
  20 H :   -0.243172
  21 C :    0.543278
  22 H :   -0.310622
  23 H :   -0.259677
  24 C :    0.552757
  25 H :   -0.319383
  26 H :   -0.260516

  Mayer bond orders larger than 0.100000
B(  0-N ,  1-H ) :   1.2218 B(  0-N ,  2-C ) :   0.9925 B(  0-N ,  3-O ) :   0.2348
B(  0-N , 10-C ) :   0.9701 B(  0-N , 11-O ) :   0.2760 B(  2-C ,  3-O ) :   0.6294
B(  2-C ,  4-C ) :   0.9502 B(  3-O ,  4-C ) :   0.2429 B(  4-C ,  5-H ) :   1.0969
B(  4-C ,  6-C ) :   1.5955 B(  4-C ,  7-H ) :  -0.1076 B(  6-C ,  7-H ) :   1.0252
B(  6-C ,  8-N ) :   0.9191 B(  8-N ,  9-H ) :   1.2339 B(  8-N , 10-C ) :   0.9487
B(  8-N , 11-O ) :   0.2788 B( 10-C , 11-O ) :   0.6836 B( 12-C , 13-H ) :   0.8571
B( 12-C , 14-H ) :   0.9137 B( 12-C , 15-C ) :   0.9785 B( 12-C , 24-C ) :   0.9706
B( 15-C , 16-H ) :   0.8666 B( 15-C , 17-H ) :   0.9675 B( 15-C , 18-C ) :   1.0212
B( 15-C , 19-H ) :  -0.1096 B( 15-C , 21-C ) :  -0.1030 B( 18-C , 19-H ) :   0.6962
B( 18-C , 20-H ) :   0.9871 B( 18-C , 21-C ) :   0.8595 B( 21-C , 22-H ) :   0.8403
B( 21-C , 23-H ) :   0.9663 B( 21-C , 24-C ) :   0.9384 B( 24-C , 25-H ) :   0.9789
B( 24-C , 26-H ) :   0.9059

MP2 TOTAL ENERGY:     -610.416249161 Eh
FINAL SINGLE POINT ENERGY      -610.416249161030

DIPOLE MOMENT
-------------
                                X             Y             Z
Electronic contribution:      0.53836      -1.39763     -14.58238
Nuclear contribution   :     -0.54686       3.24266      14.13030
                        -----------------------------------------
Total Dipole Moment    :     -0.00849       1.84503      -0.45208
                        -----------------------------------------
Magnitude (a.u.)       :      1.89962
Magnitude (Debye)      :      4.82846

Rotational constants in cm-1:     0.033841     0.023118     0.019609
Rotational constants in MHz :  1014.535875   693.054744   587.857124

                             ****ORCA TERMINATED NORMALLY****
TOTAL RUN TIME: 0 days 13 hours 53 minutes 4 seconds 13 msec
