                         Program Version 5.0.4 -  RELEASE  -
|  1> ! ri-mp2 aug-cc-pvdz aug-cc-pvdz/c tightscf
|  2> %pal nprocs 16 end
|  3> %maxcore 3800
|  4> %base "DZ_S66by10_43_1.25_dimer"
|  5> %scf STABPerform true end
|  6>
|  7> *xyz 0 1
|  8> N    0.62608128   -0.85091265    0.80591569
|  9> H    0.40918989   -1.81150056    1.03440142
| 10> C   -0.43245619   -0.08733581    0.29466376
| 11> O   -1.53077162   -0.58840313    0.12359257
| 12> C   -0.06687462    1.29127521    0.01963739
| 13> H   -0.80974352    1.95181039   -0.39283965
| 14> C    1.18354208    1.71793501    0.29053321
| 15> H    1.50185022    2.73387064    0.10983284
| 16> N    2.13412979    0.88660160    0.81908177
| 17> H    3.05533594    1.22390137    1.04342778
| 18> C    1.90278319   -0.44317844    1.12831175
| 19> O    2.74380631   -1.16392354    1.62858730
| 20> C   -0.89292579   -0.04566752    5.48580552
| 21> C   -2.20967198    0.69562128    5.70067843
| 22> H   -2.91674338    0.07741510    6.25554077
| 23> H   -2.05017242    1.61580583    6.26486344
| 24> H   -2.66738175    0.95711830    4.74552477
| 25> C   -0.27748917   -0.39910544    6.83708296
| 26> H    0.66567300   -0.93147875    6.70630113
| 27> H   -0.08046822    0.50063630    7.42188511
| 28> H   -0.94878320   -1.03684245    7.41381971
| 29> C    0.07219848    0.84781030    4.71001643
| 30> H    1.02076896    0.33521560    4.53966243
| 31> H    0.27748868    1.76594675    5.26344280
| 32> H   -0.35019691    1.12629691    3.74255199
| 33> C   -1.15424298   -1.32570191    4.69544063
| 34> H   -1.61798138   -1.10386821    3.73281599
| 35> H   -0.22166668   -1.86410083    4.51580395
| 36> H   -1.82475079   -1.98751587    5.24562555
| 37> *
| 38>
| 39> $new_job
| 40> ! ri-mp2 aug-cc-pvtz aug-cc-pvtz/c tightscf
| 41> %pal nprocs 16 end
| 42> %maxcore 3800
| 43> %base "TZ_S66by10_43_1.25_dimer"
| 44>
| 45> *xyz 0 1
| 46> N    0.62608128   -0.85091265    0.80591569
| 47> H    0.40918989   -1.81150056    1.03440142
| 48> C   -0.43245619   -0.08733581    0.29466376
| 49> O   -1.53077162   -0.58840313    0.12359257
| 50> C   -0.06687462    1.29127521    0.01963739
| 51> H   -0.80974352    1.95181039   -0.39283965
| 52> C    1.18354208    1.71793501    0.29053321
| 53> H    1.50185022    2.73387064    0.10983284
| 54> N    2.13412979    0.88660160    0.81908177
| 55> H    3.05533594    1.22390137    1.04342778
| 56> C    1.90278319   -0.44317844    1.12831175
| 57> O    2.74380631   -1.16392354    1.62858730
| 58> C   -0.89292579   -0.04566752    5.48580552
| 59> C   -2.20967198    0.69562128    5.70067843
| 60> H   -2.91674338    0.07741510    6.25554077
| 61> H   -2.05017242    1.61580583    6.26486344
| 62> H   -2.66738175    0.95711830    4.74552477
| 63> C   -0.27748917   -0.39910544    6.83708296
| 64> H    0.66567300   -0.93147875    6.70630113
| 65> H   -0.08046822    0.50063630    7.42188511
| 66> H   -0.94878320   -1.03684245    7.41381971
| 67> C    0.07219848    0.84781030    4.71001643
| 68> H    1.02076896    0.33521560    4.53966243
| 69> H    0.27748868    1.76594675    5.26344280
| 70> H   -0.35019691    1.12629691    3.74255199
| 71> C   -1.15424298   -1.32570191    4.69544063
| 72> H   -1.61798138   -1.10386821    3.73281599
| 73> H   -0.22166668   -1.86410083    4.51580395
| 74> H   -1.82475079   -1.98751587    5.24562555
| 75> *
| 76>
| 77> $new_job
| 78> ! ri-mp2 aug-cc-pvqz aug-cc-pvqz/c tightscf
| 79> %pal nprocs 16 end
| 80> %maxcore 3800
| 81> %base "QZ_S66by10_43_1.25_dimer"
| 82>
| 83> *xyz 0 1
| 84> N    0.62608128   -0.85091265    0.80591569
| 85> H    0.40918989   -1.81150056    1.03440142
| 86> C   -0.43245619   -0.08733581    0.29466376
| 87> O   -1.53077162   -0.58840313    0.12359257
| 88> C   -0.06687462    1.29127521    0.01963739
| 89> H   -0.80974352    1.95181039   -0.39283965
| 90> C    1.18354208    1.71793501    0.29053321
| 91> H    1.50185022    2.73387064    0.10983284
| 92> N    2.13412979    0.88660160    0.81908177
| 93> H    3.05533594    1.22390137    1.04342778
| 94> C    1.90278319   -0.44317844    1.12831175
| 95> O    2.74380631   -1.16392354    1.62858730
| 96> C   -0.89292579   -0.04566752    5.48580552
| 97> C   -2.20967198    0.69562128    5.70067843
| 98> H   -2.91674338    0.07741510    6.25554077
| 99> H   -2.05017242    1.61580583    6.26486344
|100> H   -2.66738175    0.95711830    4.74552477
|101> C   -0.27748917   -0.39910544    6.83708296
|102> H    0.66567300   -0.93147875    6.70630113
|103> H   -0.08046822    0.50063630    7.42188511
|104> H   -0.94878320   -1.03684245    7.41381971
|105> C    0.07219848    0.84781030    4.71001643
|106> H    1.02076896    0.33521560    4.53966243
|107> H    0.27748868    1.76594675    5.26344280
|108> H   -0.35019691    1.12629691    3.74255199
|109> C   -1.15424298   -1.32570191    4.69544063
|110> H   -1.61798138   -1.10386821    3.73281599
|111> H   -0.22166668   -1.86410083    4.51580395
|112> H   -1.82475079   -1.98751587    5.24562555
|113> *
|114>
|115>
|116>
|117>
|118>                          ****END OF INPUT****
 Total Charge           Charge          ....    0
 Multiplicity           Mult            ....    1
 Number of Electrons    NEL             ....  100
MP2 TOTAL ENERGY:     -610.905235079 Eh
FINAL SINGLE POINT ENERGY      -610.905235079213
MP2 TOTAL ENERGY:     -611.447904914 Eh
FINAL SINGLE POINT ENERGY      -611.447904914144

CARTESIAN COORDINATES (ANGSTROEM)
---------------------------------
  N      0.626081   -0.850913    0.805916
  H      0.409190   -1.811501    1.034401
  C     -0.432456   -0.087336    0.294664
  O     -1.530772   -0.588403    0.123593
  C     -0.066875    1.291275    0.019637
  H     -0.809744    1.951810   -0.392840
  C      1.183542    1.717935    0.290533
  H      1.501850    2.733871    0.109833
  N      2.134130    0.886602    0.819082
  H      3.055336    1.223901    1.043428
  C      1.902783   -0.443178    1.128312
  O      2.743806   -1.163924    1.628587
  C     -0.892926   -0.045668    5.485806
  C     -2.209672    0.695621    5.700678
  H     -2.916743    0.077415    6.255541
  H     -2.050172    1.615806    6.264863
  H     -2.667382    0.957118    4.745525
  C     -0.277489   -0.399105    6.837083
  H      0.665673   -0.931479    6.706301
  H     -0.080468    0.500636    7.421885
  H     -0.948783   -1.036842    7.413820
  C      0.072198    0.847810    4.710016
  H      1.020769    0.335216    4.539662
  H      0.277489    1.765947    5.263443
  H     -0.350197    1.126297    3.742552
  C     -1.154243   -1.325702    4.695441
  H     -1.617981   -1.103868    3.732816
  H     -0.221667   -1.864101    4.515804
  H     -1.824751   -1.987516    5.245626

 Multiplicity           Mult            ....    1
 Number of Electrons    NEL             ....  100
 Basis Dimension        Dim             .... 1776

ORBITAL ENERGIES
----------------

  NO   OCC          E(Eh)            E(eV)
   0   2.0000     -20.545098      -559.0605
   1   2.0000     -20.539691      -558.9134
   2   2.0000     -15.642674      -425.6588
   3   2.0000     -15.625616      -425.1946
   4   2.0000     -11.418156      -310.7038
   5   2.0000     -11.380292      -309.6735
   6   2.0000     -11.340175      -308.5818
   7   2.0000     -11.254642      -306.2544
   8   2.0000     -11.224948      -305.4464
   9   2.0000     -11.206686      -304.9494
  10   2.0000     -11.203412      -304.8604
  11   2.0000     -11.203257      -304.8561
  12   2.0000     -11.202035      -304.8229
  13   2.0000      -1.436228       -39.0818
  14   2.0000      -1.397998       -38.0415
  15   2.0000      -1.313518       -35.7426
  16   2.0000      -1.246031       -33.9062
  17   2.0000      -1.105536       -30.0832
  18   2.0000      -1.088502       -29.6196
  19   2.0000      -0.933833       -25.4109
  20   2.0000      -0.929496       -25.2929
  21   2.0000      -0.927612       -25.2416
  22   2.0000      -0.926466       -25.2104
  23   2.0000      -0.902046       -24.5459
  24   2.0000      -0.807537       -21.9742
  25   2.0000      -0.765681       -20.8353
  26   2.0000      -0.728996       -19.8370
  27   2.0000      -0.714872       -19.4526
  28   2.0000      -0.678203       -18.4548
  29   2.0000      -0.669706       -18.2236
  30   2.0000      -0.653515       -17.7831
  31   2.0000      -0.615642       -16.7525
  32   2.0000      -0.611712       -16.6455
  33   2.0000      -0.611338       -16.6354
  34   2.0000      -0.610727       -16.6187
  35   2.0000      -0.602303       -16.3895
  36   2.0000      -0.571528       -15.5521
  37   2.0000      -0.552993       -15.0477
  38   2.0000      -0.551875       -15.0173
  39   2.0000      -0.526710       -14.3325
  40   2.0000      -0.509583       -13.8665
  41   2.0000      -0.508605       -13.8398
  42   2.0000      -0.508013       -13.8237
  43   2.0000      -0.484563       -13.1856
  44   2.0000      -0.452072       -12.3015
  45   2.0000      -0.451944       -12.2980
  46   2.0000      -0.451289       -12.2802
  47   2.0000      -0.450066       -12.2469
  48   2.0000      -0.437785       -11.9127
  49   2.0000      -0.369606       -10.0575
  50   0.0000       0.011727         0.3191
  51   0.0000       0.028109         0.7649
  52   0.0000       0.028558         0.7771
  53   0.0000       0.032977         0.8974
  54   0.0000       0.039210         1.0670

MULLIKEN ATOMIC CHARGES
-----------------------
   0 N :   -0.723330
   1 H :    0.099897
   2 C :    1.250438
   3 O :   -0.862601
   4 C :   -0.426954
   5 H :    0.279625
   6 C :   -0.153667
   7 H :    0.437549
   8 N :   -0.685308
   9 H :    0.084044
  10 C :    1.562674
  11 O :   -0.853593
  12 C :    1.682905
  13 C :   -1.138814
  14 H :    0.226884
  15 H :    0.225336
  16 H :    0.233276
  17 C :   -1.118745
  18 H :    0.221579
  19 H :    0.232444
  20 H :    0.235880
  21 C :   -1.249596
  22 H :    0.219911
  23 H :    0.331383
  24 H :    0.294684
  25 C :   -1.181706
  26 H :    0.286948
  27 H :    0.205702
  28 H :    0.283155
Sum of atomic charges:    0.0000000

LOEWDIN ATOMIC CHARGES
----------------------
   0 N :    0.774540
   1 H :   -0.520366
   2 C :   -0.874133
   3 O :    0.687428
   4 C :    0.329762
   5 H :   -0.353599
   6 C :    0.232773
   7 H :   -0.297070
   8 N :    0.810841
   9 H :   -0.491841
  10 C :   -0.998711
  11 O :    0.694230
  12 C :   -0.333108
  13 C :    0.902474
  14 H :   -0.270503
  15 H :   -0.271178
  16 H :   -0.271215
  17 C :    0.902251
  18 H :   -0.270251
  19 H :   -0.271389
  20 H :   -0.271242
  21 C :    0.894527
  22 H :   -0.273060
  23 H :   -0.269261
  24 H :   -0.277315
  25 C :    0.899491
  26 H :   -0.273278
  27 H :   -0.271245
  28 H :   -0.269550

  Mayer bond orders larger than 0.100000
B(  0-N ,  1-H ) :   1.1752 B(  0-N ,  2-C ) :   0.9588 B(  0-N ,  3-O ) :   0.1990
B(  0-N , 10-C ) :   1.0830 B(  0-N , 11-O ) :   0.2241 B(  2-C ,  3-O ) :   0.9329
B(  2-C ,  4-C ) :   1.1335 B(  2-C ,  6-C ) :  -0.1097 B(  3-O ,  4-C ) :   0.2257
B(  4-C ,  5-H ) :   1.0164 B(  4-C ,  6-C ) :   1.5162 B(  6-C ,  7-H ) :   0.8978
B(  6-C ,  8-N ) :   0.8821 B(  8-N ,  9-H ) :   1.2021 B(  8-N , 10-C ) :   1.0475
B(  8-N , 11-O ) :   0.2237 B( 10-C , 11-O ) :   0.9532 B( 12-C , 13-C ) :   0.2941
B( 12-C , 14-H ) :  -0.1192 B( 12-C , 15-H ) :  -0.1153 B( 12-C , 16-H ) :  -0.1360
B( 12-C , 17-C ) :   0.2661 B( 12-C , 18-H ) :  -0.1377 B( 12-C , 19-H ) :  -0.1279
B( 12-C , 20-H ) :  -0.1272 B( 12-C , 21-C ) :   0.5172 B( 12-C , 24-H ) :  -0.1190
B( 12-C , 25-C ) :   0.3809 B( 12-C , 26-H ) :  -0.1022 B( 13-C , 14-H ) :   1.0600
B( 13-C , 15-H ) :   1.0485 B( 13-C , 16-H ) :   1.0495 B( 13-C , 17-C ) :   0.1583
B( 13-C , 21-C ) :   0.1196 B( 13-C , 25-C ) :   0.1303 B( 17-C , 18-H ) :   1.0611
B( 17-C , 19-H ) :   1.0483 B( 17-C , 20-H ) :   1.0555 B( 17-C , 21-C ) :   0.1137
B( 17-C , 25-C ) :   0.1240 B( 21-C , 22-H ) :   0.9995 B( 21-C , 23-H ) :   0.9356
B( 21-C , 24-H ) :   0.9689 B( 21-C , 25-C ) :   0.1496 B( 25-C , 26-H ) :   0.9599
B( 25-C , 27-H ) :   1.0388 B( 25-C , 28-H ) :   1.0176

MP2 TOTAL ENERGY:     -611.620780093 Eh
FINAL SINGLE POINT ENERGY      -611.620780093341

DIPOLE MOMENT
-------------
                                X             Y             Z
Electronic contribution:      9.34479      -1.34862     -25.37887
Nuclear contribution   :     -8.48306       3.05490      25.16061
                        -----------------------------------------
Total Dipole Moment    :      0.86173       1.70628      -0.21827
                        -----------------------------------------
Magnitude (a.u.)       :      1.92396
Magnitude (Debye)      :      4.89031

Rotational constants in cm-1:     0.035083     0.012063     0.011018
Rotational constants in MHz :  1051.752875   361.633233   330.325373

                             ****ORCA TERMINATED NORMALLY****
TOTAL RUN TIME: 0 days 12 hours 21 minutes 4 seconds 838 msec
