                         Program Version 5.0.4 -  RELEASE  -
|  1> ! ri-mp2 aug-cc-pvdz aug-cc-pvdz/c tightscf
|  2> %pal nprocs 16 end
|  3> %maxcore 3800
|  4> %base "DZ_S66by10_38_0.9_dimer"
|  5> %scf STABPerform true end
|  6>
|  7> *xyz 0 1
|  8> C    0.95688019   -0.89184563    1.14195000
|  9> H    1.50456597   -1.27835762    0.28342019
| 10> H    1.42138447   -1.31477793    2.03102546
| 11> C    0.99094943    0.65850830    1.14550384
| 12> H    1.51059446    1.02309646    0.25994788
| 13> H    1.51625823    1.05981813    2.01053703
| 14> C   -0.47945194    1.10231879    1.10387910
| 15> H   -0.61626861    2.06487722    0.61356737
| 16> H   -0.87474223    1.18907144    2.11806960
| 17> C   -1.18210650   -0.05279656    0.39334575
| 18> H   -0.94888216   -0.02683030   -0.67380459
| 19> H   -2.26566452   -0.03356474    0.50127403
| 20> C   -0.53065958   -1.27488954    1.03930959
| 21> H   -0.69039061   -2.19702093    0.48299221
| 22> H   -0.95084939   -1.41541197    2.03674782
| 23> C   -1.13824599   -0.39650381    4.77011178
| 24> H   -1.47138049   -0.15980519    3.75752741
| 25> H   -1.94303439   -0.93960227    5.26309828
| 26> C    0.17536046   -1.19204872    4.72235058
| 27> H    0.22530540   -1.84979141    3.85621676
| 28> H    0.25564808   -1.82340635    5.60673587
| 29> C    1.30467568   -0.12934289    4.72294667
| 30> H    1.92594063   -0.19002174    3.83107305
| 31> H    1.96208517   -0.27922594    5.57835184
| 32> C    0.59450231    1.23232586    4.83081350
| 33> H    0.41463913    1.64081764    3.83481438
| 34> H    1.17488627    1.96672936    5.38678677
| 35> C   -0.74755015    0.89785342    5.48062536
| 36> H   -1.48721872    1.69036518    5.37574406
| 37> H   -0.60751022    0.70621337    6.54717432
| 38> *
| 39>
| 40> $new_job
| 41> ! ri-mp2 aug-cc-pvtz aug-cc-pvtz/c tightscf
| 42> %pal nprocs 16 end
| 43> %maxcore 3800
| 44> %base "TZ_S66by10_38_0.9_dimer"
| 45>
| 46> *xyz 0 1
| 47> C    0.95688019   -0.89184563    1.14195000
| 48> H    1.50456597   -1.27835762    0.28342019
| 49> H    1.42138447   -1.31477793    2.03102546
| 50> C    0.99094943    0.65850830    1.14550384
| 51> H    1.51059446    1.02309646    0.25994788
| 52> H    1.51625823    1.05981813    2.01053703
| 53> C   -0.47945194    1.10231879    1.10387910
| 54> H   -0.61626861    2.06487722    0.61356737
| 55> H   -0.87474223    1.18907144    2.11806960
| 56> C   -1.18210650   -0.05279656    0.39334575
| 57> H   -0.94888216   -0.02683030   -0.67380459
| 58> H   -2.26566452   -0.03356474    0.50127403
| 59> C   -0.53065958   -1.27488954    1.03930959
| 60> H   -0.69039061   -2.19702093    0.48299221
| 61> H   -0.95084939   -1.41541197    2.03674782
| 62> C   -1.13824599   -0.39650381    4.77011178
| 63> H   -1.47138049   -0.15980519    3.75752741
| 64> H   -1.94303439   -0.93960227    5.26309828
| 65> C    0.17536046   -1.19204872    4.72235058
| 66> H    0.22530540   -1.84979141    3.85621676
| 67> H    0.25564808   -1.82340635    5.60673587
| 68> C    1.30467568   -0.12934289    4.72294667
| 69> H    1.92594063   -0.19002174    3.83107305
| 70> H    1.96208517   -0.27922594    5.57835184
| 71> C    0.59450231    1.23232586    4.83081350
| 72> H    0.41463913    1.64081764    3.83481438
| 73> H    1.17488627    1.96672936    5.38678677
| 74> C   -0.74755015    0.89785342    5.48062536
| 75> H   -1.48721872    1.69036518    5.37574406
| 76> H   -0.60751022    0.70621337    6.54717432
| 77> *
| 78>
| 79> $new_job
| 80> ! ri-mp2 aug-cc-pvqz aug-cc-pvqz/c tightscf
| 81> %pal nprocs 16 end
| 82> %maxcore 3800
| 83> %base "QZ_S66by10_38_0.9_dimer"
| 84>
| 85> *xyz 0 1
| 86> C    0.95688019   -0.89184563    1.14195000
| 87> H    1.50456597   -1.27835762    0.28342019
| 88> H    1.42138447   -1.31477793    2.03102546
| 89> C    0.99094943    0.65850830    1.14550384
| 90> H    1.51059446    1.02309646    0.25994788
| 91> H    1.51625823    1.05981813    2.01053703
| 92> C   -0.47945194    1.10231879    1.10387910
| 93> H   -0.61626861    2.06487722    0.61356737
| 94> H   -0.87474223    1.18907144    2.11806960
| 95> C   -1.18210650   -0.05279656    0.39334575
| 96> H   -0.94888216   -0.02683030   -0.67380459
| 97> H   -2.26566452   -0.03356474    0.50127403
| 98> C   -0.53065958   -1.27488954    1.03930959
| 99> H   -0.69039061   -2.19702093    0.48299221
|100> H   -0.95084939   -1.41541197    2.03674782
|101> C   -1.13824599   -0.39650381    4.77011178
|102> H   -1.47138049   -0.15980519    3.75752741
|103> H   -1.94303439   -0.93960227    5.26309828
|104> C    0.17536046   -1.19204872    4.72235058
|105> H    0.22530540   -1.84979141    3.85621676
|106> H    0.25564808   -1.82340635    5.60673587
|107> C    1.30467568   -0.12934289    4.72294667
|108> H    1.92594063   -0.19002174    3.83107305
|109> H    1.96208517   -0.27922594    5.57835184
|110> C    0.59450231    1.23232586    4.83081350
|111> H    0.41463913    1.64081764    3.83481438
|112> H    1.17488627    1.96672936    5.38678677
|113> C   -0.74755015    0.89785342    5.48062536
|114> H   -1.48721872    1.69036518    5.37574406
|115> H   -0.60751022    0.70621337    6.54717432
|116> *
|117>
|118>
|119>
|120>
|121>                          ****END OF INPUT****
 Total Charge           Charge          ....    0
 Multiplicity           Mult            ....    1
 Number of Electrons    NEL             ....   80
MP2 TOTAL ENERGY:     -391.851541313 Eh
FINAL SINGLE POINT ENERGY      -391.851541312964
MP2 TOTAL ENERGY:     -392.227643697 Eh
FINAL SINGLE POINT ENERGY      -392.227643696876

CARTESIAN COORDINATES (ANGSTROEM)
---------------------------------
  C      0.956880   -0.891846    1.141950
  H      1.504566   -1.278358    0.283420
  H      1.421384   -1.314778    2.031025
  C      0.990949    0.658508    1.145504
  H      1.510594    1.023096    0.259948
  H      1.516258    1.059818    2.010537
  C     -0.479452    1.102319    1.103879
  H     -0.616269    2.064877    0.613567
  H     -0.874742    1.189071    2.118070
  C     -1.182106   -0.052797    0.393346
  H     -0.948882   -0.026830   -0.673805
  H     -2.265665   -0.033565    0.501274
  C     -0.530660   -1.274890    1.039310
  H     -0.690391   -2.197021    0.482992
  H     -0.950849   -1.415412    2.036748
  C     -1.138246   -0.396504    4.770112
  H     -1.471380   -0.159805    3.757527
  H     -1.943034   -0.939602    5.263098
  C      0.175360   -1.192049    4.722351
  H      0.225305   -1.849791    3.856217
  H      0.255648   -1.823406    5.606736
  C      1.304676   -0.129343    4.722947
  H      1.925941   -0.190022    3.831073
  H      1.962085   -0.279226    5.578352
  C      0.594502    1.232326    4.830813
  H      0.414639    1.640818    3.834814
  H      1.174886    1.966729    5.386787
  C     -0.747550    0.897853    5.480625
  H     -1.487219    1.690365    5.375744
  H     -0.607510    0.706213    6.547174

 Multiplicity           Mult            ....    1
 Number of Electrons    NEL             ....   80
 Basis Dimension        Dim             .... 1720

ORBITAL ENERGIES
----------------

  NO   OCC          E(Eh)            E(eV)
   0   2.0000     -11.209422      -305.0239
   1   2.0000     -11.209420      -305.0238
   2   2.0000     -11.209017      -305.0129
   3   2.0000     -11.209016      -305.0128
   4   2.0000     -11.208735      -305.0052
   5   2.0000     -11.208730      -305.0051
   6   2.0000     -11.208310      -304.9936
   7   2.0000     -11.208307      -304.9935
   8   2.0000     -11.207777      -304.9791
   9   2.0000     -11.207775      -304.9791
  10   2.0000      -1.119336       -30.4587
  11   2.0000      -1.114352       -30.3231
  12   2.0000      -0.960716       -26.1424
  13   2.0000      -0.959752       -26.1162
  14   2.0000      -0.954013       -25.9600
  15   2.0000      -0.953392       -25.9431
  16   2.0000      -0.782885       -21.3034
  17   2.0000      -0.774601       -21.0780
  18   2.0000      -0.767940       -20.8967
  19   2.0000      -0.767187       -20.8762
  20   2.0000      -0.666938       -18.1483
  21   2.0000      -0.647218       -17.6117
  22   2.0000      -0.645701       -17.5704
  23   2.0000      -0.633888       -17.2490
  24   2.0000      -0.585007       -15.9189
  25   2.0000      -0.580931       -15.8079
  26   2.0000      -0.559851       -15.2343
  27   2.0000      -0.555193       -15.1076
  28   2.0000      -0.479107       -13.0372
  29   2.0000      -0.478025       -13.0077
  30   2.0000      -0.476798       -12.9743
  31   2.0000      -0.471172       -12.8212
  32   2.0000      -0.469047       -12.7634
  33   2.0000      -0.465256       -12.6603
  34   2.0000      -0.464583       -12.6419
  35   2.0000      -0.459388       -12.5006
  36   2.0000      -0.459116       -12.4932
  37   2.0000      -0.451907       -12.2970
  38   2.0000      -0.449431       -12.2296
  39   2.0000      -0.445052       -12.1105
  40   0.0000       0.023914         0.6507
  41   0.0000       0.028355         0.7716
  42   0.0000       0.029154         0.7933
  43   0.0000       0.030153         0.8205
  44   0.0000       0.039617         1.0780

MULLIKEN ATOMIC CHARGES
-----------------------
   0 C :   -0.583770
   1 H :    0.268477
   2 H :    0.333145
   3 C :   -0.612277
   4 H :    0.251837
   5 H :    0.411554
   6 C :   -0.684596
   7 H :    0.316022
   8 H :    0.349083
   9 C :   -0.547775
  10 H :    0.243006
  11 H :    0.312501
  12 C :   -0.725449
  13 H :    0.321056
  14 H :    0.346983
  15 C :   -0.684741
  16 H :    0.349307
  17 H :    0.316089
  18 C :   -0.612093
  19 H :    0.411065
  20 H :    0.251922
  21 C :   -0.583540
  22 H :    0.333085
  23 H :    0.268598
  24 C :   -0.725595
  25 H :    0.347221
  26 H :    0.321175
  27 C :   -0.547954
  28 H :    0.312517
  29 H :    0.243145
Sum of atomic charges:    0.0000000

LOEWDIN ATOMIC CHARGES
----------------------
   0 C :    0.565649
   1 H :   -0.258711
   2 H :   -0.305654
   3 C :    0.563175
   4 H :   -0.259177
   5 H :   -0.300659
   6 C :    0.540205
   7 H :   -0.244951
   8 H :   -0.308264
   9 C :    0.542015
  10 H :   -0.259548
  11 H :   -0.250420
  12 C :    0.542401
  13 H :   -0.246396
  14 H :   -0.319681
  15 C :    0.540213
  16 H :   -0.308301
  17 H :   -0.244966
  18 C :    0.563164
  19 H :   -0.300551
  20 H :   -0.259180
  21 C :    0.565679
  22 H :   -0.305765
  23 H :   -0.258727
  24 C :    0.542462
  25 H :   -0.319593
  26 H :   -0.246460
  27 C :    0.542017
  28 H :   -0.250433
  29 H :   -0.259542

  Mayer bond orders larger than 0.100000
B(  0-C ,  1-H ) :   0.9450 B(  0-C ,  2-H ) :   0.8595 B(  0-C ,  3-C ) :   0.9766
B(  0-C ,  9-C ) :  -0.1270 B(  0-C , 12-C ) :   0.9336 B(  3-C ,  4-H ) :   0.9722
B(  3-C ,  5-H ) :   0.7667 B(  3-C ,  6-C ) :   0.9144 B(  3-C ,  9-C ) :  -0.1391
B(  6-C ,  7-H ) :   0.9199 B(  6-C ,  8-H ) :   0.8605 B(  6-C ,  9-C ) :   0.9917
B(  9-C , 10-H ) :   0.9543 B(  9-C , 11-H ) :   0.8464 B(  9-C , 12-C ) :   0.9987
B( 12-C , 13-H ) :   0.9071 B( 12-C , 14-H ) :   0.8145 B( 15-C , 16-H ) :   0.8602
B( 15-C , 17-H ) :   0.9198 B( 15-C , 18-C ) :   0.9142 B( 15-C , 27-C ) :   0.9917
B( 18-C , 19-H ) :   0.7672 B( 18-C , 20-H ) :   0.9720 B( 18-C , 21-C ) :   0.9769
B( 18-C , 27-C ) :  -0.1391 B( 21-C , 22-H ) :   0.8596 B( 21-C , 23-H ) :   0.9448
B( 21-C , 24-C ) :   0.9336 B( 21-C , 27-C ) :  -0.1270 B( 24-C , 25-H ) :   0.8142
B( 24-C , 26-H ) :   0.9070 B( 24-C , 27-C ) :   0.9987 B( 27-C , 28-H ) :   0.8464
B( 27-C , 29-H ) :   0.9542

MP2 TOTAL ENERGY:     -392.340647834 Eh
FINAL SINGLE POINT ENERGY      -392.340647834396

DIPOLE MOMENT
-------------
                                X             Y             Z
Electronic contribution:     -0.13974       0.06204       0.00034
Nuclear contribution   :      0.13388      -0.05944      -0.00030
                        -----------------------------------------
Total Dipole Moment    :     -0.00586       0.00261       0.00004
                        -----------------------------------------
Magnitude (a.u.)       :      0.00641
Magnitude (Debye)      :      0.01629

Rotational constants in cm-1:     0.065564     0.023966     0.023897
Rotational constants in MHz :  1965.570121   718.474368   716.420982

                             ****ORCA TERMINATED NORMALLY****
TOTAL RUN TIME: 0 days 14 hours 53 minutes 20 seconds 822 msec
