                         Program Version 5.0.4 -  RELEASE  -
|  1> ! ri-mp2 aug-cc-pvdz aug-cc-pvdz/c tightscf
|  2> %pal nprocs 16 end
|  3> %maxcore 3800
|  4> %base "DZ_S66by10_63_0.7_dimer"
|  5>
|  6> *xyz 0 1
|  7> C    0.60678496    1.33042185    0.31643451
|  8> H    1.24649846    2.20226434    0.33035231
|  9> C    1.11808466    0.08724886    0.68511652
| 10> H    2.15005753   -0.00388678    0.99375824
| 11> C    0.29290229   -1.03608737    0.66910727
| 12> H    0.68849686   -2.00096149    0.95537797
| 13> C   -1.04283174   -0.91671112    0.28818964
| 14> H   -1.68270956   -1.78848825    0.27934903
| 15> C   -1.55358838    0.32734899   -0.07994317
| 16> H   -2.58923495    0.42028908   -0.37734619
| 17> C   -0.72804164    1.45084316   -0.06684834
| 18> H   -1.12362379    2.41565865   -0.35386143
| 19> C    0.52180975   -0.42256260    3.11653046
| 20> O    1.71730242   -0.25861185    3.19304623
| 21> O   -0.05769193   -1.63396756    3.31596881
| 22> H    0.67675893   -2.23507605    3.50900693
| 23> C   -0.50007448    0.62136892    2.79584928
| 24> H   -0.02178006    1.59231527    2.74902650
| 25> H   -0.95287458    0.38817273    1.83314123
| 26> H   -1.28492550    0.61583242    3.54834876
| 27> *
| 28>
| 29> $new_job
| 30> ! ri-mp2 aug-cc-pvtz aug-cc-pvtz/c tightscf
| 31> %pal nprocs 16 end
| 32> %maxcore 3800
| 33> %base "TZ_S66by10_63_0.7_dimer"
| 34>
| 35> *xyz 0 1
| 36> C    0.60678496    1.33042185    0.31643451
| 37> H    1.24649846    2.20226434    0.33035231
| 38> C    1.11808466    0.08724886    0.68511652
| 39> H    2.15005753   -0.00388678    0.99375824
| 40> C    0.29290229   -1.03608737    0.66910727
| 41> H    0.68849686   -2.00096149    0.95537797
| 42> C   -1.04283174   -0.91671112    0.28818964
| 43> H   -1.68270956   -1.78848825    0.27934903
| 44> C   -1.55358838    0.32734899   -0.07994317
| 45> H   -2.58923495    0.42028908   -0.37734619
| 46> C   -0.72804164    1.45084316   -0.06684834
| 47> H   -1.12362379    2.41565865   -0.35386143
| 48> C    0.52180975   -0.42256260    3.11653046
| 49> O    1.71730242   -0.25861185    3.19304623
| 50> O   -0.05769193   -1.63396756    3.31596881
| 51> H    0.67675893   -2.23507605    3.50900693
| 52> C   -0.50007448    0.62136892    2.79584928
| 53> H   -0.02178006    1.59231527    2.74902650
| 54> H   -0.95287458    0.38817273    1.83314123
| 55> H   -1.28492550    0.61583242    3.54834876
| 56> *
| 57>
| 58> $new_job
| 59> ! ri-mp2 aug-cc-pvqz aug-cc-pvqz/c tightscf
| 60> %pal nprocs 16 end
| 61> %maxcore 3800
| 62> %base "QZ_S66by10_63_0.7_dimer"
| 63>
| 64> *xyz 0 1
| 65> C    0.60678496    1.33042185    0.31643451
| 66> H    1.24649846    2.20226434    0.33035231
| 67> C    1.11808466    0.08724886    0.68511652
| 68> H    2.15005753   -0.00388678    0.99375824
| 69> C    0.29290229   -1.03608737    0.66910727
| 70> H    0.68849686   -2.00096149    0.95537797
| 71> C   -1.04283174   -0.91671112    0.28818964
| 72> H   -1.68270956   -1.78848825    0.27934903
| 73> C   -1.55358838    0.32734899   -0.07994317
| 74> H   -2.58923495    0.42028908   -0.37734619
| 75> C   -0.72804164    1.45084316   -0.06684834
| 76> H   -1.12362379    2.41565865   -0.35386143
| 77> C    0.52180975   -0.42256260    3.11653046
| 78> O    1.71730242   -0.25861185    3.19304623
| 79> O   -0.05769193   -1.63396756    3.31596881
| 80> H    0.67675893   -2.23507605    3.50900693
| 81> C   -0.50007448    0.62136892    2.79584928
| 82> H   -0.02178006    1.59231527    2.74902650
| 83> H   -0.95287458    0.38817273    1.83314123
| 84> H   -1.28492550    0.61583242    3.54834876
| 85> *
| 86>
| 87>
| 88>
| 89>
| 90>                          ****END OF INPUT****
 Total Charge           Charge          ....    0
 Multiplicity           Mult            ....    1
 Number of Electrons    NEL             ....   74
MP2 TOTAL ENERGY:     -460.037607564 Eh
FINAL SINGLE POINT ENERGY      -460.037607563976
MP2 TOTAL ENERGY:     -460.440272060 Eh
FINAL SINGLE POINT ENERGY      -460.440272060348

CARTESIAN COORDINATES (ANGSTROEM)
---------------------------------
  C      0.606785    1.330422    0.316435
  H      1.246498    2.202264    0.330352
  C      1.118085    0.087249    0.685117
  H      2.150058   -0.003887    0.993758
  C      0.292902   -1.036087    0.669107
  H      0.688497   -2.000961    0.955378
  C     -1.042832   -0.916711    0.288190
  H     -1.682710   -1.788488    0.279349
  C     -1.553588    0.327349   -0.079943
  H     -2.589235    0.420289   -0.377346
  C     -0.728042    1.450843   -0.066848
  H     -1.123624    2.415659   -0.353861
  C      0.521810   -0.422563    3.116530
  O      1.717302   -0.258612    3.193046
  O     -0.057692   -1.633968    3.315969
  H      0.676759   -2.235076    3.509007
  C     -0.500074    0.621369    2.795849
  H     -0.021780    1.592315    2.749026
  H     -0.952875    0.388173    1.833141
  H     -1.284925    0.615832    3.548349

 Multiplicity           Mult            ....    1
 Number of Electrons    NEL             ....   74
 Basis Dimension        Dim             .... 1260

ORBITAL ENERGIES
----------------

  NO   OCC          E(Eh)            E(eV)
   0   2.0000     -20.603051      -560.6375
   1   2.0000     -20.534072      -558.7605
   2   2.0000     -11.377884      -309.6080
   3   2.0000     -11.240485      -305.8691
   4   2.0000     -11.239737      -305.8488
   5   2.0000     -11.238466      -305.8142
   6   2.0000     -11.236866      -305.7707
   7   2.0000     -11.235921      -305.7450
   8   2.0000     -11.234787      -305.7141
   9   2.0000     -11.210436      -305.0515
  10   2.0000      -1.458585       -39.6901
  11   2.0000      -1.353698       -36.8360
  12   2.0000      -1.165467       -31.7140
  13   2.0000      -1.026969       -27.9453
  14   2.0000      -1.023322       -27.8460
  15   2.0000      -1.009876       -27.4801
  16   2.0000      -0.833492       -22.6805
  17   2.0000      -0.830869       -22.6091
  18   2.0000      -0.810318       -22.0499
  19   2.0000      -0.720931       -19.6175
  20   2.0000      -0.700433       -19.0597
  21   2.0000      -0.670927       -18.2568
  22   2.0000      -0.658416       -17.9164
  23   2.0000      -0.649724       -17.6799
  24   2.0000      -0.624929       -17.0052
  25   2.0000      -0.597474       -16.2581
  26   2.0000      -0.594618       -16.1804
  27   2.0000      -0.576626       -15.6908
  28   2.0000      -0.563352       -15.3296
  29   2.0000      -0.557966       -15.1830
  30   2.0000      -0.506225       -13.7751
  31   2.0000      -0.500448       -13.6179
  32   2.0000      -0.476192       -12.9578
  33   2.0000      -0.462963       -12.5979
  34   2.0000      -0.442059       -12.0290
  35   2.0000      -0.343720        -9.3531
  36   2.0000      -0.339644        -9.2422
  37   0.0000       0.021964         0.5977
  38   0.0000       0.027725         0.7544
  39   0.0000       0.031464         0.8562
  40   0.0000       0.036831         1.0022
  41   0.0000       0.041155         1.1199

MULLIKEN ATOMIC CHARGES
-----------------------
   0 C :   -0.277774
   1 H :    0.221713
   2 C :   -0.231144
   3 H :    0.344342
   4 C :   -0.126478
   5 H :    0.289592
   6 C :   -0.526612
   7 H :    0.272817
   8 C :   -0.247732
   9 H :    0.280078
  10 C :   -0.543860
  11 H :    0.191736
  12 C :    1.465767
  13 O :   -0.972452
  14 O :   -0.800417
  15 H :    0.291856
  16 C :   -0.998314
  17 H :    0.318282
  18 H :    0.767935
  19 H :    0.280666
Sum of atomic charges:    0.0000000

LOEWDIN ATOMIC CHARGES
----------------------
   0 C :    0.346520
   1 H :   -0.291478
   2 C :    0.263914
   3 H :   -0.351013
   4 C :    0.277985
   5 H :   -0.313890
   6 C :    0.362406
   7 H :   -0.287775
   8 C :    0.361341
   9 H :   -0.297948
  10 C :    0.357953
  11 H :   -0.299813
  12 C :   -1.057086
  13 O :    0.772239
  14 O :    1.288989
  15 H :   -0.803448
  16 C :    0.841218
  17 H :   -0.295972
  18 H :   -0.625194
  19 H :   -0.248948

  Mayer bond orders larger than 0.100000
B(  0-C ,  1-H ) :   1.1550 B(  0-C ,  2-C ) :   1.1837 B(  0-C ,  6-C ) :   0.1512
B(  0-C , 10-C ) :   1.2783 B(  0-C , 18-H ) :  -0.1439 B(  2-C ,  3-H ) :   1.0155
B(  2-C ,  4-C ) :   1.1737 B(  2-C ,  8-C ) :   0.1481 B(  2-C , 16-C ) :   0.1070
B(  2-C , 18-H ) :  -0.1874 B(  4-C ,  5-H ) :   1.0489 B(  4-C ,  6-C ) :   1.1912
B(  6-C ,  7-H ) :   1.1018 B(  6-C ,  8-C ) :   1.2729 B(  6-C , 10-C ) :   0.1324
B(  6-C , 18-H ) :  -0.1695 B(  8-C ,  9-H ) :   1.0775 B(  8-C , 10-C ) :   1.2646
B(  8-C , 18-H ) :  -0.1737 B( 10-C , 11-H ) :   1.1907 B( 10-C , 18-H ) :  -0.2239
B( 12-C , 13-O ) :   1.0865 B( 12-C , 14-O ) :   0.6474 B( 12-C , 16-C ) :   1.0542
B( 14-O , 15-H ) :   0.8977 B( 16-C , 17-H ) :   0.9508 B( 16-C , 18-H ) :   0.7446
B( 16-C , 19-H ) :   1.0108

MP2 TOTAL ENERGY:     -460.568849286 Eh
FINAL SINGLE POINT ENERGY      -460.568849286376

DIPOLE MOMENT
-------------
                                X             Y             Z
Electronic contribution:      2.58603      -2.32921       1.38580
Nuclear contribution   :     -3.24861       2.25141      -1.60701
                        -----------------------------------------
Total Dipole Moment    :     -0.66257      -0.07780      -0.22121
                        -----------------------------------------
Magnitude (a.u.)       :      0.70284
Magnitude (Debye)      :      1.78649

Rotational constants in cm-1:     0.079403     0.038403     0.034471
Rotational constants in MHz :  2380.444398  1151.305168  1033.400504

                             ****ORCA TERMINATED NORMALLY****
TOTAL RUN TIME: 0 days 1 hours 4 minutes 54 seconds 649 msec
