                         Program Version 5.0.4 -  RELEASE  -
|  1> ! ri-mp2 aug-cc-pvdz aug-cc-pvdz/c tightscf
|  2> %pal nprocs 16 end
|  3> %maxcore 3800
|  4> %base "DZ_S66by10_40_1.0_dimer"
|  5>
|  6> *xyz 0 1
|  7> C    0.31195353    0.56102334    0.49669886
|  8> H    0.74213608    1.55336911    0.48156571
|  9> C    1.14218235   -0.55807461    0.53606185
| 10> H    2.21651131   -0.43425014    0.55235015
| 11> C    0.58780415   -1.83668704    0.55414435
| 12> H    1.23191239   -2.70484153    0.58522179
| 13> C   -0.79665772   -1.99637562    0.53296300
| 14> H   -1.22677442   -2.98844427    0.54863708
| 15> C   -1.62689297   -0.87747365    0.49416828
| 16> H   -2.70112211   -1.00134997    0.47981498
| 17> C   -1.07266525    0.40120590    0.47597397
| 18> H   -1.71697357    1.26940117    0.44591995
| 19> C    0.17110497    0.50664089    4.81891549
| 20> C    1.61735365    0.68542824    4.36395400
| 21> H    2.03321037    1.61870612    4.74737698
| 22> H    2.24075297   -0.13518738    4.72280787
| 23> H    1.67796278    0.70481953    3.27501979
| 24> C    0.11671360    0.47526975    6.34378081
| 25> H   -0.90907643    0.34784933    6.69286858
| 26> H    0.71211950   -0.35041712    6.73633454
| 27> H    0.50500808    1.40315437    6.76668639
| 28> C   -0.37827507   -0.80285109    4.25861947
| 29> H   -1.41314867   -0.95312612    4.57129106
| 30> H    0.20818151   -1.65182485    4.61443074
| 31> H   -0.34949524   -0.80330386    3.16830523
| 32> C   -0.67026781    1.67121257    4.30271001
| 33> H   -0.64872686    1.70724297    3.21271145
| 34> H   -1.71005696    1.56744300    4.61719250
| 35> H   -0.29461522    2.62190705    4.68481693
| 36> *
| 37>
| 38> $new_job
| 39> ! ri-mp2 aug-cc-pvtz aug-cc-pvtz/c tightscf
| 40> %pal nprocs 16 end
| 41> %maxcore 3800
| 42> %base "TZ_S66by10_40_1.0_dimer"
| 43>
| 44> *xyz 0 1
| 45> C    0.31195353    0.56102334    0.49669886
| 46> H    0.74213608    1.55336911    0.48156571
| 47> C    1.14218235   -0.55807461    0.53606185
| 48> H    2.21651131   -0.43425014    0.55235015
| 49> C    0.58780415   -1.83668704    0.55414435
| 50> H    1.23191239   -2.70484153    0.58522179
| 51> C   -0.79665772   -1.99637562    0.53296300
| 52> H   -1.22677442   -2.98844427    0.54863708
| 53> C   -1.62689297   -0.87747365    0.49416828
| 54> H   -2.70112211   -1.00134997    0.47981498
| 55> C   -1.07266525    0.40120590    0.47597397
| 56> H   -1.71697357    1.26940117    0.44591995
| 57> C    0.17110497    0.50664089    4.81891549
| 58> C    1.61735365    0.68542824    4.36395400
| 59> H    2.03321037    1.61870612    4.74737698
| 60> H    2.24075297   -0.13518738    4.72280787
| 61> H    1.67796278    0.70481953    3.27501979
| 62> C    0.11671360    0.47526975    6.34378081
| 63> H   -0.90907643    0.34784933    6.69286858
| 64> H    0.71211950   -0.35041712    6.73633454
| 65> H    0.50500808    1.40315437    6.76668639
| 66> C   -0.37827507   -0.80285109    4.25861947
| 67> H   -1.41314867   -0.95312612    4.57129106
| 68> H    0.20818151   -1.65182485    4.61443074
| 69> H   -0.34949524   -0.80330386    3.16830523
| 70> C   -0.67026781    1.67121257    4.30271001
| 71> H   -0.64872686    1.70724297    3.21271145
| 72> H   -1.71005696    1.56744300    4.61719250
| 73> H   -0.29461522    2.62190705    4.68481693
| 74> *
| 75>
| 76> $new_job
| 77> ! ri-mp2 aug-cc-pvqz aug-cc-pvqz/c tightscf
| 78> %pal nprocs 16 end
| 79> %maxcore 3800
| 80> %base "QZ_S66by10_40_1.0_dimer"
| 81>
| 82> *xyz 0 1
| 83> C    0.31195353    0.56102334    0.49669886
| 84> H    0.74213608    1.55336911    0.48156571
| 85> C    1.14218235   -0.55807461    0.53606185
| 86> H    2.21651131   -0.43425014    0.55235015
| 87> C    0.58780415   -1.83668704    0.55414435
| 88> H    1.23191239   -2.70484153    0.58522179
| 89> C   -0.79665772   -1.99637562    0.53296300
| 90> H   -1.22677442   -2.98844427    0.54863708
| 91> C   -1.62689297   -0.87747365    0.49416828
| 92> H   -2.70112211   -1.00134997    0.47981498
| 93> C   -1.07266525    0.40120590    0.47597397
| 94> H   -1.71697357    1.26940117    0.44591995
| 95> C    0.17110497    0.50664089    4.81891549
| 96> C    1.61735365    0.68542824    4.36395400
| 97> H    2.03321037    1.61870612    4.74737698
| 98> H    2.24075297   -0.13518738    4.72280787
| 99> H    1.67796278    0.70481953    3.27501979
|100> C    0.11671360    0.47526975    6.34378081
|101> H   -0.90907643    0.34784933    6.69286858
|102> H    0.71211950   -0.35041712    6.73633454
|103> H    0.50500808    1.40315437    6.76668639
|104> C   -0.37827507   -0.80285109    4.25861947
|105> H   -1.41314867   -0.95312612    4.57129106
|106> H    0.20818151   -1.65182485    4.61443074
|107> H   -0.34949524   -0.80330386    3.16830523
|108> C   -0.67026781    1.67121257    4.30271001
|109> H   -0.64872686    1.70724297    3.21271145
|110> H   -1.71005696    1.56744300    4.61719250
|111> H   -0.29461522    2.62190705    4.68481693
|112> *
|113>
|114>
|115>
|116>
|117>                          ****END OF INPUT****
 Total Charge           Charge          ....    0
 Multiplicity           Mult            ....    1
 Number of Electrons    NEL             ....   84
MP2 TOTAL ENERGY:     -428.670852628 Eh
FINAL SINGLE POINT ENERGY      -428.670852628280
MP2 TOTAL ENERGY:     -429.070363096 Eh
FINAL SINGLE POINT ENERGY      -429.070363096063

CARTESIAN COORDINATES (ANGSTROEM)
---------------------------------
  C      0.311954    0.561023    0.496699
  H      0.742136    1.553369    0.481566
  C      1.142182   -0.558075    0.536062
  H      2.216511   -0.434250    0.552350
  C      0.587804   -1.836687    0.554144
  H      1.231912   -2.704842    0.585222
  C     -0.796658   -1.996376    0.532963
  H     -1.226774   -2.988444    0.548637
  C     -1.626893   -0.877474    0.494168
  H     -2.701122   -1.001350    0.479815
  C     -1.072665    0.401206    0.475974
  H     -1.716974    1.269401    0.445920
  C      0.171105    0.506641    4.818915
  C      1.617354    0.685428    4.363954
  H      2.033210    1.618706    4.747377
  H      2.240753   -0.135187    4.722808
  H      1.677963    0.704820    3.275020
  C      0.116714    0.475270    6.343781
  H     -0.909076    0.347849    6.692869
  H      0.712119   -0.350417    6.736335
  H      0.505008    1.403154    6.766686
  C     -0.378275   -0.802851    4.258619
  H     -1.413149   -0.953126    4.571291
  H      0.208182   -1.651825    4.614431
  H     -0.349495   -0.803304    3.168305
  C     -0.670268    1.671213    4.302710
  H     -0.648727    1.707243    3.212711
  H     -1.710057    1.567443    4.617192
  H     -0.294615    2.621907    4.684817

 Multiplicity           Mult            ....    1
 Number of Electrons    NEL             ....   84
 Basis Dimension        Dim             .... 1708

ORBITAL ENERGIES
----------------

  NO   OCC          E(Eh)            E(eV)
   0   2.0000     -11.237320      -305.7830
   1   2.0000     -11.236730      -305.7670
   2   2.0000     -11.236689      -305.7659
   3   2.0000     -11.235488      -305.7332
   4   2.0000     -11.235463      -305.7325
   5   2.0000     -11.234834      -305.7154
   6   2.0000     -11.218278      -305.2649
   7   2.0000     -11.198915      -304.7380
   8   2.0000     -11.197890      -304.7101
   9   2.0000     -11.197870      -304.7095
  10   2.0000     -11.193111      -304.5800
  11   2.0000      -1.152798       -31.3692
  12   2.0000      -1.098964       -29.9043
  13   2.0000      -1.017076       -27.6760
  14   2.0000      -1.016998       -27.6739
  15   2.0000      -0.922749       -25.1093
  16   2.0000      -0.922150       -25.0930
  17   2.0000      -0.919285       -25.0150
  18   2.0000      -0.826378       -22.4869
  19   2.0000      -0.826365       -22.4865
  20   2.0000      -0.722713       -19.6660
  21   2.0000      -0.712131       -19.3781
  22   2.0000      -0.646405       -17.5896
  23   2.0000      -0.621519       -16.9124
  24   2.0000      -0.605926       -16.4881
  25   2.0000      -0.605220       -16.4689
  26   2.0000      -0.604658       -16.4536
  27   2.0000      -0.590443       -16.0668
  28   2.0000      -0.590365       -16.0647
  29   2.0000      -0.546608       -14.8740
  30   2.0000      -0.546382       -14.8678
  31   2.0000      -0.510983       -13.9046
  32   2.0000      -0.503628       -13.7044
  33   2.0000      -0.501899       -13.6574
  34   2.0000      -0.497253       -13.5310
  35   2.0000      -0.497129       -13.5276
  36   2.0000      -0.497085       -13.5264
  37   2.0000      -0.445501       -12.1227
  38   2.0000      -0.444831       -12.1045
  39   2.0000      -0.442475       -12.0404
  40   2.0000      -0.339637        -9.2420
  41   2.0000      -0.339476        -9.2376
  42   0.0000       0.022239         0.6051
  43   0.0000       0.028111         0.7649
  44   0.0000       0.028507         0.7757
  45   0.0000       0.031853         0.8668
  46   0.0000       0.040014         1.0888

MULLIKEN ATOMIC CHARGES
-----------------------
   0 C :   -0.249006
   1 H :    0.324619
   2 C :   -0.335352
   3 H :    0.279298
   4 C :   -0.321285
   5 H :    0.286996
   6 C :   -0.272180
   7 H :    0.313655
   8 C :   -0.321162
   9 H :    0.286600
  10 C :   -0.334430
  11 H :    0.278976
  12 C :    1.876902
  13 C :   -1.344611
  14 H :    0.233738
  15 H :    0.195729
  16 H :    0.420244
  17 C :   -1.112998
  18 H :    0.222656
  19 H :    0.222679
  20 H :    0.235383
  21 C :   -1.390111
  22 H :    0.236951
  23 H :    0.236958
  24 H :    0.524943
  25 C :   -1.344558
  26 H :    0.419863
  27 H :    0.195839
  28 H :    0.233665
Sum of atomic charges:   -0.0000000

LOEWDIN ATOMIC CHARGES
----------------------
   0 C :    0.319008
   1 H :   -0.316476
   2 C :    0.324708
   3 H :   -0.318429
   4 C :    0.331081
   5 H :   -0.320086
   6 C :    0.328832
   7 H :   -0.320513
   8 C :    0.331147
   9 H :   -0.320098
  10 C :    0.324676
  11 H :   -0.318437
  12 C :   -0.324208
  13 C :    0.901640
  14 H :   -0.267951
  15 H :   -0.267453
  16 H :   -0.292886
  17 C :    0.902645
  18 H :   -0.271928
  19 H :   -0.271903
  20 H :   -0.271887
  21 C :    0.897362
  22 H :   -0.261918
  23 H :   -0.261909
  24 H :   -0.328361
  25 C :    0.901624
  26 H :   -0.292891
  27 H :   -0.267428
  28 H :   -0.267962

  Mayer bond orders larger than 0.100000
B(  0-C ,  1-H ) :   1.0106 B(  0-C ,  2-C ) :   1.1850 B(  0-C ,  6-C ) :   0.1672
B(  0-C , 10-C ) :   1.1841 B(  2-C ,  3-H ) :   1.0760 B(  2-C ,  4-C ) :   1.2017
B(  2-C ,  8-C ) :   0.1661 B(  4-C ,  5-H ) :   1.0914 B(  4-C ,  6-C ) :   1.2183
B(  4-C , 10-C ) :   0.1658 B(  6-C ,  7-H ) :   1.0497 B(  6-C ,  8-C ) :   1.2184
B(  6-C , 24-H ) :  -0.1119 B(  8-C ,  9-H ) :   1.0915 B(  8-C , 10-C ) :   1.2015
B( 10-C , 11-H ) :   1.0762 B( 12-C , 13-C ) :   0.3480 B( 12-C , 15-H ) :  -0.1016
B( 12-C , 18-H ) :  -0.1562 B( 12-C , 19-H ) :  -0.1563 B( 12-C , 20-H ) :  -0.1488
B( 12-C , 21-C ) :   0.4454 B( 12-C , 24-H ) :  -0.1967 B( 12-C , 25-C ) :   0.3479
B( 12-C , 27-H ) :  -0.1016 B( 13-C , 14-H ) :   1.0737 B( 13-C , 15-H ) :   1.0793
B( 13-C , 16-H ) :   0.8496 B( 13-C , 17-C ) :   0.1602 B( 13-C , 21-C ) :   0.1584
B( 13-C , 25-C ) :   0.1700 B( 17-C , 18-H ) :   1.0766 B( 17-C , 19-H ) :   1.0767
B( 17-C , 20-H ) :   1.0718 B( 17-C , 21-C ) :   0.1633 B( 17-C , 25-C ) :   0.1600
B( 21-C , 22-H ) :   0.9995 B( 21-C , 23-H ) :   0.9994 B( 21-C , 24-H ) :   0.9282
B( 21-C , 25-C ) :   0.1586 B( 25-C , 26-H ) :   0.8501 B( 25-C , 27-H ) :   1.0791
B( 25-C , 28-H ) :   1.0737

MP2 TOTAL ENERGY:     -429.192640782 Eh
FINAL SINGLE POINT ENERGY      -429.192640781655

DIPOLE MOMENT
-------------
                                X             Y             Z
Electronic contribution:     -1.32072      -3.90803     -13.69121
Nuclear contribution   :      1.29985       3.85112      13.55325
                        -----------------------------------------
Total Dipole Moment    :     -0.02087      -0.05691      -0.13796
                        -----------------------------------------
Magnitude (a.u.)       :      0.15069
Magnitude (Debye)      :      0.38301

Rotational constants in cm-1:     0.059766     0.017594     0.017457
Rotational constants in MHz :  1791.732349   527.459810   523.360693

                             ****ORCA TERMINATED NORMALLY****
TOTAL RUN TIME: 0 days 2 hours 6 minutes 43 seconds 934 msec
