                         Program Version 5.0.4 -  RELEASE  -
|  1> ! ri-mp2 aug-cc-pvdz aug-cc-pvdz/c tightscf
|  2> %pal nprocs 16 end
|  3> %maxcore 3800
|  4> %base "DZ_S66by10_62_1.05_dimer"
|  5> %scf STABPerform true end
|  6>
|  7> *xyz 0 1
|  8> C   -2.58777605   -0.32310566    0.46945828
|  9> H   -2.61038910   -0.87636604   -0.46961946
| 10> H   -2.65974410   -1.05188654    1.27771411
| 11> H   -3.47603507    0.30562460    0.50896129
| 12> C   -1.30955982    0.49739424    0.58506260
| 13> H   -1.31725060    1.08326190    1.50634108
| 14> H   -1.26237673    1.21557375   -0.23677617
| 15> C   -0.05682966   -0.36826029    0.55844017
| 16> H   -0.08617526   -1.07335882    1.39587537
| 17> H   -0.05380919   -0.97684333   -0.35147393
| 18> C    1.23159606    0.44006559    0.63203246
| 19> H    1.21328340    1.05356193    1.53459305
| 20> H    1.26629733    1.13137662   -0.21310563
| 21> C    2.47257523   -0.44314441    0.61922148
| 22> H    2.52071888   -1.03526342   -0.29489695
| 23> H    3.38773437    0.14408974    0.68390871
| 24> H    2.45929703   -1.13936423    1.45861821
| 25> C    0.04633776    0.21017243    4.31289321
| 26> O    0.07325003    1.39524592    4.02105202
| 27> N    1.17891803   -0.54170521    4.41571315
| 28> H    2.04985828   -0.11912469    4.14705090
| 29> H    1.13998007   -1.53359188    4.54713608
| 30> C   -1.24388322   -0.52876505    4.57734703
| 31> H   -1.09663322   -1.48948641    5.06447140
| 32> H   -1.75011075   -0.68707398    3.62653369
| 33> H   -1.88182717    0.09847138    5.19261889
| 34> *
| 35>
| 36> $new_job
| 37> ! ri-mp2 aug-cc-pvtz aug-cc-pvtz/c tightscf
| 38> %pal nprocs 16 end
| 39> %maxcore 3800
| 40> %base "TZ_S66by10_62_1.05_dimer"
| 41>
| 42> *xyz 0 1
| 43> C   -2.58777605   -0.32310566    0.46945828
| 44> H   -2.61038910   -0.87636604   -0.46961946
| 45> H   -2.65974410   -1.05188654    1.27771411
| 46> H   -3.47603507    0.30562460    0.50896129
| 47> C   -1.30955982    0.49739424    0.58506260
| 48> H   -1.31725060    1.08326190    1.50634108
| 49> H   -1.26237673    1.21557375   -0.23677617
| 50> C   -0.05682966   -0.36826029    0.55844017
| 51> H   -0.08617526   -1.07335882    1.39587537
| 52> H   -0.05380919   -0.97684333   -0.35147393
| 53> C    1.23159606    0.44006559    0.63203246
| 54> H    1.21328340    1.05356193    1.53459305
| 55> H    1.26629733    1.13137662   -0.21310563
| 56> C    2.47257523   -0.44314441    0.61922148
| 57> H    2.52071888   -1.03526342   -0.29489695
| 58> H    3.38773437    0.14408974    0.68390871
| 59> H    2.45929703   -1.13936423    1.45861821
| 60> C    0.04633776    0.21017243    4.31289321
| 61> O    0.07325003    1.39524592    4.02105202
| 62> N    1.17891803   -0.54170521    4.41571315
| 63> H    2.04985828   -0.11912469    4.14705090
| 64> H    1.13998007   -1.53359188    4.54713608
| 65> C   -1.24388322   -0.52876505    4.57734703
| 66> H   -1.09663322   -1.48948641    5.06447140
| 67> H   -1.75011075   -0.68707398    3.62653369
| 68> H   -1.88182717    0.09847138    5.19261889
| 69> *
| 70>
| 71> $new_job
| 72> ! ri-mp2 aug-cc-pvqz aug-cc-pvqz/c tightscf
| 73> %pal nprocs 16 end
| 74> %maxcore 3800
| 75> %base "QZ_S66by10_62_1.05_dimer"
| 76>
| 77> *xyz 0 1
| 78> C   -2.58777605   -0.32310566    0.46945828
| 79> H   -2.61038910   -0.87636604   -0.46961946
| 80> H   -2.65974410   -1.05188654    1.27771411
| 81> H   -3.47603507    0.30562460    0.50896129
| 82> C   -1.30955982    0.49739424    0.58506260
| 83> H   -1.31725060    1.08326190    1.50634108
| 84> H   -1.26237673    1.21557375   -0.23677617
| 85> C   -0.05682966   -0.36826029    0.55844017
| 86> H   -0.08617526   -1.07335882    1.39587537
| 87> H   -0.05380919   -0.97684333   -0.35147393
| 88> C    1.23159606    0.44006559    0.63203246
| 89> H    1.21328340    1.05356193    1.53459305
| 90> H    1.26629733    1.13137662   -0.21310563
| 91> C    2.47257523   -0.44314441    0.61922148
| 92> H    2.52071888   -1.03526342   -0.29489695
| 93> H    3.38773437    0.14408974    0.68390871
| 94> H    2.45929703   -1.13936423    1.45861821
| 95> C    0.04633776    0.21017243    4.31289321
| 96> O    0.07325003    1.39524592    4.02105202
| 97> N    1.17891803   -0.54170521    4.41571315
| 98> H    2.04985828   -0.11912469    4.14705090
| 99> H    1.13998007   -1.53359188    4.54713608
|100> C   -1.24388322   -0.52876505    4.57734703
|101> H   -1.09663322   -1.48948641    5.06447140
|102> H   -1.75011075   -0.68707398    3.62653369
|103> H   -1.88182717    0.09847138    5.19261889
|104> *
|105>
|106>
|107>
|108>
|109>                          ****END OF INPUT****
 Total Charge           Charge          ....    0
 Multiplicity           Mult            ....    1
 Number of Electrons    NEL             ....   74
MP2 TOTAL ENERGY:     -405.789768435 Eh
FINAL SINGLE POINT ENERGY      -405.789768434569
MP2 TOTAL ENERGY:     -406.171167980 Eh
FINAL SINGLE POINT ENERGY      -406.171167980392

CARTESIAN COORDINATES (ANGSTROEM)
---------------------------------
  C     -2.587776   -0.323106    0.469458
  H     -2.610389   -0.876366   -0.469619
  H     -2.659744   -1.051887    1.277714
  H     -3.476035    0.305625    0.508961
  C     -1.309560    0.497394    0.585063
  H     -1.317251    1.083262    1.506341
  H     -1.262377    1.215574   -0.236776
  C     -0.056830   -0.368260    0.558440
  H     -0.086175   -1.073359    1.395875
  H     -0.053809   -0.976843   -0.351474
  C      1.231596    0.440066    0.632032
  H      1.213283    1.053562    1.534593
  H      1.266297    1.131377   -0.213106
  C      2.472575   -0.443144    0.619221
  H      2.520719   -1.035263   -0.294897
  H      3.387734    0.144090    0.683909
  H      2.459297   -1.139364    1.458618
  C      0.046338    0.210172    4.312893
  O      0.073250    1.395246    4.021052
  N      1.178918   -0.541705    4.415713
  H      2.049858   -0.119125    4.147051
  H      1.139980   -1.533592    4.547136
  C     -1.243883   -0.528765    4.577347
  H     -1.096633   -1.489486    5.064471
  H     -1.750111   -0.687074    3.626534
  H     -1.881827    0.098471    5.192619

 Multiplicity           Mult            ....    1
 Number of Electrons    NEL             ....   74
 Basis Dimension        Dim             .... 1502

ORBITAL ENERGIES
----------------

  NO   OCC          E(Eh)            E(eV)
   0   2.0000     -20.516439      -558.2807
   1   2.0000     -15.587072      -424.1458
   2   2.0000     -11.355038      -308.9863
   3   2.0000     -11.237947      -305.8001
   4   2.0000     -11.206742      -304.9510
   5   2.0000     -11.205890      -304.9278
   6   2.0000     -11.205167      -304.9081
   7   2.0000     -11.204449      -304.8886
   8   2.0000     -11.204135      -304.8800
   9   2.0000      -1.380235       -37.5581
  10   2.0000      -1.215918       -33.0868
  11   2.0000      -1.077041       -29.3078
  12   2.0000      -1.012349       -27.5474
  13   2.0000      -1.008188       -27.4342
  14   2.0000      -0.917041       -24.9540
  15   2.0000      -0.816500       -22.2181
  16   2.0000      -0.802633       -21.8407
  17   2.0000      -0.780763       -21.2456
  18   2.0000      -0.730403       -19.8753
  19   2.0000      -0.667721       -18.1696
  20   2.0000      -0.647538       -17.6204
  21   2.0000      -0.615096       -16.7376
  22   2.0000      -0.595595       -16.2070
  23   2.0000      -0.590819       -16.0770
  24   2.0000      -0.589048       -16.0288
  25   2.0000      -0.564609       -15.3638
  26   2.0000      -0.551134       -14.9971
  27   2.0000      -0.546378       -14.8677
  28   2.0000      -0.528867       -14.3912
  29   2.0000      -0.523153       -14.2357
  30   2.0000      -0.491667       -13.3789
  31   2.0000      -0.472439       -12.8557
  32   2.0000      -0.457886       -12.4597
  33   2.0000      -0.455659       -12.3991
  34   2.0000      -0.443243       -12.0612
  35   2.0000      -0.427988       -11.6461
  36   2.0000      -0.417292       -11.3551
  37   0.0000       0.018837         0.5126
  38   0.0000       0.027923         0.7598
  39   0.0000       0.030724         0.8361
  40   0.0000       0.033796         0.9196
  41   0.0000       0.040214         1.0943

MULLIKEN ATOMIC CHARGES
-----------------------
   0 C :   -0.985300
   1 H :    0.241052
   2 H :    0.257471
   3 H :    0.243050
   4 C :   -0.521690
   5 H :    0.289804
   6 H :    0.311700
   7 C :   -0.283173
   8 H :    0.244030
   9 H :    0.325637
  10 C :   -0.580650
  11 H :    0.304308
  12 H :    0.311480
  13 C :   -0.991667
  14 H :    0.266729
  15 H :    0.253126
  16 H :    0.263559
  17 C :    1.182589
  18 O :   -0.952843
  19 N :   -0.808676
  20 H :    0.293417
  21 H :    0.292186
  22 C :   -0.849230
  23 H :    0.278168
  24 H :    0.330909
  25 H :    0.284014
Sum of atomic charges:    0.0000000

LOEWDIN ATOMIC CHARGES
----------------------
   0 C :    0.927126
   1 H :   -0.284160
   2 H :   -0.296007
   3 H :   -0.279954
   4 C :    0.502975
   5 H :   -0.291149
   6 H :   -0.268282
   7 C :    0.483599
   8 H :   -0.283752
   9 H :   -0.265308
  10 C :    0.500297
  11 H :   -0.302753
  12 H :   -0.267922
  13 C :    0.923739
  14 H :   -0.284543
  15 H :   -0.281514
  16 H :   -0.297010
  17 C :   -0.852051
  18 O :    0.700434
  19 N :    1.247099
  20 H :   -0.500647
  21 H :   -0.499726
  22 C :    0.889730
  23 H :   -0.305166
  24 H :   -0.314132
  25 H :   -0.300923

  Mayer bond orders larger than 0.100000
B(  0-C ,  1-H ) :   0.9810 B(  0-C ,  2-H ) :   0.9105 B(  0-C ,  3-H ) :   1.0502
B(  0-C ,  4-C ) :   0.9964 B(  0-C ,  7-C ) :  -0.1059 B(  3-H ,  4-C ) :  -0.1038
B(  4-C ,  5-H ) :   0.8479 B(  4-C ,  6-H ) :   0.8519 B(  4-C ,  7-C ) :   0.7915
B(  7-C ,  8-H ) :   0.8492 B(  7-C ,  9-H ) :   0.8679 B(  7-C , 10-C ) :   0.8485
B( 10-C , 11-H ) :   0.8469 B( 10-C , 12-H ) :   0.8458 B( 10-C , 13-C ) :   1.0030
B( 13-C , 14-H ) :   0.9490 B( 13-C , 15-H ) :   1.0394 B( 13-C , 16-H ) :   0.9228
B( 17-C , 18-O ) :   1.1160 B( 17-C , 19-N ) :   0.9915 B( 17-C , 22-C ) :   0.9000
B( 18-O , 19-N ) :   0.1292 B( 19-N , 20-H ) :   0.9114 B( 19-N , 21-H ) :   0.9221
B( 22-C , 23-H ) :   0.9952 B( 22-C , 24-H ) :   0.8038 B( 22-C , 25-H ) :   0.9679

MP2 TOTAL ENERGY:     -406.288769384 Eh
FINAL SINGLE POINT ENERGY      -406.288769384396

DIPOLE MOMENT
-------------
                                X             Y             Z
Electronic contribution:      1.95451       3.61138       8.78413
Nuclear contribution   :     -1.78796      -5.05891      -8.49678
                        -----------------------------------------
Total Dipole Moment    :      0.16655      -1.44753       0.28734
                        -----------------------------------------
Magnitude (a.u.)       :      1.48514
Magnitude (Debye)      :      3.77494

Rotational constants in cm-1:     0.046052     0.031339     0.021831
Rotational constants in MHz :  1380.618830   939.529581   654.471736

                             ****ORCA TERMINATED NORMALLY****
TOTAL RUN TIME: 0 days 7 hours 14 minutes 23 seconds 539 msec
