                         Program Version 5.0.4 -  RELEASE  -
|  1> ! ri-mp2 aug-cc-pvdz aug-cc-pvdz/c tightscf
|  2> %pal nprocs 16 end
|  3> %maxcore 3800
|  4> %base "DZ_S66by10_48_1.1_dimer"
|  5>
|  6> *xyz 0 1
|  7> N    1.32276272   -0.01037598    1.01918373
|  8> C    0.65128601   -1.14899203    0.79680119
|  9> H    1.20041842   -2.06552808    0.97367282
| 10> C   -0.67268130   -1.19471172    0.36665693
| 11> H   -1.15719362   -2.14732141    0.20646407
| 12> C   -1.34719675    0.00313399    0.15214401
| 13> H   -2.37535653    0.00840542   -0.18229302
| 14> C   -0.66455797    1.19409062    0.37900199
| 15> H   -1.14262633    2.15155765    0.22872051
| 16> C    0.65889576    1.13497854    0.80885987
| 17> H    1.21410272    2.04591045    0.99543831
| 18> N    0.37464646   -0.00019538    7.03638761
| 19> C    1.24531448   -0.00580818    6.01697458
| 20> H    2.29317105   -0.00455965    6.29127737
| 21> C    0.87192874   -0.01287594    4.67514651
| 22> H    1.61938941   -0.01703996    3.89404686
| 23> C   -0.48411981   -0.01429000    4.36273104
| 24> H   -0.81384849   -0.01974548    3.33244959
| 25> C   -1.40222308   -0.00857492    5.40790066
| 26> H   -2.46667311   -0.00942430    5.21916487
| 27> C   -0.92661927   -0.00165726    6.71685951
| 28> H   -1.61880294    0.00292587    7.55005071
| 29> *
| 30>
| 31> $new_job
| 32> ! ri-mp2 aug-cc-pvtz aug-cc-pvtz/c tightscf
| 33> %pal nprocs 16 end
| 34> %maxcore 3800
| 35> %base "TZ_S66by10_48_1.1_dimer"
| 36>
| 37> *xyz 0 1
| 38> N    1.32276272   -0.01037598    1.01918373
| 39> C    0.65128601   -1.14899203    0.79680119
| 40> H    1.20041842   -2.06552808    0.97367282
| 41> C   -0.67268130   -1.19471172    0.36665693
| 42> H   -1.15719362   -2.14732141    0.20646407
| 43> C   -1.34719675    0.00313399    0.15214401
| 44> H   -2.37535653    0.00840542   -0.18229302
| 45> C   -0.66455797    1.19409062    0.37900199
| 46> H   -1.14262633    2.15155765    0.22872051
| 47> C    0.65889576    1.13497854    0.80885987
| 48> H    1.21410272    2.04591045    0.99543831
| 49> N    0.37464646   -0.00019538    7.03638761
| 50> C    1.24531448   -0.00580818    6.01697458
| 51> H    2.29317105   -0.00455965    6.29127737
| 52> C    0.87192874   -0.01287594    4.67514651
| 53> H    1.61938941   -0.01703996    3.89404686
| 54> C   -0.48411981   -0.01429000    4.36273104
| 55> H   -0.81384849   -0.01974548    3.33244959
| 56> C   -1.40222308   -0.00857492    5.40790066
| 57> H   -2.46667311   -0.00942430    5.21916487
| 58> C   -0.92661927   -0.00165726    6.71685951
| 59> H   -1.61880294    0.00292587    7.55005071
| 60> *
| 61>
| 62> $new_job
| 63> ! ri-mp2 aug-cc-pvqz aug-cc-pvqz/c tightscf
| 64> %pal nprocs 16 end
| 65> %maxcore 3800
| 66> %base "QZ_S66by10_48_1.1_dimer"
| 67>
| 68> *xyz 0 1
| 69> N    1.32276272   -0.01037598    1.01918373
| 70> C    0.65128601   -1.14899203    0.79680119
| 71> H    1.20041842   -2.06552808    0.97367282
| 72> C   -0.67268130   -1.19471172    0.36665693
| 73> H   -1.15719362   -2.14732141    0.20646407
| 74> C   -1.34719675    0.00313399    0.15214401
| 75> H   -2.37535653    0.00840542   -0.18229302
| 76> C   -0.66455797    1.19409062    0.37900199
| 77> H   -1.14262633    2.15155765    0.22872051
| 78> C    0.65889576    1.13497854    0.80885987
| 79> H    1.21410272    2.04591045    0.99543831
| 80> N    0.37464646   -0.00019538    7.03638761
| 81> C    1.24531448   -0.00580818    6.01697458
| 82> H    2.29317105   -0.00455965    6.29127737
| 83> C    0.87192874   -0.01287594    4.67514651
| 84> H    1.61938941   -0.01703996    3.89404686
| 85> C   -0.48411981   -0.01429000    4.36273104
| 86> H   -0.81384849   -0.01974548    3.33244959
| 87> C   -1.40222308   -0.00857492    5.40790066
| 88> H   -2.46667311   -0.00942430    5.21916487
| 89> C   -0.92661927   -0.00165726    6.71685951
| 90> H   -1.61880294    0.00292587    7.55005071
| 91> *
| 92>
| 93>
| 94>
| 95>
| 96>                          ****END OF INPUT****
 Total Charge           Charge          ....    0
 Multiplicity           Mult            ....    1
 Number of Electrons    NEL             ....   84
MP2 TOTAL ENERGY:     -495.134637108 Eh
FINAL SINGLE POINT ENERGY      -495.134637108004
MP2 TOTAL ENERGY:     -495.562086013 Eh
FINAL SINGLE POINT ENERGY      -495.562086012886

CARTESIAN COORDINATES (ANGSTROEM)
---------------------------------
  N      1.322763   -0.010376    1.019184
  C      0.651286   -1.148992    0.796801
  H      1.200418   -2.065528    0.973673
  C     -0.672681   -1.194712    0.366657
  H     -1.157194   -2.147321    0.206464
  C     -1.347197    0.003134    0.152144
  H     -2.375357    0.008405   -0.182293
  C     -0.664558    1.194091    0.379002
  H     -1.142626    2.151558    0.228721
  C      0.658896    1.134979    0.808860
  H      1.214103    2.045910    0.995438
  N      0.374646   -0.000195    7.036388
  C      1.245314   -0.005808    6.016975
  H      2.293171   -0.004560    6.291277
  C      0.871929   -0.012876    4.675147
  H      1.619389   -0.017040    3.894047
  C     -0.484120   -0.014290    4.362731
  H     -0.813848   -0.019745    3.332450
  C     -1.402223   -0.008575    5.407901
  H     -2.466673   -0.009424    5.219165
  C     -0.926619   -0.001657    6.716860
  H     -1.618803    0.002926    7.550051

 Multiplicity           Mult            ....    1
 Number of Electrons    NEL             ....   84
 Basis Dimension        Dim             .... 1420

ORBITAL ENERGIES
----------------

  NO   OCC          E(Eh)            E(eV)
   0   2.0000     -15.574751      -423.8105
   1   2.0000     -15.558177      -423.3595
   2   2.0000     -11.283663      -307.0441
   3   2.0000     -11.283629      -307.0432
   4   2.0000     -11.268815      -306.6400
   5   2.0000     -11.267475      -306.6036
   6   2.0000     -11.266421      -306.5749
   7   2.0000     -11.250522      -306.1423
   8   2.0000     -11.250463      -306.1407
   9   2.0000     -11.250151      -306.1322
  10   2.0000     -11.234332      -305.7017
  11   2.0000     -11.230911      -305.6086
  12   2.0000      -1.266288       -34.4574
  13   2.0000      -1.249043       -33.9882
  14   2.0000      -1.099222       -29.9113
  15   2.0000      -1.081348       -29.4250
  16   2.0000      -1.042961       -28.3804
  17   2.0000      -1.025615       -27.9084
  18   2.0000      -0.868641       -23.6369
  19   2.0000      -0.865219       -23.5438
  20   2.0000      -0.851129       -23.1604
  21   2.0000      -0.848086       -23.0776
  22   2.0000      -0.731409       -19.9026
  23   2.0000      -0.714413       -19.4402
  24   2.0000      -0.670013       -18.2320
  25   2.0000      -0.663301       -18.0493
  26   2.0000      -0.652848       -17.7649
  27   2.0000      -0.646146       -17.5825
  28   2.0000      -0.607605       -16.5338
  29   2.0000      -0.591241       -16.0885
  30   2.0000      -0.586353       -15.9555
  31   2.0000      -0.572614       -15.5816
  32   2.0000      -0.547343       -14.8940
  33   2.0000      -0.534187       -14.5360
  34   2.0000      -0.529243       -14.4014
  35   2.0000      -0.511651       -13.9227
  36   2.0000      -0.429883       -11.6977
  37   2.0000      -0.413403       -11.2493
  38   2.0000      -0.394199       -10.7267
  39   2.0000      -0.377219       -10.2646
  40   2.0000      -0.357155        -9.7187
  41   2.0000      -0.340415        -9.2632
  42   0.0000       0.017426         0.4742
  43   0.0000       0.026411         0.7187
  44   0.0000       0.028852         0.7851
  45   0.0000       0.030713         0.8358
  46   0.0000       0.038755         1.0546

MULLIKEN ATOMIC CHARGES
-----------------------
   0 N :   -0.731059
   1 C :   -0.158903
   2 H :    0.467875
   3 C :   -0.301956
   4 H :    0.335760
   5 C :   -0.315971
   6 H :    0.371379
   7 C :   -0.303758
   8 H :    0.335893
   9 C :   -0.157045
  10 H :    0.468047
  11 N :   -0.682908
  12 C :    0.039454
  13 H :    0.499374
  14 C :   -0.743610
  15 H :    0.335764
  16 C :   -0.191920
  17 H :    0.729798
  18 C :   -0.581897
  19 H :    0.267974
  20 C :   -0.215012
  21 H :    0.532722
Sum of atomic charges:    0.0000000

LOEWDIN ATOMIC CHARGES
----------------------
   0 N :    0.586416
   1 C :    0.062285
   2 H :   -0.348184
   3 C :    0.326733
   4 H :   -0.326677
   5 C :    0.326676
   6 H :   -0.311712
   7 C :    0.326768
   8 H :   -0.326635
   9 C :    0.062126
  10 H :   -0.348115
  11 N :    0.586351
  12 C :    0.074390
  13 H :   -0.357155
  14 C :    0.327908
  15 H :   -0.344941
  16 C :    0.319601
  17 H :   -0.344486
  18 C :    0.333144
  19 H :   -0.331550
  20 C :    0.065568
  21 H :   -0.358512

  Mayer bond orders larger than 0.100000
B(  0-N ,  1-C ) :   1.1323 B(  0-N ,  2-H ) :  -0.1529 B(  0-N ,  9-C ) :   1.1320
B(  0-N , 10-H ) :  -0.1532 B(  1-C ,  2-H ) :   0.9013 B(  1-C ,  3-C ) :   1.1853
B(  1-C ,  7-C ) :   0.1120 B(  3-C ,  4-H ) :   0.9986 B(  3-C ,  5-C ) :   1.1986
B(  3-C ,  9-C ) :   0.1119 B(  5-C ,  6-H ) :   0.9709 B(  5-C ,  7-C ) :   1.2013
B(  7-C ,  8-H ) :   0.9980 B(  7-C ,  9-C ) :   1.1838 B(  9-C , 10-H ) :   0.9013
B( 11-N , 12-C ) :   1.2034 B( 11-N , 13-H ) :  -0.1018 B( 11-N , 14-C ) :   0.1692
B( 11-N , 18-C ) :   0.1077 B( 11-N , 20-C ) :   1.2260 B( 11-N , 21-H ) :  -0.1202
B( 12-C , 13-H ) :   0.8301 B( 12-C , 14-C ) :   1.3045 B( 12-C , 16-C ) :  -0.2412
B( 12-C , 18-C ) :   0.1435 B( 13-H , 14-C ) :  -0.1445 B( 14-C , 15-H ) :   0.9721
B( 14-C , 16-C ) :   1.0784 B( 14-C , 17-H ) :  -0.1562 B( 14-C , 20-C ) :   0.1107
B( 16-C , 17-H ) :   0.4966 B( 16-C , 18-C ) :   1.0632 B( 16-C , 20-C ) :  -0.2943
B( 17-H , 18-C ) :  -0.1814 B( 18-C , 19-H ) :   1.0240 B( 18-C , 20-C ) :   1.4512
B( 18-C , 21-H ) :  -0.1119 B( 20-C , 21-H ) :   0.7852

MP2 TOTAL ENERGY:     -495.698580340 Eh
FINAL SINGLE POINT ENERGY      -495.698580340313

DIPOLE MOMENT
-------------
                                X             Y             Z
Electronic contribution:      1.68695       0.00094       1.42574
Nuclear contribution   :     -2.77843      -0.00040      -2.78172
                        -----------------------------------------
Total Dipole Moment    :     -1.09148       0.00054      -1.35598
                        -----------------------------------------
Magnitude (a.u.)       :      1.74069
Magnitude (Debye)      :      4.42448

Rotational constants in cm-1:     0.068658     0.013873     0.013029
Rotational constants in MHz :  2058.305059   415.893150   390.608343

                             ****ORCA TERMINATED NORMALLY****
TOTAL RUN TIME: 0 days 1 hours 11 minutes 53 seconds 965 msec
