                         Program Version 5.0.4 -  RELEASE  -
|  1> ! ri-mp2 aug-cc-pvdz aug-cc-pvdz/c tightscf
|  2> %pal nprocs 16 end
|  3> %maxcore 3800
|  4> %base "DZ_S66by10_40_1.5_dimer"
|  5>
|  6> *xyz 0 1
|  7> C    0.31195353    0.56102334    0.49669886
|  8> H    0.74213608    1.55336911    0.48156571
|  9> C    1.14218235   -0.55807461    0.53606185
| 10> H    2.21651131   -0.43425014    0.55235015
| 11> C    0.58780415   -1.83668704    0.55414435
| 12> H    1.23191239   -2.70484153    0.58522179
| 13> C   -0.79665772   -1.99637562    0.53296300
| 14> H   -1.22677442   -2.98844427    0.54863708
| 15> C   -1.62689297   -0.87747365    0.49416828
| 16> H   -2.70112211   -1.00134997    0.47981498
| 17> C   -1.07266525    0.40120590    0.47597397
| 18> H   -1.71697357    1.26940117    0.44591995
| 19> C    0.10703135    0.45545100    6.40602382
| 20> C    1.55328003    0.63423836    5.95106233
| 21> H    1.96913675    1.56751624    6.33448531
| 22> H    2.17667935   -0.18637727    6.30991620
| 23> H    1.61388917    0.65362965    4.86212812
| 24> C    0.05263998    0.42407986    7.93088914
| 25> H   -0.97315004    0.29665944    8.27997691
| 26> H    0.64804589   -0.40160701    8.32344287
| 27> H    0.44093447    1.35196449    8.35379472
| 28> C   -0.44234868   -0.85404097    5.84572780
| 29> H   -1.47722228   -1.00431601    6.15839939
| 30> H    0.14410790   -1.70301474    6.20153907
| 31> H   -0.41356885   -0.85449375    4.75541356
| 32> C   -0.73434143    1.62002269    5.88981835
| 33> H   -0.71280047    1.65605308    4.79981978
| 34> H   -1.77413058    1.51625312    6.20430083
| 35> H   -0.35868883    2.57071716    6.27192526
| 36> *
| 37>
| 38> $new_job
| 39> ! ri-mp2 aug-cc-pvtz aug-cc-pvtz/c tightscf
| 40> %pal nprocs 16 end
| 41> %maxcore 3800
| 42> %base "TZ_S66by10_40_1.5_dimer"
| 43>
| 44> *xyz 0 1
| 45> C    0.31195353    0.56102334    0.49669886
| 46> H    0.74213608    1.55336911    0.48156571
| 47> C    1.14218235   -0.55807461    0.53606185
| 48> H    2.21651131   -0.43425014    0.55235015
| 49> C    0.58780415   -1.83668704    0.55414435
| 50> H    1.23191239   -2.70484153    0.58522179
| 51> C   -0.79665772   -1.99637562    0.53296300
| 52> H   -1.22677442   -2.98844427    0.54863708
| 53> C   -1.62689297   -0.87747365    0.49416828
| 54> H   -2.70112211   -1.00134997    0.47981498
| 55> C   -1.07266525    0.40120590    0.47597397
| 56> H   -1.71697357    1.26940117    0.44591995
| 57> C    0.10703135    0.45545100    6.40602382
| 58> C    1.55328003    0.63423836    5.95106233
| 59> H    1.96913675    1.56751624    6.33448531
| 60> H    2.17667935   -0.18637727    6.30991620
| 61> H    1.61388917    0.65362965    4.86212812
| 62> C    0.05263998    0.42407986    7.93088914
| 63> H   -0.97315004    0.29665944    8.27997691
| 64> H    0.64804589   -0.40160701    8.32344287
| 65> H    0.44093447    1.35196449    8.35379472
| 66> C   -0.44234868   -0.85404097    5.84572780
| 67> H   -1.47722228   -1.00431601    6.15839939
| 68> H    0.14410790   -1.70301474    6.20153907
| 69> H   -0.41356885   -0.85449375    4.75541356
| 70> C   -0.73434143    1.62002269    5.88981835
| 71> H   -0.71280047    1.65605308    4.79981978
| 72> H   -1.77413058    1.51625312    6.20430083
| 73> H   -0.35868883    2.57071716    6.27192526
| 74> *
| 75>
| 76> $new_job
| 77> ! ri-mp2 aug-cc-pvqz aug-cc-pvqz/c tightscf
| 78> %pal nprocs 16 end
| 79> %maxcore 3800
| 80> %base "QZ_S66by10_40_1.5_dimer"
| 81>
| 82> *xyz 0 1
| 83> C    0.31195353    0.56102334    0.49669886
| 84> H    0.74213608    1.55336911    0.48156571
| 85> C    1.14218235   -0.55807461    0.53606185
| 86> H    2.21651131   -0.43425014    0.55235015
| 87> C    0.58780415   -1.83668704    0.55414435
| 88> H    1.23191239   -2.70484153    0.58522179
| 89> C   -0.79665772   -1.99637562    0.53296300
| 90> H   -1.22677442   -2.98844427    0.54863708
| 91> C   -1.62689297   -0.87747365    0.49416828
| 92> H   -2.70112211   -1.00134997    0.47981498
| 93> C   -1.07266525    0.40120590    0.47597397
| 94> H   -1.71697357    1.26940117    0.44591995
| 95> C    0.10703135    0.45545100    6.40602382
| 96> C    1.55328003    0.63423836    5.95106233
| 97> H    1.96913675    1.56751624    6.33448531
| 98> H    2.17667935   -0.18637727    6.30991620
| 99> H    1.61388917    0.65362965    4.86212812
|100> C    0.05263998    0.42407986    7.93088914
|101> H   -0.97315004    0.29665944    8.27997691
|102> H    0.64804589   -0.40160701    8.32344287
|103> H    0.44093447    1.35196449    8.35379472
|104> C   -0.44234868   -0.85404097    5.84572780
|105> H   -1.47722228   -1.00431601    6.15839939
|106> H    0.14410790   -1.70301474    6.20153907
|107> H   -0.41356885   -0.85449375    4.75541356
|108> C   -0.73434143    1.62002269    5.88981835
|109> H   -0.71280047    1.65605308    4.79981978
|110> H   -1.77413058    1.51625312    6.20430083
|111> H   -0.35868883    2.57071716    6.27192526
|112> *
|113>
|114>
|115>
|116>
|117>                          ****END OF INPUT****
 Total Charge           Charge          ....    0
 Multiplicity           Mult            ....    1
 Number of Electrons    NEL             ....   84
MP2 TOTAL ENERGY:     -428.662873994 Eh
FINAL SINGLE POINT ENERGY      -428.662873993647
MP2 TOTAL ENERGY:     -429.064551143 Eh
FINAL SINGLE POINT ENERGY      -429.064551143170

CARTESIAN COORDINATES (ANGSTROEM)
---------------------------------
  C      0.311954    0.561023    0.496699
  H      0.742136    1.553369    0.481566
  C      1.142182   -0.558075    0.536062
  H      2.216511   -0.434250    0.552350
  C      0.587804   -1.836687    0.554144
  H      1.231912   -2.704842    0.585222
  C     -0.796658   -1.996376    0.532963
  H     -1.226774   -2.988444    0.548637
  C     -1.626893   -0.877474    0.494168
  H     -2.701122   -1.001350    0.479815
  C     -1.072665    0.401206    0.475974
  H     -1.716974    1.269401    0.445920
  C      0.107031    0.455451    6.406024
  C      1.553280    0.634238    5.951062
  H      1.969137    1.567516    6.334485
  H      2.176679   -0.186377    6.309916
  H      1.613889    0.653630    4.862128
  C      0.052640    0.424080    7.930889
  H     -0.973150    0.296659    8.279977
  H      0.648046   -0.401607    8.323443
  H      0.440934    1.351964    8.353795
  C     -0.442349   -0.854041    5.845728
  H     -1.477222   -1.004316    6.158399
  H      0.144108   -1.703015    6.201539
  H     -0.413569   -0.854494    4.755414
  C     -0.734341    1.620023    5.889818
  H     -0.712800    1.656053    4.799820
  H     -1.774131    1.516253    6.204301
  H     -0.358689    2.570717    6.271925

 Multiplicity           Mult            ....    1
 Number of Electrons    NEL             ....   84
 Basis Dimension        Dim             .... 1708

ORBITAL ENERGIES
----------------

  NO   OCC          E(Eh)            E(eV)
   0   2.0000     -11.236067      -305.7489
   1   2.0000     -11.235488      -305.7332
   2   2.0000     -11.235476      -305.7328
   3   2.0000     -11.234252      -305.6995
   4   2.0000     -11.234228      -305.6989
   5   2.0000     -11.233623      -305.6824
   6   2.0000     -11.222126      -305.3696
   7   2.0000     -11.201957      -304.8208
   8   2.0000     -11.201258      -304.8017
   9   2.0000     -11.201237      -304.8012
  10   2.0000     -11.200056      -304.7690
  11   2.0000      -1.150931       -31.3184
  12   2.0000      -1.102830       -30.0095
  13   2.0000      -1.015396       -27.6303
  14   2.0000      -1.015338       -27.6288
  15   2.0000      -0.925780       -25.1917
  16   2.0000      -0.925159       -25.1748
  17   2.0000      -0.924339       -25.1526
  18   2.0000      -0.824870       -22.4458
  19   2.0000      -0.824819       -22.4445
  20   2.0000      -0.726157       -19.7597
  21   2.0000      -0.710559       -19.3353
  22   2.0000      -0.644957       -17.5502
  23   2.0000      -0.620039       -16.8721
  24   2.0000      -0.608763       -16.5653
  25   2.0000      -0.608457       -16.5570
  26   2.0000      -0.608257       -16.5515
  27   2.0000      -0.588984       -16.0271
  28   2.0000      -0.588934       -16.0257
  29   2.0000      -0.549834       -14.9618
  30   2.0000      -0.549461       -14.9516
  31   2.0000      -0.506338       -13.7782
  32   2.0000      -0.506100       -13.7717
  33   2.0000      -0.505723       -13.7614
  34   2.0000      -0.503383       -13.6978
  35   2.0000      -0.495824       -13.4920
  36   2.0000      -0.495810       -13.4917
  37   2.0000      -0.449391       -12.2286
  38   2.0000      -0.448867       -12.2143
  39   2.0000      -0.448650       -12.2084
  40   2.0000      -0.337837        -9.1930
  41   2.0000      -0.337813        -9.1924
  42   0.0000       0.023226         0.6320
  43   0.0000       0.028118         0.7651
  44   0.0000       0.028284         0.7696
  45   0.0000       0.031114         0.8467
  46   0.0000       0.039320         1.0700

MULLIKEN ATOMIC CHARGES
-----------------------
   0 C :   -0.342399
   1 H :    0.335407
   2 C :   -0.359026
   3 H :    0.338215
   4 C :   -0.325208
   5 H :    0.337412
   6 C :   -0.323286
   7 H :    0.333481
   8 C :   -0.325154
   9 H :    0.336959
  10 C :   -0.358328
  11 H :    0.338598
  12 C :    1.472985
  13 C :   -1.176323
  14 H :    0.234870
  15 H :    0.217210
  16 H :    0.354118
  17 C :   -1.083127
  18 H :    0.234365
  19 H :    0.234404
  20 H :    0.241682
  21 C :   -1.246617
  22 H :    0.216104
  23 H :    0.216467
  24 H :    0.467356
  25 C :   -1.176276
  26 H :    0.354233
  27 H :    0.217268
  28 H :    0.234612
Sum of atomic charges:   -0.0000000

LOEWDIN ATOMIC CHARGES
----------------------
   0 C :    0.326172
   1 H :   -0.327226
   2 C :    0.326656
   3 H :   -0.327141
   4 C :    0.327362
   5 H :   -0.327053
   6 C :    0.327817
   7 H :   -0.327109
   8 C :    0.327386
   9 H :   -0.327058
  10 C :    0.326634
  11 H :   -0.327133
  12 C :   -0.337565
  13 C :    0.899435
  14 H :   -0.270820
  15 H :   -0.271166
  16 H :   -0.273515
  17 C :    0.899876
  18 H :   -0.271949
  19 H :   -0.271923
  20 H :   -0.271525
  21 C :    0.899962
  22 H :   -0.270647
  23 H :   -0.270640
  24 H :   -0.272757
  25 C :    0.899413
  26 H :   -0.273513
  27 H :   -0.271143
  28 H :   -0.270832

  Mayer bond orders larger than 0.100000
B(  0-C ,  1-H ) :   0.9781 B(  0-C ,  2-C ) :   1.2552 B(  0-C ,  6-C ) :   0.1231
B(  0-C , 10-C ) :   1.2549 B(  2-C ,  3-H ) :   0.9826 B(  2-C ,  4-C ) :   1.2587
B(  2-C ,  8-C ) :   0.1316 B(  4-C ,  5-H ) :   0.9849 B(  4-C ,  6-C ) :   1.2481
B(  4-C , 10-C ) :   0.1317 B(  6-C ,  7-H ) :   0.9971 B(  6-C ,  8-C ) :   1.2480
B(  8-C ,  9-H ) :   0.9854 B(  8-C , 10-C ) :   1.2585 B( 10-C , 11-H ) :   0.9822
B( 12-C , 13-C ) :   0.4313 B( 12-C , 17-C ) :   0.3701 B( 12-C , 18-H ) :  -0.1103
B( 12-C , 19-H ) :  -0.1103 B( 12-C , 20-H ) :  -0.1102 B( 12-C , 21-C ) :   0.4464
B( 12-C , 25-C ) :   0.4315 B( 13-C , 14-H ) :   1.0490 B( 13-C , 15-H ) :   1.0499
B( 13-C , 16-H ) :   0.9169 B( 13-C , 17-C ) :   0.1238 B( 13-C , 21-C ) :   0.1338
B( 13-C , 25-C ) :   0.1242 B( 17-C , 18-H ) :   1.0414 B( 17-C , 19-H ) :   1.0415
B( 17-C , 20-H ) :   1.0400 B( 17-C , 21-C ) :   0.1159 B( 17-C , 25-C ) :   0.1238
B( 21-C , 22-H ) :   1.0630 B( 21-C , 23-H ) :   1.0626 B( 21-C , 24-H ) :   0.8062
B( 21-C , 25-C ) :   0.1339 B( 25-C , 26-H ) :   0.9167 B( 25-C , 27-H ) :   1.0498
B( 25-C , 28-H ) :   1.0492

MP2 TOTAL ENERGY:     -429.187765820 Eh
FINAL SINGLE POINT ENERGY      -429.187765820343

DIPOLE MOMENT
-------------
                                X             Y             Z
Electronic contribution:     -1.10535      -3.71025     -18.60732
Nuclear contribution   :      1.09804       3.68990      18.55200
                        -----------------------------------------
Total Dipole Moment    :     -0.00731      -0.02035      -0.05532
                        -----------------------------------------
Magnitude (a.u.)       :      0.05940
Magnitude (Debye)      :      0.15098

Rotational constants in cm-1:     0.058915     0.010817     0.010793
Rotational constants in MHz :  1766.228173   324.290259   323.577775

                             ****ORCA TERMINATED NORMALLY****
TOTAL RUN TIME: 0 days 1 hours 4 minutes 19 seconds 864 msec
