                         Program Version 5.0.4 -  RELEASE  -
|  1> ! ri-mp2 aug-cc-pvdz aug-cc-pvdz/c tightscf
|  2> %pal nprocs 16 end
|  3> %maxcore 3800
|  4> %base "DZ_S66by10_7_0.7_dimer"
|  5> %scf STABPerform true end
|  6>
|  7> *xyz 0 1
|  8> O   -0.20877739   -0.21687067   -1.03240597
|  9> H    0.71112593   -0.38689175   -0.77396240
| 10> C   -1.02217337   -0.74117114   -0.00545419
| 11> H   -2.05749119   -0.53870733   -0.26859725
| 12> H   -0.90774336   -1.82182632    0.10853710
| 13> H   -0.82463111   -0.27549472    0.96464547
| 14> C    1.46467250    1.89879496    0.25669957
| 15> H    1.97106613    2.86024404    0.22182921
| 16> H    1.05412838    1.75265908    1.25457621
| 17> H    0.63502470    1.88928169   -0.44480597
| 18> C    2.38030288    0.74385614   -0.05921665
| 19> O    1.95610809   -0.37605465   -0.34429818
| 20> N    3.70643980    1.00558042   -0.00001728
| 21> H    4.00445225    1.91600855    0.29766991
| 22> C    4.68884583   -0.03453089   -0.22276110
| 23> H    4.33228864   -0.68546821   -1.01493806
| 24> H    5.62921507    0.41899295   -0.52127480
| 25> H    4.84835595   -0.63905779    0.66931443
| 26> *
| 27>
| 28> $new_job
| 29> ! ri-mp2 aug-cc-pvtz aug-cc-pvtz/c tightscf
| 30> %pal nprocs 16 end
| 31> %maxcore 3800
| 32> %base "TZ_S66by10_7_0.7_dimer"
| 33>
| 34> *xyz 0 1
| 35> O   -0.20877739   -0.21687067   -1.03240597
| 36> H    0.71112593   -0.38689175   -0.77396240
| 37> C   -1.02217337   -0.74117114   -0.00545419
| 38> H   -2.05749119   -0.53870733   -0.26859725
| 39> H   -0.90774336   -1.82182632    0.10853710
| 40> H   -0.82463111   -0.27549472    0.96464547
| 41> C    1.46467250    1.89879496    0.25669957
| 42> H    1.97106613    2.86024404    0.22182921
| 43> H    1.05412838    1.75265908    1.25457621
| 44> H    0.63502470    1.88928169   -0.44480597
| 45> C    2.38030288    0.74385614   -0.05921665
| 46> O    1.95610809   -0.37605465   -0.34429818
| 47> N    3.70643980    1.00558042   -0.00001728
| 48> H    4.00445225    1.91600855    0.29766991
| 49> C    4.68884583   -0.03453089   -0.22276110
| 50> H    4.33228864   -0.68546821   -1.01493806
| 51> H    5.62921507    0.41899295   -0.52127480
| 52> H    4.84835595   -0.63905779    0.66931443
| 53> *
| 54>
| 55> $new_job
| 56> ! ri-mp2 aug-cc-pvqz aug-cc-pvqz/c tightscf
| 57> %pal nprocs 16 end
| 58> %maxcore 3800
| 59> %base "QZ_S66by10_7_0.7_dimer"
| 60>
| 61> *xyz 0 1
| 62> O   -0.20877739   -0.21687067   -1.03240597
| 63> H    0.71112593   -0.38689175   -0.77396240
| 64> C   -1.02217337   -0.74117114   -0.00545419
| 65> H   -2.05749119   -0.53870733   -0.26859725
| 66> H   -0.90774336   -1.82182632    0.10853710
| 67> H   -0.82463111   -0.27549472    0.96464547
| 68> C    1.46467250    1.89879496    0.25669957
| 69> H    1.97106613    2.86024404    0.22182921
| 70> H    1.05412838    1.75265908    1.25457621
| 71> H    0.63502470    1.88928169   -0.44480597
| 72> C    2.38030288    0.74385614   -0.05921665
| 73> O    1.95610809   -0.37605465   -0.34429818
| 74> N    3.70643980    1.00558042   -0.00001728
| 75> H    4.00445225    1.91600855    0.29766991
| 76> C    4.68884583   -0.03453089   -0.22276110
| 77> H    4.33228864   -0.68546821   -1.01493806
| 78> H    5.62921507    0.41899295   -0.52127480
| 79> H    4.84835595   -0.63905779    0.66931443
| 80> *
| 81>
| 82>
| 83>
| 84>
| 85>                          ****END OF INPUT****
 Total Charge           Charge          ....    0
 Multiplicity           Mult            ....    1
 Number of Electrons    NEL             ....   58
MP2 TOTAL ENERGY:     -363.261005989 Eh
FINAL SINGLE POINT ENERGY      -363.261005988604
MP2 TOTAL ENERGY:     -363.593094571 Eh
FINAL SINGLE POINT ENERGY      -363.593094571154

CARTESIAN COORDINATES (ANGSTROEM)
---------------------------------
  O     -0.208777   -0.216871   -1.032406
  H      0.711126   -0.386892   -0.773962
  C     -1.022173   -0.741171   -0.005454
  H     -2.057491   -0.538707   -0.268597
  H     -0.907743   -1.821826    0.108537
  H     -0.824631   -0.275495    0.964645
  C      1.464673    1.898795    0.256700
  H      1.971066    2.860244    0.221829
  H      1.054128    1.752659    1.254576
  H      0.635025    1.889282   -0.444806
  C      2.380303    0.743856   -0.059217
  O      1.956108   -0.376055   -0.344298
  N      3.706440    1.005580   -0.000017
  H      4.004452    1.916009    0.297670
  C      4.688846   -0.034531   -0.222761
  H      4.332289   -0.685468   -1.014938
  H      5.629215    0.418993   -0.521275
  H      4.848356   -0.639058    0.669314

 Multiplicity           Mult            ....    1
 Number of Electrons    NEL             ....   58
 Basis Dimension        Dim             .... 1066

ORBITAL ENERGIES
----------------

  NO   OCC          E(Eh)            E(eV)
   0   2.0000     -20.537036      -558.8412
   1   2.0000     -20.471326      -557.0531
   2   2.0000     -15.607046      -424.6893
   3   2.0000     -11.374195      -309.5076
   4   2.0000     -11.271512      -306.7134
   5   2.0000     -11.239914      -305.8536
   6   2.0000     -11.228995      -305.5565
   7   2.0000      -1.418710       -38.6051
   8   2.0000      -1.297211       -35.2989
   9   2.0000      -1.253155       -34.1001
  10   2.0000      -1.033967       -28.1357
  11   2.0000      -0.948211       -25.8021
  12   2.0000      -0.886509       -24.1231
  13   2.0000      -0.821840       -22.3634
  14   2.0000      -0.710590       -19.3361
  15   2.0000      -0.702664       -19.1205
  16   2.0000      -0.664135       -18.0720
  17   2.0000      -0.651785       -17.7360
  18   2.0000      -0.599169       -16.3042
  19   2.0000      -0.583684       -15.8829
  20   2.0000      -0.579616       -15.7721
  21   2.0000      -0.567842       -15.4518
  22   2.0000      -0.557432       -15.1685
  23   2.0000      -0.543490       -14.7891
  24   2.0000      -0.523776       -14.2527
  25   2.0000      -0.479688       -13.0530
  26   2.0000      -0.425572       -11.5804
  27   2.0000      -0.410253       -11.1635
  28   2.0000      -0.389610       -10.6018
  29   0.0000       0.014825         0.4034
  30   0.0000       0.028044         0.7631
  31   0.0000       0.031482         0.8567
  32   0.0000       0.038070         1.0359
  33   0.0000       0.045870         1.2482

MULLIKEN ATOMIC CHARGES
-----------------------
   0 O :   -0.882847
   1 H :    0.431482
   2 C :   -0.627916
   3 H :    0.393308
   4 H :    0.265618
   5 H :    0.259710
   6 C :   -0.772237
   7 H :    0.290796
   8 H :    0.271799
   9 H :    0.293848
  10 C :    1.034432
  11 O :   -0.818853
  12 N :   -0.507980
  13 H :    0.248967
  14 C :   -0.870203
  15 H :    0.292728
  16 H :    0.396393
  17 H :    0.300955
Sum of atomic charges:    0.0000000

LOEWDIN ATOMIC CHARGES
----------------------
   0 O :    1.241145
   1 H :   -1.567467
   2 C :    0.567844
   3 H :   -0.345248
   4 H :   -0.314557
   5 H :   -0.325864
   6 C :    0.939476
   7 H :   -0.297295
   8 H :   -0.275552
   9 H :   -0.340284
  10 C :   -0.598222
  11 O :    1.045302
  12 N :    0.858174
  13 H :   -0.497575
  14 C :    0.798529
  15 H :   -0.319469
  16 H :   -0.291006
  17 H :   -0.277932

  Mayer bond orders larger than 0.100000
B(  0-O ,  1-H ) :   0.8013 B(  0-O ,  2-C ) :   0.8786 B(  0-O , 11-O ) :  -0.1428
B(  2-C ,  3-H ) :   0.8578 B(  2-C ,  4-H ) :   0.9347 B(  2-C ,  5-H ) :   0.8925
B(  6-C ,  7-H ) :   0.9834 B(  6-C ,  8-H ) :   0.8961 B(  6-C ,  9-H ) :   0.9995
B(  6-C , 10-C ) :   0.7905 B( 10-C , 11-O ) :   1.2604 B( 10-C , 12-N ) :   1.1603
B( 11-O , 12-N ) :   0.1488 B( 12-N , 13-H ) :   0.9618 B( 12-N , 14-C ) :   0.8253
B( 14-C , 15-H ) :   0.9483 B( 14-C , 16-H ) :   0.8655 B( 14-C , 17-H ) :   0.9479

MP2 TOTAL ENERGY:     -363.698104806 Eh
FINAL SINGLE POINT ENERGY      -363.698104806173

DIPOLE MOMENT
-------------
                                X             Y             Z
Electronic contribution:      2.23277       0.11677      -1.58210
Nuclear contribution   :     -0.43536       1.10170       2.59894
                        -----------------------------------------
Total Dipole Moment    :      1.79741       1.21847       1.01683
                        -----------------------------------------
Magnitude (a.u.)       :      2.39777
Magnitude (Debye)      :      6.09464

Rotational constants in cm-1:     0.177011     0.040689     0.035215
Rotational constants in MHz :  5306.663350  1219.826383  1055.707949

                             ****ORCA TERMINATED NORMALLY****
TOTAL RUN TIME: 0 days 2 hours 22 minutes 32 seconds 453 msec
