                         Program Version 5.0.4 -  RELEASE  -
|  1> ! ri-mp2 aug-cc-pvdz aug-cc-pvdz/c tightscf
|  2> %pal nprocs 16 end
|  3> %maxcore 3800
|  4> %base "DZ_S66by10_48_0.8_dimer"
|  5>
|  6> *xyz 0 1
|  7> N    1.32276272   -0.01037598    1.01918373
|  8> C    0.65128601   -1.14899203    0.79680119
|  9> H    1.20041842   -2.06552808    0.97367282
| 10> C   -0.67268130   -1.19471172    0.36665693
| 11> H   -1.15719362   -2.14732141    0.20646407
| 12> C   -1.34719675    0.00313399    0.15214401
| 13> H   -2.37535653    0.00840542   -0.18229302
| 14> C   -0.66455797    1.19409062    0.37900199
| 15> H   -1.14262633    2.15155765    0.22872051
| 16> C    0.65889576    1.13497854    0.80885987
| 17> H    1.21410272    2.04591045    0.99543831
| 18> N    0.62170285    0.00470335    6.20021095
| 19> C    1.49237086   -0.00090944    5.18079791
| 20> H    2.54022744    0.00033909    5.45510071
| 21> C    1.11898513   -0.00797720    3.83896984
| 22> H    1.86644579   -0.01214122    3.05787019
| 23> C   -0.23706343   -0.00939126    3.52655438
| 24> H   -0.56679211   -0.01484674    2.49627293
| 25> C   -1.15516669   -0.00367618    4.57172399
| 26> H   -2.21961673   -0.00452557    4.38298820
| 27> C   -0.67956289    0.00324148    5.88068284
| 28> H   -1.37174655    0.00782461    6.71387405
| 29> *
| 30>
| 31> $new_job
| 32> ! ri-mp2 aug-cc-pvtz aug-cc-pvtz/c tightscf
| 33> %pal nprocs 16 end
| 34> %maxcore 3800
| 35> %base "TZ_S66by10_48_0.8_dimer"
| 36>
| 37> *xyz 0 1
| 38> N    1.32276272   -0.01037598    1.01918373
| 39> C    0.65128601   -1.14899203    0.79680119
| 40> H    1.20041842   -2.06552808    0.97367282
| 41> C   -0.67268130   -1.19471172    0.36665693
| 42> H   -1.15719362   -2.14732141    0.20646407
| 43> C   -1.34719675    0.00313399    0.15214401
| 44> H   -2.37535653    0.00840542   -0.18229302
| 45> C   -0.66455797    1.19409062    0.37900199
| 46> H   -1.14262633    2.15155765    0.22872051
| 47> C    0.65889576    1.13497854    0.80885987
| 48> H    1.21410272    2.04591045    0.99543831
| 49> N    0.62170285    0.00470335    6.20021095
| 50> C    1.49237086   -0.00090944    5.18079791
| 51> H    2.54022744    0.00033909    5.45510071
| 52> C    1.11898513   -0.00797720    3.83896984
| 53> H    1.86644579   -0.01214122    3.05787019
| 54> C   -0.23706343   -0.00939126    3.52655438
| 55> H   -0.56679211   -0.01484674    2.49627293
| 56> C   -1.15516669   -0.00367618    4.57172399
| 57> H   -2.21961673   -0.00452557    4.38298820
| 58> C   -0.67956289    0.00324148    5.88068284
| 59> H   -1.37174655    0.00782461    6.71387405
| 60> *
| 61>
| 62> $new_job
| 63> ! ri-mp2 aug-cc-pvqz aug-cc-pvqz/c tightscf
| 64> %pal nprocs 16 end
| 65> %maxcore 3800
| 66> %base "QZ_S66by10_48_0.8_dimer"
| 67>
| 68> *xyz 0 1
| 69> N    1.32276272   -0.01037598    1.01918373
| 70> C    0.65128601   -1.14899203    0.79680119
| 71> H    1.20041842   -2.06552808    0.97367282
| 72> C   -0.67268130   -1.19471172    0.36665693
| 73> H   -1.15719362   -2.14732141    0.20646407
| 74> C   -1.34719675    0.00313399    0.15214401
| 75> H   -2.37535653    0.00840542   -0.18229302
| 76> C   -0.66455797    1.19409062    0.37900199
| 77> H   -1.14262633    2.15155765    0.22872051
| 78> C    0.65889576    1.13497854    0.80885987
| 79> H    1.21410272    2.04591045    0.99543831
| 80> N    0.62170285    0.00470335    6.20021095
| 81> C    1.49237086   -0.00090944    5.18079791
| 82> H    2.54022744    0.00033909    5.45510071
| 83> C    1.11898513   -0.00797720    3.83896984
| 84> H    1.86644579   -0.01214122    3.05787019
| 85> C   -0.23706343   -0.00939126    3.52655438
| 86> H   -0.56679211   -0.01484674    2.49627293
| 87> C   -1.15516669   -0.00367618    4.57172399
| 88> H   -2.21961673   -0.00452557    4.38298820
| 89> C   -0.67956289    0.00324148    5.88068284
| 90> H   -1.37174655    0.00782461    6.71387405
| 91> *
| 92>
| 93>
| 94>
| 95>
| 96>                          ****END OF INPUT****
 Total Charge           Charge          ....    0
 Multiplicity           Mult            ....    1
 Number of Electrons    NEL             ....   84
MP2 TOTAL ENERGY:     -495.130143366 Eh
FINAL SINGLE POINT ENERGY      -495.130143365520
MP2 TOTAL ENERGY:     -495.556873475 Eh
FINAL SINGLE POINT ENERGY      -495.556873475154

CARTESIAN COORDINATES (ANGSTROEM)
---------------------------------
  N      1.322763   -0.010376    1.019184
  C      0.651286   -1.148992    0.796801
  H      1.200418   -2.065528    0.973673
  C     -0.672681   -1.194712    0.366657
  H     -1.157194   -2.147321    0.206464
  C     -1.347197    0.003134    0.152144
  H     -2.375357    0.008405   -0.182293
  C     -0.664558    1.194091    0.379002
  H     -1.142626    2.151558    0.228721
  C      0.658896    1.134979    0.808860
  H      1.214103    2.045910    0.995438
  N      0.621703    0.004703    6.200211
  C      1.492371   -0.000909    5.180798
  H      2.540227    0.000339    5.455101
  C      1.118985   -0.007977    3.838970
  H      1.866446   -0.012141    3.057870
  C     -0.237063   -0.009391    3.526554
  H     -0.566792   -0.014847    2.496273
  C     -1.155167   -0.003676    4.571724
  H     -2.219617   -0.004526    4.382988
  C     -0.679563    0.003241    5.880683
  H     -1.371747    0.007825    6.713874

 Multiplicity           Mult            ....    1
 Number of Electrons    NEL             ....   84
 Basis Dimension        Dim             .... 1420

ORBITAL ENERGIES
----------------

  NO   OCC          E(Eh)            E(eV)
   0   2.0000     -15.576067      -423.8463
   1   2.0000     -15.551871      -423.1879
   2   2.0000     -11.286937      -307.1332
   3   2.0000     -11.286886      -307.1318
   4   2.0000     -11.271591      -306.7156
   5   2.0000     -11.262006      -306.4548
   6   2.0000     -11.259660      -306.3909
   7   2.0000     -11.253866      -306.2333
   8   2.0000     -11.253796      -306.2313
   9   2.0000     -11.239885      -305.8528
  10   2.0000     -11.228020      -305.5300
  11   2.0000     -11.218655      -305.2751
  12   2.0000      -1.273123       -34.6434
  13   2.0000      -1.242851       -33.8197
  14   2.0000      -1.104274       -30.0488
  15   2.0000      -1.074887       -29.2492
  16   2.0000      -1.047465       -28.5030
  17   2.0000      -1.019180       -27.7333
  18   2.0000      -0.872958       -23.7544
  19   2.0000      -0.869309       -23.6551
  20   2.0000      -0.846292       -23.0288
  21   2.0000      -0.842233       -22.9183
  22   2.0000      -0.736598       -20.0439
  23   2.0000      -0.713522       -19.4159
  24   2.0000      -0.673801       -18.3350
  25   2.0000      -0.666963       -18.1490
  26   2.0000      -0.647781       -17.6270
  27   2.0000      -0.641878       -17.4664
  28   2.0000      -0.611566       -16.6415
  29   2.0000      -0.595038       -16.1918
  30   2.0000      -0.590666       -16.0728
  31   2.0000      -0.577608       -15.7175
  32   2.0000      -0.532697       -14.4954
  33   2.0000      -0.528546       -14.3825
  34   2.0000      -0.522353       -14.2140
  35   2.0000      -0.505663       -13.7598
  36   2.0000      -0.433491       -11.7959
  37   2.0000      -0.411061       -11.1855
  38   2.0000      -0.393209       -10.6998
  39   2.0000      -0.381839       -10.3904
  40   2.0000      -0.352526        -9.5927
  41   2.0000      -0.333720        -9.0810
  42   0.0000       0.016934         0.4608
  43   0.0000       0.026155         0.7117
  44   0.0000       0.028411         0.7731
  45   0.0000       0.031255         0.8505
  46   0.0000       0.038946         1.0598

MULLIKEN ATOMIC CHARGES
-----------------------
   0 N :   -0.724997
   1 C :   -0.013534
   2 H :    0.436820
   3 C :   -0.464027
   4 H :    0.259682
   5 C :   -0.225607
   6 H :    0.340494
   7 C :   -0.468566
   8 H :    0.259444
   9 C :   -0.002586
  10 H :    0.436468
  11 N :   -0.775860
  12 C :   -0.079817
  13 H :    0.478013
  14 C :   -0.743249
  15 H :    0.285361
  16 C :    0.047165
  17 H :    1.262035
  18 C :   -0.811503
  19 H :    0.233286
  20 C :   -0.209425
  21 H :    0.480404
Sum of atomic charges:   -0.0000000

LOEWDIN ATOMIC CHARGES
----------------------
   0 N :    0.590748
   1 C :    0.086484
   2 H :   -0.322241
   3 C :    0.348487
   4 H :   -0.313302
   5 C :    0.347572
   6 H :   -0.301917
   7 C :    0.348467
   8 H :   -0.313211
   9 C :    0.085637
  10 H :   -0.322027
  11 N :    0.586398
  12 C :    0.092230
  13 H :   -0.355229
  14 C :    0.332855
  15 H :   -0.434594
  16 C :    0.309412
  17 H :   -0.506175
  18 C :    0.357701
  19 H :   -0.326502
  20 C :    0.068774
  21 H :   -0.359567

  Mayer bond orders larger than 0.100000
B(  0-N ,  1-C ) :   1.0977 B(  0-N ,  2-H ) :  -0.1749 B(  0-N ,  9-C ) :   1.0937
B(  0-N , 10-H ) :  -0.1746 B(  0-N , 17-H ) :  -0.1089 B(  1-C ,  2-H ) :   0.9177
B(  1-C ,  3-C ) :   1.2282 B(  1-C ,  7-C ) :   0.1146 B(  3-C ,  4-H ) :   1.0824
B(  3-C ,  5-C ) :   1.2534 B(  3-C ,  9-C ) :   0.1123 B(  3-C , 17-H ) :  -0.1213
B(  5-C ,  6-H ) :   1.0069 B(  5-C ,  7-C ) :   1.2571 B(  5-C , 17-H ) :  -0.1977
B(  7-C ,  8-H ) :   1.0815 B(  7-C ,  9-C ) :   1.2270 B(  7-C , 17-H ) :  -0.1188
B(  9-C , 10-H ) :   0.9174 B( 11-N , 12-C ) :   1.0868 B( 11-N , 13-H ) :  -0.1317
B( 11-N , 14-C ) :   0.1669 B( 11-N , 16-C ) :  -0.1057 B( 11-N , 18-C ) :   0.1113
B( 11-N , 20-C ) :   1.1538 B( 11-N , 21-H ) :  -0.1454 B( 12-C , 13-H ) :   0.8925
B( 12-C , 14-C ) :   1.2560 B( 12-C , 16-C ) :  -0.3578 B( 12-C , 18-C ) :   0.1798
B( 12-C , 20-C ) :   0.1033 B( 13-H , 14-C ) :  -0.1582 B( 14-C , 15-H ) :   0.9938
B( 14-C , 16-C ) :   1.1398 B( 14-C , 17-H ) :  -0.2887 B( 16-C , 18-C ) :   0.8732
B( 16-C , 20-C ) :  -0.4553 B( 17-H , 18-C ) :  -0.1979 B( 18-C , 19-H ) :   1.0634
B( 18-C , 20-C ) :   1.4967 B( 18-C , 21-H ) :  -0.1432 B( 20-C , 21-H ) :   0.8852

MP2 TOTAL ENERGY:     -495.692828456 Eh
FINAL SINGLE POINT ENERGY      -495.692828456111

DIPOLE MOMENT
-------------
                                X             Y             Z
Electronic contribution:      1.72366       0.00059       1.27523
Nuclear contribution   :     -2.77843      -0.00040      -2.78172
                        -----------------------------------------
Total Dipole Moment    :     -1.05477       0.00018      -1.50649
                        -----------------------------------------
Magnitude (a.u.)       :      1.83904
Magnitude (Debye)      :      4.67446

Rotational constants in cm-1:     0.069712     0.018537     0.017126
Rotational constants in MHz :  2089.899308   555.725989   513.411055

                             ****ORCA TERMINATED NORMALLY****
TOTAL RUN TIME: 0 days 1 hours 30 minutes 5 seconds 720 msec
