                         Program Version 5.0.4 -  RELEASE  -
|  1> ! ri-mp2 aug-cc-pvdz aug-cc-pvdz/c tightscf
|  2> %pal nprocs 16 end
|  3> %maxcore 3800
|  4> %base "DZ_S66by10_23_1.05_dimer"
|  5> %scf STABPerform true end
|  6>
|  7> *xyz 0 1
|  8> C   -1.23272700    1.21163896   -0.14162406
|  9> O   -0.57127667    2.24201573    0.02561679
| 10> N   -0.67058051    0.00388878   -0.31428147
| 11> H    0.34384695   -0.09056011   -0.30832667
| 12> H   -1.24421373   -0.80632370   -0.44668271
| 13> C   -2.73824495    1.26675766   -0.15588657
| 14> H   -3.07797534    1.64660511    0.80450159
| 15> H   -3.20211503    0.30286549   -0.34621112
| 16> H   -3.04998747    1.97549049   -0.91859737
| 17> N    4.28755463    1.11881834   -0.11837914
| 18> H    4.77758407    0.24286116   -0.23631761
| 19> C    5.09118064    2.26166328    0.03210256
| 20> O    6.30674267    2.16604095    0.01691778
| 21> C    4.31858846    3.47697976    0.19524649
| 22> H    4.84035145    4.41017262    0.31828162
| 23> C    2.96942775    3.41530423    0.18956974
| 24> H    2.34902370    4.29166462    0.30724663
| 25> N    2.28434565    2.24302272    0.03500397
| 26> H    1.25155517    2.23396166    0.03416665
| 27> C    2.91523561    1.03855322   -0.12725607
| 28> O    2.31804688   -0.02536274   -0.26906356
| 29> *
| 30>
| 31> $new_job
| 32> ! ri-mp2 aug-cc-pvtz aug-cc-pvtz/c tightscf
| 33> %pal nprocs 16 end
| 34> %maxcore 3800
| 35> %base "TZ_S66by10_23_1.05_dimer"
| 36>
| 37> *xyz 0 1
| 38> C   -1.23272700    1.21163896   -0.14162406
| 39> O   -0.57127667    2.24201573    0.02561679
| 40> N   -0.67058051    0.00388878   -0.31428147
| 41> H    0.34384695   -0.09056011   -0.30832667
| 42> H   -1.24421373   -0.80632370   -0.44668271
| 43> C   -2.73824495    1.26675766   -0.15588657
| 44> H   -3.07797534    1.64660511    0.80450159
| 45> H   -3.20211503    0.30286549   -0.34621112
| 46> H   -3.04998747    1.97549049   -0.91859737
| 47> N    4.28755463    1.11881834   -0.11837914
| 48> H    4.77758407    0.24286116   -0.23631761
| 49> C    5.09118064    2.26166328    0.03210256
| 50> O    6.30674267    2.16604095    0.01691778
| 51> C    4.31858846    3.47697976    0.19524649
| 52> H    4.84035145    4.41017262    0.31828162
| 53> C    2.96942775    3.41530423    0.18956974
| 54> H    2.34902370    4.29166462    0.30724663
| 55> N    2.28434565    2.24302272    0.03500397
| 56> H    1.25155517    2.23396166    0.03416665
| 57> C    2.91523561    1.03855322   -0.12725607
| 58> O    2.31804688   -0.02536274   -0.26906356
| 59> *
| 60>
| 61> $new_job
| 62> ! ri-mp2 aug-cc-pvqz aug-cc-pvqz/c tightscf
| 63> %pal nprocs 16 end
| 64> %maxcore 3800
| 65> %base "QZ_S66by10_23_1.05_dimer"
| 66>
| 67> *xyz 0 1
| 68> C   -1.23272700    1.21163896   -0.14162406
| 69> O   -0.57127667    2.24201573    0.02561679
| 70> N   -0.67058051    0.00388878   -0.31428147
| 71> H    0.34384695   -0.09056011   -0.30832667
| 72> H   -1.24421373   -0.80632370   -0.44668271
| 73> C   -2.73824495    1.26675766   -0.15588657
| 74> H   -3.07797534    1.64660511    0.80450159
| 75> H   -3.20211503    0.30286549   -0.34621112
| 76> H   -3.04998747    1.97549049   -0.91859737
| 77> N    4.28755463    1.11881834   -0.11837914
| 78> H    4.77758407    0.24286116   -0.23631761
| 79> C    5.09118064    2.26166328    0.03210256
| 80> O    6.30674267    2.16604095    0.01691778
| 81> C    4.31858846    3.47697976    0.19524649
| 82> H    4.84035145    4.41017262    0.31828162
| 83> C    2.96942775    3.41530423    0.18956974
| 84> H    2.34902370    4.29166462    0.30724663
| 85> N    2.28434565    2.24302272    0.03500397
| 86> H    1.25155517    2.23396166    0.03416665
| 87> C    2.91523561    1.03855322   -0.12725607
| 88> O    2.31804688   -0.02536274   -0.26906356
| 89> *
| 90>
| 91>
| 92>
| 93>
| 94>                          ****END OF INPUT****
 Total Charge           Charge          ....    0
 Multiplicity           Mult            ....    1
 Number of Electrons    NEL             ....   90
MP2 TOTAL ENERGY:     -622.476339663 Eh
FINAL SINGLE POINT ENERGY      -622.476339663389
MP2 TOTAL ENERGY:     -623.008858358 Eh
FINAL SINGLE POINT ENERGY      -623.008858357670

CARTESIAN COORDINATES (ANGSTROEM)
---------------------------------
  C     -1.232727    1.211639   -0.141624
  O     -0.571277    2.242016    0.025617
  N     -0.670581    0.003889   -0.314281
  H      0.343847   -0.090560   -0.308327
  H     -1.244214   -0.806324   -0.446683
  C     -2.738245    1.266758   -0.155887
  H     -3.077975    1.646605    0.804502
  H     -3.202115    0.302865   -0.346211
  H     -3.049987    1.975490   -0.918597
  N      4.287555    1.118818   -0.118379
  H      4.777584    0.242861   -0.236318
  C      5.091181    2.261663    0.032103
  O      6.306743    2.166041    0.016918
  C      4.318588    3.476980    0.195246
  H      4.840351    4.410173    0.318282
  C      2.969428    3.415304    0.189570
  H      2.349024    4.291665    0.307247
  N      2.284346    2.243023    0.035004
  H      1.251555    2.233962    0.034167
  C      2.915236    1.038553   -0.127256
  O      2.318047   -0.025363   -0.269064

 Multiplicity           Mult            ....    1
 Number of Electrons    NEL             ....   90
 Basis Dimension        Dim             .... 1374

ORBITAL ENERGIES
----------------

  NO   OCC          E(Eh)            E(eV)
   0   2.0000     -20.540378      -558.9321
   1   2.0000     -20.532813      -558.7263
   2   2.0000     -20.529434      -558.6343
   3   2.0000     -15.618446      -424.9995
   4   2.0000     -15.618379      -424.9977
   5   2.0000     -15.590337      -424.2346
   6   2.0000     -11.411415      -310.5204
   7   2.0000     -11.370653      -309.4112
   8   2.0000     -11.370019      -309.3939
   9   2.0000     -11.324489      -308.1550
  10   2.0000     -11.247725      -306.0661
  11   2.0000     -11.240605      -305.8724
  12   2.0000      -1.427743       -38.8509
  13   2.0000      -1.393754       -37.9260
  14   2.0000      -1.388011       -37.7697
  15   2.0000      -1.300137       -35.3785
  16   2.0000      -1.234523       -33.5931
  17   2.0000      -1.225806       -33.3559
  18   2.0000      -1.074569       -29.2405
  19   2.0000      -1.018899       -27.7256
  20   2.0000      -0.921774       -25.0828
  21   2.0000      -0.890695       -24.2370
  22   2.0000      -0.814036       -22.1510
  23   2.0000      -0.792058       -21.5530
  24   2.0000      -0.755624       -20.5616
  25   2.0000      -0.737905       -20.0794
  26   2.0000      -0.707189       -19.2436
  27   2.0000      -0.685667       -18.6579
  28   2.0000      -0.665480       -18.1086
  29   2.0000      -0.659817       -17.9545
  30   2.0000      -0.643346       -17.5063
  31   2.0000      -0.630351       -17.1527
  32   2.0000      -0.604749       -16.4561
  33   2.0000      -0.597342       -16.2545
  34   2.0000      -0.589621       -16.0444
  35   2.0000      -0.573872       -15.6159
  36   2.0000      -0.561789       -15.2871
  37   2.0000      -0.539011       -14.6672
  38   2.0000      -0.512211       -13.9380
  39   2.0000      -0.483014       -13.1435
  40   2.0000      -0.447706       -12.1827
  41   2.0000      -0.440150       -11.9771
  42   2.0000      -0.433487       -11.7958
  43   2.0000      -0.429029       -11.6745
  44   2.0000      -0.355594        -9.6762
  45   0.0000       0.017143         0.4665
  46   0.0000       0.026515         0.7215
  47   0.0000       0.031248         0.8503
  48   0.0000       0.037094         1.0094
  49   0.0000       0.039249         1.0680

MULLIKEN ATOMIC CHARGES
-----------------------
   0 C :    0.849841
   1 O :   -0.872563
   2 N :   -0.706133
   3 H :    0.368077
   4 H :    0.246667
   5 C :   -0.652166
   6 H :    0.285586
   7 H :    0.260719
   8 H :    0.277281
   9 N :   -0.654352
  10 H :    0.129930
  11 C :    1.132483
  12 O :   -0.832066
  13 C :   -0.406325
  14 H :    0.288532
  15 C :   -0.268385
  16 H :    0.354860
  17 N :   -0.520802
  18 H :    0.208581
  19 C :    1.336996
  20 O :   -0.826759
Sum of atomic charges:    0.0000000

LOEWDIN ATOMIC CHARGES
----------------------
   0 C :   -0.753207
   1 O :    0.804056
   2 N :    1.260981
   3 H :   -0.689420
   4 H :   -0.491504
   5 C :    0.896500
   6 H :   -0.296964
   7 H :   -0.312585
   8 H :   -0.299283
   9 N :    0.781576
  10 H :   -0.520378
  11 C :   -0.866253
  12 O :    0.677071
  13 C :    0.334845
  14 H :   -0.356633
  15 C :    0.241826
  16 H :   -0.292878
  17 N :    0.808033
  18 H :   -0.764536
  19 C :   -0.935820
  20 O :    0.774574

  Mayer bond orders larger than 0.100000
B(  0-C ,  1-O ) :   1.4200 B(  0-C ,  2-N ) :   1.1040 B(  0-C ,  5-C ) :   0.6882
B(  0-C ,  7-H ) :  -0.1296 B(  1-O ,  2-N ) :   0.1649 B(  2-N ,  3-H ) :   0.8467
B(  2-N ,  4-H ) :   1.0190 B(  5-C ,  6-H ) :   0.9406 B(  5-C ,  7-H ) :   1.0096
B(  5-C ,  8-H ) :   0.9592 B(  9-N , 10-H ) :   1.1896 B(  9-N , 11-C ) :   1.0286
B(  9-N , 12-O ) :   0.1541 B(  9-N , 19-C ) :   1.0110 B(  9-N , 20-O ) :   0.1023
B( 10-H , 19-C ) :  -0.1024 B( 11-C , 12-O ) :   1.0297 B( 11-C , 13-C ) :   1.1729
B( 11-C , 15-C ) :  -0.1213 B( 12-O , 13-C ) :   0.2774 B( 13-C , 14-H ) :   1.0014
B( 13-C , 15-C ) :   1.4434 B( 14-H , 15-C ) :  -0.1131 B( 15-C , 16-H ) :   0.9572
B( 15-C , 17-N ) :   0.9943 B( 17-N , 18-H ) :   0.9936 B( 17-N , 19-C ) :   1.1729
B( 17-N , 20-O ) :   0.1836 B( 19-C , 20-O ) :   1.2797

MP2 TOTAL ENERGY:     -623.183262468 Eh
FINAL SINGLE POINT ENERGY      -623.183262467743

DIPOLE MOMENT
-------------
                                X             Y             Z
Electronic contribution:     12.03526       0.51591       0.18931
Nuclear contribution   :    -14.46215      -0.68846      -0.24732
                        -----------------------------------------
Total Dipole Moment    :     -2.42689      -0.17256      -0.05801
                        -----------------------------------------
Magnitude (a.u.)       :      2.43371
Magnitude (Debye)      :      6.18600

Rotational constants in cm-1:     0.088758     0.012763     0.011182
Rotational constants in MHz :  2660.893495   382.623935   335.223109

                             ****ORCA TERMINATED NORMALLY****
TOTAL RUN TIME: 0 days 5 hours 45 minutes 24 seconds 404 msec
