                         Program Version 5.0.4 -  RELEASE  -
|  1> ! ri-mp2 aug-cc-pvdz aug-cc-pvdz/c tightscf
|  2> %pal nprocs 16 end
|  3> %maxcore 3800
|  4> %base "DZ_S66by10_4_1.25_dimer"
|  5> %scf STABPerform true end
|  6>
|  7> *xyz 0 1
|  8> O   -0.39201845   -0.38471874    0.07607132
|  9> H   -0.91146085    0.41381204    0.17764877
| 10> H    0.52490382   -0.06848469    0.09051136
| 11> C    2.71436100   -2.19058153   -0.23914622
| 12> H    3.36432384   -3.05169340   -0.37206160
| 13> H    2.03338503   -2.11310947   -1.08301149
| 14> H    2.10134410   -2.32937751    0.64786215
| 15> C    3.46909307   -0.89256865   -0.10655271
| 16> O    2.89237763    0.18272621    0.05003603
| 17> N    4.81972620   -0.99007133   -0.17117068
| 18> H    5.22067783   -1.90060531   -0.30068578
| 19> C    5.68796831    0.16189913   -0.06172760
| 20> H    5.05147418    1.03019957    0.07305701
| 21> H    6.35355782    0.07044393    0.79436529
| 22> H    6.28243403    0.29131962   -0.96398678
| 23> *
| 24>
| 25> $new_job
| 26> ! ri-mp2 aug-cc-pvtz aug-cc-pvtz/c tightscf
| 27> %pal nprocs 16 end
| 28> %maxcore 3800
| 29> %base "TZ_S66by10_4_1.25_dimer"
| 30>
| 31> *xyz 0 1
| 32> O   -0.39201845   -0.38471874    0.07607132
| 33> H   -0.91146085    0.41381204    0.17764877
| 34> H    0.52490382   -0.06848469    0.09051136
| 35> C    2.71436100   -2.19058153   -0.23914622
| 36> H    3.36432384   -3.05169340   -0.37206160
| 37> H    2.03338503   -2.11310947   -1.08301149
| 38> H    2.10134410   -2.32937751    0.64786215
| 39> C    3.46909307   -0.89256865   -0.10655271
| 40> O    2.89237763    0.18272621    0.05003603
| 41> N    4.81972620   -0.99007133   -0.17117068
| 42> H    5.22067783   -1.90060531   -0.30068578
| 43> C    5.68796831    0.16189913   -0.06172760
| 44> H    5.05147418    1.03019957    0.07305701
| 45> H    6.35355782    0.07044393    0.79436529
| 46> H    6.28243403    0.29131962   -0.96398678
| 47> *
| 48>
| 49> $new_job
| 50> ! ri-mp2 aug-cc-pvqz aug-cc-pvqz/c tightscf
| 51> %pal nprocs 16 end
| 52> %maxcore 3800
| 53> %base "QZ_S66by10_4_1.25_dimer"
| 54>
| 55> *xyz 0 1
| 56> O   -0.39201845   -0.38471874    0.07607132
| 57> H   -0.91146085    0.41381204    0.17764877
| 58> H    0.52490382   -0.06848469    0.09051136
| 59> C    2.71436100   -2.19058153   -0.23914622
| 60> H    3.36432384   -3.05169340   -0.37206160
| 61> H    2.03338503   -2.11310947   -1.08301149
| 62> H    2.10134410   -2.32937751    0.64786215
| 63> C    3.46909307   -0.89256865   -0.10655271
| 64> O    2.89237763    0.18272621    0.05003603
| 65> N    4.81972620   -0.99007133   -0.17117068
| 66> H    5.22067783   -1.90060531   -0.30068578
| 67> C    5.68796831    0.16189913   -0.06172760
| 68> H    5.05147418    1.03019957    0.07305701
| 69> H    6.35355782    0.07044393    0.79436529
| 70> H    6.28243403    0.29131962   -0.96398678
| 71> *
| 72>
| 73>
| 74>
| 75>
| 76>                          ****END OF INPUT****
 Total Charge           Charge          ....    0
 Multiplicity           Mult            ....    1
 Number of Electrons    NEL             ....   50
MP2 TOTAL ENERGY:     -324.117466475 Eh
FINAL SINGLE POINT ENERGY      -324.117466475229
MP2 TOTAL ENERGY:     -324.409069535 Eh
FINAL SINGLE POINT ENERGY      -324.409069534573

CARTESIAN COORDINATES (ANGSTROEM)
---------------------------------
  O     -0.392018   -0.384719    0.076071
  H     -0.911461    0.413812    0.177649
  H      0.524904   -0.068485    0.090511
  C      2.714361   -2.190582   -0.239146
  H      3.364324   -3.051693   -0.372062
  H      2.033385   -2.113109   -1.083011
  H      2.101344   -2.329378    0.647862
  C      3.469093   -0.892569   -0.106553
  O      2.892378    0.182726    0.050036
  N      4.819726   -0.990071   -0.171171
  H      5.220678   -1.900605   -0.300686
  C      5.687968    0.161899   -0.061728
  H      5.051474    1.030200    0.073057
  H      6.353558    0.070444    0.794365
  H      6.282434    0.291320   -0.963987

 Multiplicity           Mult            ....    1
 Number of Electrons    NEL             ....   50
 Basis Dimension        Dim             ....  894

ORBITAL ENERGIES
----------------

  NO   OCC          E(Eh)            E(eV)
   0   2.0000     -20.538589      -558.8834
   1   2.0000     -20.517159      -558.3003
   2   2.0000     -15.592132      -424.2835
   3   2.0000     -11.354697      -308.9770
   4   2.0000     -11.260374      -306.4104
   5   2.0000     -11.235742      -305.7401
   6   2.0000      -1.380547       -37.5666
   7   2.0000      -1.323827       -36.0232
   8   2.0000      -1.237634       -33.6777
   9   2.0000      -1.023856       -27.8605
  10   2.0000      -0.938173       -25.5290
  11   2.0000      -0.797381       -21.6978
  12   2.0000      -0.696520       -18.9533
  13   2.0000      -0.687797       -18.7159
  14   2.0000      -0.660443       -17.9716
  15   2.0000      -0.639184       -17.3931
  16   2.0000      -0.590741       -16.0749
  17   2.0000      -0.587832       -15.9957
  18   2.0000      -0.563246       -15.3267
  19   2.0000      -0.557125       -15.1602
  20   2.0000      -0.550378       -14.9766
  21   2.0000      -0.510348       -13.8873
  22   2.0000      -0.484680       -13.1888
  23   2.0000      -0.431134       -11.7318
  24   2.0000      -0.400020       -10.8851
  25   0.0000       0.018568         0.5053
  26   0.0000       0.031030         0.8444
  27   0.0000       0.036076         0.9817
  28   0.0000       0.036176         0.9844
  29   0.0000       0.047055         1.2804

MULLIKEN ATOMIC CHARGES
-----------------------
   0 O :   -0.642906
   1 H :    0.287392
   2 H :    0.349304
   3 C :   -0.757985
   4 H :    0.290589
   5 H :    0.267470
   6 H :    0.266534
   7 C :    0.927339
   8 O :   -0.882434
   9 N :   -0.469276
  10 H :    0.248064
  11 C :   -0.719138
  12 H :    0.293602
  13 H :    0.270466
  14 H :    0.270978
Sum of atomic charges:   -0.0000000

LOEWDIN ATOMIC CHARGES
----------------------
   0 O :    1.602377
   1 H :   -0.798218
   2 H :   -0.880742
   3 C :    0.893834
   4 H :   -0.311470
   5 H :   -0.298418
   6 H :   -0.297904
   7 C :   -0.814525
   8 O :    0.725663
   9 N :    0.830047
  10 H :   -0.507409
  11 C :    0.792818
  12 H :   -0.366073
  13 H :   -0.284995
  14 H :   -0.284985

  Mayer bond orders larger than 0.100000
B(  0-O ,  1-H ) :   0.9775 B(  0-O ,  2-H ) :   0.9062 B(  3-C ,  4-H ) :   0.9765
B(  3-C ,  5-H ) :   0.9348 B(  3-C ,  6-H ) :   0.9356 B(  3-C ,  7-C ) :   0.8478
B(  7-C ,  8-O ) :   1.2797 B(  7-C ,  9-N ) :   1.1617 B(  8-O ,  9-N ) :   0.1306
B(  9-N , 10-H ) :   0.9828 B(  9-N , 11-C ) :   0.8218 B( 11-C , 12-H ) :   0.9471
B( 11-C , 13-H ) :   0.9590 B( 11-C , 14-H ) :   0.9584

MP2 TOTAL ENERGY:     -324.503049339 Eh
FINAL SINGLE POINT ENERGY      -324.503049338594

DIPOLE MOMENT
-------------
                                X             Y             Z
Electronic contribution:     -0.68314       1.03712       0.16575
Nuclear contribution   :      2.13780      -1.61773      -0.29890
                        -----------------------------------------
Total Dipole Moment    :      1.45465      -0.58061      -0.13315
                        -----------------------------------------
Magnitude (a.u.)       :      1.57190
Magnitude (Debye)      :      3.99544

Rotational constants in cm-1:     0.231008     0.044467     0.037812
Rotational constants in MHz :  6925.458357  1333.098879  1133.579596

                             ****ORCA TERMINATED NORMALLY****
TOTAL RUN TIME: 0 days 1 hours 9 minutes 3 seconds 619 msec
