                         Program Version 5.0.4 -  RELEASE  -
|  1> ! ri-mp2 aug-cc-pvdz aug-cc-pvdz/c tightscf
|  2> %pal nprocs 16 end
|  3> %maxcore 3800
|  4> %base "DZ_S66by10_35_0.95_dimer"
|  5> %scf STABPerform true end
|  6>
|  7> *xyz 0 1
|  8> C   -2.53038287   -0.41757533    0.68130643
|  9> H   -2.55988603   -0.98278998   -0.25015619
| 10> H   -2.55403625   -1.13386495    1.50265790
| 11> H   -3.43621355    0.18414376    0.73677133
| 12> C   -1.27615683    0.44363493    0.75002483
| 13> H   -1.27808384    1.02521785    1.67508548
| 14> H   -1.28033899    1.16855564   -0.06715806
| 15> C    0.00220470   -0.38071620    0.67899257
| 16> H    0.00782894   -1.11141304    1.49383122
| 17> H    0.00624866   -0.96052270   -0.24882046
| 18> C    1.26833347    0.46239635    0.74936913
| 19> H    1.26201985    1.04425029    1.67424645
| 20> H    1.26163488    1.18705711   -0.06803458
| 21> C    2.53496627   -0.38042469    0.68068636
| 22> H    2.57244024   -0.94571652   -0.25045186
| 23> H    3.43198117    0.23441492    0.73557772
| 24> H    2.56920771   -1.09581003    1.50245608
| 25> C   -0.00050899    0.05997894    5.10084302
| 26> C    0.00056275   -0.08015216    6.62057598
| 27> H   -0.88647327    0.38392388    7.05394539
| 28> H    0.00981425   -1.13093241    6.91358585
| 29> H    0.87922298    0.39951240    7.05421905
| 30> C   -1.23996433   -0.62167309    4.52694451
| 31> H   -1.26326354   -0.53271597    3.44011533
| 32> H   -1.25204996   -1.68294949    4.77995771
| 33> H   -2.15090805   -0.16938183    4.92202963
| 34> C    1.25209612   -0.59756187    4.52737269
| 35> H    1.27342291   -0.50927620    3.44040173
| 36> H    1.28522665   -1.65812271    4.78146501
| 37> H    2.15390835   -0.12691855    4.92179381
| 38> C   -0.01475687    1.53977143    4.72622175
| 39> H    0.86300913    2.05035845    5.12517688
| 40> H   -0.01528107    1.66622636    3.64257006
| 41> H   -0.90286281    2.03310514    5.12400989
| 42> *
| 43>
| 44> $new_job
| 45> ! ri-mp2 aug-cc-pvtz aug-cc-pvtz/c tightscf
| 46> %pal nprocs 16 end
| 47> %maxcore 3800
| 48> %base "TZ_S66by10_35_0.95_dimer"
| 49>
| 50> *xyz 0 1
| 51> C   -2.53038287   -0.41757533    0.68130643
| 52> H   -2.55988603   -0.98278998   -0.25015619
| 53> H   -2.55403625   -1.13386495    1.50265790
| 54> H   -3.43621355    0.18414376    0.73677133
| 55> C   -1.27615683    0.44363493    0.75002483
| 56> H   -1.27808384    1.02521785    1.67508548
| 57> H   -1.28033899    1.16855564   -0.06715806
| 58> C    0.00220470   -0.38071620    0.67899257
| 59> H    0.00782894   -1.11141304    1.49383122
| 60> H    0.00624866   -0.96052270   -0.24882046
| 61> C    1.26833347    0.46239635    0.74936913
| 62> H    1.26201985    1.04425029    1.67424645
| 63> H    1.26163488    1.18705711   -0.06803458
| 64> C    2.53496627   -0.38042469    0.68068636
| 65> H    2.57244024   -0.94571652   -0.25045186
| 66> H    3.43198117    0.23441492    0.73557772
| 67> H    2.56920771   -1.09581003    1.50245608
| 68> C   -0.00050899    0.05997894    5.10084302
| 69> C    0.00056275   -0.08015216    6.62057598
| 70> H   -0.88647327    0.38392388    7.05394539
| 71> H    0.00981425   -1.13093241    6.91358585
| 72> H    0.87922298    0.39951240    7.05421905
| 73> C   -1.23996433   -0.62167309    4.52694451
| 74> H   -1.26326354   -0.53271597    3.44011533
| 75> H   -1.25204996   -1.68294949    4.77995771
| 76> H   -2.15090805   -0.16938183    4.92202963
| 77> C    1.25209612   -0.59756187    4.52737269
| 78> H    1.27342291   -0.50927620    3.44040173
| 79> H    1.28522665   -1.65812271    4.78146501
| 80> H    2.15390835   -0.12691855    4.92179381
| 81> C   -0.01475687    1.53977143    4.72622175
| 82> H    0.86300913    2.05035845    5.12517688
| 83> H   -0.01528107    1.66622636    3.64257006
| 84> H   -0.90286281    2.03310514    5.12400989
| 85> *
| 86>
| 87> $new_job
| 88> ! ri-mp2 aug-cc-pvqz aug-cc-pvqz/c tightscf
| 89> %pal nprocs 16 end
| 90> %maxcore 3800
| 91> %base "QZ_S66by10_35_0.95_dimer"
| 92>
| 93> *xyz 0 1
| 94> C   -2.53038287   -0.41757533    0.68130643
| 95> H   -2.55988603   -0.98278998   -0.25015619
| 96> H   -2.55403625   -1.13386495    1.50265790
| 97> H   -3.43621355    0.18414376    0.73677133
| 98> C   -1.27615683    0.44363493    0.75002483
| 99> H   -1.27808384    1.02521785    1.67508548
|100> H   -1.28033899    1.16855564   -0.06715806
|101> C    0.00220470   -0.38071620    0.67899257
|102> H    0.00782894   -1.11141304    1.49383122
|103> H    0.00624866   -0.96052270   -0.24882046
|104> C    1.26833347    0.46239635    0.74936913
|105> H    1.26201985    1.04425029    1.67424645
|106> H    1.26163488    1.18705711   -0.06803458
|107> C    2.53496627   -0.38042469    0.68068636
|108> H    2.57244024   -0.94571652   -0.25045186
|109> H    3.43198117    0.23441492    0.73557772
|110> H    2.56920771   -1.09581003    1.50245608
|111> C   -0.00050899    0.05997894    5.10084302
|112> C    0.00056275   -0.08015216    6.62057598
|113> H   -0.88647327    0.38392388    7.05394539
|114> H    0.00981425   -1.13093241    6.91358585
|115> H    0.87922298    0.39951240    7.05421905
|116> C   -1.23996433   -0.62167309    4.52694451
|117> H   -1.26326354   -0.53271597    3.44011533
|118> H   -1.25204996   -1.68294949    4.77995771
|119> H   -2.15090805   -0.16938183    4.92202963
|120> C    1.25209612   -0.59756187    4.52737269
|121> H    1.27342291   -0.50927620    3.44040173
|122> H    1.28522665   -1.65812271    4.78146501
|123> H    2.15390835   -0.12691855    4.92179381
|124> C   -0.01475687    1.53977143    4.72622175
|125> H    0.86300913    2.05035845    5.12517688
|126> H   -0.01528107    1.66622636    3.64257006
|127> H   -0.90286281    2.03310514    5.12400989
|128> *
|129>
|130>
|131>
|132>
|133>                          ****END OF INPUT****
 Total Charge           Charge          ....    0
 Multiplicity           Mult            ....    1
 Number of Electrons    NEL             ....   84
MP2 TOTAL ENERGY:     -394.243055327 Eh
FINAL SINGLE POINT ENERGY      -394.243055327427
MP2 TOTAL ENERGY:     -394.634061144 Eh
FINAL SINGLE POINT ENERGY      -394.634061143709

CARTESIAN COORDINATES (ANGSTROEM)
---------------------------------
  C     -2.530383   -0.417575    0.681306
  H     -2.559886   -0.982790   -0.250156
  H     -2.554036   -1.133865    1.502658
  H     -3.436214    0.184144    0.736771
  C     -1.276157    0.443635    0.750025
  H     -1.278084    1.025218    1.675085
  H     -1.280339    1.168556   -0.067158
  C      0.002205   -0.380716    0.678993
  H      0.007829   -1.111413    1.493831
  H      0.006249   -0.960523   -0.248820
  C      1.268333    0.462396    0.749369
  H      1.262020    1.044250    1.674246
  H      1.261635    1.187057   -0.068035
  C      2.534966   -0.380425    0.680686
  H      2.572440   -0.945717   -0.250452
  H      3.431981    0.234415    0.735578
  H      2.569208   -1.095810    1.502456
  C     -0.000509    0.059979    5.100843
  C      0.000563   -0.080152    6.620576
  H     -0.886473    0.383924    7.053945
  H      0.009814   -1.130932    6.913586
  H      0.879223    0.399512    7.054219
  C     -1.239964   -0.621673    4.526945
  H     -1.263264   -0.532716    3.440115
  H     -1.252050   -1.682949    4.779958
  H     -2.150908   -0.169382    4.922030
  C      1.252096   -0.597562    4.527373
  H      1.273423   -0.509276    3.440402
  H      1.285227   -1.658123    4.781465
  H      2.153908   -0.126919    4.921794
  C     -0.014757    1.539771    4.726222
  H      0.863009    2.050358    5.125177
  H     -0.015281    1.666226    3.642570
  H     -0.902863    2.033105    5.124010

 Multiplicity           Mult            ....    1
 Number of Electrons    NEL             ....   84
 Basis Dimension        Dim             .... 1904

ORBITAL ENERGIES
----------------

  NO   OCC          E(Eh)            E(eV)
   0   2.0000     -11.225443      -305.4598
   1   2.0000     -11.212215      -305.0999
   2   2.0000     -11.212136      -305.0977
   3   2.0000     -11.209940      -305.0380
   4   2.0000     -11.206309      -304.9392
   5   2.0000     -11.206308      -304.9391
   6   2.0000     -11.204698      -304.8953
   7   2.0000     -11.204170      -304.8810
   8   2.0000     -11.203714      -304.8685
   9   2.0000     -11.203693      -304.8680
  10   2.0000      -1.106398       -30.1066
  11   2.0000      -1.082299       -29.4508
  12   2.0000      -1.016297       -27.6548
  13   2.0000      -0.929018       -25.2799
  14   2.0000      -0.928710       -25.2715
  15   2.0000      -0.928643       -25.2697
  16   2.0000      -0.919576       -25.0229
  17   2.0000      -0.820753       -22.3338
  18   2.0000      -0.786458       -21.4006
  19   2.0000      -0.730609       -19.8809
  20   2.0000      -0.652753       -17.7623
  21   2.0000      -0.613602       -16.6969
  22   2.0000      -0.612127       -16.6568
  23   2.0000      -0.608847       -16.5676
  24   2.0000      -0.599380       -16.3100
  25   2.0000      -0.595522       -16.2050
  26   2.0000      -0.555943       -15.1280
  27   2.0000      -0.552793       -15.0423
  28   2.0000      -0.551852       -15.0167
  29   2.0000      -0.548017       -14.9123
  30   2.0000      -0.526799       -14.3349
  31   2.0000      -0.510363       -13.8877
  32   2.0000      -0.509450       -13.8629
  33   2.0000      -0.509274       -13.8580
  34   2.0000      -0.494907       -13.4671
  35   2.0000      -0.477229       -12.9861
  36   2.0000      -0.466581       -12.6963
  37   2.0000      -0.460264       -12.5244
  38   2.0000      -0.452259       -12.3066
  39   2.0000      -0.451914       -12.2972
  40   2.0000      -0.447768       -12.1844
  41   2.0000      -0.447642       -12.1810
  42   0.0000       0.022833         0.6213
  43   0.0000       0.028198         0.7673
  44   0.0000       0.028378         0.7722
  45   0.0000       0.029612         0.8058
  46   0.0000       0.039692         1.0801

MULLIKEN ATOMIC CHARGES
-----------------------
   0 C :   -1.003371
   1 H :    0.248952
   2 H :    0.255905
   3 H :    0.233192
   4 C :   -0.541342
   5 H :    0.355403
   6 H :    0.226698
   7 C :   -0.221031
   8 H :    0.346307
   9 H :    0.284212
  10 C :   -0.541170
  11 H :    0.354025
  12 H :    0.227189
  13 C :   -1.003323
  14 H :    0.248946
  15 H :    0.233440
  16 H :    0.256044
  17 C :    2.021834
  18 C :   -1.179965
  19 H :    0.233669
  20 H :    0.211457
  21 H :    0.233670
  22 C :   -1.267282
  23 H :    0.362134
  24 H :    0.211386
  25 H :    0.208952
  26 C :   -1.267082
  27 H :    0.362051
  28 H :    0.211211
  29 H :    0.209215
  30 C :   -1.267973
  31 H :    0.190794
  32 H :    0.374876
  33 H :    0.190978
Sum of atomic charges:   -0.0000000

LOEWDIN ATOMIC CHARGES
----------------------
   0 C :    0.935680
   1 H :   -0.281365
   2 H :   -0.293950
   3 H :   -0.276740
   4 C :    0.508543
   5 H :   -0.294976
   6 H :   -0.264609
   7 C :    0.498747
   8 H :   -0.286907
   9 H :   -0.261629
  10 C :    0.508523
  11 H :   -0.294917
  12 H :   -0.264583
  13 C :    0.935648
  14 H :   -0.281342
  15 H :   -0.276713
  16 H :   -0.293986
  17 C :   -0.313138
  18 C :    0.906078
  19 H :   -0.270872
  20 H :   -0.270709
  21 H :   -0.270773
  22 C :    0.907776
  23 H :   -0.329627
  24 H :   -0.259691
  25 H :   -0.259672
  26 C :    0.907785
  27 H :   -0.329568
  28 H :   -0.259703
  29 H :   -0.259746
  30 C :    0.909953
  31 H :   -0.264488
  32 H :   -0.294553
  33 H :   -0.264477

  Mayer bond orders larger than 0.100000
B(  0-C ,  1-H ) :   1.0027 B(  0-C ,  2-H ) :   0.9317 B(  0-C ,  3-H ) :   1.0516
B(  0-C ,  4-C ) :   0.9202 B(  0-C ,  7-C ) :  -0.1086 B(  4-C ,  5-H ) :   0.7980
B(  4-C ,  6-H ) :   0.9691 B(  4-C ,  7-C ) :   0.8293 B(  7-C ,  8-H ) :   0.8562
B(  7-C ,  9-H ) :   0.9193 B(  7-C , 10-C ) :   0.8291 B(  7-C , 13-C ) :  -0.1084
B( 10-C , 11-H ) :   0.7998 B( 10-C , 12-H ) :   0.9685 B( 10-C , 13-C ) :   0.9204
B( 13-C , 14-H ) :   1.0027 B( 13-C , 15-H ) :   1.0512 B( 13-C , 16-H ) :   0.9316
B( 17-C , 19-H ) :  -0.1876 B( 17-C , 20-H ) :  -0.1893 B( 17-C , 21-H ) :  -0.1876
B( 17-C , 22-C ) :   0.4234 B( 17-C , 23-H ) :  -0.2097 B( 17-C , 26-C ) :   0.4231
B( 17-C , 27-H ) :  -0.2108 B( 17-C , 30-C ) :   0.3206 B( 18-C , 19-H ) :   1.0845
B( 18-C , 20-H ) :   1.1048 B( 18-C , 21-H ) :   1.0844 B( 18-C , 22-C ) :   0.1716
B( 18-C , 26-C ) :   0.1717 B( 18-C , 30-C ) :   0.1795 B( 22-C , 23-H ) :   0.9844
B( 22-C , 24-H ) :   1.0176 B( 22-C , 25-H ) :   1.0564 B( 22-C , 26-C ) :   0.1689
B( 22-C , 30-C ) :   0.1651 B( 26-C , 27-H ) :   0.9852 B( 26-C , 28-H ) :   1.0177
B( 26-C , 29-H ) :   1.0556 B( 26-C , 30-C ) :   0.1649 B( 30-C , 31-H ) :   1.1068
B( 30-C , 32-H ) :   0.8765 B( 30-C , 33-H ) :   1.1065

MP2 TOTAL ENERGY:     -394.749724335 Eh
FINAL SINGLE POINT ENERGY      -394.749724335470

DIPOLE MOMENT
-------------
                                X             Y             Z
Electronic contribution:     -0.00433       0.60469       0.02141
Nuclear contribution   :      0.00408      -0.57011      -0.05180
                        -----------------------------------------
Total Dipole Moment    :     -0.00025       0.03458      -0.03039
                        -----------------------------------------
Magnitude (a.u.)       :      0.04604
Magnitude (Debye)      :      0.11703

Rotational constants in cm-1:     0.043895     0.020092     0.015798
Rotational constants in MHz :  1315.946608   602.344784   473.616671

                             ****ORCA TERMINATED NORMALLY****
TOTAL RUN TIME: 1 days 0 hours 0 minutes 31 seconds 28 msec
