                         Program Version 5.0.4 -  RELEASE  -
|  1> ! ri-mp2 aug-cc-pvdz aug-cc-pvdz/c tightscf
|  2> %pal nprocs 16 end
|  3> %maxcore 3800
|  4> %base "DZ_S66by10_46_1.05_dimer"
|  5> %scf STABPerform true end
|  6>
|  7> *xyz 0 1
|  8> C    1.37219093    1.01247736    0.97082468
|  9> H    0.95217623    2.01404955    1.03311725
| 10> H    1.94742170    0.92651560    0.05071776
| 11> H    2.05170208    0.85182517    1.80295247
| 12> C    0.32673706   -0.07764727    0.98819876
| 13> O    0.61882128   -1.25248130    1.17128126
| 14> N   -0.95002884    0.34488680    0.77391491
| 15> H   -1.10467156    1.32202550    0.60611216
| 16> C   -2.05985440   -0.57736895    0.68015349
| 17> H   -1.66935602   -1.56679601    0.89718425
| 18> H   -2.83459176   -0.33138032    1.40366139
| 19> H   -2.49097050   -0.57892483   -0.31993926
| 20> C    2.67565221    0.47323520    5.02890421
| 21> H    2.79249149    1.22765109    4.25015939
| 22> H    2.58954184    0.99812152    5.98056027
| 23> H    3.58774365   -0.12100671    5.05571222
| 24> C    1.44737998   -0.39015231    4.77135266
| 25> H    1.35281063   -1.13560631    5.56440350
| 26> H    1.56380011   -0.94361664    3.83750886
| 27> C    0.16484214    0.42846164    4.70605131
| 28> H    0.05327182    1.00619652    5.62913495
| 29> H    0.24407629    1.16127654    3.89639866
| 30> C   -1.07951415   -0.42187360    4.48917141
| 31> H   -1.17031612   -1.13636008    5.31058864
| 32> H   -0.95170715   -1.01081133    3.57895696
| 33> C   -2.34635265    0.41841791    4.39905669
| 34> H   -2.27943941    1.12546889    3.57128745
| 35> H   -3.23169486   -0.19759958    4.24522378
| 36> H   -2.49670869    0.99462900    5.31227628
| 37> *
| 38>
| 39> $new_job
| 40> ! ri-mp2 aug-cc-pvtz aug-cc-pvtz/c tightscf
| 41> %pal nprocs 16 end
| 42> %maxcore 3800
| 43> %base "TZ_S66by10_46_1.05_dimer"
| 44>
| 45> *xyz 0 1
| 46> C    1.37219093    1.01247736    0.97082468
| 47> H    0.95217623    2.01404955    1.03311725
| 48> H    1.94742170    0.92651560    0.05071776
| 49> H    2.05170208    0.85182517    1.80295247
| 50> C    0.32673706   -0.07764727    0.98819876
| 51> O    0.61882128   -1.25248130    1.17128126
| 52> N   -0.95002884    0.34488680    0.77391491
| 53> H   -1.10467156    1.32202550    0.60611216
| 54> C   -2.05985440   -0.57736895    0.68015349
| 55> H   -1.66935602   -1.56679601    0.89718425
| 56> H   -2.83459176   -0.33138032    1.40366139
| 57> H   -2.49097050   -0.57892483   -0.31993926
| 58> C    2.67565221    0.47323520    5.02890421
| 59> H    2.79249149    1.22765109    4.25015939
| 60> H    2.58954184    0.99812152    5.98056027
| 61> H    3.58774365   -0.12100671    5.05571222
| 62> C    1.44737998   -0.39015231    4.77135266
| 63> H    1.35281063   -1.13560631    5.56440350
| 64> H    1.56380011   -0.94361664    3.83750886
| 65> C    0.16484214    0.42846164    4.70605131
| 66> H    0.05327182    1.00619652    5.62913495
| 67> H    0.24407629    1.16127654    3.89639866
| 68> C   -1.07951415   -0.42187360    4.48917141
| 69> H   -1.17031612   -1.13636008    5.31058864
| 70> H   -0.95170715   -1.01081133    3.57895696
| 71> C   -2.34635265    0.41841791    4.39905669
| 72> H   -2.27943941    1.12546889    3.57128745
| 73> H   -3.23169486   -0.19759958    4.24522378
| 74> H   -2.49670869    0.99462900    5.31227628
| 75> *
| 76>
| 77> $new_job
| 78> ! ri-mp2 aug-cc-pvqz aug-cc-pvqz/c tightscf
| 79> %pal nprocs 16 end
| 80> %maxcore 3800
| 81> %base "QZ_S66by10_46_1.05_dimer"
| 82>
| 83> *xyz 0 1
| 84> C    1.37219093    1.01247736    0.97082468
| 85> H    0.95217623    2.01404955    1.03311725
| 86> H    1.94742170    0.92651560    0.05071776
| 87> H    2.05170208    0.85182517    1.80295247
| 88> C    0.32673706   -0.07764727    0.98819876
| 89> O    0.61882128   -1.25248130    1.17128126
| 90> N   -0.95002884    0.34488680    0.77391491
| 91> H   -1.10467156    1.32202550    0.60611216
| 92> C   -2.05985440   -0.57736895    0.68015349
| 93> H   -1.66935602   -1.56679601    0.89718425
| 94> H   -2.83459176   -0.33138032    1.40366139
| 95> H   -2.49097050   -0.57892483   -0.31993926
| 96> C    2.67565221    0.47323520    5.02890421
| 97> H    2.79249149    1.22765109    4.25015939
| 98> H    2.58954184    0.99812152    5.98056027
| 99> H    3.58774365   -0.12100671    5.05571222
|100> C    1.44737998   -0.39015231    4.77135266
|101> H    1.35281063   -1.13560631    5.56440350
|102> H    1.56380011   -0.94361664    3.83750886
|103> C    0.16484214    0.42846164    4.70605131
|104> H    0.05327182    1.00619652    5.62913495
|105> H    0.24407629    1.16127654    3.89639866
|106> C   -1.07951415   -0.42187360    4.48917141
|107> H   -1.17031612   -1.13636008    5.31058864
|108> H   -0.95170715   -1.01081133    3.57895696
|109> C   -2.34635265    0.41841791    4.39905669
|110> H   -2.27943941    1.12546889    3.57128745
|111> H   -3.23169486   -0.19759958    4.24522378
|112> H   -2.49670869    0.99462900    5.31227628
|113> *
|114>
|115>
|116>
|117>
|118>                          ****END OF INPUT****
 Total Charge           Charge          ....    0
 Multiplicity           Mult            ....    1
 Number of Electrons    NEL             ....   82
MP2 TOTAL ENERGY:     -444.969988703 Eh
FINAL SINGLE POINT ENERGY      -444.969988703159
MP2 TOTAL ENERGY:     -445.388986932 Eh
FINAL SINGLE POINT ENERGY      -445.388986931836

CARTESIAN COORDINATES (ANGSTROEM)
---------------------------------
  C      1.372191    1.012477    0.970825
  H      0.952176    2.014050    1.033117
  H      1.947422    0.926516    0.050718
  H      2.051702    0.851825    1.802952
  C      0.326737   -0.077647    0.988199
  O      0.618821   -1.252481    1.171281
  N     -0.950029    0.344887    0.773915
  H     -1.104672    1.322026    0.606112
  C     -2.059854   -0.577369    0.680153
  H     -1.669356   -1.566796    0.897184
  H     -2.834592   -0.331380    1.403661
  H     -2.490970   -0.578925   -0.319939
  C      2.675652    0.473235    5.028904
  H      2.792491    1.227651    4.250159
  H      2.589542    0.998122    5.980560
  H      3.587744   -0.121007    5.055712
  C      1.447380   -0.390152    4.771353
  H      1.352811   -1.135606    5.564404
  H      1.563800   -0.943617    3.837509
  C      0.164842    0.428462    4.706051
  H      0.053272    1.006197    5.629135
  H      0.244076    1.161277    3.896399
  C     -1.079514   -0.421874    4.489171
  H     -1.170316   -1.136360    5.310589
  H     -0.951707   -1.010811    3.578957
  C     -2.346353    0.418418    4.399057
  H     -2.279439    1.125469    3.571287
  H     -3.231695   -0.197600    4.245224
  H     -2.496709    0.994629    5.312276

 Multiplicity           Mult            ....    1
 Number of Electrons    NEL             ....   82
 Basis Dimension        Dim             .... 1674

ORBITAL ENERGIES
----------------

  NO   OCC          E(Eh)            E(eV)
   0   2.0000     -20.510524      -558.1197
   1   2.0000     -15.585930      -424.1147
   2   2.0000     -11.348545      -308.8096
   3   2.0000     -11.255399      -306.2750
   4   2.0000     -11.235164      -305.7243
   5   2.0000     -11.206174      -304.9355
   6   2.0000     -11.205912      -304.9284
   7   2.0000     -11.205053      -304.9050
   8   2.0000     -11.202991      -304.8489
   9   2.0000     -11.202369      -304.8320
  10   2.0000      -1.375714       -37.4351
  11   2.0000      -1.231527       -33.5116
  12   2.0000      -1.076500       -29.2930
  13   2.0000      -1.020308       -27.7640
  14   2.0000      -1.011185       -27.5157
  15   2.0000      -0.933234       -25.3946
  16   2.0000      -0.916057       -24.9272
  17   2.0000      -0.815793       -22.1989
  18   2.0000      -0.791049       -21.5255
  19   2.0000      -0.780130       -21.2284
  20   2.0000      -0.692361       -18.8401
  21   2.0000      -0.654246       -17.8029
  22   2.0000      -0.651028       -17.7154
  23   2.0000      -0.627921       -17.0866
  24   2.0000      -0.596468       -16.2307
  25   2.0000      -0.594983       -16.1903
  26   2.0000      -0.584445       -15.9036
  27   2.0000      -0.580224       -15.7887
  28   2.0000      -0.556485       -15.1427
  29   2.0000      -0.550299       -14.9744
  30   2.0000      -0.545707       -14.8495
  31   2.0000      -0.545074       -14.8322
  32   2.0000      -0.524079       -14.2609
  33   2.0000      -0.507138       -13.7999
  34   2.0000      -0.490813       -13.3557
  35   2.0000      -0.471748       -12.8369
  36   2.0000      -0.457102       -12.4384
  37   2.0000      -0.453760       -12.3474
  38   2.0000      -0.442480       -12.0405
  39   2.0000      -0.423099       -11.5131
  40   2.0000      -0.393393       -10.7048
  41   0.0000       0.019016         0.5174
  42   0.0000       0.027719         0.7543
  43   0.0000       0.029354         0.7988
  44   0.0000       0.032505         0.8845
  45   0.0000       0.038791         1.0555

MULLIKEN ATOMIC CHARGES
-----------------------
   0 C :   -0.977514
   1 H :    0.191646
   2 H :    0.368886
   3 H :    0.399246
   4 C :    1.334835
   5 O :   -1.011431
   6 N :   -0.595456
   7 H :    0.253635
   8 C :   -0.914326
   9 H :    0.262030
  10 H :    0.313996
  11 H :    0.388879
  12 C :   -1.000282
  13 H :    0.267258
  14 H :    0.233474
  15 H :    0.250908
  16 C :   -0.512800
  17 H :    0.301401
  18 H :    0.288452
  19 C :   -0.270157
  20 H :    0.286406
  21 H :    0.304093
  22 C :   -0.501310
  23 H :    0.289384
  24 H :    0.331018
  25 C :   -1.041840
  26 H :    0.246217
  27 H :    0.230907
  28 H :    0.282444
Sum of atomic charges:    0.0000000

LOEWDIN ATOMIC CHARGES
----------------------
   0 C :    0.894808
   1 H :   -0.303797
   2 H :   -0.284064
   3 H :   -0.321906
   4 C :   -0.845736
   5 O :    0.726812
   6 N :    0.831848
   7 H :   -0.500854
   8 C :    0.784963
   9 H :   -0.359086
  10 H :   -0.298893
  11 H :   -0.277370
  12 C :    0.927990
  13 H :   -0.294685
  14 H :   -0.284322
  15 H :   -0.279895
  16 C :    0.505153
  17 H :   -0.267928
  18 H :   -0.293031
  19 C :    0.487880
  20 H :   -0.264373
  21 H :   -0.285459
  22 C :    0.503500
  23 H :   -0.264676
  24 H :   -0.300843
  25 C :    0.921846
  26 H :   -0.297208
  27 H :   -0.279456
  28 H :   -0.281221

  Mayer bond orders larger than 0.100000
B(  0-C ,  1-H ) :   1.0579 B(  0-C ,  2-H ) :   0.8831 B(  0-C ,  3-H ) :   0.8342
B(  0-C ,  4-C ) :   0.8280 B(  0-C ,  5-O ) :   0.1042 B(  1-H ,  4-C ) :  -0.1137
B(  4-C ,  5-O ) :   0.9844 B(  4-C ,  6-N ) :   1.0519 B(  4-C ,  8-C ) :  -0.1107
B(  5-O ,  6-N ) :   0.1519 B(  6-N ,  7-H ) :   0.9924 B(  6-N ,  8-C ) :   0.8688
B(  8-C ,  9-H ) :   0.9916 B(  8-C , 10-H ) :   0.8859 B(  8-C , 11-H ) :   0.8797
B( 12-C , 13-H ) :   0.9135 B( 12-C , 14-H ) :   0.9896 B( 12-C , 15-H ) :   1.0483
B( 12-C , 16-C ) :   0.9820 B( 12-C , 19-C ) :  -0.1010 B( 15-H , 16-C ) :  -0.1064
B( 16-C , 17-H ) :   0.8651 B( 16-C , 18-H ) :   0.8415 B( 16-C , 19-C ) :   0.7597
B( 19-C , 20-H ) :   0.9085 B( 19-C , 21-H ) :   0.8399 B( 19-C , 22-C ) :   0.8707
B( 22-C , 23-H ) :   0.8819 B( 22-C , 24-H ) :   0.8072 B( 22-C , 25-C ) :   0.9529
B( 22-C , 27-H ) :  -0.1176 B( 25-C , 26-H ) :   0.9383 B( 25-C , 27-H ) :   1.0434
B( 25-C , 28-H ) :   0.9582

MP2 TOTAL ENERGY:     -445.517621187 Eh
FINAL SINGLE POINT ENERGY      -445.517621186886

DIPOLE MOMENT
-------------
                                X             Y             Z
Electronic contribution:      0.57471      -3.04875      -8.59248
Nuclear contribution   :     -1.20821       4.32506       8.21749
                        -----------------------------------------
Total Dipole Moment    :     -0.63351       1.27631      -0.37498
                        -----------------------------------------
Magnitude (a.u.)       :      1.47340
Magnitude (Debye)      :      3.74508

Rotational constants in cm-1:     0.041655     0.026123     0.018640
Rotational constants in MHz :  1248.796166   783.148698   558.812227

                             ****ORCA TERMINATED NORMALLY****
TOTAL RUN TIME: 0 days 9 hours 47 minutes 45 seconds 454 msec
