                         Program Version 5.0.4 -  RELEASE  -
|  1> ! ri-mp2 aug-cc-pvdz aug-cc-pvdz/c tightscf
|  2> %pal nprocs 16 end
|  3> %maxcore 3800
|  4> %base "DZ_S66by10_59_0.8_dimer"
|  5> %scf STABPerform true end
|  6>
|  7> *xyz 0 1
|  8> C   -1.00686722   -0.03056821   -0.02477285
|  9> H    0.05900333   -0.06093974   -0.04936562
| 10> C   -2.21874380    0.00317347    0.00259920
| 11> H   -3.27927730    0.03352491    0.02720048
| 12> O    1.84285884   -0.12940913   -0.10284743
| 13> H    2.41321525   -0.71917852    0.39417949
| 14> H    2.41485468    0.22157889   -0.78821959
| 15> *
| 16>
| 17> $new_job
| 18> ! ri-mp2 aug-cc-pvtz aug-cc-pvtz/c tightscf
| 19> %pal nprocs 16 end
| 20> %maxcore 3800
| 21> %base "TZ_S66by10_59_0.8_dimer"
| 22>
| 23> *xyz 0 1
| 24> C   -1.00686722   -0.03056821   -0.02477285
| 25> H    0.05900333   -0.06093974   -0.04936562
| 26> C   -2.21874380    0.00317347    0.00259920
| 27> H   -3.27927730    0.03352491    0.02720048
| 28> O    1.84285884   -0.12940913   -0.10284743
| 29> H    2.41321525   -0.71917852    0.39417949
| 30> H    2.41485468    0.22157889   -0.78821959
| 31> *
| 32>
| 33> $new_job
| 34> ! ri-mp2 aug-cc-pvqz aug-cc-pvqz/c tightscf
| 35> %pal nprocs 16 end
| 36> %maxcore 3800
| 37> %base "QZ_S66by10_59_0.8_dimer"
| 38>
| 39> *xyz 0 1
| 40> C   -1.00686722   -0.03056821   -0.02477285
| 41> H    0.05900333   -0.06093974   -0.04936562
| 42> C   -2.21874380    0.00317347    0.00259920
| 43> H   -3.27927730    0.03352491    0.02720048
| 44> O    1.84285884   -0.12940913   -0.10284743
| 45> H    2.41321525   -0.71917852    0.39417949
| 46> H    2.41485468    0.22157889   -0.78821959
| 47> *
| 48>
| 49>
| 50>
| 51>
| 52>                          ****END OF INPUT****
 Total Charge           Charge          ....    0
 Multiplicity           Mult            ....    1
 Number of Electrons    NEL             ....   24
MP2 TOTAL ENERGY:     -153.355084868 Eh
FINAL SINGLE POINT ENERGY      -153.355084868094
MP2 TOTAL ENERGY:     -153.494759347 Eh
FINAL SINGLE POINT ENERGY      -153.494759347346

CARTESIAN COORDINATES (ANGSTROEM)
---------------------------------
  C     -1.006867   -0.030568   -0.024773
  H      0.059003   -0.060940   -0.049366
  C     -2.218744    0.003173    0.002599
  H     -3.279277    0.033525    0.027200
  O      1.842859   -0.129409   -0.102847
  H      2.413215   -0.719179    0.394179
  H      2.414855    0.221579   -0.788220

 Multiplicity           Mult            ....    1
 Number of Electrons    NEL             ....   24
 Basis Dimension        Dim             ....  424

ORBITAL ENERGIES
----------------

  NO   OCC          E(Eh)            E(eV)
   0   2.0000     -20.589421      -560.2666
   1   2.0000     -11.216429      -305.2145
   2   2.0000     -11.210835      -305.0623
   3   2.0000      -1.381543       -37.5937
   4   2.0000      -1.002033       -27.2667
   5   2.0000      -0.750195       -20.4139
   6   2.0000      -0.742515       -20.2048
   7   2.0000      -0.675290       -18.3756
   8   2.0000      -0.590049       -16.0561
   9   2.0000      -0.538628       -14.6568
  10   2.0000      -0.383575       -10.4376
  11   2.0000      -0.383320       -10.4307
  12   0.0000       0.018177         0.4946
  13   0.0000       0.032806         0.8927
  14   0.0000       0.039769         1.0822
  15   0.0000       0.052320         1.4237
  16   0.0000       0.081093         2.2066

MULLIKEN ATOMIC CHARGES
-----------------------
   0 C :   -0.430441
   1 H :    1.116985
   2 C :   -1.121454
   3 H :    0.388655
   4 O :   -0.542457
   5 H :    0.294437
   6 H :    0.294276
Sum of atomic charges:   -0.0000000

LOEWDIN ATOMIC CHARGES
----------------------
   0 C :    0.480922
   1 H :   -0.728059
   2 C :    0.491029
   3 H :   -0.493691
   4 O :    1.673590
   5 H :   -0.711852
   6 H :   -0.711938

  Mayer bond orders larger than 0.100000
B(  0-C ,  2-C ) :   2.1668 B(  0-C ,  3-H ) :  -0.1280 B(  1-H ,  2-C ) :  -0.1890
B(  1-H ,  3-H ) :  -0.1362 B(  2-C ,  3-H ) :   1.1069 B(  4-O ,  5-H ) :   0.9648
B(  4-O ,  6-H ) :   0.9650

MP2 TOTAL ENERGY:     -153.539096657 Eh
FINAL SINGLE POINT ENERGY      -153.539096657303

DIPOLE MOMENT
-------------
                                X             Y             Z
Electronic contribution:     -1.05304       0.07216       0.05696
Nuclear contribution   :      2.18889      -0.24400      -0.19262
                        -----------------------------------------
Total Dipole Moment    :      1.13585      -0.17184      -0.13566
                        -----------------------------------------
Magnitude (a.u.)       :      1.15676
Magnitude (Debye)      :      2.94025

Rotational constants in cm-1:    14.281341     0.114479     0.113614
Rotational constants in MHz : 428143.826931  3431.992171  3406.063863

                             ****ORCA TERMINATED NORMALLY****
TOTAL RUN TIME: 0 days 0 hours 5 minutes 1 seconds 454 msec
