                         Program Version 5.0.4 -  RELEASE  -
|  1> ! ri-mp2 aug-cc-pvdz aug-cc-pvdz/c tightscf
|  2> %pal nprocs 16 end
|  3> %maxcore 3800
|  4> %base "DZ_S66by10_37_1.05_dimer"
|  5> %scf STABPerform true end
|  6>
|  7> *xyz 0 1
|  8> C    0.79991408   -1.02205164    0.68773696
|  9> H    0.85355588   -1.12205101   -0.39801435
| 10> H    1.49140210   -1.74416936    1.11972040
| 11> C    1.11688700    0.42495279    1.09966205
| 12> H    1.83814230    0.89014504    0.43045256
| 13> H    1.55556959    0.43982464    2.09708356
| 14> C   -0.24455916    1.16568959    1.10297714
| 15> H   -0.25807760    2.00086313    0.40532333
| 16> H   -0.44880450    1.57699582    2.09098447
| 17> C   -1.29871418    0.10381191    0.73930899
| 18> H   -1.47356078    0.10524338   -0.33800545
| 19> H   -2.25673428    0.27804118    1.22715843
| 20> C   -0.64687993   -1.22006836    1.13630660
| 21> H   -1.12443918   -2.08762702    0.68299327
| 22> H   -0.68601864   -1.34528332    2.22022006
| 23> C    0.05328077    0.10089632    5.77014330
| 24> C   -0.04306343   -0.05118965    7.28578378
| 25> H    0.94948294   -0.06665585    7.73814100
| 26> H   -0.60198820    0.77669485    7.72421870
| 27> H   -0.55022813   -0.97985573    7.55113337
| 28> C    0.76733401    1.40780144    5.43451842
| 29> H    0.84885355    1.54130057    4.35483655
| 30> H    0.22386162    2.26248987    5.84001981
| 31> H    1.77493855    1.41845185    5.85275143
| 32> C   -1.35173105    0.12072097    5.17282378
| 33> H   -1.31479946    0.23791091    4.08897482
| 34> H   -1.93403058    0.94814453    5.58116970
| 35> H   -1.88163411   -0.80706587    5.39415307
| 36> C    0.84118058   -1.07258858    5.19280513
| 37> H    0.34596026   -2.01957932    5.41304828
| 38> H    0.93602375   -0.98540582    4.10967035
| 39> H    1.84589866   -1.10999322    5.61655359
| 40> *
| 41>
| 42> $new_job
| 43> ! ri-mp2 aug-cc-pvtz aug-cc-pvtz/c tightscf
| 44> %pal nprocs 16 end
| 45> %maxcore 3800
| 46> %base "TZ_S66by10_37_1.05_dimer"
| 47>
| 48> *xyz 0 1
| 49> C    0.79991408   -1.02205164    0.68773696
| 50> H    0.85355588   -1.12205101   -0.39801435
| 51> H    1.49140210   -1.74416936    1.11972040
| 52> C    1.11688700    0.42495279    1.09966205
| 53> H    1.83814230    0.89014504    0.43045256
| 54> H    1.55556959    0.43982464    2.09708356
| 55> C   -0.24455916    1.16568959    1.10297714
| 56> H   -0.25807760    2.00086313    0.40532333
| 57> H   -0.44880450    1.57699582    2.09098447
| 58> C   -1.29871418    0.10381191    0.73930899
| 59> H   -1.47356078    0.10524338   -0.33800545
| 60> H   -2.25673428    0.27804118    1.22715843
| 61> C   -0.64687993   -1.22006836    1.13630660
| 62> H   -1.12443918   -2.08762702    0.68299327
| 63> H   -0.68601864   -1.34528332    2.22022006
| 64> C    0.05328077    0.10089632    5.77014330
| 65> C   -0.04306343   -0.05118965    7.28578378
| 66> H    0.94948294   -0.06665585    7.73814100
| 67> H   -0.60198820    0.77669485    7.72421870
| 68> H   -0.55022813   -0.97985573    7.55113337
| 69> C    0.76733401    1.40780144    5.43451842
| 70> H    0.84885355    1.54130057    4.35483655
| 71> H    0.22386162    2.26248987    5.84001981
| 72> H    1.77493855    1.41845185    5.85275143
| 73> C   -1.35173105    0.12072097    5.17282378
| 74> H   -1.31479946    0.23791091    4.08897482
| 75> H   -1.93403058    0.94814453    5.58116970
| 76> H   -1.88163411   -0.80706587    5.39415307
| 77> C    0.84118058   -1.07258858    5.19280513
| 78> H    0.34596026   -2.01957932    5.41304828
| 79> H    0.93602375   -0.98540582    4.10967035
| 80> H    1.84589866   -1.10999322    5.61655359
| 81> *
| 82>
| 83> $new_job
| 84> ! ri-mp2 aug-cc-pvqz aug-cc-pvqz/c tightscf
| 85> %pal nprocs 16 end
| 86> %maxcore 3800
| 87> %base "QZ_S66by10_37_1.05_dimer"
| 88>
| 89> *xyz 0 1
| 90> C    0.79991408   -1.02205164    0.68773696
| 91> H    0.85355588   -1.12205101   -0.39801435
| 92> H    1.49140210   -1.74416936    1.11972040
| 93> C    1.11688700    0.42495279    1.09966205
| 94> H    1.83814230    0.89014504    0.43045256
| 95> H    1.55556959    0.43982464    2.09708356
| 96> C   -0.24455916    1.16568959    1.10297714
| 97> H   -0.25807760    2.00086313    0.40532333
| 98> H   -0.44880450    1.57699582    2.09098447
| 99> C   -1.29871418    0.10381191    0.73930899
|100> H   -1.47356078    0.10524338   -0.33800545
|101> H   -2.25673428    0.27804118    1.22715843
|102> C   -0.64687993   -1.22006836    1.13630660
|103> H   -1.12443918   -2.08762702    0.68299327
|104> H   -0.68601864   -1.34528332    2.22022006
|105> C    0.05328077    0.10089632    5.77014330
|106> C   -0.04306343   -0.05118965    7.28578378
|107> H    0.94948294   -0.06665585    7.73814100
|108> H   -0.60198820    0.77669485    7.72421870
|109> H   -0.55022813   -0.97985573    7.55113337
|110> C    0.76733401    1.40780144    5.43451842
|111> H    0.84885355    1.54130057    4.35483655
|112> H    0.22386162    2.26248987    5.84001981
|113> H    1.77493855    1.41845185    5.85275143
|114> C   -1.35173105    0.12072097    5.17282378
|115> H   -1.31479946    0.23791091    4.08897482
|116> H   -1.93403058    0.94814453    5.58116970
|117> H   -1.88163411   -0.80706587    5.39415307
|118> C    0.84118058   -1.07258858    5.19280513
|119> H    0.34596026   -2.01957932    5.41304828
|120> H    0.93602375   -0.98540582    4.10967035
|121> H    1.84589866   -1.10999322    5.61655359
|122> *
|123>
|124>
|125>
|126>
|127>                          ****END OF INPUT****
 Total Charge           Charge          ....    0
 Multiplicity           Mult            ....    1
 Number of Electrons    NEL             ....   82
MP2 TOTAL ENERGY:     -393.050664323 Eh
FINAL SINGLE POINT ENERGY      -393.050664323331
MP2 TOTAL ENERGY:     -393.434004342 Eh
FINAL SINGLE POINT ENERGY      -393.434004341636

CARTESIAN COORDINATES (ANGSTROEM)
---------------------------------
  C      0.799914   -1.022052    0.687737
  H      0.853556   -1.122051   -0.398014
  H      1.491402   -1.744169    1.119720
  C      1.116887    0.424953    1.099662
  H      1.838142    0.890145    0.430453
  H      1.555570    0.439825    2.097084
  C     -0.244559    1.165690    1.102977
  H     -0.258078    2.000863    0.405323
  H     -0.448804    1.576996    2.090984
  C     -1.298714    0.103812    0.739309
  H     -1.473561    0.105243   -0.338005
  H     -2.256734    0.278041    1.227158
  C     -0.646880   -1.220068    1.136307
  H     -1.124439   -2.087627    0.682993
  H     -0.686019   -1.345283    2.220220
  C      0.053281    0.100896    5.770143
  C     -0.043063   -0.051190    7.285784
  H      0.949483   -0.066656    7.738141
  H     -0.601988    0.776695    7.724219
  H     -0.550228   -0.979856    7.551133
  C      0.767334    1.407801    5.434518
  H      0.848854    1.541301    4.354837
  H      0.223862    2.262490    5.840020
  H      1.774939    1.418452    5.852751
  C     -1.351731    0.120721    5.172824
  H     -1.314799    0.237911    4.088975
  H     -1.934031    0.948145    5.581170
  H     -1.881634   -0.807066    5.394153
  C      0.841181   -1.072589    5.192805
  H      0.345960   -2.019579    5.413048
  H      0.936024   -0.985406    4.109670
  H      1.845899   -1.109993    5.616554

 Multiplicity           Mult            ....    1
 Number of Electrons    NEL             ....   82
 Basis Dimension        Dim             .... 1812

ORBITAL ENERGIES
----------------

  NO   OCC          E(Eh)            E(eV)
   0   2.0000     -11.226153      -305.4792
   1   2.0000     -11.209935      -305.0379
   2   2.0000     -11.209535      -305.0270
   3   2.0000     -11.209301      -305.0206
   4   2.0000     -11.208931      -305.0105
   5   2.0000     -11.208288      -304.9930
   6   2.0000     -11.204949      -304.9022
   7   2.0000     -11.204908      -304.9010
   8   2.0000     -11.204861      -304.8998
   9   2.0000     -11.204663      -304.8944
  10   2.0000      -1.116325       -30.3768
  11   2.0000      -1.106638       -30.1132
  12   2.0000      -0.957246       -26.0480
  13   2.0000      -0.956836       -26.0368
  14   2.0000      -0.929472       -25.2922
  15   2.0000      -0.929086       -25.2817
  16   2.0000      -0.928880       -25.2761
  17   2.0000      -0.777337       -21.1524
  18   2.0000      -0.768178       -20.9032
  19   2.0000      -0.730580       -19.8801
  20   2.0000      -0.651800       -17.7364
  21   2.0000      -0.645166       -17.5558
  22   2.0000      -0.612814       -16.6755
  23   2.0000      -0.612529       -16.6678
  24   2.0000      -0.611393       -16.6368
  25   2.0000      -0.572552       -15.5799
  26   2.0000      -0.570132       -15.5141
  27   2.0000      -0.553065       -15.0497
  28   2.0000      -0.552320       -15.0294
  29   2.0000      -0.510014       -13.8782
  30   2.0000      -0.509978       -13.8772
  31   2.0000      -0.509818       -13.8729
  32   2.0000      -0.475493       -12.9388
  33   2.0000      -0.475383       -12.9358
  34   2.0000      -0.464669       -12.6443
  35   2.0000      -0.463424       -12.6104
  36   2.0000      -0.460268       -12.5245
  37   2.0000      -0.453362       -12.3366
  38   2.0000      -0.452917       -12.3245
  39   2.0000      -0.449535       -12.2325
  40   2.0000      -0.448891       -12.2149
  41   0.0000       0.023041         0.6270
  42   0.0000       0.028252         0.7688
  43   0.0000       0.029395         0.7999
  44   0.0000       0.029579         0.8049
  45   0.0000       0.039184         1.0662

MULLIKEN ATOMIC CHARGES
-----------------------
   0 C :   -0.680883
   1 H :    0.273959
   2 H :    0.278645
   3 C :   -0.619509
   4 H :    0.332726
   5 H :    0.322457
   6 C :   -0.583109
   7 H :    0.322679
   8 H :    0.313181
   9 C :   -0.692230
  10 H :    0.271660
  11 H :    0.277425
  12 C :   -0.536627
  13 H :    0.326163
  14 H :    0.343403
  15 C :    1.896596
  16 C :   -1.131468
  17 H :    0.238354
  18 H :    0.237578
  19 H :    0.218192
  20 C :   -1.305347
  21 H :    0.446876
  22 H :    0.197722
  23 H :    0.199316
  24 C :   -1.310669
  25 H :    0.435992
  26 H :    0.195363
  27 H :    0.205019
  28 C :   -1.307309
  29 H :    0.203626
  30 H :    0.437881
  31 H :    0.192338
Sum of atomic charges:    0.0000000

LOEWDIN ATOMIC CHARGES
----------------------
   0 C :    0.531351
   1 H :   -0.265925
   2 H :   -0.256234
   3 C :    0.545068
   4 H :   -0.260170
   5 H :   -0.288814
   6 C :    0.547289
   7 H :   -0.261436
   8 H :   -0.287797
   9 C :    0.532539
  10 H :   -0.266763
  11 H :   -0.257421
  12 C :    0.518667
  13 H :   -0.250757
  14 H :   -0.288358
  15 C :   -0.323425
  16 C :    0.903620
  17 H :   -0.271185
  18 H :   -0.271154
  19 H :   -0.270665
  20 C :    0.905142
  21 H :   -0.287791
  22 H :   -0.266959
  23 H :   -0.266914
  24 C :    0.904492
  25 H :   -0.295284
  26 H :   -0.265519
  27 H :   -0.264954
  28 C :    0.904675
  29 H :   -0.265113
  30 H :   -0.294517
  31 H :   -0.265689

  Mayer bond orders larger than 0.100000
B(  0-C ,  1-H ) :   0.9319 B(  0-C ,  2-H ) :   0.8904 B(  0-C ,  3-C ) :   0.9744
B(  0-C , 12-C ) :   0.9096 B(  3-C ,  4-H ) :   0.9095 B(  3-C ,  5-H ) :   0.8317
B(  3-C ,  6-C ) :   0.9255 B(  6-C ,  7-H ) :   0.9201 B(  6-C ,  8-H ) :   0.8411
B(  6-C ,  9-C ) :   0.9758 B(  6-C , 12-C ) :  -0.1046 B(  9-C , 10-H ) :   0.9381
B(  9-C , 11-H ) :   0.8912 B(  9-C , 12-C ) :   0.9039 B( 12-C , 13-H ) :   0.8805
B( 12-C , 14-H ) :   0.7850 B( 15-C , 17-H ) :  -0.1567 B( 15-C , 18-H ) :  -0.1568
B( 15-C , 19-H ) :  -0.1778 B( 15-C , 20-C ) :   0.4020 B( 15-C , 24-C ) :   0.3551
B( 15-C , 25-H ) :  -0.1196 B( 15-C , 28-C ) :   0.3393 B( 15-C , 30-H ) :  -0.1041
B( 16-C , 17-H ) :   1.0656 B( 16-C , 18-H ) :   1.0654 B( 16-C , 19-H ) :   1.0876
B( 16-C , 20-C ) :   0.1676 B( 16-C , 24-C ) :   0.1718 B( 16-C , 28-C ) :   0.1695
B( 20-C , 21-H ) :   0.8052 B( 20-C , 22-H ) :   1.0880 B( 20-C , 23-H ) :   1.0866
B( 20-C , 24-C ) :   0.1762 B( 20-C , 28-C ) :   0.1753 B( 24-C , 25-H ) :   0.8692
B( 24-C , 26-H ) :   1.0970 B( 24-C , 27-H ) :   1.0681 B( 24-C , 28-C ) :   0.1471
B( 28-C , 29-H ) :   1.0748 B( 28-C , 30-H ) :   0.8615 B( 28-C , 31-H ) :   1.1060

MP2 TOTAL ENERGY:     -393.548510008 Eh
FINAL SINGLE POINT ENERGY      -393.548510007781

DIPOLE MOMENT
-------------
                                X             Y             Z
Electronic contribution:     -0.12024      -0.24561      -3.83856
Nuclear contribution   :      0.11669       0.23828       3.82835
                        -----------------------------------------
Total Dipole Moment    :     -0.00355      -0.00733      -0.01021
                        -----------------------------------------
Magnitude (a.u.)       :      0.01306
Magnitude (Debye)      :      0.03319

Rotational constants in cm-1:     0.068751     0.016572     0.016555
Rotational constants in MHz :  2061.088607   496.813147   496.318438

                             ****ORCA TERMINATED NORMALLY****
TOTAL RUN TIME: 0 days 20 hours 15 minutes 24 seconds 688 msec
