                         Program Version 5.0.4 -  RELEASE  -
|  1> ! ri-mp2 aug-cc-pvdz aug-cc-pvdz/c tightscf
|  2> %pal nprocs 16 end
|  3> %maxcore 3800
|  4> %base "DZ_S66by10_57_0.8_dimer"
|  5>
|  6> *xyz 0 1
|  7> C    0.40877989    1.05102502    0.37553605
|  8> H    1.01193875    1.94854570    0.36807788
|  9> C    1.01916788   -0.19976963    0.28905343
| 10> H    2.09557130   -0.27183333    0.21719099
| 11> C    0.24172263   -1.35688270    0.29668995
| 12> H    0.71521633   -2.32658869    0.22807218
| 13> C   -1.14617971   -1.26425757    0.39390198
| 14> H   -1.74918186   -2.16192663    0.39940980
| 15> C   -1.75727780   -0.01396023    0.48295173
| 16> H   -2.83351378    0.05824368    0.55903918
| 17> C   -0.97968602    1.14420653    0.47228370
| 18> H   -1.45405142    2.11400088    0.53713589
| 19> C    0.23361314    1.92889867    3.60906030
| 20> H   -0.12453196    2.09462951    2.59576753
| 21> H    1.25819670    2.28560823    3.69050181
| 22> H   -0.37048373    2.50253450    4.30741302
| 23> C    0.19676681    0.47573556    4.02476913
| 24> O    0.48139521    0.12337414    5.16330719
| 25> N   -0.17562846   -0.38998119    3.04552804
| 26> H   -0.33675636   -0.03199045    2.11945970
| 27> C   -0.21242133   -1.81686042    3.26361510
| 28> H   -0.13433376   -1.98376795    4.33361133
| 29> H   -1.14766187   -2.23521099    2.89687699
| 30> H    0.61670514   -2.32073318    2.76627766
| 31> *
| 32>
| 33> $new_job
| 34> ! ri-mp2 aug-cc-pvtz aug-cc-pvtz/c tightscf
| 35> %pal nprocs 16 end
| 36> %maxcore 3800
| 37> %base "TZ_S66by10_57_0.8_dimer"
| 38>
| 39> *xyz 0 1
| 40> C    0.40877989    1.05102502    0.37553605
| 41> H    1.01193875    1.94854570    0.36807788
| 42> C    1.01916788   -0.19976963    0.28905343
| 43> H    2.09557130   -0.27183333    0.21719099
| 44> C    0.24172263   -1.35688270    0.29668995
| 45> H    0.71521633   -2.32658869    0.22807218
| 46> C   -1.14617971   -1.26425757    0.39390198
| 47> H   -1.74918186   -2.16192663    0.39940980
| 48> C   -1.75727780   -0.01396023    0.48295173
| 49> H   -2.83351378    0.05824368    0.55903918
| 50> C   -0.97968602    1.14420653    0.47228370
| 51> H   -1.45405142    2.11400088    0.53713589
| 52> C    0.23361314    1.92889867    3.60906030
| 53> H   -0.12453196    2.09462951    2.59576753
| 54> H    1.25819670    2.28560823    3.69050181
| 55> H   -0.37048373    2.50253450    4.30741302
| 56> C    0.19676681    0.47573556    4.02476913
| 57> O    0.48139521    0.12337414    5.16330719
| 58> N   -0.17562846   -0.38998119    3.04552804
| 59> H   -0.33675636   -0.03199045    2.11945970
| 60> C   -0.21242133   -1.81686042    3.26361510
| 61> H   -0.13433376   -1.98376795    4.33361133
| 62> H   -1.14766187   -2.23521099    2.89687699
| 63> H    0.61670514   -2.32073318    2.76627766
| 64> *
| 65>
| 66> $new_job
| 67> ! ri-mp2 aug-cc-pvqz aug-cc-pvqz/c tightscf
| 68> %pal nprocs 16 end
| 69> %maxcore 3800
| 70> %base "QZ_S66by10_57_0.8_dimer"
| 71>
| 72> *xyz 0 1
| 73> C    0.40877989    1.05102502    0.37553605
| 74> H    1.01193875    1.94854570    0.36807788
| 75> C    1.01916788   -0.19976963    0.28905343
| 76> H    2.09557130   -0.27183333    0.21719099
| 77> C    0.24172263   -1.35688270    0.29668995
| 78> H    0.71521633   -2.32658869    0.22807218
| 79> C   -1.14617971   -1.26425757    0.39390198
| 80> H   -1.74918186   -2.16192663    0.39940980
| 81> C   -1.75727780   -0.01396023    0.48295173
| 82> H   -2.83351378    0.05824368    0.55903918
| 83> C   -0.97968602    1.14420653    0.47228370
| 84> H   -1.45405142    2.11400088    0.53713589
| 85> C    0.23361314    1.92889867    3.60906030
| 86> H   -0.12453196    2.09462951    2.59576753
| 87> H    1.25819670    2.28560823    3.69050181
| 88> H   -0.37048373    2.50253450    4.30741302
| 89> C    0.19676681    0.47573556    4.02476913
| 90> O    0.48139521    0.12337414    5.16330719
| 91> N   -0.17562846   -0.38998119    3.04552804
| 92> H   -0.33675636   -0.03199045    2.11945970
| 93> C   -0.21242133   -1.81686042    3.26361510
| 94> H   -0.13433376   -1.98376795    4.33361133
| 95> H   -1.14766187   -2.23521099    2.89687699
| 96> H    0.61670514   -2.32073318    2.76627766
| 97> *
| 98>
| 99>
|100>
|101>
|102>                          ****END OF INPUT****
 Total Charge           Charge          ....    0
 Multiplicity           Mult            ....    1
 Number of Electrons    NEL             ....   82
MP2 TOTAL ENERGY:     -479.389469250 Eh
FINAL SINGLE POINT ENERGY      -479.389469250109
MP2 TOTAL ENERGY:     -479.816296907 Eh
FINAL SINGLE POINT ENERGY      -479.816296906544

CARTESIAN COORDINATES (ANGSTROEM)
---------------------------------
  C      0.408780    1.051025    0.375536
  H      1.011939    1.948546    0.368078
  C      1.019168   -0.199770    0.289053
  H      2.095571   -0.271833    0.217191
  C      0.241723   -1.356883    0.296690
  H      0.715216   -2.326589    0.228072
  C     -1.146180   -1.264258    0.393902
  H     -1.749182   -2.161927    0.399410
  C     -1.757278   -0.013960    0.482952
  H     -2.833514    0.058244    0.559039
  C     -0.979686    1.144207    0.472284
  H     -1.454051    2.114001    0.537136
  C      0.233613    1.928899    3.609060
  H     -0.124532    2.094630    2.595768
  H      1.258197    2.285608    3.690502
  H     -0.370484    2.502534    4.307413
  C      0.196767    0.475736    4.024769
  O      0.481395    0.123374    5.163307
  N     -0.175628   -0.389981    3.045528
  H     -0.336756   -0.031990    2.119460
  C     -0.212421   -1.816860    3.263615
  H     -0.134334   -1.983768    4.333611
  H     -1.147662   -2.235211    2.896877
  H      0.616705   -2.320733    2.766278

 Multiplicity           Mult            ....    1
 Number of Electrons    NEL             ....   82
 Basis Dimension        Dim             .... 1478

ORBITAL ENERGIES
----------------

  NO   OCC          E(Eh)            E(eV)
   0   2.0000     -20.490820      -557.5836
   1   2.0000     -15.556693      -423.3191
   2   2.0000     -11.328617      -308.2673
   3   2.0000     -11.256643      -306.3088
   4   2.0000     -11.255885      -306.2882
   5   2.0000     -11.255175      -306.2689
   6   2.0000     -11.254500      -306.2505
   7   2.0000     -11.253949      -306.2355
   8   2.0000     -11.253009      -306.2100
   9   2.0000     -11.240365      -305.8659
  10   2.0000     -11.218874      -305.2811
  11   2.0000      -1.355674       -36.8898
  12   2.0000      -1.215831       -33.0844
  13   2.0000      -1.173289       -31.9268
  14   2.0000      -1.040717       -28.3194
  15   2.0000      -1.038072       -28.2474
  16   2.0000      -1.002905       -27.2904
  17   2.0000      -0.917970       -24.9792
  18   2.0000      -0.846323       -23.0296
  19   2.0000      -0.846143       -23.0247
  20   2.0000      -0.779269       -21.2050
  21   2.0000      -0.731440       -19.9035
  22   2.0000      -0.677994       -18.4492
  23   2.0000      -0.665651       -18.1133
  24   2.0000      -0.641590       -17.4586
  25   2.0000      -0.637366       -17.3436
  26   2.0000      -0.618880       -16.8406
  27   2.0000      -0.611326       -16.6350
  28   2.0000      -0.610509       -16.6128
  29   2.0000      -0.575122       -15.6499
  30   2.0000      -0.573962       -15.6183
  31   2.0000      -0.541373       -14.7315
  32   2.0000      -0.535698       -14.5771
  33   2.0000      -0.516514       -14.0551
  34   2.0000      -0.516086       -14.0434
  35   2.0000      -0.502887       -13.6843
  36   2.0000      -0.489499       -13.3199
  37   2.0000      -0.405312       -11.0291
  38   2.0000      -0.384060       -10.4508
  39   2.0000      -0.358574        -9.7573
  40   2.0000      -0.350120        -9.5272
  41   0.0000       0.018532         0.5043
  42   0.0000       0.024609         0.6696
  43   0.0000       0.025556         0.6954
  44   0.0000       0.037365         1.0167
  45   0.0000       0.037684         1.0254

MULLIKEN ATOMIC CHARGES
-----------------------
   0 C :   -0.209517
   1 H :    0.252171
   2 C :   -0.529614
   3 H :    0.209114
   4 C :   -0.297837
   5 H :    0.271245
   6 C :   -0.268786
   7 H :    0.282215
   8 C :   -0.515606
   9 H :    0.209895
  10 C :   -0.168506
  11 H :    0.296774
  12 C :   -0.926888
  13 H :    0.273435
  14 H :    0.237039
  15 H :    0.269681
  16 C :    1.031058
  17 O :   -0.936597
  18 N :   -0.773089
  19 H :    1.366493
  20 C :   -1.006443
  21 H :    0.326848
  22 H :    0.280270
  23 H :    0.326644
Sum of atomic charges:    0.0000000

LOEWDIN ATOMIC CHARGES
----------------------
   0 C :    0.344093
   1 H :   -0.293698
   2 C :    0.369820
   3 H :   -0.296357
   4 C :    0.328715
   5 H :   -0.298039
   6 C :    0.332828
   7 H :   -0.296861
   8 C :    0.371990
   9 H :   -0.294544
  10 C :    0.348878
  11 H :   -0.291280
  12 C :    0.898775
  13 H :   -0.392244
  14 H :   -0.284408
  15 H :   -0.290804
  16 C :   -0.794074
  17 O :    0.699112
  18 N :    0.832360
  19 H :   -0.852707
  20 C :    0.784478
  21 H :   -0.342675
  22 H :   -0.294422
  23 H :   -0.288936

  Mayer bond orders larger than 0.100000
B(  0-C ,  1-H ) :   1.0879 B(  0-C ,  2-C ) :   1.2162 B(  0-C ,  6-C ) :   0.1010
B(  0-C , 10-C ) :   1.1172 B(  0-C , 11-H ) :  -0.1016 B(  0-C , 19-H ) :  -0.1339
B(  1-H , 10-C ) :  -0.1058 B(  2-C ,  3-H ) :   1.1535 B(  2-C ,  4-C ) :   1.3610
B(  2-C ,  8-C ) :   0.2502 B(  2-C , 19-H ) :  -0.1936 B(  4-C ,  5-H ) :   1.0796
B(  4-C ,  6-C ) :   1.1220 B(  4-C ,  7-H ) :  -0.1040 B(  4-C , 10-C ) :   0.1211
B(  4-C , 19-H ) :  -0.2077 B(  5-H ,  6-C ) :  -0.1016 B(  6-C ,  7-H ) :   1.0432
B(  6-C ,  8-C ) :   1.3537 B(  6-C , 19-H ) :  -0.1677 B(  8-C ,  9-H ) :   1.1535
B(  8-C , 10-C ) :   1.2551 B(  8-C , 19-H ) :  -0.2232 B( 10-C , 11-H ) :   1.0393
B( 10-C , 19-H ) :  -0.1205 B( 12-C , 13-H ) :   0.9212 B( 12-C , 14-H ) :   0.9706
B( 12-C , 15-H ) :   0.9924 B( 12-C , 16-C ) :   0.9215 B( 12-C , 17-O ) :   0.1860
B( 16-C , 17-O ) :   0.9487 B( 16-C , 18-N ) :   1.3957 B( 16-C , 19-H ) :  -0.1582
B( 17-O , 18-N ) :   0.2964 B( 18-N , 19-H ) :   0.3879 B( 18-N , 20-C ) :   0.8055
B( 19-H , 20-C ) :  -0.1849 B( 20-C , 21-H ) :   0.9373 B( 20-C , 22-H ) :   0.9910
B( 20-C , 23-H ) :   0.9633

MP2 TOTAL ENERGY:     -479.950596306 Eh
FINAL SINGLE POINT ENERGY      -479.950596306199

DIPOLE MOMENT
-------------
                                X             Y             Z
Electronic contribution:      0.17673       0.05204      -0.51795
Nuclear contribution   :     -0.58238       0.05043      -1.40985
                        -----------------------------------------
Total Dipole Moment    :     -0.40565       0.10247      -1.92780
                        -----------------------------------------
Magnitude (a.u.)       :      1.97268
Magnitude (Debye)      :      5.01416

Rotational constants in cm-1:     0.056964     0.027872     0.023519
Rotational constants in MHz :  1707.738108   835.581559   705.071860

                             ****ORCA TERMINATED NORMALLY****
TOTAL RUN TIME: 0 days 1 hours 38 minutes 18 seconds 382 msec
