                         Program Version 5.0.4 -  RELEASE  -
|  1> ! ri-mp2 aug-cc-pvdz aug-cc-pvdz/c tightscf
|  2> %pal nprocs 16 end
|  3> %maxcore 3800
|  4> %base "DZ_S66by10_55_1.05_dimer"
|  5>
|  6> *xyz 0 1
|  7> C    0.75974918    1.03127506    0.37377239
|  8> H    1.43501626    1.87566427    0.37470462
|  9> C    1.26661779   -0.26736234    0.42127308
| 10> H    2.33491597   -0.42918019    0.45943234
| 11> C    0.39532054   -1.35599116    0.42490511
| 12> H    0.78866193   -2.36249259    0.46303549
| 13> C   -0.98220564   -1.14665441    0.38127024
| 14> H   -1.65765632   -1.99114019    0.38512100
| 15> C   -1.48934612    0.15114979    0.33757234
| 16> H   -2.55794704    0.31375049    0.30771900
| 17> C   -0.61877516    1.24033121    0.33388373
| 18> H   -1.01176161    2.24710690    0.30436922
| 19> O    0.03547430    0.29974564    3.82503580
| 20> H    0.12157451    0.34961873    2.86784225
| 21> C   -0.86067630   -0.75786843    4.10809084
| 22> H   -0.95639700   -0.81460302    5.18902697
| 23> H   -1.85282589   -0.58617069    3.68430064
| 24> H   -0.49421599   -1.72090950    3.74517932
| 25> *
| 26>
| 27> $new_job
| 28> ! ri-mp2 aug-cc-pvtz aug-cc-pvtz/c tightscf
| 29> %pal nprocs 16 end
| 30> %maxcore 3800
| 31> %base "TZ_S66by10_55_1.05_dimer"
| 32>
| 33> *xyz 0 1
| 34> C    0.75974918    1.03127506    0.37377239
| 35> H    1.43501626    1.87566427    0.37470462
| 36> C    1.26661779   -0.26736234    0.42127308
| 37> H    2.33491597   -0.42918019    0.45943234
| 38> C    0.39532054   -1.35599116    0.42490511
| 39> H    0.78866193   -2.36249259    0.46303549
| 40> C   -0.98220564   -1.14665441    0.38127024
| 41> H   -1.65765632   -1.99114019    0.38512100
| 42> C   -1.48934612    0.15114979    0.33757234
| 43> H   -2.55794704    0.31375049    0.30771900
| 44> C   -0.61877516    1.24033121    0.33388373
| 45> H   -1.01176161    2.24710690    0.30436922
| 46> O    0.03547430    0.29974564    3.82503580
| 47> H    0.12157451    0.34961873    2.86784225
| 48> C   -0.86067630   -0.75786843    4.10809084
| 49> H   -0.95639700   -0.81460302    5.18902697
| 50> H   -1.85282589   -0.58617069    3.68430064
| 51> H   -0.49421599   -1.72090950    3.74517932
| 52> *
| 53>
| 54> $new_job
| 55> ! ri-mp2 aug-cc-pvqz aug-cc-pvqz/c tightscf
| 56> %pal nprocs 16 end
| 57> %maxcore 3800
| 58> %base "QZ_S66by10_55_1.05_dimer"
| 59>
| 60> *xyz 0 1
| 61> C    0.75974918    1.03127506    0.37377239
| 62> H    1.43501626    1.87566427    0.37470462
| 63> C    1.26661779   -0.26736234    0.42127308
| 64> H    2.33491597   -0.42918019    0.45943234
| 65> C    0.39532054   -1.35599116    0.42490511
| 66> H    0.78866193   -2.36249259    0.46303549
| 67> C   -0.98220564   -1.14665441    0.38127024
| 68> H   -1.65765632   -1.99114019    0.38512100
| 69> C   -1.48934612    0.15114979    0.33757234
| 70> H   -2.55794704    0.31375049    0.30771900
| 71> C   -0.61877516    1.24033121    0.33388373
| 72> H   -1.01176161    2.24710690    0.30436922
| 73> O    0.03547430    0.29974564    3.82503580
| 74> H    0.12157451    0.34961873    2.86784225
| 75> C   -0.86067630   -0.75786843    4.10809084
| 76> H   -0.95639700   -0.81460302    5.18902697
| 77> H   -1.85282589   -0.58617069    3.68430064
| 78> H   -0.49421599   -1.72090950    3.74517932
| 79> *
| 80>
| 81>
| 82>
| 83>
| 84>                          ****END OF INPUT****
 Total Charge           Charge          ....    0
 Multiplicity           Mult            ....    1
 Number of Electrons    NEL             ....   60
MP2 TOTAL ENERGY:     -346.969716121 Eh
FINAL SINGLE POINT ENERGY      -346.969716120711
MP2 TOTAL ENERGY:     -347.282013270 Eh
FINAL SINGLE POINT ENERGY      -347.282013269688

CARTESIAN COORDINATES (ANGSTROEM)
---------------------------------
  C      0.759749    1.031275    0.373772
  H      1.435016    1.875664    0.374705
  C      1.266618   -0.267362    0.421273
  H      2.334916   -0.429180    0.459432
  C      0.395321   -1.355991    0.424905
  H      0.788662   -2.362493    0.463035
  C     -0.982206   -1.146654    0.381270
  H     -1.657656   -1.991140    0.385121
  C     -1.489346    0.151150    0.337572
  H     -2.557947    0.313750    0.307719
  C     -0.618775    1.240331    0.333884
  H     -1.011762    2.247107    0.304369
  O      0.035474    0.299746    3.825036
  H      0.121575    0.349619    2.867842
  C     -0.860676   -0.757868    4.108091
  H     -0.956397   -0.814603    5.189027
  H     -1.852826   -0.586171    3.684301
  H     -0.494216   -1.720910    3.745179

 Multiplicity           Mult            ....    1
 Number of Electrons    NEL             ....   60
 Basis Dimension        Dim             .... 1100

ORBITAL ENERGIES
----------------

  NO   OCC          E(Eh)            E(eV)
   0   2.0000     -20.539407      -558.9057
   1   2.0000     -11.256512      -306.3053
   2   2.0000     -11.245507      -306.0058
   3   2.0000     -11.244944      -305.9905
   4   2.0000     -11.244918      -305.9898
   5   2.0000     -11.243686      -305.9562
   6   2.0000     -11.243634      -305.9548
   7   2.0000     -11.243049      -305.9389
   8   2.0000      -1.342520       -36.5318
   9   2.0000      -1.161262       -31.5996
  10   2.0000      -1.025243       -27.8983
  11   2.0000      -1.025055       -27.8932
  12   2.0000      -0.911794       -24.8112
  13   2.0000      -0.834063       -22.6960
  14   2.0000      -0.834047       -22.6956
  15   2.0000      -0.719812       -19.5871
  16   2.0000      -0.678668       -18.4675
  17   2.0000      -0.653671       -17.7873
  18   2.0000      -0.629241       -17.1225
  19   2.0000      -0.606907       -16.5148
  20   2.0000      -0.598174       -16.2771
  21   2.0000      -0.598112       -16.2754
  22   2.0000      -0.580088       -15.7850
  23   2.0000      -0.514526       -14.0010
  24   2.0000      -0.504787       -13.7360
  25   2.0000      -0.504713       -13.7340
  26   2.0000      -0.490382       -13.3440
  27   2.0000      -0.436143       -11.8681
  28   2.0000      -0.348508        -9.4834
  29   2.0000      -0.348295        -9.4776
  30   0.0000       0.023731         0.6457
  31   0.0000       0.028950         0.7878
  32   0.0000       0.029225         0.7952
  33   0.0000       0.038300         1.0422
  34   0.0000       0.041034         1.1166

MULLIKEN ATOMIC CHARGES
-----------------------
   0 C :   -0.226607
   1 H :    0.284382
   2 C :   -0.334179
   3 H :    0.328995
   4 C :   -0.364341
   5 H :    0.315740
   6 C :   -0.245207
   7 H :    0.266952
   8 C :   -0.366911
   9 H :    0.316893
  10 C :   -0.340389
  11 H :    0.329811
  12 O :   -0.763890
  13 H :    0.419299
  14 C :   -0.642703
  15 H :    0.493888
  16 H :    0.264639
  17 H :    0.263628
Sum of atomic charges:   -0.0000000

LOEWDIN ATOMIC CHARGES
----------------------
   0 C :    0.328973
   1 H :   -0.317727
   2 C :    0.330978
   3 H :   -0.318266
   4 C :    0.327430
   5 H :   -0.319998
   6 C :    0.320159
   7 H :   -0.319758
   8 C :    0.327248
   9 H :   -0.320102
  10 C :    0.331287
  11 H :   -0.318400
  12 O :    1.256651
  13 H :   -0.900609
  14 C :    0.565162
  15 H :   -0.337949
  16 H :   -0.317501
  17 H :   -0.317578

  Mayer bond orders larger than 0.100000
B(  0-C ,  1-H ) :   1.0931 B(  0-C ,  2-C ) :   1.1883 B(  0-C ,  6-C ) :   0.1305
B(  0-C , 10-C ) :   1.1917 B(  2-C ,  3-H ) :   1.0415 B(  2-C ,  4-C ) :   1.2340
B(  2-C ,  8-C ) :   0.1521 B(  4-C ,  5-H ) :   1.0376 B(  4-C ,  6-C ) :   1.2005
B(  4-C , 10-C ) :   0.1532 B(  6-C ,  7-H ) :   1.0776 B(  6-C ,  8-C ) :   1.1995
B(  8-C ,  9-H ) :   1.0359 B(  8-C , 10-C ) :   1.2345 B( 10-C , 11-H ) :   1.0395
B( 12-O , 13-H ) :   0.8441 B( 12-O , 14-C ) :   0.8382 B( 14-C , 15-H ) :   0.7362
B( 14-C , 16-H ) :   0.9186 B( 14-C , 17-H ) :   0.9188

MP2 TOTAL ENERGY:     -347.380516494 Eh
FINAL SINGLE POINT ENERGY      -347.380516494417

DIPOLE MOMENT
-------------
                                X             Y             Z
Electronic contribution:      1.46764       1.54100      -4.11175
Nuclear contribution   :     -1.76248      -1.92981       3.45143
                        -----------------------------------------
Total Dipole Moment    :     -0.29484      -0.38881      -0.66032
                        -----------------------------------------
Magnitude (a.u.)       :      0.82106
Magnitude (Debye)      :      2.08696

Rotational constants in cm-1:     0.086908     0.043653     0.042166
Rotational constants in MHz :  2605.442910  1308.673920  1264.104039

                             ****ORCA TERMINATED NORMALLY****
TOTAL RUN TIME: 0 days 0 hours 29 minutes 42 seconds 621 msec
