                         Program Version 5.0.4 -  RELEASE  -
|  1> ! ri-mp2 aug-cc-pvdz aug-cc-pvdz/c tightscf
|  2> %pal nprocs 16 end
|  3> %maxcore 3800
|  4> %base "DZ_S66by10_39_1.0_dimer"
|  5>
|  6> *xyz 0 1
|  7> C    0.76554546    0.86824433    0.82099095
|  8> H    1.43747647    1.68000664    1.06510281
|  9> C    1.23765260   -0.44283807    0.79388795
| 10> H    2.27575877   -0.64853808    1.01771141
| 11> C    0.37223723   -1.48853667    0.47726862
| 12> H    0.73818789   -2.50608012    0.45705609
| 13> C   -0.96493318   -1.22297162    0.18687834
| 14> H   -1.63645949   -2.03456079   -0.05777362
| 15> C   -1.43706509    0.08840558    0.21327714
| 16> H   -2.47468432    0.29430216   -0.01146746
| 17> C   -0.57190649    1.13402416    0.53081281
| 18> H   -0.93769935    2.15171058    0.55107764
| 19> C   -0.76477231   -0.72910686    4.03067705
| 20> H   -0.87102615   -0.55415770    2.95837019
| 21> H   -1.41640988   -1.55837075    4.30382772
| 22> C    0.70476888   -0.98616994    4.37480693
| 23> H    1.19999966   -1.62375499    3.64422266
| 24> H    0.76804806   -1.48638372    5.34227357
| 25> C    1.34490593    0.41922673    4.46575979
| 26> H    1.99517424    0.61189766    3.61390687
| 27> H    1.95777311    0.50839615    5.36148515
| 28> C    0.16585980    1.41840375    4.49263183
| 29> H    0.04870832    1.87737414    3.51034649
| 30> H    0.31145339    2.21990858    5.21503043
| 31> C   -1.06791196    0.56130856    4.78828069
| 32> H   -1.99890047    1.03704600    4.48236755
| 33> H   -1.13333772    0.35198765    5.85881593
| 34> *
| 35>
| 36> $new_job
| 37> ! ri-mp2 aug-cc-pvtz aug-cc-pvtz/c tightscf
| 38> %pal nprocs 16 end
| 39> %maxcore 3800
| 40> %base "TZ_S66by10_39_1.0_dimer"
| 41>
| 42> *xyz 0 1
| 43> C    0.76554546    0.86824433    0.82099095
| 44> H    1.43747647    1.68000664    1.06510281
| 45> C    1.23765260   -0.44283807    0.79388795
| 46> H    2.27575877   -0.64853808    1.01771141
| 47> C    0.37223723   -1.48853667    0.47726862
| 48> H    0.73818789   -2.50608012    0.45705609
| 49> C   -0.96493318   -1.22297162    0.18687834
| 50> H   -1.63645949   -2.03456079   -0.05777362
| 51> C   -1.43706509    0.08840558    0.21327714
| 52> H   -2.47468432    0.29430216   -0.01146746
| 53> C   -0.57190649    1.13402416    0.53081281
| 54> H   -0.93769935    2.15171058    0.55107764
| 55> C   -0.76477231   -0.72910686    4.03067705
| 56> H   -0.87102615   -0.55415770    2.95837019
| 57> H   -1.41640988   -1.55837075    4.30382772
| 58> C    0.70476888   -0.98616994    4.37480693
| 59> H    1.19999966   -1.62375499    3.64422266
| 60> H    0.76804806   -1.48638372    5.34227357
| 61> C    1.34490593    0.41922673    4.46575979
| 62> H    1.99517424    0.61189766    3.61390687
| 63> H    1.95777311    0.50839615    5.36148515
| 64> C    0.16585980    1.41840375    4.49263183
| 65> H    0.04870832    1.87737414    3.51034649
| 66> H    0.31145339    2.21990858    5.21503043
| 67> C   -1.06791196    0.56130856    4.78828069
| 68> H   -1.99890047    1.03704600    4.48236755
| 69> H   -1.13333772    0.35198765    5.85881593
| 70> *
| 71>
| 72> $new_job
| 73> ! ri-mp2 aug-cc-pvqz aug-cc-pvqz/c tightscf
| 74> %pal nprocs 16 end
| 75> %maxcore 3800
| 76> %base "QZ_S66by10_39_1.0_dimer"
| 77>
| 78> *xyz 0 1
| 79> C    0.76554546    0.86824433    0.82099095
| 80> H    1.43747647    1.68000664    1.06510281
| 81> C    1.23765260   -0.44283807    0.79388795
| 82> H    2.27575877   -0.64853808    1.01771141
| 83> C    0.37223723   -1.48853667    0.47726862
| 84> H    0.73818789   -2.50608012    0.45705609
| 85> C   -0.96493318   -1.22297162    0.18687834
| 86> H   -1.63645949   -2.03456079   -0.05777362
| 87> C   -1.43706509    0.08840558    0.21327714
| 88> H   -2.47468432    0.29430216   -0.01146746
| 89> C   -0.57190649    1.13402416    0.53081281
| 90> H   -0.93769935    2.15171058    0.55107764
| 91> C   -0.76477231   -0.72910686    4.03067705
| 92> H   -0.87102615   -0.55415770    2.95837019
| 93> H   -1.41640988   -1.55837075    4.30382772
| 94> C    0.70476888   -0.98616994    4.37480693
| 95> H    1.19999966   -1.62375499    3.64422266
| 96> H    0.76804806   -1.48638372    5.34227357
| 97> C    1.34490593    0.41922673    4.46575979
| 98> H    1.99517424    0.61189766    3.61390687
| 99> H    1.95777311    0.50839615    5.36148515
|100> C    0.16585980    1.41840375    4.49263183
|101> H    0.04870832    1.87737414    3.51034649
|102> H    0.31145339    2.21990858    5.21503043
|103> C   -1.06791196    0.56130856    4.78828069
|104> H   -1.99890047    1.03704600    4.48236755
|105> H   -1.13333772    0.35198765    5.85881593
|106> *
|107>
|108>
|109>
|110>
|111>                          ****END OF INPUT****
 Total Charge           Charge          ....    0
 Multiplicity           Mult            ....    1
 Number of Electrons    NEL             ....   82
MP2 TOTAL ENERGY:     -427.472623340 Eh
FINAL SINGLE POINT ENERGY      -427.472623339940
MP2 TOTAL ENERGY:     -427.864999026 Eh
FINAL SINGLE POINT ENERGY      -427.864999025824

CARTESIAN COORDINATES (ANGSTROEM)
---------------------------------
  C      0.765545    0.868244    0.820991
  H      1.437476    1.680007    1.065103
  C      1.237653   -0.442838    0.793888
  H      2.275759   -0.648538    1.017711
  C      0.372237   -1.488537    0.477269
  H      0.738188   -2.506080    0.457056
  C     -0.964933   -1.222972    0.186878
  H     -1.636459   -2.034561   -0.057774
  C     -1.437065    0.088406    0.213277
  H     -2.474684    0.294302   -0.011467
  C     -0.571906    1.134024    0.530813
  H     -0.937699    2.151711    0.551078
  C     -0.764772   -0.729107    4.030677
  H     -0.871026   -0.554158    2.958370
  H     -1.416410   -1.558371    4.303828
  C      0.704769   -0.986170    4.374807
  H      1.200000   -1.623755    3.644223
  H      0.768048   -1.486384    5.342274
  C      1.344906    0.419227    4.465760
  H      1.995174    0.611898    3.613907
  H      1.957773    0.508396    5.361485
  C      0.165860    1.418404    4.492632
  H      0.048708    1.877374    3.510346
  H      0.311453    2.219909    5.215030
  C     -1.067912    0.561309    4.788281
  H     -1.998900    1.037046    4.482368
  H     -1.133338    0.351988    5.858816

 Multiplicity           Mult            ....    1
 Number of Electrons    NEL             ....   82
 Basis Dimension        Dim             .... 1616

ORBITAL ENERGIES
----------------

  NO   OCC          E(Eh)            E(eV)
   0   2.0000     -11.237172      -305.7790
   1   2.0000     -11.236585      -305.7630
   2   2.0000     -11.236553      -305.7622
   3   2.0000     -11.235365      -305.7298
   4   2.0000     -11.235299      -305.7280
   5   2.0000     -11.234701      -305.7118
   6   2.0000     -11.202981      -304.8486
   7   2.0000     -11.202051      -304.8233
   8   2.0000     -11.201308      -304.8031
   9   2.0000     -11.201048      -304.7960
  10   2.0000     -11.196802      -304.6805
  11   2.0000      -1.152753       -31.3680
  12   2.0000      -1.108315       -30.1588
  13   2.0000      -1.017014       -27.6744
  14   2.0000      -1.016958       -27.6728
  15   2.0000      -0.949041       -25.8247
  16   2.0000      -0.948202       -25.8019
  17   2.0000      -0.826368       -22.4866
  18   2.0000      -0.826346       -22.4860
  19   2.0000      -0.768772       -20.9193
  20   2.0000      -0.760085       -20.6830
  21   2.0000      -0.712238       -19.3810
  22   2.0000      -0.646456       -17.5910
  23   2.0000      -0.643711       -17.5163
  24   2.0000      -0.637151       -17.3378
  25   2.0000      -0.621386       -16.9088
  26   2.0000      -0.590539       -16.0694
  27   2.0000      -0.590495       -16.0682
  28   2.0000      -0.563076       -15.3221
  29   2.0000      -0.561852       -15.2888
  30   2.0000      -0.507204       -13.8017
  31   2.0000      -0.497183       -13.5290
  32   2.0000      -0.497161       -13.5284
  33   2.0000      -0.467668       -12.7259
  34   2.0000      -0.466322       -12.6893
  35   2.0000      -0.456647       -12.4260
  36   2.0000      -0.451140       -12.2761
  37   2.0000      -0.448690       -12.2095
  38   2.0000      -0.442298       -12.0355
  39   2.0000      -0.339504        -9.2384
  40   2.0000      -0.339307        -9.2330
  41   0.0000       0.022517         0.6127
  42   0.0000       0.028349         0.7714
  43   0.0000       0.029023         0.7898
  44   0.0000       0.033100         0.9007
  45   0.0000       0.039481         1.0743

MULLIKEN ATOMIC CHARGES
-----------------------
   0 C :   -0.161789
   1 H :    0.297954
   2 C :   -0.230588
   3 H :    0.255451
   4 C :   -0.375604
   5 H :    0.234938
   6 C :   -0.243379
   7 H :    0.306290
   8 C :   -0.312118
   9 H :    0.283013
  10 C :   -0.375370
  11 H :    0.280855
  12 C :   -0.724740
  13 H :    0.583523
  14 H :    0.332803
  15 C :   -0.681422
  16 H :    0.354418
  17 H :    0.259591
  18 C :   -0.507226
  19 H :    0.189817
  20 H :    0.324326
  21 C :   -0.690139
  22 H :    0.310422
  23 H :    0.320207
  24 C :   -0.574422
  25 H :    0.294598
  26 H :    0.248593
Sum of atomic charges:    0.0000000

LOEWDIN ATOMIC CHARGES
----------------------
   0 C :    0.319056
   1 H :   -0.314701
   2 C :    0.320834
   3 H :   -0.313683
   4 C :    0.331676
   5 H :   -0.316482
   6 C :    0.332701
   7 H :   -0.319270
   8 C :    0.334370
   9 H :   -0.319712
  10 C :    0.333543
  11 H :   -0.316352
  12 C :    0.515265
  13 H :   -0.329311
  14 H :   -0.245583
  15 C :    0.535492
  16 H :   -0.271690
  17 H :   -0.266425
  18 C :    0.546793
  19 H :   -0.288329
  20 H :   -0.265226
  21 C :    0.533291
  22 H :   -0.295037
  23 H :   -0.256893
  24 C :    0.531770
  25 H :   -0.253567
  26 H :   -0.262530

  Mayer bond orders larger than 0.100000
B(  0-C ,  1-H ) :   1.0380 B(  0-C ,  2-C ) :   1.1168 B(  0-C ,  6-C ) :   0.1531
B(  0-C , 10-C ) :   1.1677 B(  2-C ,  3-H ) :   1.0809 B(  2-C ,  4-C ) :   1.2017
B(  2-C ,  8-C ) :   0.1695 B(  4-C ,  5-H ) :   1.1478 B(  4-C ,  6-C ) :   1.1890
B(  4-C , 10-C ) :   0.1902 B(  6-C ,  7-H ) :   1.0718 B(  6-C ,  8-C ) :   1.1828
B(  8-C ,  9-H ) :   1.0876 B(  8-C , 10-C ) :   1.2176 B( 10-C , 11-H ) :   1.0849
B( 12-C , 13-H ) :   0.6690 B( 12-C , 14-H ) :   0.9095 B( 12-C , 15-C ) :   0.8950
B( 12-C , 24-C ) :   1.0017 B( 15-C , 16-H ) :   0.8404 B( 15-C , 17-H ) :   0.9720
B( 15-C , 18-C ) :   0.9684 B( 18-C , 19-H ) :   0.9851 B( 18-C , 20-H ) :   0.8917
B( 18-C , 21-C ) :   0.9709 B( 21-C , 22-H ) :   0.8498 B( 21-C , 23-H ) :   0.8952
B( 21-C , 24-C ) :   0.9976 B( 24-C , 25-H ) :   0.8703 B( 24-C , 26-H ) :   0.9454

MP2 TOTAL ENERGY:     -427.985887293 Eh
FINAL SINGLE POINT ENERGY      -427.985887292661

DIPOLE MOMENT
-------------
                                X             Y             Z
Electronic contribution:     -0.51019      -0.75450      -9.06036
Nuclear contribution   :      0.48301       0.73037       8.94120
                        -----------------------------------------
Total Dipole Moment    :     -0.02717      -0.02414      -0.11916
                        -----------------------------------------
Magnitude (a.u.)       :      0.12458
Magnitude (Debye)      :      0.31666

Rotational constants in cm-1:     0.057343     0.022722     0.022343
Rotational constants in MHz :  1719.111070   681.185535   669.839786

                             ****ORCA TERMINATED NORMALLY****
TOTAL RUN TIME: 0 days 1 hours 49 minutes 40 seconds 292 msec
