                         Program Version 5.0.4 -  RELEASE  -
|  1> ! ri-mp2 aug-cc-pvdz aug-cc-pvdz/c tightscf
|  2> %pal nprocs 16 end
|  3> %maxcore 3800
|  4> %base "DZ_S66by10_26_0.95_dimer"
|  5> %scf STABPerform true end
|  6>
|  7> *xyz 0 1
|  8> N    1.37690111    0.83974747    0.73462494
|  9> H    1.05181240    1.38622385    1.52335563
| 10> C    1.30898271    1.45752981   -0.52065500
| 11> O    0.92056136    2.61107777   -0.62597673
| 12> N    2.01142293   -1.21320830   -0.09807182
| 13> H    1.72728551    0.99084268   -2.61199556
| 14> C    2.02573687   -0.69717123   -1.36439740
| 15> H    2.29751698   -1.39106004   -2.14564531
| 16> C    1.71451235    0.59193780   -1.61248722
| 17> H    2.12945422   -2.20152091    0.05682913
| 18> C    1.64594503   -0.48520598    1.01871830
| 19> O    1.56111602   -0.97181638    2.12980905
| 20> N   -1.23959527   -0.81604240    0.73462494
| 21> H   -0.91450657   -1.36251878    1.52335563
| 22> C   -1.17167687   -1.43382475   -0.52065500
| 23> O   -0.78325552   -2.58737270   -0.62597673
| 24> N   -1.87411709    1.23691337   -0.09807182
| 25> H   -1.58997967   -0.96713762   -2.61199556
| 26> C   -1.88843103    0.72087629   -1.36439740
| 27> H   -2.16021114    1.41476510   -2.14564531
| 28> C   -1.57720651   -0.56823273   -1.61248722
| 29> H   -1.99214838    2.22522597    0.05682913
| 30> C   -1.50863919    0.50891104    1.01871830
| 31> O   -1.42381018    0.99552144    2.12980905
| 32> *
| 33>
| 34> $new_job
| 35> ! ri-mp2 aug-cc-pvtz aug-cc-pvtz/c tightscf
| 36> %pal nprocs 16 end
| 37> %maxcore 3800
| 38> %base "TZ_S66by10_26_0.95_dimer"
| 39>
| 40> *xyz 0 1
| 41> N    1.37690111    0.83974747    0.73462494
| 42> H    1.05181240    1.38622385    1.52335563
| 43> C    1.30898271    1.45752981   -0.52065500
| 44> O    0.92056136    2.61107777   -0.62597673
| 45> N    2.01142293   -1.21320830   -0.09807182
| 46> H    1.72728551    0.99084268   -2.61199556
| 47> C    2.02573687   -0.69717123   -1.36439740
| 48> H    2.29751698   -1.39106004   -2.14564531
| 49> C    1.71451235    0.59193780   -1.61248722
| 50> H    2.12945422   -2.20152091    0.05682913
| 51> C    1.64594503   -0.48520598    1.01871830
| 52> O    1.56111602   -0.97181638    2.12980905
| 53> N   -1.23959527   -0.81604240    0.73462494
| 54> H   -0.91450657   -1.36251878    1.52335563
| 55> C   -1.17167687   -1.43382475   -0.52065500
| 56> O   -0.78325552   -2.58737270   -0.62597673
| 57> N   -1.87411709    1.23691337   -0.09807182
| 58> H   -1.58997967   -0.96713762   -2.61199556
| 59> C   -1.88843103    0.72087629   -1.36439740
| 60> H   -2.16021114    1.41476510   -2.14564531
| 61> C   -1.57720651   -0.56823273   -1.61248722
| 62> H   -1.99214838    2.22522597    0.05682913
| 63> C   -1.50863919    0.50891104    1.01871830
| 64> O   -1.42381018    0.99552144    2.12980905
| 65> *
| 66>
| 67> $new_job
| 68> ! ri-mp2 aug-cc-pvqz aug-cc-pvqz/c tightscf
| 69> %pal nprocs 16 end
| 70> %maxcore 3800
| 71> %base "QZ_S66by10_26_0.95_dimer"
| 72>
| 73> *xyz 0 1
| 74> N    1.37690111    0.83974747    0.73462494
| 75> H    1.05181240    1.38622385    1.52335563
| 76> C    1.30898271    1.45752981   -0.52065500
| 77> O    0.92056136    2.61107777   -0.62597673
| 78> N    2.01142293   -1.21320830   -0.09807182
| 79> H    1.72728551    0.99084268   -2.61199556
| 80> C    2.02573687   -0.69717123   -1.36439740
| 81> H    2.29751698   -1.39106004   -2.14564531
| 82> C    1.71451235    0.59193780   -1.61248722
| 83> H    2.12945422   -2.20152091    0.05682913
| 84> C    1.64594503   -0.48520598    1.01871830
| 85> O    1.56111602   -0.97181638    2.12980905
| 86> N   -1.23959527   -0.81604240    0.73462494
| 87> H   -0.91450657   -1.36251878    1.52335563
| 88> C   -1.17167687   -1.43382475   -0.52065500
| 89> O   -0.78325552   -2.58737270   -0.62597673
| 90> N   -1.87411709    1.23691337   -0.09807182
| 91> H   -1.58997967   -0.96713762   -2.61199556
| 92> C   -1.88843103    0.72087629   -1.36439740
| 93> H   -2.16021114    1.41476510   -2.14564531
| 94> C   -1.57720651   -0.56823273   -1.61248722
| 95> H   -1.99214838    2.22522597    0.05682913
| 96> C   -1.50863919    0.50891104    1.01871830
| 97> O   -1.42381018    0.99552144    2.12980905
| 98> *
| 99>
|100>
|101>
|102>
|103>                          ****END OF INPUT****
 Total Charge           Charge          ....    0
 Multiplicity           Mult            ....    1
 Number of Electrons    NEL             ....  116
MP2 TOTAL ENERGY:     -827.579938594 Eh
FINAL SINGLE POINT ENERGY      -827.579938594119
MP2 TOTAL ENERGY:     -828.271066027 Eh
FINAL SINGLE POINT ENERGY      -828.271066026688

CARTESIAN COORDINATES (ANGSTROEM)
---------------------------------
  N      1.376901    0.839747    0.734625
  H      1.051812    1.386224    1.523356
  C      1.308983    1.457530   -0.520655
  O      0.920561    2.611078   -0.625977
  N      2.011423   -1.213208   -0.098072
  H      1.727286    0.990843   -2.611996
  C      2.025737   -0.697171   -1.364397
  H      2.297517   -1.391060   -2.145645
  C      1.714512    0.591938   -1.612487
  H      2.129454   -2.201521    0.056829
  C      1.645945   -0.485206    1.018718
  O      1.561116   -0.971816    2.129809
  N     -1.239595   -0.816042    0.734625
  H     -0.914507   -1.362519    1.523356
  C     -1.171677   -1.433825   -0.520655
  O     -0.783256   -2.587373   -0.625977
  N     -1.874117    1.236913   -0.098072
  H     -1.589980   -0.967138   -2.611996
  C     -1.888431    0.720876   -1.364397
  H     -2.160211    1.414765   -2.145645
  C     -1.577207   -0.568233   -1.612487
  H     -1.992148    2.225226    0.056829
  C     -1.508639    0.508911    1.018718
  O     -1.423810    0.995521    2.129809

 Multiplicity           Mult            ....    1
 Number of Electrons    NEL             ....  116
 Basis Dimension        Dim             .... 1648

ORBITAL ENERGIES
----------------

  NO   OCC          E(Eh)            E(eV)
   0   2.0000     -20.545557      -559.0730
   1   2.0000     -20.545556      -559.0730
   2   2.0000     -20.545253      -559.0647
   3   2.0000     -20.545253      -559.0647
   4   2.0000     -15.640135      -425.5897
   5   2.0000     -15.640135      -425.5897
   6   2.0000     -15.626770      -425.2260
   7   2.0000     -15.626766      -425.2259
   8   2.0000     -11.418736      -310.7196
   9   2.0000     -11.418735      -310.7196
  10   2.0000     -11.385609      -309.8182
  11   2.0000     -11.385608      -309.8182
  12   2.0000     -11.340283      -308.5848
  13   2.0000     -11.340282      -308.5848
  14   2.0000     -11.255094      -306.2667
  15   2.0000     -11.255092      -306.2666
  16   2.0000      -1.441308       -39.2200
  17   2.0000      -1.434989       -39.0480
  18   2.0000      -1.403746       -38.1979
  19   2.0000      -1.402431       -38.1621
  20   2.0000      -1.314121       -35.7590
  21   2.0000      -1.314065       -35.7575
  22   2.0000      -1.249435       -33.9989
  23   2.0000      -1.246735       -33.9254
  24   2.0000      -1.091699       -29.7066
  25   2.0000      -1.087921       -29.6038
  26   2.0000      -0.935388       -25.4532
  27   2.0000      -0.934471       -25.4282
  28   2.0000      -0.903802       -24.5937
  29   2.0000      -0.902799       -24.5664
  30   2.0000      -0.807697       -21.9786
  31   2.0000      -0.806763       -21.9531
  32   2.0000      -0.767872       -20.8949
  33   2.0000      -0.766538       -20.8586
  34   2.0000      -0.715288       -19.4640
  35   2.0000      -0.715217       -19.4620
  36   2.0000      -0.697236       -18.9727
  37   2.0000      -0.682295       -18.5662
  38   2.0000      -0.680627       -18.5208
  39   2.0000      -0.655195       -17.8288
  40   2.0000      -0.655069       -17.8253
  41   2.0000      -0.647704       -17.6249
  42   2.0000      -0.617907       -16.8141
  43   2.0000      -0.617865       -16.8129
  44   2.0000      -0.605042       -16.4640
  45   2.0000      -0.604282       -16.4433
  46   2.0000      -0.591042       -16.0831
  47   2.0000      -0.567750       -15.4493
  48   2.0000      -0.533956       -14.5297
  49   2.0000      -0.515442       -14.0259
  50   2.0000      -0.487149       -13.2560
  51   2.0000      -0.484891       -13.1946
  52   2.0000      -0.456336       -12.4175
  53   2.0000      -0.454782       -12.3753
  54   2.0000      -0.443869       -12.0783
  55   2.0000      -0.440866       -11.9966
  56   2.0000      -0.385670       -10.4946
  57   2.0000      -0.357146        -9.7185
  58   0.0000       0.014427         0.3926
  59   0.0000       0.020973         0.5707
  60   0.0000       0.031412         0.8548
  61   0.0000       0.032091         0.8733
  62   0.0000       0.041643         1.1332

MULLIKEN ATOMIC CHARGES
-----------------------
   0 N :   -0.725447
   1 H :    0.104451
   2 C :    1.401232
   3 O :   -0.991553
   4 N :   -0.717626
   5 H :    0.215694
   6 C :   -0.100605
   7 H :    0.399851
   8 C :   -0.427519
   9 H :    0.094007
  10 C :    1.689214
  11 O :   -0.941699
  12 N :   -0.725447
  13 H :    0.104451
  14 C :    1.401232
  15 O :   -0.991553
  16 N :   -0.717626
  17 H :    0.215694
  18 C :   -0.100604
  19 H :    0.399851
  20 C :   -0.427519
  21 H :    0.094007
  22 C :    1.689214
  23 O :   -0.941699
Sum of atomic charges:    0.0000000

LOEWDIN ATOMIC CHARGES
----------------------
   0 N :    0.775742
   1 H :   -0.547393
   2 C :   -0.890370
   3 O :    0.701085
   4 N :    0.815588
   5 H :   -0.345361
   6 C :    0.226286
   7 H :   -0.284226
   8 C :    0.323288
   9 H :   -0.486079
  10 C :   -1.019425
  11 O :    0.730865
  12 N :    0.775742
  13 H :   -0.547393
  14 C :   -0.890370
  15 O :    0.701085
  16 N :    0.815588
  17 H :   -0.345361
  18 C :    0.226286
  19 H :   -0.284226
  20 C :    0.323288
  21 H :   -0.486079
  22 C :   -1.019425
  23 O :    0.730865

  Mayer bond orders larger than 0.100000
B(  0-N ,  1-H ) :   1.1541 B(  0-N ,  2-C ) :   1.0017 B(  0-N ,  3-O ) :   0.1966
B(  0-N , 10-C ) :   1.0389 B(  0-N , 11-O ) :   0.2343 B(  2-C ,  3-O ) :   0.7643
B(  2-C ,  8-C ) :   1.0899 B(  3-O ,  8-C ) :   0.2177 B(  4-N ,  6-C ) :   0.9429
B(  4-N ,  9-H ) :   1.1305 B(  4-N , 10-C ) :   1.0174 B(  4-N , 11-O ) :   0.2197
B(  5-H ,  8-C ) :   1.0685 B(  6-C ,  7-H ) :   0.9711 B(  6-C ,  8-C ) :   1.4955
B( 10-C , 11-O ) :   0.7943 B( 12-N , 13-H ) :   1.1541 B( 12-N , 14-C ) :   1.0017
B( 12-N , 15-O ) :   0.1966 B( 12-N , 22-C ) :   1.0389 B( 12-N , 23-O ) :   0.2343
B( 14-C , 15-O ) :   0.7643 B( 14-C , 20-C ) :   1.0899 B( 15-O , 20-C ) :   0.2177
B( 16-N , 18-C ) :   0.9429 B( 16-N , 21-H ) :   1.1305 B( 16-N , 22-C ) :   1.0174
B( 16-N , 23-O ) :   0.2197 B( 17-H , 20-C ) :   1.0685 B( 18-C , 19-H ) :   0.9711
B( 18-C , 20-C ) :   1.4955 B( 22-C , 23-O ) :   0.7943

MP2 TOTAL ENERGY:     -828.499492525 Eh
FINAL SINGLE POINT ENERGY      -828.499492525433

DIPOLE MOMENT
-------------
                                X             Y             Z
Electronic contribution:      0.00000      -0.00000       3.66900
Nuclear contribution   :     -0.00000      -0.00000      -5.91054
                        -----------------------------------------
Total Dipole Moment    :      0.00000      -0.00000      -2.24154
                        -----------------------------------------
Magnitude (a.u.)       :      2.24154
Magnitude (Debye)      :      5.69754

Rotational constants in cm-1:     0.022684     0.019421     0.018081
Rotational constants in MHz :   680.050038   582.240397   542.068771

                             ****ORCA TERMINATED NORMALLY****
TOTAL RUN TIME: 0 days 16 hours 34 minutes 52 seconds 710 msec
