                         Program Version 5.0.4 -  RELEASE  -
|  1> ! ri-mp2 aug-cc-pvdz aug-cc-pvdz/c tightscf
|  2> %pal nprocs 16 end
|  3> %maxcore 3800
|  4> %base "DZ_S66by10_14_0.95_dimer"
|  5> %scf STABPerform true end
|  6>
|  7> *xyz 0 1
|  8> C   -0.77857334   -0.46332064    2.49038768
|  9> H    0.22474462   -0.05095294    2.41348355
| 10> H   -0.72247994   -1.48709180    2.85458464
| 11> H   -1.35190757    0.11081693    3.21368365
| 12> C   -1.52050259   -0.45662769    1.17232500
| 13> O   -2.70083521   -0.78358573    1.08959682
| 14> N   -0.79195361   -0.06964048    0.10058937
| 15> H    0.19411165    0.14570790    0.20292464
| 16> C   -1.39779834   -0.05608245   -1.21131793
| 17> H   -2.31492801    0.52889121   -1.19970991
| 18> H   -0.69880422    0.38726130   -1.91536621
| 19> H   -1.65298232   -1.06152895   -1.54543495
| 20> N    2.15239408    0.24999983    0.27917476
| 21> H    2.55606041    0.78991936    1.03437485
| 22> H    2.57039796    0.61738108   -0.56647116
| 23> C    2.52469692   -1.16118299    0.43292751
| 24> H    2.09840952   -1.73221557   -0.38844794
| 25> H    3.60009557   -1.34787243    0.45871091
| 26> H    2.09022435   -1.54559000    1.35276351
| 27> *
| 28>
| 29> $new_job
| 30> ! ri-mp2 aug-cc-pvtz aug-cc-pvtz/c tightscf
| 31> %pal nprocs 16 end
| 32> %maxcore 3800
| 33> %base "TZ_S66by10_14_0.95_dimer"
| 34>
| 35> *xyz 0 1
| 36> C   -0.77857334   -0.46332064    2.49038768
| 37> H    0.22474462   -0.05095294    2.41348355
| 38> H   -0.72247994   -1.48709180    2.85458464
| 39> H   -1.35190757    0.11081693    3.21368365
| 40> C   -1.52050259   -0.45662769    1.17232500
| 41> O   -2.70083521   -0.78358573    1.08959682
| 42> N   -0.79195361   -0.06964048    0.10058937
| 43> H    0.19411165    0.14570790    0.20292464
| 44> C   -1.39779834   -0.05608245   -1.21131793
| 45> H   -2.31492801    0.52889121   -1.19970991
| 46> H   -0.69880422    0.38726130   -1.91536621
| 47> H   -1.65298232   -1.06152895   -1.54543495
| 48> N    2.15239408    0.24999983    0.27917476
| 49> H    2.55606041    0.78991936    1.03437485
| 50> H    2.57039796    0.61738108   -0.56647116
| 51> C    2.52469692   -1.16118299    0.43292751
| 52> H    2.09840952   -1.73221557   -0.38844794
| 53> H    3.60009557   -1.34787243    0.45871091
| 54> H    2.09022435   -1.54559000    1.35276351
| 55> *
| 56>
| 57> $new_job
| 58> ! ri-mp2 aug-cc-pvqz aug-cc-pvqz/c tightscf
| 59> %pal nprocs 16 end
| 60> %maxcore 3800
| 61> %base "QZ_S66by10_14_0.95_dimer"
| 62>
| 63> *xyz 0 1
| 64> C   -0.77857334   -0.46332064    2.49038768
| 65> H    0.22474462   -0.05095294    2.41348355
| 66> H   -0.72247994   -1.48709180    2.85458464
| 67> H   -1.35190757    0.11081693    3.21368365
| 68> C   -1.52050259   -0.45662769    1.17232500
| 69> O   -2.70083521   -0.78358573    1.08959682
| 70> N   -0.79195361   -0.06964048    0.10058937
| 71> H    0.19411165    0.14570790    0.20292464
| 72> C   -1.39779834   -0.05608245   -1.21131793
| 73> H   -2.31492801    0.52889121   -1.19970991
| 74> H   -0.69880422    0.38726130   -1.91536621
| 75> H   -1.65298232   -1.06152895   -1.54543495
| 76> N    2.15239408    0.24999983    0.27917476
| 77> H    2.55606041    0.78991936    1.03437485
| 78> H    2.57039796    0.61738108   -0.56647116
| 79> C    2.52469692   -1.16118299    0.43292751
| 80> H    2.09840952   -1.73221557   -0.38844794
| 81> H    3.60009557   -1.34787243    0.45871091
| 82> H    2.09022435   -1.54559000    1.35276351
| 83> *
| 84>
| 85>
| 86>
| 87>
| 88>                          ****END OF INPUT****
 Total Charge           Charge          ....    0
 Multiplicity           Mult            ....    1
 Number of Electrons    NEL             ....   58
MP2 TOTAL ENERGY:     -343.434240107 Eh
FINAL SINGLE POINT ENERGY      -343.434240107496
MP2 TOTAL ENERGY:     -343.750757307 Eh
FINAL SINGLE POINT ENERGY      -343.750757306692

CARTESIAN COORDINATES (ANGSTROEM)
---------------------------------
  C     -0.778573   -0.463321    2.490388
  H      0.224745   -0.050953    2.413484
  H     -0.722480   -1.487092    2.854585
  H     -1.351908    0.110817    3.213684
  C     -1.520503   -0.456628    1.172325
  O     -2.700835   -0.783586    1.089597
  N     -0.791954   -0.069640    0.100589
  H      0.194112    0.145708    0.202925
  C     -1.397798   -0.056082   -1.211318
  H     -2.314928    0.528891   -1.199710
  H     -0.698804    0.387261   -1.915366
  H     -1.652982   -1.061529   -1.545435
  N      2.152394    0.250000    0.279175
  H      2.556060    0.789919    1.034375
  H      2.570398    0.617381   -0.566471
  C      2.524697   -1.161183    0.432928
  H      2.098410   -1.732216   -0.388448
  H      3.600096   -1.347872    0.458711
  H      2.090224   -1.545590    1.352764

 Multiplicity           Mult            ....    1
 Number of Electrons    NEL             ....   58
 Basis Dimension        Dim             .... 1112

ORBITAL ENERGIES
----------------

  NO   OCC          E(Eh)            E(eV)
   0   2.0000     -20.490159      -557.5656
   1   2.0000     -15.570944      -423.7069
   2   2.0000     -15.554134      -423.2495
   3   2.0000     -11.325108      -308.1718
   4   2.0000     -11.263210      -306.4875
   5   2.0000     -11.240685      -305.8746
   6   2.0000     -11.220627      -305.3288
   7   2.0000      -1.353399       -36.8279
   8   2.0000      -1.210331       -32.9348
   9   2.0000      -1.200269       -32.6610
  10   2.0000      -1.002497       -27.2793
  11   2.0000      -0.923433       -25.1279
  12   2.0000      -0.914857       -24.8945
  13   2.0000      -0.769871       -20.9493
  14   2.0000      -0.693822       -18.8799
  15   2.0000      -0.673744       -18.3335
  16   2.0000      -0.639124       -17.3915
  17   2.0000      -0.628771       -17.1097
  18   2.0000      -0.616522       -16.7764
  19   2.0000      -0.584517       -15.9055
  20   2.0000      -0.570187       -15.5156
  21   2.0000      -0.562014       -15.2932
  22   2.0000      -0.543488       -14.7890
  23   2.0000      -0.540974       -14.7207
  24   2.0000      -0.531773       -14.4703
  25   2.0000      -0.483374       -13.1533
  26   2.0000      -0.430397       -11.7117
  27   2.0000      -0.401803       -10.9336
  28   2.0000      -0.370215       -10.0741
  29   0.0000       0.015410         0.4193
  30   0.0000       0.028577         0.7776
  31   0.0000       0.029211         0.7949
  32   0.0000       0.034975         0.9517
  33   0.0000       0.045868         1.2481

MULLIKEN ATOMIC CHARGES
-----------------------
   0 C :   -0.850018
   1 H :    0.262503
   2 H :    0.252874
   3 H :    0.278325
   4 C :    0.996288
   5 O :   -0.898280
   6 N :   -0.603212
   7 H :    0.394220
   8 C :   -0.888811
   9 H :    0.336761
  10 H :    0.324125
  11 H :    0.324056
  12 N :   -0.368639
  13 H :    0.192133
  14 H :    0.169132
  15 C :   -0.928793
  16 H :    0.280747
  17 H :    0.429124
  18 H :    0.297465
Sum of atomic charges:    0.0000000

LOEWDIN ATOMIC CHARGES
----------------------
   0 C :    0.886346
   1 H :   -0.338348
   2 H :   -0.294421
   3 H :   -0.300820
   4 C :   -0.849376
   5 O :    0.685866
   6 N :    0.808349
   7 H :   -0.694340
   8 C :    0.766001
   9 H :   -0.304735
  10 H :   -0.297412
  11 H :   -0.289676
  12 N :    1.273490
  13 H :   -0.479030
  14 H :   -0.476102
  15 C :    0.790037
  16 H :   -0.296293
  17 H :   -0.280597
  18 H :   -0.308938

  Mayer bond orders larger than 0.100000
B(  0-C ,  1-H ) :   0.9615 B(  0-C ,  2-H ) :   0.9413 B(  0-C ,  3-H ) :   0.9721
B(  0-C ,  4-C ) :   0.8922 B(  0-C ,  5-O ) :   0.1197 B(  4-C ,  5-O ) :   1.0678
B(  4-C ,  6-N ) :   1.2692 B(  5-O ,  6-N ) :   0.3106 B(  6-N ,  7-H ) :   0.8275
B(  6-N ,  8-C ) :   0.8389 B(  8-C ,  9-H ) :   0.9198 B(  8-C , 10-H ) :   0.9128
B(  8-C , 11-H ) :   0.9263 B( 12-N , 13-H ) :   1.0027 B( 12-N , 14-H ) :   1.0286
B( 12-N , 15-C ) :   0.9657 B( 15-C , 16-H ) :   0.9313 B( 15-C , 17-H ) :   0.7981
B( 15-C , 18-H ) :   0.9140

MP2 TOTAL ENERGY:     -343.850061632 Eh
FINAL SINGLE POINT ENERGY      -343.850061631878

DIPOLE MOMENT
-------------
                                X             Y             Z
Electronic contribution:     -7.00751       0.44092       1.03977
Nuclear contribution   :      9.57516       0.00422      -1.29657
                        -----------------------------------------
Total Dipole Moment    :      2.56766       0.44514      -0.25680
                        -----------------------------------------
Magnitude (a.u.)       :      2.61858
Magnitude (Debye)      :      6.65590

Rotational constants in cm-1:     0.109527     0.043221     0.034128
Rotational constants in MHz :  3283.522945  1295.730810  1023.124697

                             ****ORCA TERMINATED NORMALLY****
TOTAL RUN TIME: 0 days 2 hours 21 minutes 11 seconds 574 msec
