                         Program Version 5.0.4 -  RELEASE  -
|  1> ! ri-mp2 aug-cc-pvdz aug-cc-pvdz/c tightscf
|  2> %pal nprocs 16 end
|  3> %maxcore 3800
|  4> %base "DZ_S66by10_42_1.0_dimer"
|  5> %scf STABPerform true end
|  6>
|  7> *xyz 0 1
|  8> N    0.19572959   -0.84468925    0.82384642
|  9> H    0.45039753   -1.79675294    1.04976794
| 10> C   -1.17904919   -0.57368440    0.75948349
| 11> O   -1.99364624   -1.45626527    0.96690066
| 12> C   -1.47671471    0.81115567    0.43755952
| 13> H   -2.50635592    1.11565059    0.36389469
| 14> C   -0.46811280    1.68296245    0.23489084
| 15> H   -0.63843522    2.72164296   -0.00616410
| 16> N    0.84562854    1.30599113    0.32683051
| 17> H    1.58969256    1.96887924    0.18595979
| 18> C    1.25426147    0.01946187    0.63624397
| 19> O    2.42230438   -0.30171639    0.73187948
| 20> C    1.05760100   -0.86398864    4.42722926
| 21> H    1.51145351   -0.95604488    3.43924670
| 22> H    1.60210350   -1.52796891    5.09642693
| 23> C    1.11191447    0.60196336    4.86016524
| 24> H    2.07020446    1.07486229    4.64944095
| 25> H    0.92379918    0.68360090    5.93338837
| 26> C   -0.05543712    1.21477784    4.08939404
| 27> H    0.21886716    1.30355944    3.03592241
| 28> H   -0.33985154    2.20591896    4.44102805
| 29> C   -1.17238161    0.17720593    4.26042235
| 30> H   -1.89792089    0.20081978    3.44905044
| 31> H   -1.71646724    0.38190308    5.18267097
| 32> C   -0.44934526   -1.18934190    4.36407924
| 33> H   -0.69200981   -1.83349803    3.52071956
| 34> H   -0.76445149   -1.71674432    5.26316566
| 35> *
| 36>
| 37> $new_job
| 38> ! ri-mp2 aug-cc-pvtz aug-cc-pvtz/c tightscf
| 39> %pal nprocs 16 end
| 40> %maxcore 3800
| 41> %base "TZ_S66by10_42_1.0_dimer"
| 42>
| 43> *xyz 0 1
| 44> N    0.19572959   -0.84468925    0.82384642
| 45> H    0.45039753   -1.79675294    1.04976794
| 46> C   -1.17904919   -0.57368440    0.75948349
| 47> O   -1.99364624   -1.45626527    0.96690066
| 48> C   -1.47671471    0.81115567    0.43755952
| 49> H   -2.50635592    1.11565059    0.36389469
| 50> C   -0.46811280    1.68296245    0.23489084
| 51> H   -0.63843522    2.72164296   -0.00616410
| 52> N    0.84562854    1.30599113    0.32683051
| 53> H    1.58969256    1.96887924    0.18595979
| 54> C    1.25426147    0.01946187    0.63624397
| 55> O    2.42230438   -0.30171639    0.73187948
| 56> C    1.05760100   -0.86398864    4.42722926
| 57> H    1.51145351   -0.95604488    3.43924670
| 58> H    1.60210350   -1.52796891    5.09642693
| 59> C    1.11191447    0.60196336    4.86016524
| 60> H    2.07020446    1.07486229    4.64944095
| 61> H    0.92379918    0.68360090    5.93338837
| 62> C   -0.05543712    1.21477784    4.08939404
| 63> H    0.21886716    1.30355944    3.03592241
| 64> H   -0.33985154    2.20591896    4.44102805
| 65> C   -1.17238161    0.17720593    4.26042235
| 66> H   -1.89792089    0.20081978    3.44905044
| 67> H   -1.71646724    0.38190308    5.18267097
| 68> C   -0.44934526   -1.18934190    4.36407924
| 69> H   -0.69200981   -1.83349803    3.52071956
| 70> H   -0.76445149   -1.71674432    5.26316566
| 71> *
| 72>
| 73> $new_job
| 74> ! ri-mp2 aug-cc-pvqz aug-cc-pvqz/c tightscf
| 75> %pal nprocs 16 end
| 76> %maxcore 3800
| 77> %base "QZ_S66by10_42_1.0_dimer"
| 78>
| 79> *xyz 0 1
| 80> N    0.19572959   -0.84468925    0.82384642
| 81> H    0.45039753   -1.79675294    1.04976794
| 82> C   -1.17904919   -0.57368440    0.75948349
| 83> O   -1.99364624   -1.45626527    0.96690066
| 84> C   -1.47671471    0.81115567    0.43755952
| 85> H   -2.50635592    1.11565059    0.36389469
| 86> C   -0.46811280    1.68296245    0.23489084
| 87> H   -0.63843522    2.72164296   -0.00616410
| 88> N    0.84562854    1.30599113    0.32683051
| 89> H    1.58969256    1.96887924    0.18595979
| 90> C    1.25426147    0.01946187    0.63624397
| 91> O    2.42230438   -0.30171639    0.73187948
| 92> C    1.05760100   -0.86398864    4.42722926
| 93> H    1.51145351   -0.95604488    3.43924670
| 94> H    1.60210350   -1.52796891    5.09642693
| 95> C    1.11191447    0.60196336    4.86016524
| 96> H    2.07020446    1.07486229    4.64944095
| 97> H    0.92379918    0.68360090    5.93338837
| 98> C   -0.05543712    1.21477784    4.08939404
| 99> H    0.21886716    1.30355944    3.03592241
|100> H   -0.33985154    2.20591896    4.44102805
|101> C   -1.17238161    0.17720593    4.26042235
|102> H   -1.89792089    0.20081978    3.44905044
|103> H   -1.71646724    0.38190308    5.18267097
|104> C   -0.44934526   -1.18934190    4.36407924
|105> H   -0.69200981   -1.83349803    3.52071956
|106> H   -0.76445149   -1.71674432    5.26316566
|107> *
|108>
|109>
|110>
|111>
|112>                          ****END OF INPUT****
 Total Charge           Charge          ....    0
 Multiplicity           Mult            ....    1
 Number of Electrons    NEL             ....   98
MP2 TOTAL ENERGY:     -609.712043101 Eh
FINAL SINGLE POINT ENERGY      -609.712043100682
MP2 TOTAL ENERGY:     -610.246128537 Eh
FINAL SINGLE POINT ENERGY      -610.246128537316

CARTESIAN COORDINATES (ANGSTROEM)
---------------------------------
  N      0.195730   -0.844689    0.823846
  H      0.450398   -1.796753    1.049768
  C     -1.179049   -0.573684    0.759483
  O     -1.993646   -1.456265    0.966901
  C     -1.476715    0.811156    0.437560
  H     -2.506356    1.115651    0.363895
  C     -0.468113    1.682962    0.234891
  H     -0.638435    2.721643   -0.006164
  N      0.845629    1.305991    0.326831
  H      1.589693    1.968879    0.185960
  C      1.254261    0.019462    0.636244
  O      2.422304   -0.301716    0.731879
  C      1.057601   -0.863989    4.427229
  H      1.511454   -0.956045    3.439247
  H      1.602103   -1.527969    5.096427
  C      1.111914    0.601963    4.860165
  H      2.070204    1.074862    4.649441
  H      0.923799    0.683601    5.933388
  C     -0.055437    1.214778    4.089394
  H      0.218867    1.303559    3.035922
  H     -0.339852    2.205919    4.441028
  C     -1.172382    0.177206    4.260422
  H     -1.897921    0.200820    3.449050
  H     -1.716467    0.381903    5.182671
  C     -0.449345   -1.189342    4.364079
  H     -0.692010   -1.833498    3.520720
  H     -0.764451   -1.716744    5.263166

 Multiplicity           Mult            ....    1
 Number of Electrons    NEL             ....   98
 Basis Dimension        Dim             .... 1684

ORBITAL ENERGIES
----------------

  NO   OCC          E(Eh)            E(eV)
   0   2.0000     -20.546208      -559.0907
   1   2.0000     -20.540437      -558.9337
   2   2.0000     -15.643289      -425.6755
   3   2.0000     -15.626442      -425.2171
   4   2.0000     -11.419090      -310.7292
   5   2.0000     -11.381064      -309.6945
   6   2.0000     -11.340210      -308.5828
   7   2.0000     -11.254960      -306.2630
   8   2.0000     -11.211472      -305.0797
   9   2.0000     -11.208318      -304.9938
  10   2.0000     -11.207031      -304.9588
  11   2.0000     -11.205599      -304.9198
  12   2.0000     -11.204580      -304.8921
  13   2.0000      -1.437300       -39.1109
  14   2.0000      -1.399299       -38.0769
  15   2.0000      -1.314233       -35.7621
  16   2.0000      -1.246669       -33.9236
  17   2.0000      -1.115162       -30.3451
  18   2.0000      -1.089110       -29.6362
  19   2.0000      -0.955849       -26.0100
  20   2.0000      -0.954433       -25.9714
  21   2.0000      -0.934345       -25.4248
  22   2.0000      -0.902743       -24.5649
  23   2.0000      -0.808176       -21.9916
  24   2.0000      -0.777587       -21.1592
  25   2.0000      -0.767489       -20.8844
  26   2.0000      -0.764127       -20.7930
  27   2.0000      -0.715458       -19.4686
  28   2.0000      -0.679085       -18.4788
  29   2.0000      -0.675870       -18.3914
  30   2.0000      -0.654496       -17.8097
  31   2.0000      -0.645934       -17.5768
  32   2.0000      -0.642711       -17.4891
  33   2.0000      -0.616465       -16.7749
  34   2.0000      -0.602933       -16.4066
  35   2.0000      -0.579515       -15.7694
  36   2.0000      -0.570478       -15.5235
  37   2.0000      -0.561202       -15.2711
  38   2.0000      -0.525681       -14.3045
  39   2.0000      -0.485918       -13.2225
  40   2.0000      -0.474726       -12.9179
  41   2.0000      -0.473069       -12.8729
  42   2.0000      -0.461921       -12.5695
  43   2.0000      -0.461311       -12.5529
  44   2.0000      -0.458796       -12.4845
  45   2.0000      -0.451938       -12.2979
  46   2.0000      -0.445915       -12.1340
  47   2.0000      -0.437713       -11.9108
  48   2.0000      -0.370172       -10.0729
  49   0.0000       0.011691         0.3181
  50   0.0000       0.027805         0.7566
  51   0.0000       0.028703         0.7811
  52   0.0000       0.032330         0.8797
  53   0.0000       0.040249         1.0952

MULLIKEN ATOMIC CHARGES
-----------------------
   0 N :   -0.735728
   1 H :    0.068242
   2 C :    1.592187
   3 O :   -0.962458
   4 C :   -0.494200
   5 H :    0.225316
   6 C :   -0.149561
   7 H :    0.361804
   8 N :   -0.727354
   9 H :    0.075720
  10 C :    1.760809
  11 O :   -0.918965
  12 C :   -0.680537
  13 H :    0.332071
  14 H :    0.307651
  15 C :   -0.587178
  16 H :    0.321335
  17 H :    0.237910
  18 C :   -0.725909
  19 H :    0.408442
  20 H :    0.308370
  21 C :   -0.669400
  22 H :    0.395162
  23 H :    0.276807
  24 C :   -0.573752
  25 H :    0.242217
  26 H :    0.310997
Sum of atomic charges:    0.0000000

LOEWDIN ATOMIC CHARGES
----------------------
   0 N :    0.783755
   1 H :   -0.515483
   2 C :   -0.880675
   3 O :    0.709231
   4 C :    0.332429
   5 H :   -0.344890
   6 C :    0.234714
   7 H :   -0.291311
   8 N :    0.816723
   9 H :   -0.485450
  10 C :   -0.998578
  11 O :    0.709266
  12 C :    0.532009
  13 H :   -0.302057
  14 H :   -0.254383
  15 C :    0.532155
  16 H :   -0.252786
  17 H :   -0.260929
  18 C :    0.517930
  19 H :   -0.316486
  20 H :   -0.248978
  21 C :    0.540151
  22 H :   -0.285480
  23 H :   -0.264472
  24 C :    0.549942
  25 H :   -0.291525
  26 H :   -0.264820

  Mayer bond orders larger than 0.100000
B(  0-N ,  1-H ) :   1.1914 B(  0-N ,  2-C ) :   0.9493 B(  0-N ,  3-O ) :   0.2236
B(  0-N , 10-C ) :   1.0492 B(  0-N , 11-O ) :   0.2547 B(  2-C ,  3-O ) :   0.7475
B(  2-C ,  4-C ) :   0.9823 B(  3-O ,  4-C ) :   0.2346 B(  4-C ,  5-H ) :   1.0797
B(  4-C ,  6-C ) :   1.5750 B(  4-C ,  7-H ) :  -0.1007 B(  6-C ,  7-H ) :   1.0045
B(  6-C ,  8-N ) :   0.9005 B(  8-N ,  9-H ) :   1.2131 B(  8-N , 10-C ) :   0.9806
B(  8-N , 11-O ) :   0.2595 B( 10-C , 11-O ) :   0.8122 B( 12-C , 13-H ) :   0.8454
B( 12-C , 14-H ) :   0.9089 B( 12-C , 15-C ) :   0.9815 B( 12-C , 24-C ) :   0.9798
B( 15-C , 16-H ) :   0.8406 B( 15-C , 17-H ) :   0.9551 B( 15-C , 18-C ) :   1.0373
B( 18-C , 19-H ) :   0.7096 B( 18-C , 20-H ) :   0.9300 B( 18-C , 21-C ) :   0.9140
B( 21-C , 22-H ) :   0.8044 B( 21-C , 23-H ) :   0.9603 B( 21-C , 24-C ) :   0.9544
B( 24-C , 25-H ) :   0.9557 B( 24-C , 26-H ) :   0.9006

MP2 TOTAL ENERGY:     -610.416983098 Eh
FINAL SINGLE POINT ENERGY      -610.416983097964

DIPOLE MOMENT
-------------
                                X             Y             Z
Electronic contribution:      0.50491      -1.36730     -15.90501
Nuclear contribution   :     -0.50587       3.22033      15.46012
                        -----------------------------------------
Total Dipole Moment    :     -0.00096       1.85303      -0.44489
                        -----------------------------------------
Magnitude (a.u.)       :      1.90568
Magnitude (Debye)      :      4.84387

Rotational constants in cm-1:     0.033787     0.020415     0.017643
Rotational constants in MHz :  1012.900445   612.017532   528.922835

                             ****ORCA TERMINATED NORMALLY****
TOTAL RUN TIME: 0 days 14 hours 2 minutes 39 seconds 115 msec
