                         Program Version 5.0.4 -  RELEASE  -
|  1> ! ri-mp2 aug-cc-pvdz aug-cc-pvdz/c tightscf
|  2> %pal nprocs 16 end
|  3> %maxcore 3800
|  4> %base "DZ_S66by10_34_1.05_dimer"
|  5> %scf STABPerform true end
|  6>
|  7> *xyz 0 1
|  8> C   -2.53330865   -0.29487907    0.71314876
|  9> H   -2.56362682   -0.97708181   -0.13642264
| 10> H   -2.56697835   -0.89587590    1.62173177
| 11> H   -3.43442611    0.31595713    0.68410447
| 12> C   -1.27188487    0.55765547    0.67435468
| 13> H   -1.27102630    1.25656571    1.51431940
| 14> H   -1.26663255    1.16789581   -0.23182653
| 15> C   -0.00013504   -0.27841822    0.71960315
| 16> H   -0.00015938   -0.88722952    1.62863709
| 17> H   -0.00036543   -0.98071418   -0.11940439
| 18> C    1.27189476    0.55738219    0.67406108
| 19> H    1.27097175    1.25663331    1.51370541
| 20> H    1.26663649    1.16718250   -0.23238692
| 21> C    2.53340376   -0.29494176    0.71328015
| 22> H    2.56391919   -0.97777410   -0.13577836
| 23> H    3.43430956    0.31625432    0.68359945
| 24> H    2.56755821   -0.89520887    1.62232865
| 25> C    2.53355677    0.29167747    4.67723956
| 26> H    2.56814126    0.89148416    3.76791402
| 27> H    2.56406008    0.97488404    5.52598439
| 28> H    3.43423746   -0.31981984    4.70744851
| 29> C    1.27173057   -0.56020981    4.71654382
| 30> H    1.26628686   -1.16993752    5.62304078
| 31> H    1.27060006   -1.25956355    3.87696276
| 32> C   -0.00004442    0.27588929    4.67092738
| 33> H   -0.00019935    0.97819927    5.50991185
| 34> H    0.00003247    0.88466571    3.76185774
| 35> C   -1.27180526   -0.56025269    4.71619891
| 36> H   -1.26642302   -1.17036213    5.62244902
| 37> H   -1.27069892   -1.25927558    3.87633526
| 38> C   -2.53352449    0.29179362    4.67722121
| 39> H   -2.56771779    0.89232729    3.76834445
| 40> H   -3.43432647   -0.31950473    4.70673439
| 41> H   -2.56406402    0.97437986    5.52648260
| 42> *
| 43>
| 44> $new_job
| 45> ! ri-mp2 aug-cc-pvtz aug-cc-pvtz/c tightscf
| 46> %pal nprocs 16 end
| 47> %maxcore 3800
| 48> %base "TZ_S66by10_34_1.05_dimer"
| 49>
| 50> *xyz 0 1
| 51> C   -2.53330865   -0.29487907    0.71314876
| 52> H   -2.56362682   -0.97708181   -0.13642264
| 53> H   -2.56697835   -0.89587590    1.62173177
| 54> H   -3.43442611    0.31595713    0.68410447
| 55> C   -1.27188487    0.55765547    0.67435468
| 56> H   -1.27102630    1.25656571    1.51431940
| 57> H   -1.26663255    1.16789581   -0.23182653
| 58> C   -0.00013504   -0.27841822    0.71960315
| 59> H   -0.00015938   -0.88722952    1.62863709
| 60> H   -0.00036543   -0.98071418   -0.11940439
| 61> C    1.27189476    0.55738219    0.67406108
| 62> H    1.27097175    1.25663331    1.51370541
| 63> H    1.26663649    1.16718250   -0.23238692
| 64> C    2.53340376   -0.29494176    0.71328015
| 65> H    2.56391919   -0.97777410   -0.13577836
| 66> H    3.43430956    0.31625432    0.68359945
| 67> H    2.56755821   -0.89520887    1.62232865
| 68> C    2.53355677    0.29167747    4.67723956
| 69> H    2.56814126    0.89148416    3.76791402
| 70> H    2.56406008    0.97488404    5.52598439
| 71> H    3.43423746   -0.31981984    4.70744851
| 72> C    1.27173057   -0.56020981    4.71654382
| 73> H    1.26628686   -1.16993752    5.62304078
| 74> H    1.27060006   -1.25956355    3.87696276
| 75> C   -0.00004442    0.27588929    4.67092738
| 76> H   -0.00019935    0.97819927    5.50991185
| 77> H    0.00003247    0.88466571    3.76185774
| 78> C   -1.27180526   -0.56025269    4.71619891
| 79> H   -1.26642302   -1.17036213    5.62244902
| 80> H   -1.27069892   -1.25927558    3.87633526
| 81> C   -2.53352449    0.29179362    4.67722121
| 82> H   -2.56771779    0.89232729    3.76834445
| 83> H   -3.43432647   -0.31950473    4.70673439
| 84> H   -2.56406402    0.97437986    5.52648260
| 85> *
| 86>
| 87> $new_job
| 88> ! ri-mp2 aug-cc-pvqz aug-cc-pvqz/c tightscf
| 89> %pal nprocs 16 end
| 90> %maxcore 3800
| 91> %base "QZ_S66by10_34_1.05_dimer"
| 92>
| 93> *xyz 0 1
| 94> C   -2.53330865   -0.29487907    0.71314876
| 95> H   -2.56362682   -0.97708181   -0.13642264
| 96> H   -2.56697835   -0.89587590    1.62173177
| 97> H   -3.43442611    0.31595713    0.68410447
| 98> C   -1.27188487    0.55765547    0.67435468
| 99> H   -1.27102630    1.25656571    1.51431940
|100> H   -1.26663255    1.16789581   -0.23182653
|101> C   -0.00013504   -0.27841822    0.71960315
|102> H   -0.00015938   -0.88722952    1.62863709
|103> H   -0.00036543   -0.98071418   -0.11940439
|104> C    1.27189476    0.55738219    0.67406108
|105> H    1.27097175    1.25663331    1.51370541
|106> H    1.26663649    1.16718250   -0.23238692
|107> C    2.53340376   -0.29494176    0.71328015
|108> H    2.56391919   -0.97777410   -0.13577836
|109> H    3.43430956    0.31625432    0.68359945
|110> H    2.56755821   -0.89520887    1.62232865
|111> C    2.53355677    0.29167747    4.67723956
|112> H    2.56814126    0.89148416    3.76791402
|113> H    2.56406008    0.97488404    5.52598439
|114> H    3.43423746   -0.31981984    4.70744851
|115> C    1.27173057   -0.56020981    4.71654382
|116> H    1.26628686   -1.16993752    5.62304078
|117> H    1.27060006   -1.25956355    3.87696276
|118> C   -0.00004442    0.27588929    4.67092738
|119> H   -0.00019935    0.97819927    5.50991185
|120> H    0.00003247    0.88466571    3.76185774
|121> C   -1.27180526   -0.56025269    4.71619891
|122> H   -1.26642302   -1.17036213    5.62244902
|123> H   -1.27069892   -1.25927558    3.87633526
|124> C   -2.53352449    0.29179362    4.67722121
|125> H   -2.56771779    0.89232729    3.76834445
|126> H   -3.43432647   -0.31950473    4.70673439
|127> H   -2.56406402    0.97437986    5.52648260
|128> *
|129>
|130>
|131>
|132>
|133>                          ****END OF INPUT****
 Total Charge           Charge          ....    0
 Multiplicity           Mult            ....    1
 Number of Electrons    NEL             ....   84
MP2 TOTAL ENERGY:     -394.235453548 Eh
FINAL SINGLE POINT ENERGY      -394.235453547578
MP2 TOTAL ENERGY:     -394.627932713 Eh
FINAL SINGLE POINT ENERGY      -394.627932713199

CARTESIAN COORDINATES (ANGSTROEM)
---------------------------------
  C     -2.533309   -0.294879    0.713149
  H     -2.563627   -0.977082   -0.136423
  H     -2.566978   -0.895876    1.621732
  H     -3.434426    0.315957    0.684104
  C     -1.271885    0.557655    0.674355
  H     -1.271026    1.256566    1.514319
  H     -1.266633    1.167896   -0.231827
  C     -0.000135   -0.278418    0.719603
  H     -0.000159   -0.887230    1.628637
  H     -0.000365   -0.980714   -0.119404
  C      1.271895    0.557382    0.674061
  H      1.270972    1.256633    1.513705
  H      1.266636    1.167183   -0.232387
  C      2.533404   -0.294942    0.713280
  H      2.563919   -0.977774   -0.135778
  H      3.434310    0.316254    0.683599
  H      2.567558   -0.895209    1.622329
  C      2.533557    0.291677    4.677240
  H      2.568141    0.891484    3.767914
  H      2.564060    0.974884    5.525984
  H      3.434237   -0.319820    4.707449
  C      1.271731   -0.560210    4.716544
  H      1.266287   -1.169938    5.623041
  H      1.270600   -1.259564    3.876963
  C     -0.000044    0.275889    4.670927
  H     -0.000199    0.978199    5.509912
  H      0.000032    0.884666    3.761858
  C     -1.271805   -0.560253    4.716199
  H     -1.266423   -1.170362    5.622449
  H     -1.270699   -1.259276    3.876335
  C     -2.533524    0.291794    4.677221
  H     -2.567718    0.892327    3.768344
  H     -3.434326   -0.319505    4.706734
  H     -2.564064    0.974380    5.526483

 Multiplicity           Mult            ....    1
 Number of Electrons    NEL             ....   84
 Basis Dimension        Dim             .... 1904

ORBITAL ENERGIES
----------------

  NO   OCC          E(Eh)            E(eV)
   0   2.0000     -11.212118      -305.0972
   1   2.0000     -11.212116      -305.0972
   2   2.0000     -11.212049      -305.0954
   3   2.0000     -11.212048      -305.0953
   4   2.0000     -11.209551      -305.0274
   5   2.0000     -11.209550      -305.0273
   6   2.0000     -11.206164      -304.9352
   7   2.0000     -11.206161      -304.9351
   8   2.0000     -11.206159      -304.9351
   9   2.0000     -11.206158      -304.9351
  10   2.0000      -1.083458       -29.4824
  11   2.0000      -1.080084       -29.3906
  12   2.0000      -1.017346       -27.6834
  13   2.0000      -1.014220       -27.5983
  14   2.0000      -0.920907       -25.0592
  15   2.0000      -0.917829       -24.9754
  16   2.0000      -0.820392       -22.3240
  17   2.0000      -0.820349       -22.3228
  18   2.0000      -0.788072       -21.4445
  19   2.0000      -0.783676       -21.3249
  20   2.0000      -0.658986       -17.9319
  21   2.0000      -0.637966       -17.3599
  22   2.0000      -0.602645       -16.3988
  23   2.0000      -0.600392       -16.3375
  24   2.0000      -0.597796       -16.2669
  25   2.0000      -0.585018       -15.9191
  26   2.0000      -0.555456       -15.1147
  27   2.0000      -0.553821       -15.0702
  28   2.0000      -0.548038       -14.9129
  29   2.0000      -0.547698       -14.9036
  30   2.0000      -0.533015       -14.5041
  31   2.0000      -0.520140       -14.1537
  32   2.0000      -0.496108       -13.4998
  33   2.0000      -0.494068       -13.4443
  34   2.0000      -0.478803       -13.0289
  35   2.0000      -0.474844       -12.9212
  36   2.0000      -0.467960       -12.7338
  37   2.0000      -0.466504       -12.6942
  38   2.0000      -0.458249       -12.4696
  39   2.0000      -0.452324       -12.3084
  40   2.0000      -0.447879       -12.1874
  41   2.0000      -0.446935       -12.1617
  42   0.0000       0.025661         0.6983
  43   0.0000       0.027847         0.7578
  44   0.0000       0.028843         0.7849
  45   0.0000       0.029386         0.7996
  46   0.0000       0.038539         1.0487

MULLIKEN ATOMIC CHARGES
-----------------------
   0 C :   -1.101317
   1 H :    0.279721
   2 H :    0.300672
   3 H :    0.214395
   4 C :   -0.467117
   5 H :    0.305344
   6 H :    0.279471
   7 C :   -0.180994
   8 H :    0.277455
   9 H :    0.281400
  10 C :   -0.467448
  11 H :    0.305575
  12 H :    0.279355
  13 C :   -1.101194
  14 H :    0.279601
  15 H :    0.214313
  16 H :    0.300770
  17 C :   -1.101180
  18 H :    0.300846
  19 H :    0.279495
  20 H :    0.214265
  21 C :   -0.467021
  22 H :    0.279288
  23 H :    0.305514
  24 C :   -0.181586
  25 H :    0.281433
  26 H :    0.277671
  27 C :   -0.466822
  28 H :    0.279335
  29 H :    0.305414
  30 C :   -1.101262
  31 H :    0.300739
  32 H :    0.214247
  33 H :    0.279622
Sum of atomic charges:    0.0000000

LOEWDIN ATOMIC CHARGES
----------------------
   0 C :    0.929265
   1 H :   -0.280544
   2 H :   -0.298816
   3 H :   -0.276727
   4 C :    0.506898
   5 H :   -0.284499
   6 H :   -0.266818
   7 C :    0.494749
   8 H :   -0.289534
   9 H :   -0.262719
  10 C :    0.506965
  11 H :   -0.284532
  12 H :   -0.266875
  13 C :    0.929260
  14 H :   -0.280522
  15 H :   -0.276729
  16 H :   -0.298820
  17 C :    0.929300
  18 H :   -0.298837
  19 H :   -0.280540
  20 H :   -0.276731
  21 C :    0.506902
  22 H :   -0.266883
  23 H :   -0.284518
  24 C :    0.494800
  25 H :   -0.262705
  26 H :   -0.289483
  27 C :    0.506882
  28 H :   -0.266863
  29 H :   -0.284532
  30 C :    0.929290
  31 H :   -0.298806
  32 H :   -0.276747
  33 H :   -0.280533

  Mayer bond orders larger than 0.100000
B(  0-C ,  1-H ) :   0.9762 B(  0-C ,  2-H ) :   0.8560 B(  0-C ,  3-H ) :   1.0760
B(  0-C ,  4-C ) :   0.9850 B(  0-C ,  7-C ) :  -0.1233 B(  3-H ,  4-C ) :  -0.1099
B(  4-C ,  5-H ) :   0.8186 B(  4-C ,  6-H ) :   0.8946 B(  4-C ,  7-C ) :   0.8340
B(  7-C ,  8-H ) :   0.8533 B(  7-C ,  9-H ) :   0.9072 B(  7-C , 10-C ) :   0.8341
B(  7-C , 13-C ) :  -0.1232 B( 10-C , 11-H ) :   0.8186 B( 10-C , 12-H ) :   0.8946
B( 10-C , 13-C ) :   0.9848 B( 10-C , 15-H ) :  -0.1100 B( 13-C , 14-H ) :   0.9763
B( 13-C , 15-H ) :   1.0761 B( 13-C , 16-H ) :   0.8559 B( 17-C , 18-H ) :   0.8557
B( 17-C , 19-H ) :   0.9764 B( 17-C , 20-H ) :   1.0762 B( 17-C , 21-C ) :   0.9844
B( 17-C , 24-C ) :  -0.1229 B( 20-H , 21-C ) :  -0.1101 B( 21-C , 22-H ) :   0.8947
B( 21-C , 23-H ) :   0.8186 B( 21-C , 24-C ) :   0.8343 B( 24-C , 25-H ) :   0.9072
B( 24-C , 26-H ) :   0.8530 B( 24-C , 27-C ) :   0.8344 B( 24-C , 30-C ) :  -0.1231
B( 27-C , 28-H ) :   0.8948 B( 27-C , 29-H ) :   0.8185 B( 27-C , 30-C ) :   0.9844
B( 27-C , 32-H ) :  -0.1101 B( 30-C , 31-H ) :   0.8559 B( 30-C , 32-H ) :   1.0763
B( 30-C , 33-H ) :   0.9763

MP2 TOTAL ENERGY:     -394.743735885 Eh
FINAL SINGLE POINT ENERGY      -394.743735884611

DIPOLE MOMENT
-------------
                                X             Y             Z
Electronic contribution:     -0.00031       0.00124       0.00009
Nuclear contribution   :      0.00030      -0.00124      -0.00009
                        -----------------------------------------
Total Dipole Moment    :     -0.00000      -0.00001       0.00000
                        -----------------------------------------
Magnitude (a.u.)       :      0.00001
Magnitude (Debye)      :      0.00002

Rotational constants in cm-1:     0.031031     0.026576     0.015459
Rotational constants in MHz :   930.296745   796.715891   463.447020

                             ****ORCA TERMINATED NORMALLY****
TOTAL RUN TIME: 1 days 5 hours 21 minutes 26 seconds 483 msec
