                         Program Version 5.0.4 -  RELEASE  -
|  1> ! ri-mp2 aug-cc-pvdz aug-cc-pvdz/c tightscf
|  2> %pal nprocs 16 end
|  3> %maxcore 3800
|  4> %base "DZ_S66by10_27_1.5_dimer"
|  5>
|  6> *xyz 0 1
|  7> C    0.81874699    0.86417234    0.18828612
|  8> H    1.46611361    1.71666767    0.34472141
|  9> C    1.36899712   -0.39052394   -0.06669818
| 10> H    2.44303637   -0.51186194   -0.11057444
| 11> C    0.53437860   -1.48849320   -0.27188804
| 12> H    0.96084825   -2.46156422   -0.47550749
| 13> C   -0.84911561   -1.33050735   -0.21989643
| 14> H   -1.49706942   -2.18186028   -0.37955321
| 15> C   -1.39948546   -0.07603020    0.04043417
| 16> H   -2.47268667    0.04490778    0.09338206
| 17> C   -0.56529230    1.02140336    0.24227921
| 18> H   -0.99255667    1.99366131    0.44625817
| 19> N   -2.85661667    0.38641572    5.18707811
| 20> C   -2.24173074    1.54408353    5.46714230
| 21> H   -2.88933479    2.39725498    5.62965439
| 22> C   -0.85951584    1.68493126    5.55731312
| 23> H   -0.42766708    2.64858138    5.78852941
| 24> C   -0.05856445    0.56795196    5.34309920
| 25> H    1.01900472    0.63833624    5.39793371
| 26> C   -0.67911635   -0.64070308    5.04943963
| 27> H   -0.10334184   -1.53632496    4.86536469
| 28> C   -2.06963063   -0.67874096    4.98399021
| 29> H   -2.57848355   -1.60719434    4.75514753
| 30> *
| 31>
| 32> $new_job
| 33> ! ri-mp2 aug-cc-pvtz aug-cc-pvtz/c tightscf
| 34> %pal nprocs 16 end
| 35> %maxcore 3800
| 36> %base "TZ_S66by10_27_1.5_dimer"
| 37>
| 38> *xyz 0 1
| 39> C    0.81874699    0.86417234    0.18828612
| 40> H    1.46611361    1.71666767    0.34472141
| 41> C    1.36899712   -0.39052394   -0.06669818
| 42> H    2.44303637   -0.51186194   -0.11057444
| 43> C    0.53437860   -1.48849320   -0.27188804
| 44> H    0.96084825   -2.46156422   -0.47550749
| 45> C   -0.84911561   -1.33050735   -0.21989643
| 46> H   -1.49706942   -2.18186028   -0.37955321
| 47> C   -1.39948546   -0.07603020    0.04043417
| 48> H   -2.47268667    0.04490778    0.09338206
| 49> C   -0.56529230    1.02140336    0.24227921
| 50> H   -0.99255667    1.99366131    0.44625817
| 51> N   -2.85661667    0.38641572    5.18707811
| 52> C   -2.24173074    1.54408353    5.46714230
| 53> H   -2.88933479    2.39725498    5.62965439
| 54> C   -0.85951584    1.68493126    5.55731312
| 55> H   -0.42766708    2.64858138    5.78852941
| 56> C   -0.05856445    0.56795196    5.34309920
| 57> H    1.01900472    0.63833624    5.39793371
| 58> C   -0.67911635   -0.64070308    5.04943963
| 59> H   -0.10334184   -1.53632496    4.86536469
| 60> C   -2.06963063   -0.67874096    4.98399021
| 61> H   -2.57848355   -1.60719434    4.75514753
| 62> *
| 63>
| 64> $new_job
| 65> ! ri-mp2 aug-cc-pvqz aug-cc-pvqz/c tightscf
| 66> %pal nprocs 16 end
| 67> %maxcore 3800
| 68> %base "QZ_S66by10_27_1.5_dimer"
| 69>
| 70> *xyz 0 1
| 71> C    0.81874699    0.86417234    0.18828612
| 72> H    1.46611361    1.71666767    0.34472141
| 73> C    1.36899712   -0.39052394   -0.06669818
| 74> H    2.44303637   -0.51186194   -0.11057444
| 75> C    0.53437860   -1.48849320   -0.27188804
| 76> H    0.96084825   -2.46156422   -0.47550749
| 77> C   -0.84911561   -1.33050735   -0.21989643
| 78> H   -1.49706942   -2.18186028   -0.37955321
| 79> C   -1.39948546   -0.07603020    0.04043417
| 80> H   -2.47268667    0.04490778    0.09338206
| 81> C   -0.56529230    1.02140336    0.24227921
| 82> H   -0.99255667    1.99366131    0.44625817
| 83> N   -2.85661667    0.38641572    5.18707811
| 84> C   -2.24173074    1.54408353    5.46714230
| 85> H   -2.88933479    2.39725498    5.62965439
| 86> C   -0.85951584    1.68493126    5.55731312
| 87> H   -0.42766708    2.64858138    5.78852941
| 88> C   -0.05856445    0.56795196    5.34309920
| 89> H    1.01900472    0.63833624    5.39793371
| 90> C   -0.67911635   -0.64070308    5.04943963
| 91> H   -0.10334184   -1.53632496    4.86536469
| 92> C   -2.06963063   -0.67874096    4.98399021
| 93> H   -2.57848355   -1.60719434    4.75514753
| 94> *
| 95>
| 96>
| 97>
| 98>
| 99>                          ****END OF INPUT****
 Total Charge           Charge          ....    0
 Multiplicity           Mult            ....    1
 Number of Electrons    NEL             ....   84
MP2 TOTAL ENERGY:     -479.103737043 Eh
FINAL SINGLE POINT ENERGY      -479.103737042906
MP2 TOTAL ENERGY:     -479.523947774 Eh
FINAL SINGLE POINT ENERGY      -479.523947774491

CARTESIAN COORDINATES (ANGSTROEM)
---------------------------------
  C      0.818747    0.864172    0.188286
  H      1.466114    1.716668    0.344721
  C      1.368997   -0.390524   -0.066698
  H      2.443036   -0.511862   -0.110574
  C      0.534379   -1.488493   -0.271888
  H      0.960848   -2.461564   -0.475507
  C     -0.849116   -1.330507   -0.219896
  H     -1.497069   -2.181860   -0.379553
  C     -1.399485   -0.076030    0.040434
  H     -2.472687    0.044908    0.093382
  C     -0.565292    1.021403    0.242279
  H     -0.992557    1.993661    0.446258
  N     -2.856617    0.386416    5.187078
  C     -2.241731    1.544084    5.467142
  H     -2.889335    2.397255    5.629654
  C     -0.859516    1.684931    5.557313
  H     -0.427667    2.648581    5.788529
  C     -0.058564    0.567952    5.343099
  H      1.019005    0.638336    5.397934
  C     -0.679116   -0.640703    5.049440
  H     -0.103342   -1.536325    4.865365
  C     -2.069631   -0.678741    4.983990
  H     -2.578484   -1.607194    4.755148

 Multiplicity           Mult            ....    1
 Number of Electrons    NEL             ....   84
 Basis Dimension        Dim             .... 1466

ORBITAL ENERGIES
----------------

  NO   OCC          E(Eh)            E(eV)
   0   2.0000     -15.562574      -423.4792
   1   2.0000     -11.271719      -306.7191
   2   2.0000     -11.271263      -306.7067
   3   2.0000     -11.256385      -306.3018
   4   2.0000     -11.238674      -305.8199
   5   2.0000     -11.237855      -305.7976
   6   2.0000     -11.234758      -305.7133
   7   2.0000     -11.234083      -305.6950
   8   2.0000     -11.233792      -305.6870
   9   2.0000     -11.232850      -305.6614
  10   2.0000     -11.232690      -305.6570
  11   2.0000     -11.231865      -305.6346
  12   2.0000      -1.253698       -34.1149
  13   2.0000      -1.149354       -31.2755
  14   2.0000      -1.086983       -29.5783
  15   2.0000      -1.030637       -28.0451
  16   2.0000      -1.013855       -27.5884
  17   2.0000      -1.013761       -27.5858
  18   2.0000      -0.856652       -23.3107
  19   2.0000      -0.853065       -23.2131
  20   2.0000      -0.823362       -22.4048
  21   2.0000      -0.823252       -22.4018
  22   2.0000      -0.719430       -19.5767
  23   2.0000      -0.709023       -19.2935
  24   2.0000      -0.657997       -17.9050
  25   2.0000      -0.651597       -17.7309
  26   2.0000      -0.643444       -17.5090
  27   2.0000      -0.618511       -16.8305
  28   2.0000      -0.595580       -16.2066
  29   2.0000      -0.587482       -15.9862
  30   2.0000      -0.587388       -15.9836
  31   2.0000      -0.574699       -15.6384
  32   2.0000      -0.538740       -14.6599
  33   2.0000      -0.517352       -14.0779
  34   2.0000      -0.501816       -13.6551
  35   2.0000      -0.494413       -13.4537
  36   2.0000      -0.494187       -13.4475
  37   2.0000      -0.417672       -11.3654
  38   2.0000      -0.381423       -10.3790
  39   2.0000      -0.345134        -9.3916
  40   2.0000      -0.336292        -9.1510
  41   2.0000      -0.336062        -9.1447
  42   0.0000       0.021979         0.5981
  43   0.0000       0.026023         0.7081
  44   0.0000       0.029265         0.7963
  45   0.0000       0.033979         0.9246
  46   0.0000       0.037273         1.0143

MULLIKEN ATOMIC CHARGES
-----------------------
   0 C :   -0.326212
   1 H :    0.340929
   2 C :   -0.344720
   3 H :    0.349977
   4 C :   -0.332104
   5 H :    0.348756
   6 C :   -0.334286
   7 H :    0.340646
   8 C :   -0.340921
   9 H :    0.331315
  10 C :   -0.354333
  11 H :    0.321307
  12 N :   -0.559416
  13 C :   -0.330084
  14 H :    0.458294
  15 C :   -0.241226
  16 H :    0.367163
  17 C :   -0.315727
  18 H :    0.321645
  19 C :   -0.256971
  20 H :    0.347513
  21 C :   -0.255515
  22 H :    0.463972
Sum of atomic charges:    0.0000000

LOEWDIN ATOMIC CHARGES
----------------------
   0 C :    0.326634
   1 H :   -0.327772
   2 C :    0.326275
   3 H :   -0.328095
   4 C :    0.326554
   5 H :   -0.327886
   6 C :    0.327670
   7 H :   -0.327461
   8 C :    0.328948
   9 H :   -0.326041
  10 C :    0.327638
  11 H :   -0.326473
  12 N :    0.588434
  13 C :    0.064808
  14 H :   -0.357178
  15 C :    0.323681
  16 H :   -0.332037
  17 C :    0.324103
  18 H :   -0.315151
  19 C :    0.324757
  20 H :   -0.330417
  21 C :    0.065620
  22 H :   -0.356614

  Mayer bond orders larger than 0.100000
B(  0-C ,  1-H ) :   0.9780 B(  0-C ,  2-C ) :   1.2670 B(  0-C ,  6-C ) :   0.1454
B(  0-C , 10-C ) :   1.2536 B(  2-C ,  3-H ) :   0.9767 B(  2-C ,  4-C ) :   1.2269
B(  2-C ,  8-C ) :   0.1226 B(  4-C ,  5-H ) :   0.9783 B(  4-C ,  6-C ) :   1.2366
B(  4-C , 10-C ) :   0.1025 B(  6-C ,  7-H ) :   0.9884 B(  6-C ,  8-C ) :   1.2655
B(  8-C ,  9-H ) :   0.9854 B(  8-C , 10-C ) :   1.2221 B( 10-C , 11-H ) :   0.9938
B( 12-N , 13-C ) :   1.2669 B( 12-N , 21-C ) :   1.2017 B( 13-C , 14-H ) :   0.8766
B( 13-C , 15-C ) :   1.2522 B( 13-C , 19-C ) :   0.1046 B( 15-C , 16-H ) :   0.9493
B( 15-C , 17-C ) :   1.1813 B( 15-C , 19-C ) :  -0.1084 B( 15-C , 21-C ) :   0.1240
B( 17-C , 18-H ) :   0.9887 B( 17-C , 19-C ) :   1.1691 B( 19-C , 20-H ) :   0.9672
B( 19-C , 21-C ) :   1.2582 B( 21-C , 22-H ) :   0.8654

MP2 TOTAL ENERGY:     -479.657575363 Eh
FINAL SINGLE POINT ENERGY      -479.657575362857

DIPOLE MOMENT
-------------
                                X             Y             Z
Electronic contribution:     -2.03008       0.26322       2.54461
Nuclear contribution   :      2.92272      -0.20879      -2.51928
                        -----------------------------------------
Total Dipole Moment    :      0.89265       0.05443       0.02534
                        -----------------------------------------
Magnitude (a.u.)       :      0.89466
Magnitude (Debye)      :      2.27405

Rotational constants in cm-1:     0.053614     0.012297     0.012000
Rotational constants in MHz :  1607.309480   368.657525   359.740150

                             ****ORCA TERMINATED NORMALLY****
TOTAL RUN TIME: 0 days 1 hours 5 minutes 8 seconds 68 msec
