                         Program Version 5.0.4 -  RELEASE  -
|  1> ! ri-mp2 aug-cc-pvdz aug-cc-pvdz/c tightscf
|  2> %pal nprocs 16 end
|  3> %maxcore 3800
|  4> %base "DZ_S66by10_54_1.0_dimer"
|  5>
|  6> *xyz 0 1
|  7> C    0.78014717   -0.60991473   -1.20755689
|  8> H    0.89619160   -1.13763959   -2.14414463
|  9> C    0.47794275    0.75099363   -1.20789541
| 10> H    0.35696423    1.27816780   -2.14405407
| 11> C    0.32728928    1.43186787   -0.00000000
| 12> H    0.09146503    2.48713922    0.00000000
| 13> C    0.47794275    0.75099363    1.20789541
| 14> H    0.35696423    1.27816780    2.14405407
| 15> C    0.78014717   -0.60991473    1.20755689
| 16> H    0.89619160   -1.13763959    2.14414463
| 17> C    0.93164831   -1.28998134    0.00000000
| 18> H    1.16848573   -2.34521369   -0.00000000
| 19> O   -2.78653593   -0.27405602   -0.00000000
| 20> H   -2.62173193   -1.21877755   -0.00000000
| 21> H   -1.89923499    0.09753430   -0.00000000
| 22> *
| 23>
| 24> $new_job
| 25> ! ri-mp2 aug-cc-pvtz aug-cc-pvtz/c tightscf
| 26> %pal nprocs 16 end
| 27> %maxcore 3800
| 28> %base "TZ_S66by10_54_1.0_dimer"
| 29>
| 30> *xyz 0 1
| 31> C    0.78014717   -0.60991473   -1.20755689
| 32> H    0.89619160   -1.13763959   -2.14414463
| 33> C    0.47794275    0.75099363   -1.20789541
| 34> H    0.35696423    1.27816780   -2.14405407
| 35> C    0.32728928    1.43186787   -0.00000000
| 36> H    0.09146503    2.48713922    0.00000000
| 37> C    0.47794275    0.75099363    1.20789541
| 38> H    0.35696423    1.27816780    2.14405407
| 39> C    0.78014717   -0.60991473    1.20755689
| 40> H    0.89619160   -1.13763959    2.14414463
| 41> C    0.93164831   -1.28998134    0.00000000
| 42> H    1.16848573   -2.34521369   -0.00000000
| 43> O   -2.78653593   -0.27405602   -0.00000000
| 44> H   -2.62173193   -1.21877755   -0.00000000
| 45> H   -1.89923499    0.09753430   -0.00000000
| 46> *
| 47>
| 48> $new_job
| 49> ! ri-mp2 aug-cc-pvqz aug-cc-pvqz/c tightscf
| 50> %pal nprocs 16 end
| 51> %maxcore 3800
| 52> %base "QZ_S66by10_54_1.0_dimer"
| 53>
| 54> *xyz 0 1
| 55> C    0.78014717   -0.60991473   -1.20755689
| 56> H    0.89619160   -1.13763959   -2.14414463
| 57> C    0.47794275    0.75099363   -1.20789541
| 58> H    0.35696423    1.27816780   -2.14405407
| 59> C    0.32728928    1.43186787   -0.00000000
| 60> H    0.09146503    2.48713922    0.00000000
| 61> C    0.47794275    0.75099363    1.20789541
| 62> H    0.35696423    1.27816780    2.14405407
| 63> C    0.78014717   -0.60991473    1.20755689
| 64> H    0.89619160   -1.13763959    2.14414463
| 65> C    0.93164831   -1.28998134    0.00000000
| 66> H    1.16848573   -2.34521369   -0.00000000
| 67> O   -2.78653593   -0.27405602   -0.00000000
| 68> H   -2.62173193   -1.21877755   -0.00000000
| 69> H   -1.89923499    0.09753430   -0.00000000
| 70> *
| 71>
| 72>
| 73>
| 74>
| 75>                          ****END OF INPUT****
 Total Charge           Charge          ....    0
 Multiplicity           Mult            ....    1
 Number of Electrons    NEL             ....   52
MP2 TOTAL ENERGY:     -307.806657593 Eh
FINAL SINGLE POINT ENERGY      -307.806657592681
MP2 TOTAL ENERGY:     -308.080134908 Eh
FINAL SINGLE POINT ENERGY      -308.080134908421

CARTESIAN COORDINATES (ANGSTROEM)
---------------------------------
  C      0.780147   -0.609915   -1.207557
  H      0.896192   -1.137640   -2.144145
  C      0.477943    0.750994   -1.207895
  H      0.356964    1.278168   -2.144054
  C      0.327289    1.431868   -0.000000
  H      0.091465    2.487139    0.000000
  C      0.477943    0.750994    1.207895
  H      0.356964    1.278168    2.144054
  C      0.780147   -0.609915    1.207557
  H      0.896192   -1.137640    2.144145
  C      0.931648   -1.289981    0.000000
  H      1.168486   -2.345214   -0.000000
  O     -2.786536   -0.274056   -0.000000
  H     -2.621732   -1.218778   -0.000000
  H     -1.899235    0.097534   -0.000000

 Multiplicity           Mult            ....    1
 Number of Electrons    NEL             ....   52
 Basis Dimension        Dim             ....  928

ORBITAL ENERGIES
----------------

  NO   OCC          E(Eh)            E(eV)
   0   2.0000     -20.543706      -559.0227
   1   2.0000     -11.246831      -306.0418
   2   2.0000     -11.246244      -306.0258
   3   2.0000     -11.246136      -306.0229
   4   2.0000     -11.244991      -305.9918
   5   2.0000     -11.244891      -305.9890
   6   2.0000     -11.244304      -305.9731
   7   2.0000      -1.331679       -36.2368
   8   2.0000      -1.162611       -31.6362
   9   2.0000      -1.026608       -27.9354
  10   2.0000      -1.026316       -27.9275
  11   2.0000      -0.835392       -22.7322
  12   2.0000      -0.835265       -22.7287
  13   2.0000      -0.721084       -19.6217
  14   2.0000      -0.693355       -18.8671
  15   2.0000      -0.654827       -17.8187
  16   2.0000      -0.630580       -17.1590
  17   2.0000      -0.599449       -16.3118
  18   2.0000      -0.599319       -16.3083
  19   2.0000      -0.570936       -15.5360
  20   2.0000      -0.512725       -13.9520
  21   2.0000      -0.506043       -13.7701
  22   2.0000      -0.505908       -13.7665
  23   2.0000      -0.490690       -13.3524
  24   2.0000      -0.350609        -9.5406
  25   2.0000      -0.349133        -9.5004
  26   0.0000       0.022800         0.6204
  27   0.0000       0.028774         0.7830
  28   0.0000       0.028886         0.7860
  29   0.0000       0.040880         1.1124
  30   0.0000       0.040993         1.1155

MULLIKEN ATOMIC CHARGES
-----------------------
   0 C :   -0.332952
   1 H :    0.330266
   2 C :   -0.356604
   3 H :    0.312399
   4 C :   -0.186664
   5 H :    0.305410
   6 C :   -0.356605
   7 H :    0.312399
   8 C :   -0.332952
   9 H :    0.330266
  10 C :   -0.357021
  11 H :    0.307973
  12 O :   -0.669928
  13 H :    0.324922
  14 H :    0.369092
Sum of atomic charges:    0.0000000

LOEWDIN ATOMIC CHARGES
----------------------
   0 C :    0.329546
   1 H :   -0.321891
   2 C :    0.328112
   3 H :   -0.318460
   4 C :    0.324401
   5 H :   -0.317285
   6 C :    0.328112
   7 H :   -0.318460
   8 C :    0.329546
   9 H :   -0.321891
  10 C :    0.328290
  11 H :   -0.323543
  12 O :    1.630413
  13 H :   -0.787272
  14 H :   -0.889620

  Mayer bond orders larger than 0.100000
B(  0-C ,  1-H ) :   1.0285 B(  0-C ,  2-C ) :   1.2027 B(  0-C ,  6-C ) :   0.1429
B(  0-C , 10-C ) :   1.1869 B(  2-C ,  3-H ) :   1.0550 B(  2-C ,  4-C ) :   1.1927
B(  2-C ,  8-C ) :   0.1429 B(  4-C ,  5-H ) :   1.0692 B(  4-C ,  6-C ) :   1.1927
B(  4-C , 10-C ) :   0.1431 B(  6-C ,  7-H ) :   1.0550 B(  6-C ,  8-C ) :   1.2027
B(  8-C ,  9-H ) :   1.0285 B(  8-C , 10-C ) :   1.1869 B( 10-C , 11-H ) :   1.0437
B( 12-O , 13-H ) :   0.9251 B( 12-O , 14-H ) :   0.8973

MP2 TOTAL ENERGY:     -308.167695628 Eh
FINAL SINGLE POINT ENERGY      -308.167695627590

DIPOLE MOMENT
-------------
                                X             Y             Z
Electronic contribution:      1.62316       0.33443      -0.00000
Nuclear contribution   :     -0.74929      -0.65952      -0.00000
                        -----------------------------------------
Total Dipole Moment    :      0.87388      -0.32508      -0.00000
                        -----------------------------------------
Magnitude (a.u.)       :      0.93238
Magnitude (Debye)      :      2.36993

Rotational constants in cm-1:     0.095728     0.065502     0.065217
Rotational constants in MHz :  2869.840802  1963.699739  1955.149177

                             ****ORCA TERMINATED NORMALLY****
TOTAL RUN TIME: 0 days 0 hours 16 minutes 45 seconds 585 msec
