                         Program Version 5.0.4 -  RELEASE  -
|  1> ! ri-mp2 aug-cc-pvdz aug-cc-pvdz/c tightscf
|  2> %pal nprocs 16 end
|  3> %maxcore 3800
|  4> %base "DZ_S66by10_61_0.8_dimer"
|  5> %scf STABPerform true end
|  6>
|  7> *xyz 0 1
|  8> C   -2.27534498   -0.13507494    0.83133387
|  9> H   -2.49071776   -0.72792669   -0.05756635
| 10> H   -2.22632382   -0.81844641    1.67882341
| 11> H   -3.11202566    0.54494342    0.98740008
| 12> C   -0.96169812    0.61927789    0.66939920
| 13> H   -0.78869920    1.25043181    1.54470266
| 14> H   -1.02617687    1.29544524   -0.18645838
| 15> C    0.22650217   -0.31471031    0.47998579
| 16> H    0.30944439   -0.97513911    1.34803794
| 17> H    0.03915056   -0.96599875   -0.37878983
| 18> C    1.54300168    0.42117452    0.26899951
| 19> H    1.71163863    1.10777177    1.10244654
| 20> H    1.46609466    1.04374331   -0.62529358
| 21> C    2.72757632   -0.52686091    0.13745931
| 22> H    2.58874155   -1.20321391   -0.70575734
| 23> H    3.66150100    0.01169308   -0.01596863
| 24> H    2.83519407   -1.13740994    1.03407512
| 25> C   -0.40574143   -0.26767590    3.72274358
| 26> O   -0.82835537   -1.38285615    3.52559700
| 27> O   -1.21943379    0.79128961    3.95533306
| 28> H   -2.12019590    0.43690908    3.91479732
| 29> C    1.03452563    0.14199018    3.73994896
| 30> H    1.66034870   -0.72819077    3.58179380
| 31> H    1.21056305    0.87626381    2.95682438
| 32> H    1.27183688    0.61129113    4.69175135
| 33> *
| 34>
| 35> $new_job
| 36> ! ri-mp2 aug-cc-pvtz aug-cc-pvtz/c tightscf
| 37> %pal nprocs 16 end
| 38> %maxcore 3800
| 39> %base "TZ_S66by10_61_0.8_dimer"
| 40>
| 41> *xyz 0 1
| 42> C   -2.27534498   -0.13507494    0.83133387
| 43> H   -2.49071776   -0.72792669   -0.05756635
| 44> H   -2.22632382   -0.81844641    1.67882341
| 45> H   -3.11202566    0.54494342    0.98740008
| 46> C   -0.96169812    0.61927789    0.66939920
| 47> H   -0.78869920    1.25043181    1.54470266
| 48> H   -1.02617687    1.29544524   -0.18645838
| 49> C    0.22650217   -0.31471031    0.47998579
| 50> H    0.30944439   -0.97513911    1.34803794
| 51> H    0.03915056   -0.96599875   -0.37878983
| 52> C    1.54300168    0.42117452    0.26899951
| 53> H    1.71163863    1.10777177    1.10244654
| 54> H    1.46609466    1.04374331   -0.62529358
| 55> C    2.72757632   -0.52686091    0.13745931
| 56> H    2.58874155   -1.20321391   -0.70575734
| 57> H    3.66150100    0.01169308   -0.01596863
| 58> H    2.83519407   -1.13740994    1.03407512
| 59> C   -0.40574143   -0.26767590    3.72274358
| 60> O   -0.82835537   -1.38285615    3.52559700
| 61> O   -1.21943379    0.79128961    3.95533306
| 62> H   -2.12019590    0.43690908    3.91479732
| 63> C    1.03452563    0.14199018    3.73994896
| 64> H    1.66034870   -0.72819077    3.58179380
| 65> H    1.21056305    0.87626381    2.95682438
| 66> H    1.27183688    0.61129113    4.69175135
| 67> *
| 68>
| 69> $new_job
| 70> ! ri-mp2 aug-cc-pvqz aug-cc-pvqz/c tightscf
| 71> %pal nprocs 16 end
| 72> %maxcore 3800
| 73> %base "QZ_S66by10_61_0.8_dimer"
| 74>
| 75> *xyz 0 1
| 76> C   -2.27534498   -0.13507494    0.83133387
| 77> H   -2.49071776   -0.72792669   -0.05756635
| 78> H   -2.22632382   -0.81844641    1.67882341
| 79> H   -3.11202566    0.54494342    0.98740008
| 80> C   -0.96169812    0.61927789    0.66939920
| 81> H   -0.78869920    1.25043181    1.54470266
| 82> H   -1.02617687    1.29544524   -0.18645838
| 83> C    0.22650217   -0.31471031    0.47998579
| 84> H    0.30944439   -0.97513911    1.34803794
| 85> H    0.03915056   -0.96599875   -0.37878983
| 86> C    1.54300168    0.42117452    0.26899951
| 87> H    1.71163863    1.10777177    1.10244654
| 88> H    1.46609466    1.04374331   -0.62529358
| 89> C    2.72757632   -0.52686091    0.13745931
| 90> H    2.58874155   -1.20321391   -0.70575734
| 91> H    3.66150100    0.01169308   -0.01596863
| 92> H    2.83519407   -1.13740994    1.03407512
| 93> C   -0.40574143   -0.26767590    3.72274358
| 94> O   -0.82835537   -1.38285615    3.52559700
| 95> O   -1.21943379    0.79128961    3.95533306
| 96> H   -2.12019590    0.43690908    3.91479732
| 97> C    1.03452563    0.14199018    3.73994896
| 98> H    1.66034870   -0.72819077    3.58179380
| 99> H    1.21056305    0.87626381    2.95682438
|100> H    1.27183688    0.61129113    4.69175135
|101> *
|102>
|103>
|104>
|105>
|106>                          ****END OF INPUT****
 Total Charge           Charge          ....    0
 Multiplicity           Mult            ....    1
 Number of Electrons    NEL             ....   74
MP2 TOTAL ENERGY:     -425.642719861 Eh
FINAL SINGLE POINT ENERGY      -425.642719860771
MP2 TOTAL ENERGY:     -426.036856309 Eh
FINAL SINGLE POINT ENERGY      -426.036856308595

CARTESIAN COORDINATES (ANGSTROEM)
---------------------------------
  C     -2.275345   -0.135075    0.831334
  H     -2.490718   -0.727927   -0.057566
  H     -2.226324   -0.818446    1.678823
  H     -3.112026    0.544943    0.987400
  C     -0.961698    0.619278    0.669399
  H     -0.788699    1.250432    1.544703
  H     -1.026177    1.295445   -0.186458
  C      0.226502   -0.314710    0.479986
  H      0.309444   -0.975139    1.348038
  H      0.039151   -0.965999   -0.378790
  C      1.543002    0.421175    0.269000
  H      1.711639    1.107772    1.102447
  H      1.466095    1.043743   -0.625294
  C      2.727576   -0.526861    0.137459
  H      2.588742   -1.203214   -0.705757
  H      3.661501    0.011693   -0.015969
  H      2.835194   -1.137410    1.034075
  C     -0.405741   -0.267676    3.722744
  O     -0.828355   -1.382856    3.525597
  O     -1.219434    0.791290    3.955333
  H     -2.120196    0.436909    3.914797
  C      1.034526    0.141990    3.739949
  H      1.660349   -0.728191    3.581794
  H      1.210563    0.876264    2.956824
  H      1.271837    0.611291    4.691751

 Multiplicity           Mult            ....    1
 Number of Electrons    NEL             ....   74
 Basis Dimension        Dim             .... 1456

ORBITAL ENERGIES
----------------

  NO   OCC          E(Eh)            E(eV)
   0   2.0000     -20.613412      -560.9195
   1   2.0000     -20.550489      -559.2072
   2   2.0000     -11.391069      -309.9667
   3   2.0000     -11.243747      -305.9579
   4   2.0000     -11.214550      -305.1634
   5   2.0000     -11.209938      -305.0379
   6   2.0000     -11.208935      -305.0106
   7   2.0000     -11.206605      -304.9472
   8   2.0000     -11.201030      -304.7955
   9   2.0000      -1.468242       -39.9529
  10   2.0000      -1.364469       -37.1291
  11   2.0000      -1.082537       -29.4573
  12   2.0000      -1.031843       -28.0779
  13   2.0000      -1.015984       -27.6463
  14   2.0000      -0.918881       -25.0040
  15   2.0000      -0.825855       -22.4727
  16   2.0000      -0.819645       -22.3037
  17   2.0000      -0.786335       -21.3973
  18   2.0000      -0.710582       -19.3359
  19   2.0000      -0.684857       -18.6359
  20   2.0000      -0.676079       -18.3971
  21   2.0000      -0.630026       -17.1439
  22   2.0000      -0.599826       -16.3221
  23   2.0000      -0.598355       -16.2821
  24   2.0000      -0.587991       -16.0001
  25   2.0000      -0.576675       -15.6921
  26   2.0000      -0.561787       -15.2870
  27   2.0000      -0.553628       -15.0650
  28   2.0000      -0.547861       -14.9081
  29   2.0000      -0.524698       -14.2778
  30   2.0000      -0.497949       -13.5499
  31   2.0000      -0.494392       -13.4531
  32   2.0000      -0.476658       -12.9705
  33   2.0000      -0.461552       -12.5595
  34   2.0000      -0.457743       -12.4558
  35   2.0000      -0.450453       -12.2575
  36   2.0000      -0.446935       -12.1617
  37   0.0000       0.023737         0.6459
  38   0.0000       0.028614         0.7786
  39   0.0000       0.030049         0.8177
  40   0.0000       0.034460         0.9377
  41   0.0000       0.041824         1.1381

MULLIKEN ATOMIC CHARGES
-----------------------
   0 C :   -1.037799
   1 H :    0.251718
   2 H :    0.262775
   3 H :    0.221790
   4 C :   -0.430569
   5 H :    0.229850
   6 H :    0.283675
   7 C :   -0.157666
   8 H :    0.249937
   9 H :    0.292879
  10 C :   -0.567078
  11 H :    0.316207
  12 H :    0.277202
  13 C :   -0.941486
  14 H :    0.212775
  15 H :    0.249257
  16 H :    0.252583
  17 C :    1.545230
  18 O :   -0.941069
  19 O :   -0.863669
  20 H :    0.334696
  21 C :   -0.977648
  22 H :    0.298139
  23 H :    0.316744
  24 H :    0.321528
Sum of atomic charges:    0.0000000

LOEWDIN ATOMIC CHARGES
----------------------
   0 C :    0.924621
   1 H :   -0.276736
   2 H :   -0.360149
   3 H :   -0.275101
   4 C :    0.499834
   5 H :   -0.325892
   6 H :   -0.262411
   7 C :    0.489349
   8 H :   -0.347013
   9 H :   -0.256976
  10 C :    0.510965
  11 H :   -0.312656
  12 H :   -0.261934
  13 C :    0.937341
  14 H :   -0.281641
  15 H :   -0.279142
  16 H :   -0.287445
  17 C :   -1.026271
  18 O :    0.762714
  19 O :    1.283315
  20 H :   -0.813129
  21 C :    0.890533
  22 H :   -0.298798
  23 H :   -0.353873
  24 H :   -0.279505

  Mayer bond orders larger than 0.100000
B(  0-C ,  1-H ) :   0.9878 B(  0-C ,  2-H ) :   0.9298 B(  0-C ,  3-H ) :   1.0697
B(  0-C ,  4-C ) :   0.8928 B(  0-C ,  7-C ) :  -0.1016 B(  3-H ,  4-C ) :  -0.1129
B(  4-C ,  5-H ) :   0.9257 B(  4-C ,  6-H ) :   0.8864 B(  4-C ,  7-C ) :   0.7821
B(  7-C ,  8-H ) :   0.8785 B(  7-C ,  9-H ) :   0.9281 B(  7-C , 10-C ) :   0.7602
B( 10-C , 11-H ) :   0.8616 B( 10-C , 12-H ) :   0.8991 B( 10-C , 13-C ) :   0.9908
B( 13-C , 14-H ) :   1.0054 B( 13-C , 15-H ) :   1.0381 B( 13-C , 16-H ) :   0.9171
B( 17-C , 18-O ) :   1.1609 B( 17-C , 19-O ) :   0.6269 B( 17-C , 21-C ) :   0.9477
B( 19-O , 20-H ) :   0.8679 B( 21-C , 22-H ) :   0.9548 B( 21-C , 23-H ) :   0.8553
B( 21-C , 24-H ) :   0.9430

MP2 TOTAL ENERGY:     -426.159311316 Eh
FINAL SINGLE POINT ENERGY      -426.159311316036

DIPOLE MOMENT
-------------
                                X             Y             Z
Electronic contribution:     -4.93929      -1.02490       9.89195
Nuclear contribution   :      5.22560       1.66491      -9.77827
                        -----------------------------------------
Total Dipole Moment    :      0.28631       0.64001       0.11368
                        -----------------------------------------
Magnitude (a.u.)       :      0.71029
Magnitude (Debye)      :      1.80541

Rotational constants in cm-1:     0.057110     0.033163     0.025023
Rotational constants in MHz :  1712.110064   994.216119   750.177502

                             ****ORCA TERMINATED NORMALLY****
TOTAL RUN TIME: 0 days 8 hours 37 minutes 19 seconds 965 msec
