                         Program Version 5.0.4 -  RELEASE  -
|  1> ! ri-mp2 aug-cc-pvdz aug-cc-pvdz/c tightscf
|  2> %pal nprocs 16 end
|  3> %maxcore 3800
|  4> %base "DZ_S66by10_17_0.95_dimer"
|  5> %scf STABPerform true end
|  6>
|  7> *xyz 0 1
|  8> N   -0.72999913    0.02276763    0.00091465
|  9> H    0.29842255    0.07400447    0.00162304
| 10> C   -1.29682453   -1.24042682    0.00150234
| 11> O   -0.59409886   -2.25351751    0.00263371
| 12> C   -2.74362229   -1.26233170    0.00047938
| 13> H   -3.24959045   -2.21183517    0.00083311
| 14> C   -3.42201997   -0.09590921   -0.00092259
| 15> H   -4.50089709   -0.04921603   -0.00174546
| 16> N   -2.77483684    1.10540895   -0.00141807
| 17> H   -3.28383807    1.97387739   -0.00248574
| 18> C   -1.39147866    1.23701978   -0.00052538
| 19> O   -0.83984371    2.31703528   -0.00100125
| 20> N    4.06414000   -1.08155113    0.00049887
| 21> H    4.51138378   -0.17497793    0.00088568
| 22> C    4.92018777   -2.19616892   -0.00100101
| 23> O    6.12963979   -2.04446450   -0.00175021
| 24> C    4.20596934   -3.45834245   -0.00150540
| 25> H    4.77255389   -4.37337321   -0.00264404
| 26> C    2.85580036   -3.46216033   -0.00054531
| 27> H    2.27883712   -4.37512509   -0.00086398
| 28> N    2.11780895   -2.31127949    0.00090511
| 29> H    1.09147269   -2.33272229    0.00158217
| 30> C    2.69057989   -1.06661445    0.00145575
| 31> O    2.04025900   -0.02539614    0.00269214
| 32> *
| 33>
| 34> $new_job
| 35> ! ri-mp2 aug-cc-pvtz aug-cc-pvtz/c tightscf
| 36> %pal nprocs 16 end
| 37> %maxcore 3800
| 38> %base "TZ_S66by10_17_0.95_dimer"
| 39>
| 40> *xyz 0 1
| 41> N   -0.72999913    0.02276763    0.00091465
| 42> H    0.29842255    0.07400447    0.00162304
| 43> C   -1.29682453   -1.24042682    0.00150234
| 44> O   -0.59409886   -2.25351751    0.00263371
| 45> C   -2.74362229   -1.26233170    0.00047938
| 46> H   -3.24959045   -2.21183517    0.00083311
| 47> C   -3.42201997   -0.09590921   -0.00092259
| 48> H   -4.50089709   -0.04921603   -0.00174546
| 49> N   -2.77483684    1.10540895   -0.00141807
| 50> H   -3.28383807    1.97387739   -0.00248574
| 51> C   -1.39147866    1.23701978   -0.00052538
| 52> O   -0.83984371    2.31703528   -0.00100125
| 53> N    4.06414000   -1.08155113    0.00049887
| 54> H    4.51138378   -0.17497793    0.00088568
| 55> C    4.92018777   -2.19616892   -0.00100101
| 56> O    6.12963979   -2.04446450   -0.00175021
| 57> C    4.20596934   -3.45834245   -0.00150540
| 58> H    4.77255389   -4.37337321   -0.00264404
| 59> C    2.85580036   -3.46216033   -0.00054531
| 60> H    2.27883712   -4.37512509   -0.00086398
| 61> N    2.11780895   -2.31127949    0.00090511
| 62> H    1.09147269   -2.33272229    0.00158217
| 63> C    2.69057989   -1.06661445    0.00145575
| 64> O    2.04025900   -0.02539614    0.00269214
| 65> *
| 66>
| 67> $new_job
| 68> ! ri-mp2 aug-cc-pvqz aug-cc-pvqz/c tightscf
| 69> %pal nprocs 16 end
| 70> %maxcore 3800
| 71> %base "QZ_S66by10_17_0.95_dimer"
| 72>
| 73> *xyz 0 1
| 74> N   -0.72999913    0.02276763    0.00091465
| 75> H    0.29842255    0.07400447    0.00162304
| 76> C   -1.29682453   -1.24042682    0.00150234
| 77> O   -0.59409886   -2.25351751    0.00263371
| 78> C   -2.74362229   -1.26233170    0.00047938
| 79> H   -3.24959045   -2.21183517    0.00083311
| 80> C   -3.42201997   -0.09590921   -0.00092259
| 81> H   -4.50089709   -0.04921603   -0.00174546
| 82> N   -2.77483684    1.10540895   -0.00141807
| 83> H   -3.28383807    1.97387739   -0.00248574
| 84> C   -1.39147866    1.23701978   -0.00052538
| 85> O   -0.83984371    2.31703528   -0.00100125
| 86> N    4.06414000   -1.08155113    0.00049887
| 87> H    4.51138378   -0.17497793    0.00088568
| 88> C    4.92018777   -2.19616892   -0.00100101
| 89> O    6.12963979   -2.04446450   -0.00175021
| 90> C    4.20596934   -3.45834245   -0.00150540
| 91> H    4.77255389   -4.37337321   -0.00264404
| 92> C    2.85580036   -3.46216033   -0.00054531
| 93> H    2.27883712   -4.37512509   -0.00086398
| 94> N    2.11780895   -2.31127949    0.00090511
| 95> H    1.09147269   -2.33272229    0.00158217
| 96> C    2.69057989   -1.06661445    0.00145575
| 97> O    2.04025900   -0.02539614    0.00269214
| 98> *
| 99>
|100>
|101>
|102>
|103>                          ****END OF INPUT****
 Total Charge           Charge          ....    0
 Multiplicity           Mult            ....    1
 Number of Electrons    NEL             ....  116
MP2 TOTAL ENERGY:     -827.583260199 Eh
FINAL SINGLE POINT ENERGY      -827.583260198563
MP2 TOTAL ENERGY:     -828.278080015 Eh
FINAL SINGLE POINT ENERGY      -828.278080014850

CARTESIAN COORDINATES (ANGSTROEM)
---------------------------------
  N     -0.729999    0.022768    0.000915
  H      0.298423    0.074004    0.001623
  C     -1.296825   -1.240427    0.001502
  O     -0.594099   -2.253518    0.002634
  C     -2.743622   -1.262332    0.000479
  H     -3.249590   -2.211835    0.000833
  C     -3.422020   -0.095909   -0.000923
  H     -4.500897   -0.049216   -0.001745
  N     -2.774837    1.105409   -0.001418
  H     -3.283838    1.973877   -0.002486
  C     -1.391479    1.237020   -0.000525
  O     -0.839844    2.317035   -0.001001
  N      4.064140   -1.081551    0.000499
  H      4.511384   -0.174978    0.000886
  C      4.920188   -2.196169   -0.001001
  O      6.129640   -2.044465   -0.001750
  C      4.205969   -3.458342   -0.001505
  H      4.772554   -4.373373   -0.002644
  C      2.855800   -3.462160   -0.000545
  H      2.278837   -4.375125   -0.000864
  N      2.117809   -2.311279    0.000905
  H      1.091473   -2.332722    0.001582
  C      2.690580   -1.066614    0.001456
  O      2.040259   -0.025396    0.002692

 Multiplicity           Mult            ....    1
 Number of Electrons    NEL             ....  116
 Basis Dimension        Dim             .... 1648

ORBITAL ENERGIES
----------------

  NO   OCC          E(Eh)            E(eV)
   0   2.0000     -20.553203      -559.2811
   1   2.0000     -20.543665      -559.0216
   2   2.0000     -20.542114      -558.9793
   3   2.0000     -20.530236      -558.6561
   4   2.0000     -15.645445      -425.7342
   5   2.0000     -15.619694      -425.0335
   6   2.0000     -15.617519      -424.9743
   7   2.0000     -15.615853      -424.9290
   8   2.0000     -11.415629      -310.6351
   9   2.0000     -11.413800      -310.5853
  10   2.0000     -11.393424      -310.0308
  11   2.0000     -11.370964      -309.4197
  12   2.0000     -11.346757      -308.7610
  13   2.0000     -11.325298      -308.1770
  14   2.0000     -11.258132      -306.3493
  15   2.0000     -11.241628      -305.9003
  16   2.0000      -1.437307       -39.1111
  17   2.0000      -1.431028       -38.9403
  18   2.0000      -1.408962       -38.3398
  19   2.0000      -1.389788       -37.8180
  20   2.0000      -1.315597       -35.7992
  21   2.0000      -1.302014       -35.4296
  22   2.0000      -1.246609       -33.9219
  23   2.0000      -1.235919       -33.6311
  24   2.0000      -1.093022       -29.7426
  25   2.0000      -1.075804       -29.2741
  26   2.0000      -0.938606       -25.5408
  27   2.0000      -0.922370       -25.0990
  28   2.0000      -0.905971       -24.6527
  29   2.0000      -0.891931       -24.2707
  30   2.0000      -0.810736       -22.0612
  31   2.0000      -0.798492       -21.7281
  32   2.0000      -0.769519       -20.9397
  33   2.0000      -0.756174       -20.5766
  34   2.0000      -0.725180       -19.7332
  35   2.0000      -0.712116       -19.3777
  36   2.0000      -0.688014       -18.7218
  37   2.0000      -0.670293       -18.2396
  38   2.0000      -0.668388       -18.1878
  39   2.0000      -0.661152       -17.9908
  40   2.0000      -0.653371       -17.7791
  41   2.0000      -0.645116       -17.5545
  42   2.0000      -0.623757       -16.9733
  43   2.0000      -0.607540       -16.5320
  44   2.0000      -0.597863       -16.2687
  45   2.0000      -0.589798       -16.0492
  46   2.0000      -0.583196       -15.8696
  47   2.0000      -0.562878       -15.3167
  48   2.0000      -0.527049       -14.3417
  49   2.0000      -0.513930       -13.9847
  50   2.0000      -0.496141       -13.5007
  51   2.0000      -0.475272       -12.9328
  52   2.0000      -0.461548       -12.5594
  53   2.0000      -0.442182       -12.0324
  54   2.0000      -0.441686       -12.0189
  55   2.0000      -0.434658       -11.8276
  56   2.0000      -0.374687       -10.1958
  57   2.0000      -0.356326        -9.6961
  58   0.0000       0.008890         0.2419
  59   0.0000       0.021446         0.5836
  60   0.0000       0.028954         0.7879
  61   0.0000       0.036227         0.9858
  62   0.0000       0.040210         1.0942

MULLIKEN ATOMIC CHARGES
-----------------------
   0 N :   -0.751403
   1 H :    0.320963
   2 C :    1.098059
   3 O :   -0.795228
   4 C :   -0.417337
   5 H :    0.258078
   6 C :   -0.090520
   7 H :    0.427026
   8 N :   -0.718269
   9 H :    0.068402
  10 C :    1.414121
  11 O :   -0.767728
  12 N :   -0.671640
  13 H :    0.129053
  14 C :    1.093918
  15 O :   -0.838510
  16 C :   -0.349877
  17 H :    0.283828
  18 C :   -0.369560
  19 H :    0.315677
  20 N :   -0.571077
  21 H :    0.264680
  22 C :    1.440954
  23 O :   -0.773608
Sum of atomic charges:   -0.0000000

LOEWDIN ATOMIC CHARGES
----------------------
   0 N :    0.790311
   1 H :   -0.843070
   2 C :   -0.754763
   3 O :    0.861945
   4 C :    0.345364
   5 H :   -0.353724
   6 C :    0.239790
   7 H :   -0.294469
   8 N :    0.814626
   9 H :   -0.492513
  10 C :   -0.965338
  11 O :    0.703224
  12 N :    0.789708
  13 H :   -0.516428
  14 C :   -0.863899
  15 O :    0.678504
  16 C :    0.335184
  17 H :   -0.356651
  18 C :    0.247245
  19 H :   -0.292756
  20 N :    0.813246
  21 H :   -0.860193
  22 C :   -0.883067
  23 O :    0.857722

  Mayer bond orders larger than 0.100000
B(  0-N ,  1-H ) :   0.8879 B(  0-N ,  2-C ) :   1.0021 B(  0-N ,  3-O ) :   0.2520
B(  0-N , 10-C ) :   1.2759 B(  0-N , 11-O ) :   0.3022 B(  2-C ,  3-O ) :   1.2347
B(  2-C ,  4-C ) :   0.9219 B(  2-C ,  6-C ) :  -0.2502 B(  3-O ,  4-C ) :   0.1204
B(  4-C ,  5-H ) :   1.0343 B(  4-C ,  6-C ) :   1.4623 B(  4-C ,  7-H ) :  -0.1374
B(  5-H ,  6-C ) :  -0.1084 B(  6-C ,  7-H ) :   0.9433 B(  6-C ,  8-N ) :   0.9275
B(  8-N ,  9-H ) :   1.2376 B(  8-N , 10-C ) :   1.0557 B(  8-N , 11-O ) :   0.1880
B(  9-H , 10-C ) :  -0.1021 B( 10-C , 11-O ) :   1.0262 B( 12-N , 13-H ) :   1.1912
B( 12-N , 14-C ) :   1.0692 B( 12-N , 15-O ) :   0.1460 B( 12-N , 22-C ) :   0.9710
B( 13-H , 22-C ) :  -0.1108 B( 14-C , 15-O ) :   1.0059 B( 14-C , 16-C ) :   1.1570
B( 15-O , 16-C ) :   0.2789 B( 16-C , 17-H ) :   1.0104 B( 16-C , 18-C ) :   1.4574
B( 17-H , 18-C ) :  -0.1154 B( 18-C , 19-H ) :   0.9922 B( 18-C , 20-N ) :   1.0852
B( 20-N , 21-H ) :   0.8967 B( 20-N , 22-C ) :   1.1642 B( 20-N , 23-O ) :   0.2090
B( 22-C , 23-O ) :   1.2596

MP2 TOTAL ENERGY:     -828.507484063 Eh
FINAL SINGLE POINT ENERGY      -828.507484063292

DIPOLE MOMENT
-------------
                                X             Y             Z
Electronic contribution:      2.02763       2.73609       0.00222
Nuclear contribution   :     -5.43260      -3.55860      -0.00389
                        -----------------------------------------
Total Dipole Moment    :     -3.40497      -0.82250      -0.00167
                        -----------------------------------------
Magnitude (a.u.)       :      3.50290
Magnitude (Debye)      :      8.90367

Rotational constants in cm-1:     0.046882     0.007714     0.006624
Rotational constants in MHz :  1405.495903   231.271701   198.593583

                             ****ORCA TERMINATED NORMALLY****
TOTAL RUN TIME: 0 days 13 hours 35 minutes 43 seconds 124 msec
