                         Program Version 5.0.4 -  RELEASE  -
|  1> ! ri-mp2 aug-cc-pvdz aug-cc-pvdz/c tightscf
|  2> %pal nprocs 16 end
|  3> %maxcore 3800
|  4> %base "DZ_S66by10_18_1.5_dimer"
|  5>
|  6> *xyz 0 1
|  7> O   -0.55283102   -0.10169749   -0.00049879
|  8> H   -0.87175963    0.80179220    0.00014440
|  9> H    0.41265950   -0.00183225   -0.00025181
| 10> N    3.40223650    0.14900531    0.00035888
| 11> C    4.09814314    0.11503452    1.14510673
| 12> H    3.51347059    0.13864546    2.05597475
| 13> C    5.48716673    0.04985208    1.19510279
| 14> H    5.99307311    0.02499793    2.14943191
| 15> C    6.19832987    0.01672629    0.00019164
| 16> H    7.27816983   -0.03504727    0.00011122
| 17> C    5.48702158    0.04978543   -1.19460965
| 18> H    5.99281852    0.02491240   -2.14900825
| 19> C    4.09799156    0.11498042   -1.14446339
| 20> H    3.51322268    0.13858107   -2.05525594
| 21> *
| 22>
| 23> $new_job
| 24> ! ri-mp2 aug-cc-pvtz aug-cc-pvtz/c tightscf
| 25> %pal nprocs 16 end
| 26> %maxcore 3800
| 27> %base "TZ_S66by10_18_1.5_dimer"
| 28>
| 29> *xyz 0 1
| 30> O   -0.55283102   -0.10169749   -0.00049879
| 31> H   -0.87175963    0.80179220    0.00014440
| 32> H    0.41265950   -0.00183225   -0.00025181
| 33> N    3.40223650    0.14900531    0.00035888
| 34> C    4.09814314    0.11503452    1.14510673
| 35> H    3.51347059    0.13864546    2.05597475
| 36> C    5.48716673    0.04985208    1.19510279
| 37> H    5.99307311    0.02499793    2.14943191
| 38> C    6.19832987    0.01672629    0.00019164
| 39> H    7.27816983   -0.03504727    0.00011122
| 40> C    5.48702158    0.04978543   -1.19460965
| 41> H    5.99281852    0.02491240   -2.14900825
| 42> C    4.09799156    0.11498042   -1.14446339
| 43> H    3.51322268    0.13858107   -2.05525594
| 44> *
| 45>
| 46> $new_job
| 47> ! ri-mp2 aug-cc-pvqz aug-cc-pvqz/c tightscf
| 48> %pal nprocs 16 end
| 49> %maxcore 3800
| 50> %base "QZ_S66by10_18_1.5_dimer"
| 51>
| 52> *xyz 0 1
| 53> O   -0.55283102   -0.10169749   -0.00049879
| 54> H   -0.87175963    0.80179220    0.00014440
| 55> H    0.41265950   -0.00183225   -0.00025181
| 56> N    3.40223650    0.14900531    0.00035888
| 57> C    4.09814314    0.11503452    1.14510673
| 58> H    3.51347059    0.13864546    2.05597475
| 59> C    5.48716673    0.04985208    1.19510279
| 60> H    5.99307311    0.02499793    2.14943191
| 61> C    6.19832987    0.01672629    0.00019164
| 62> H    7.27816983   -0.03504727    0.00011122
| 63> C    5.48702158    0.04978543   -1.19460965
| 64> H    5.99281852    0.02491240   -2.14900825
| 65> C    4.09799156    0.11498042   -1.14446339
| 66> H    3.51322268    0.13858107   -2.05525594
| 67> *
| 68>
| 69>
| 70>
| 71>
| 72>                          ****END OF INPUT****
 Total Charge           Charge          ....    0
 Multiplicity           Mult            ....    1
 Number of Electrons    NEL             ....   52
MP2 TOTAL ENERGY:     -323.828837565 Eh
FINAL SINGLE POINT ENERGY      -323.828837564817
MP2 TOTAL ENERGY:     -324.111438656 Eh
FINAL SINGLE POINT ENERGY      -324.111438656010

CARTESIAN COORDINATES (ANGSTROEM)
---------------------------------
  O     -0.552831   -0.101697   -0.000499
  H     -0.871760    0.801792    0.000144
  H      0.412659   -0.001832   -0.000252
  N      3.402236    0.149005    0.000359
  C      4.098143    0.115035    1.145107
  H      3.513471    0.138645    2.055975
  C      5.487167    0.049852    1.195103
  H      5.993073    0.024998    2.149432
  C      6.198330    0.016726    0.000192
  H      7.278170   -0.035047    0.000111
  C      5.487022    0.049785   -1.194610
  H      5.992819    0.024912   -2.149008
  C      4.097992    0.114980   -1.144463
  H      3.513223    0.138581   -2.055256

 Multiplicity           Mult            ....    1
 Number of Electrons    NEL             ....   52
 Basis Dimension        Dim             ....  882

ORBITAL ENERGIES
----------------

  NO   OCC          E(Eh)            E(eV)
   0   2.0000     -20.547578      -559.1280
   1   2.0000     -15.573732      -423.7828
   2   2.0000     -11.281525      -306.9859
   3   2.0000     -11.281507      -306.9854
   4   2.0000     -11.265718      -306.5558
   5   2.0000     -11.247432      -306.0582
   6   2.0000     -11.247380      -306.0568
   7   2.0000      -1.331597       -36.2346
   8   2.0000      -1.264215       -34.4010
   9   2.0000      -1.096027       -29.8244
  10   2.0000      -1.041109       -28.3300
  11   2.0000      -0.866028       -23.5658
  12   2.0000      -0.863397       -23.4942
  13   2.0000      -0.729381       -19.8475
  14   2.0000      -0.693542       -18.8722
  15   2.0000      -0.667973       -18.1765
  16   2.0000      -0.660921       -17.9846
  17   2.0000      -0.606144       -16.4940
  18   2.0000      -0.584558       -15.9066
  19   2.0000      -0.567827       -15.4514
  20   2.0000      -0.549117       -14.9422
  21   2.0000      -0.527577       -14.3561
  22   2.0000      -0.492235       -13.3944
  23   2.0000      -0.428858       -11.6698
  24   2.0000      -0.391322       -10.6484
  25   2.0000      -0.354939        -9.6584
  26   0.0000       0.020677         0.5626
  27   0.0000       0.027269         0.7420
  28   0.0000       0.029743         0.8094
  29   0.0000       0.040160         1.0928
  30   0.0000       0.042872         1.1666

MULLIKEN ATOMIC CHARGES
-----------------------
   0 O :   -0.607469
   1 H :    0.300358
   2 H :    0.304316
   3 N :   -0.526232
   4 C :   -0.322437
   5 H :    0.415671
   6 C :   -0.225756
   7 H :    0.347499
   8 C :   -0.257394
   9 H :    0.356377
  10 C :   -0.225748
  11 H :    0.347488
  12 C :   -0.322361
  13 H :    0.415687
Sum of atomic charges:   -0.0000000

LOEWDIN ATOMIC CHARGES
----------------------
   0 O :    1.590872
   1 H :   -0.808096
   2 H :   -0.803610
   3 N :    0.580024
   4 C :    0.070693
   5 H :   -0.355120
   6 C :    0.328542
   7 H :   -0.330702
   8 C :    0.328455
   9 H :   -0.314464
  10 C :    0.328532
  11 H :   -0.330690
  12 C :    0.070694
  13 H :   -0.355130

  Mayer bond orders larger than 0.100000
B(  0-O ,  1-H ) :   0.9544 B(  0-O ,  2-H ) :   0.9505 B(  3-N ,  4-C ) :   1.2953
B(  3-N , 12-C ) :   1.2954 B(  4-C ,  5-H ) :   0.9005 B(  4-C ,  6-C ) :   1.2416
B(  6-C ,  7-H ) :   0.9478 B(  6-C ,  8-C ) :   1.1955 B(  8-C ,  9-H ) :   0.9538
B(  8-C , 10-C ) :   1.1955 B( 10-C , 11-H ) :   0.9478 B( 10-C , 12-C ) :   1.2415
B( 12-C , 13-H ) :   0.9005

MP2 TOTAL ENERGY:     -324.202800273 Eh
FINAL SINGLE POINT ENERGY      -324.202800272714

DIPOLE MOMENT
-------------
                                X             Y             Z
Electronic contribution:      2.31855      -0.03708       0.00041
Nuclear contribution   :     -0.82180       0.63578       0.00011
                        -----------------------------------------
Total Dipole Moment    :      1.49675       0.59870       0.00052
                        -----------------------------------------
Magnitude (a.u.)       :      1.61205
Magnitude (Debye)      :      4.09751

Rotational constants in cm-1:     0.198903     0.033596     0.028854
Rotational constants in MHz :  5962.970065  1007.185816   865.024113

                             ****ORCA TERMINATED NORMALLY****
TOTAL RUN TIME: 0 days 0 hours 12 minutes 55 seconds 540 msec
