                         Program Version 5.0.4 -  RELEASE  -
|  1> ! ri-mp2 aug-cc-pvdz aug-cc-pvdz/c tightscf
|  2> %pal nprocs 16 end
|  3> %maxcore 3800
|  4> %base "DZ_S66by10_46_0.7_dimer"
|  5> %scf STABPerform true end
|  6>
|  7> *xyz 0 1
|  8> C    1.37219093    1.01247736    0.97082468
|  9> H    0.95217623    2.01404955    1.03311725
| 10> H    1.94742170    0.92651560    0.05071776
| 11> H    2.05170208    0.85182517    1.80295247
| 12> C    0.32673706   -0.07764727    0.98819876
| 13> O    0.61882128   -1.25248130    1.17128126
| 14> N   -0.95002884    0.34488680    0.77391491
| 15> H   -1.10467156    1.32202550    0.60611216
| 16> C   -2.05985440   -0.57736895    0.68015349
| 17> H   -1.66935602   -1.56679601    0.89718425
| 18> H   -2.83459176   -0.33138032    1.40366139
| 19> H   -2.49097050   -0.57892483   -0.31993926
| 20> C    2.60024330    0.42045338    4.14554587
| 21> H    2.71708259    1.17486928    3.36680104
| 22> H    2.51413293    0.94533970    5.09720192
| 23> H    3.51233474   -0.17378853    4.17235388
| 24> C    1.37197108   -0.44293413    3.88799432
| 25> H    1.27740172   -1.18838813    4.68104515
| 26> H    1.48839121   -0.99639846    2.95415051
| 27> C    0.08943323    0.37567982    3.82269297
| 28> H   -0.02213709    0.95341470    4.74577661
| 29> H    0.16866738    1.10849473    3.01304031
| 30> C   -1.15492306   -0.47465542    3.60581307
| 31> H   -1.24572502   -1.18914190    4.42723029
| 32> H   -1.02711605   -1.06359315    2.69559862
| 33> C   -2.42176155    0.36563609    3.51569834
| 34> H   -2.35484832    1.07268707    2.68792911
| 35> H   -3.30710377   -0.25038140    3.36186544
| 36> H   -2.57211760    0.94184718    4.42891794
| 37> *
| 38>
| 39> $new_job
| 40> ! ri-mp2 aug-cc-pvtz aug-cc-pvtz/c tightscf
| 41> %pal nprocs 16 end
| 42> %maxcore 3800
| 43> %base "TZ_S66by10_46_0.7_dimer"
| 44>
| 45> *xyz 0 1
| 46> C    1.37219093    1.01247736    0.97082468
| 47> H    0.95217623    2.01404955    1.03311725
| 48> H    1.94742170    0.92651560    0.05071776
| 49> H    2.05170208    0.85182517    1.80295247
| 50> C    0.32673706   -0.07764727    0.98819876
| 51> O    0.61882128   -1.25248130    1.17128126
| 52> N   -0.95002884    0.34488680    0.77391491
| 53> H   -1.10467156    1.32202550    0.60611216
| 54> C   -2.05985440   -0.57736895    0.68015349
| 55> H   -1.66935602   -1.56679601    0.89718425
| 56> H   -2.83459176   -0.33138032    1.40366139
| 57> H   -2.49097050   -0.57892483   -0.31993926
| 58> C    2.60024330    0.42045338    4.14554587
| 59> H    2.71708259    1.17486928    3.36680104
| 60> H    2.51413293    0.94533970    5.09720192
| 61> H    3.51233474   -0.17378853    4.17235388
| 62> C    1.37197108   -0.44293413    3.88799432
| 63> H    1.27740172   -1.18838813    4.68104515
| 64> H    1.48839121   -0.99639846    2.95415051
| 65> C    0.08943323    0.37567982    3.82269297
| 66> H   -0.02213709    0.95341470    4.74577661
| 67> H    0.16866738    1.10849473    3.01304031
| 68> C   -1.15492306   -0.47465542    3.60581307
| 69> H   -1.24572502   -1.18914190    4.42723029
| 70> H   -1.02711605   -1.06359315    2.69559862
| 71> C   -2.42176155    0.36563609    3.51569834
| 72> H   -2.35484832    1.07268707    2.68792911
| 73> H   -3.30710377   -0.25038140    3.36186544
| 74> H   -2.57211760    0.94184718    4.42891794
| 75> *
| 76>
| 77> $new_job
| 78> ! ri-mp2 aug-cc-pvqz aug-cc-pvqz/c tightscf
| 79> %pal nprocs 16 end
| 80> %maxcore 3800
| 81> %base "QZ_S66by10_46_0.7_dimer"
| 82>
| 83> *xyz 0 1
| 84> C    1.37219093    1.01247736    0.97082468
| 85> H    0.95217623    2.01404955    1.03311725
| 86> H    1.94742170    0.92651560    0.05071776
| 87> H    2.05170208    0.85182517    1.80295247
| 88> C    0.32673706   -0.07764727    0.98819876
| 89> O    0.61882128   -1.25248130    1.17128126
| 90> N   -0.95002884    0.34488680    0.77391491
| 91> H   -1.10467156    1.32202550    0.60611216
| 92> C   -2.05985440   -0.57736895    0.68015349
| 93> H   -1.66935602   -1.56679601    0.89718425
| 94> H   -2.83459176   -0.33138032    1.40366139
| 95> H   -2.49097050   -0.57892483   -0.31993926
| 96> C    2.60024330    0.42045338    4.14554587
| 97> H    2.71708259    1.17486928    3.36680104
| 98> H    2.51413293    0.94533970    5.09720192
| 99> H    3.51233474   -0.17378853    4.17235388
|100> C    1.37197108   -0.44293413    3.88799432
|101> H    1.27740172   -1.18838813    4.68104515
|102> H    1.48839121   -0.99639846    2.95415051
|103> C    0.08943323    0.37567982    3.82269297
|104> H   -0.02213709    0.95341470    4.74577661
|105> H    0.16866738    1.10849473    3.01304031
|106> C   -1.15492306   -0.47465542    3.60581307
|107> H   -1.24572502   -1.18914190    4.42723029
|108> H   -1.02711605   -1.06359315    2.69559862
|109> C   -2.42176155    0.36563609    3.51569834
|110> H   -2.35484832    1.07268707    2.68792911
|111> H   -3.30710377   -0.25038140    3.36186544
|112> H   -2.57211760    0.94184718    4.42891794
|113> *
|114>
|115>
|116>
|117>
|118>                          ****END OF INPUT****
 Total Charge           Charge          ....    0
 Multiplicity           Mult            ....    1
 Number of Electrons    NEL             ....   82
MP2 TOTAL ENERGY:     -444.950909738 Eh
FINAL SINGLE POINT ENERGY      -444.950909737899
MP2 TOTAL ENERGY:     -445.369770025 Eh
FINAL SINGLE POINT ENERGY      -445.369770024518

CARTESIAN COORDINATES (ANGSTROEM)
---------------------------------
  C      1.372191    1.012477    0.970825
  H      0.952176    2.014050    1.033117
  H      1.947422    0.926516    0.050718
  H      2.051702    0.851825    1.802952
  C      0.326737   -0.077647    0.988199
  O      0.618821   -1.252481    1.171281
  N     -0.950029    0.344887    0.773915
  H     -1.104672    1.322026    0.606112
  C     -2.059854   -0.577369    0.680153
  H     -1.669356   -1.566796    0.897184
  H     -2.834592   -0.331380    1.403661
  H     -2.490970   -0.578925   -0.319939
  C      2.600243    0.420453    4.145546
  H      2.717083    1.174869    3.366801
  H      2.514133    0.945340    5.097202
  H      3.512335   -0.173789    4.172354
  C      1.371971   -0.442934    3.887994
  H      1.277402   -1.188388    4.681045
  H      1.488391   -0.996398    2.954151
  C      0.089433    0.375680    3.822693
  H     -0.022137    0.953415    4.745777
  H      0.168667    1.108495    3.013040
  C     -1.154923   -0.474655    3.605813
  H     -1.245725   -1.189142    4.427230
  H     -1.027116   -1.063593    2.695599
  C     -2.421762    0.365636    3.515698
  H     -2.354848    1.072687    2.687929
  H     -3.307104   -0.250381    3.361865
  H     -2.572118    0.941847    4.428918

 Multiplicity           Mult            ....    1
 Number of Electrons    NEL             ....   82
 Basis Dimension        Dim             .... 1674

ORBITAL ENERGIES
----------------

  NO   OCC          E(Eh)            E(eV)
   0   2.0000     -20.511259      -558.1397
   1   2.0000     -15.584386      -424.0727
   2   2.0000     -11.349828      -308.8445
   3   2.0000     -11.251158      -306.1596
   4   2.0000     -11.232002      -305.6383
   5   2.0000     -11.205364      -304.9134
   6   2.0000     -11.202378      -304.8322
   7   2.0000     -11.200044      -304.7687
   8   2.0000     -11.199334      -304.7494
   9   2.0000     -11.191234      -304.5290
  10   2.0000      -1.381456       -37.5913
  11   2.0000      -1.233935       -33.5771
  12   2.0000      -1.075561       -29.2675
  13   2.0000      -1.026609       -27.9355
  14   2.0000      -1.006339       -27.3839
  15   2.0000      -0.936086       -25.4722
  16   2.0000      -0.914685       -24.8898
  17   2.0000      -0.817207       -22.2373
  18   2.0000      -0.792182       -21.5564
  19   2.0000      -0.778594       -21.1866
  20   2.0000      -0.694189       -18.8898
  21   2.0000      -0.681545       -18.5458
  22   2.0000      -0.657350       -17.8874
  23   2.0000      -0.625358       -17.0169
  24   2.0000      -0.599665       -16.3177
  25   2.0000      -0.590350       -16.0642
  26   2.0000      -0.585849       -15.9418
  27   2.0000      -0.566249       -15.4084
  28   2.0000      -0.555769       -15.1232
  29   2.0000      -0.552021       -15.0213
  30   2.0000      -0.547777       -14.9058
  31   2.0000      -0.540717       -14.7137
  32   2.0000      -0.527690       -14.3592
  33   2.0000      -0.500661       -13.6237
  34   2.0000      -0.489572       -13.3219
  35   2.0000      -0.470312       -12.7978
  36   2.0000      -0.453381       -12.3371
  37   2.0000      -0.446356       -12.1460
  38   2.0000      -0.439943       -11.9715
  39   2.0000      -0.423093       -11.5129
  40   2.0000      -0.388034       -10.5589
  41   0.0000       0.018728         0.5096
  42   0.0000       0.027382         0.7451
  43   0.0000       0.029247         0.7958
  44   0.0000       0.032264         0.8780
  45   0.0000       0.039749         1.0816

MULLIKEN ATOMIC CHARGES
-----------------------
   0 C :   -0.979774
   1 H :    0.187624
   2 H :    0.267831
   3 H :    0.345337
   4 C :    1.659733
   5 O :   -1.177536
   6 N :   -0.432071
   7 H :    0.209919
   8 C :   -0.866089
   9 H :    0.221345
  10 H :    0.246729
  11 H :    0.272162
  12 C :   -1.007543
  13 H :    0.225598
  14 H :    0.179787
  15 H :    0.229147
  16 C :   -0.433978
  17 H :    0.199903
  18 H :    0.314885
  19 C :   -0.062490
  20 H :    0.255923
  21 H :    0.327471
  22 C :   -0.448436
  23 H :    0.212159
  24 H :    0.394389
  25 C :   -0.972842
  26 H :    0.232620
  27 H :    0.226928
  28 H :    0.171271
Sum of atomic charges:   -0.0000000

LOEWDIN ATOMIC CHARGES
----------------------
   0 C :    0.934548
   1 H :   -0.270732
   2 H :   -0.254584
   3 H :   -0.415156
   4 C :   -0.791682
   5 O :    0.848420
   6 N :    0.874901
   7 H :   -0.471732
   8 C :    0.806916
   9 H :   -0.334182
  10 H :   -0.384090
  11 H :   -0.249805
  12 C :    0.955477
  13 H :   -0.327039
  14 H :   -0.271597
  15 H :   -0.262578
  16 C :    0.519976
  17 H :   -0.253179
  18 H :   -0.451310
  19 C :    0.507284
  20 H :   -0.248313
  21 H :   -0.367034
  22 C :    0.524995
  23 H :   -0.242049
  24 H :   -0.458475
  25 C :    0.936191
  26 H :   -0.329250
  27 H :   -0.265945
  28 H :   -0.259979

  Mayer bond orders larger than 0.100000
B(  0-C ,  1-H ) :   1.0725 B(  0-C ,  2-H ) :   0.9881 B(  0-C ,  3-H ) :   0.8587
B(  0-C ,  4-C ) :   0.8389 B(  0-C ,  5-O ) :   0.1304 B(  4-C ,  5-O ) :   0.6659
B(  4-C ,  6-N ) :   1.0727 B(  4-C ,  8-C ) :  -0.1658 B(  5-O ,  6-N ) :   0.1761
B(  6-N ,  7-H ) :   1.0415 B(  6-N ,  8-C ) :   0.8666 B(  8-C ,  9-H ) :   1.0594
B(  8-C , 10-H ) :   0.8884 B(  8-C , 11-H ) :   1.0431 B( 12-C , 13-H ) :   0.9670
B( 12-C , 14-H ) :   1.0694 B( 12-C , 15-H ) :   1.0682 B( 12-C , 16-C ) :   0.8587
B( 12-C , 19-C ) :  -0.1191 B( 15-H , 16-C ) :  -0.1038 B( 16-C , 17-H ) :   0.9962
B( 16-C , 18-H ) :   0.8542 B( 16-C , 19-C ) :   0.6167 B( 19-C , 20-H ) :   0.9512
B( 19-C , 21-H ) :   0.9536 B( 19-C , 22-C ) :   0.7942 B( 19-C , 25-C ) :  -0.1264
B( 22-C , 23-H ) :   0.9786 B( 22-C , 24-H ) :   0.8281 B( 22-C , 25-C ) :   0.9090
B( 22-C , 27-H ) :  -0.1155 B( 25-C , 26-H ) :   0.9357 B( 25-C , 27-H ) :   1.0455
B( 25-C , 28-H ) :   1.0701

MP2 TOTAL ENERGY:     -445.497982075 Eh
FINAL SINGLE POINT ENERGY      -445.497982075336

DIPOLE MOMENT
-------------
                                X             Y             Z
Electronic contribution:      0.76958      -2.99758      -6.51061
Nuclear contribution   :     -1.38869       4.19874       6.10337
                        -----------------------------------------
Total Dipole Moment    :     -0.61911       1.20115      -0.40725
                        -----------------------------------------
Magnitude (a.u.)       :      1.41135
Magnitude (Debye)      :      3.58737

Rotational constants in cm-1:     0.049148     0.034304     0.024474
Rotational constants in MHz :  1473.434858  1028.397464   733.708489

                             ****ORCA TERMINATED NORMALLY****
TOTAL RUN TIME: 0 days 12 hours 46 minutes 13 seconds 608 msec
