 Gaussian 16, Revision C.01,

 ----------------------------------------------------------------------
 #t hf aug-cc-pvdz symm=none int=(grid=ultrafine) guess=(read,tcheck) s
 table=(opt,rrhf)
 ----------------------------------------------------------------------
 -----
 title
 -----
 Symbolic Z-matrix:
 Charge =  0 Multiplicity = 1

 SCF Done:  E(RHF) =  -1689.90401739     A.U. after   18 cycles
 Normal termination of Gaussian 16 at Tue Apr  8 17:15:09 2025.
 Gaussian 16:  ES64L-G16RevC.01  3-Jul-2019

 ----------------------------------------------------------------------
 #t hf aug-cc-pvdz iop(5/13=1,5/36=2,99/5=2) pseudo=read geom=check gue
 ss=(read,tcheck) scf=(maxcycle=1)
 ----------------------------------------------------------------------
 -----
 title
 -----
 Structure from the checkpoint file:  "37Conf8_Fotemustin_2_mol1.chk"
 Charge =  0 Multiplicity = 1

                         Standard orientation:
 ---------------------------------------------------------------------
 Center     Atomic      Atomic             Coordinates (Angstroms)
 Number     Number       Type             X           Y           Z
 ---------------------------------------------------------------------
      1          8           0        3.469870   -2.764593   -0.507709
      2          7           0        2.385790   -2.459813   -0.040489
      3          7           0        2.287910   -1.182983    0.430241
      4          6           0        3.387620   -0.226383    0.341611
      5          6           0        1.003480   -0.740362    0.889051
      6          6           0        3.327750    0.524787   -0.986169
      7          1           0        4.322170   -0.795673    0.421141
      8          1           0        3.288990    0.470957    1.180301
      9         17           0        4.657731    1.727977   -1.057799
     10          1           0        3.456390   -0.156193   -1.835019
     11          1           0        2.380881    1.067717   -1.085049
     12          7           0        0.037510   -1.688942    0.876951
     13          8           0        0.859280    0.421068    1.253581
     14          6           0       -1.368090   -1.323622    1.013201
     15          1           0        0.278260   -2.556082    0.400341
     16         15           0       -1.839180   -0.058982   -0.270629
     17          6           0       -1.766980   -0.934542    2.435881
     18          1           0       -1.938470   -2.213872    0.710521
     19          8           0       -3.328610   -0.604421   -0.559399
     20          8           0       -2.156549    1.338728    0.459731
     21          8           0       -0.904390    0.015678   -1.422429
     22          6           0       -4.169990    0.133199   -1.488489
     23          6           0       -1.282949    2.494958    0.297661
     24          6           0       -5.433000   -0.667201   -1.715469
     25          1           0       -3.612040    0.282009   -2.426169
     26          1           0       -4.390409    1.119239   -1.049979
     27          6           0       -1.026629    3.117808    1.651251
     28          1           0       -1.807949    3.190218   -0.375139
     29          1           0       -0.350839    2.175858   -0.186509
     30          1           0       -6.095150   -0.128661   -2.408609
     31          1           0       -5.200890   -1.648591   -2.150989
     32          1           0       -5.973110   -0.821881   -0.771239
     33          1           0       -0.432359    4.035118    1.526541
     34          1           0       -1.969819    3.383768    2.148701
     35          1           0       -0.462149    2.426818    2.290111
     36          1           0       -2.841920   -0.714261    2.477701
     37          1           0       -1.218250   -0.044742    2.763891
     38          1           0       -1.549620   -1.764002    3.123211
 ---------------------------------------------------------------------

 SCF Done:  E(RHF) =  -1690.25810174     A.U. after    2 cycles

 The electronic state is 1-A.
 Alpha  occ. eigenvalues -- -103.65228 -81.40930 -20.64609 -20.60178 -20.59773
 Alpha  occ. eigenvalues --  -20.56960 -20.52413 -15.83474 -15.72911 -15.67737
 Alpha  occ. eigenvalues --  -11.43438 -11.31257 -11.31132 -11.30938 -11.30366
 Alpha  occ. eigenvalues --  -11.30116 -11.24689 -11.24358 -11.22990 -10.68514
 Alpha  occ. eigenvalues --   -8.34238  -8.33949  -8.33938  -7.89210  -5.03871
 Alpha  occ. eigenvalues --   -5.03794  -5.03503  -1.49769  -1.39513  -1.36614
 Alpha  occ. eigenvalues --   -1.33275  -1.27085  -1.25133  -1.22648  -1.16732
 Alpha  occ. eigenvalues --   -1.05600  -1.03749  -1.02463  -1.01847  -0.94510
 Alpha  occ. eigenvalues --   -0.90034  -0.87792  -0.85665  -0.84935  -0.80306
 Alpha  occ. eigenvalues --   -0.79190  -0.77027  -0.73193  -0.71976  -0.70208
 Alpha  occ. eigenvalues --   -0.69016  -0.68084  -0.67832  -0.65614  -0.65457
 Alpha  occ. eigenvalues --   -0.64593  -0.63577  -0.62929  -0.61465  -0.61143
 Alpha  occ. eigenvalues --   -0.58925  -0.58761  -0.57030  -0.56403  -0.55666
 Alpha  occ. eigenvalues --   -0.55540  -0.55242  -0.54816  -0.54370  -0.53756
 Alpha  occ. eigenvalues --   -0.52233  -0.51661  -0.50134  -0.49533  -0.48964
 Alpha  occ. eigenvalues --   -0.47907  -0.47394  -0.46764  -0.46447  -0.45478
 Alpha  occ. eigenvalues --   -0.44728  -0.43530  -0.40849
 Alpha virt. eigenvalues --    0.02677   0.03531   0.03771   0.04401   0.04589
 Alpha virt. eigenvalues --    0.05183   0.05547   0.05878   0.05937   0.06568
 Alpha virt. eigenvalues --    0.06955   0.07180   0.07631   0.07893   0.08597

 Mulliken charges:
               1
     1  O   -0.501292
     2  N    0.131280
     3  N   -0.213077
     4  C    0.837804
     5  C    0.380593
     6  C    0.052680
     7  H   -0.133423
     8  H   -0.207011
     9  Cl  -0.139542
    10  H    0.048638
    11  H   -0.015679
    12  N   -0.407531
    13  O   -0.354070
    14  C    0.245878
    15  H   -0.015785
    16  P    2.784688
    17  C    0.588633
    18  H   -0.336014
    19  O   -1.063520
    20  O   -1.073221
    21  O   -1.057179
    22  C    0.555678
    23  C    0.790971
    24  C    0.322577
    25  H   -0.143505
    26  H   -0.160003
    27  C    0.310828
    28  H   -0.259828
    29  H   -0.265469
    30  H   -0.028083
    31  H   -0.058371
    32  H   -0.052344
    33  H   -0.043153
    34  H   -0.086563
    35  H   -0.073222
    36  H   -0.115447
    37  H   -0.177371
    38  H   -0.069544
 Sum of Mulliken charges =  -0.00000

 Dipole moment (field-independent basis, Debye):
    X=             -4.8024    Y=             -0.7296    Z=              1.8918  Tot=              5.2129

 Test job not archived.
 1\1\GINC-SE453\SP\RHF\Aug-CC-pVDZ\C9H19Cl1N3O5P1\OHZDE\08-Apr-2025\0\\
 #t hf aug-cc-pvdz iop(5/13=1,5/36=2,99/5=2) pseudo=read geom=check gue
 ss=(read,tcheck) scf=(maxcycle=1)\\title\\0,1\O,0,3.46987,-2.76459,-0.
 50771\N,0,2.38579,-2.45981,-0.04049\N,0,2.28791,-1.18298,0.43024\C,0,3
 .38762,-0.22638,0.34161\C,0,1.00348,-0.74036,0.88905\C,0,3.32775,0.524
 79,-0.98617\H,0,4.32217,-0.79567,0.42114\H,0,3.28899,0.47096,1.1803\Cl
 ,0,4.65773,1.72798,-1.0578\H,0,3.45639,-0.15619,-1.83502\H,0,2.38088,1
 .06772,-1.08505\N,0,0.03751,-1.68894,0.87695\O,0,0.85928,0.42107,1.253

 Normal termination of Gaussian 16 at Tue Apr  8 17:16:14 2025.
