 Gaussian 16, Revision C.01,

 ----------------------------------------------------------------------
 #t hf aug-cc-pvdz symm=none int=(grid=ultrafine) guess=(read,tcheck) s
 table=(opt,rrhf)
 ----------------------------------------------------------------------
 -----
 title
 -----
 Symbolic Z-matrix:
 Charge =  0 Multiplicity = 1

 SCF Done:  E(RHF) =  -1689.89551113     A.U. after   17 cycles
 Normal termination of Gaussian 16 at Tue Apr  8 17:15:06 2025.
 Gaussian 16:  ES64L-G16RevC.01  3-Jul-2019

 ----------------------------------------------------------------------
 #t hf aug-cc-pvdz iop(5/13=1,5/36=2,99/5=2) pseudo=read geom=check gue
 ss=(read,tcheck) scf=(maxcycle=1)
 ----------------------------------------------------------------------
 -----
 title
 -----
 Structure from the checkpoint file:  "37Conf8_Fotemustin_4_mol1.chk"
 Charge =  0 Multiplicity = 1

                         Standard orientation:
 ---------------------------------------------------------------------
 Center     Atomic      Atomic             Coordinates (Angstroms)
 Number     Number       Type             X           Y           Z
 ---------------------------------------------------------------------
      1          8           0       -2.668410   -1.443940   -2.266519
      2          7           0       -1.859600   -1.160390   -1.391679
      3          7           0       -2.393790   -0.903140   -0.174399
      4          6           0       -3.829800   -0.961530    0.071901
      5          6           0       -1.483730   -0.602130    0.911391
      6          6           0       -4.593720    0.209840   -0.533089
      7          1           0       -4.211880   -1.889730   -0.382339
      8          1           0       -3.950140   -0.995060    1.160431
      9         17           0       -4.045160    1.788530    0.125541
     10          1           0       -4.469280    0.254090   -1.619379
     11          1           0       -5.659130    0.109440   -0.292229
     12          7           0       -0.188790   -0.513669    0.525921
     13          8           0       -1.910710   -0.470800    2.047861
     14          6           0        0.838950   -0.075189    1.467221
     15          1           0       -0.012840   -0.486269   -0.476139
     16         15           0        2.377530    0.426891    0.598621
     17          6           0        1.169410   -1.120859    2.537381
     18          1           0        0.495260    0.847691    1.966561
     19          8           0        1.753560    1.123371   -0.717629
     20          8           0        3.115840   -0.908649    0.075651
     21          8           0        3.297690    1.231281    1.429021
     22          6           0        2.634380    1.929981   -1.560739
     23          6           0        2.515100   -1.821199   -0.878719
     24          6           0        2.572829    3.386991   -1.154989
     25          1           0        2.269290    1.772981   -2.585279
     26          1           0        3.661410    1.538541   -1.492339
     27          6           0        3.600260   -2.738329   -1.398719
     28          1           0        2.056100   -1.242879   -1.697199
     29          1           0        1.720370   -2.394409   -0.373999
     30          1           0        3.195799    3.987571   -1.834369
     31          1           0        1.541459    3.761651   -1.209169
     32          1           0        2.946789    3.513731   -0.130839
     33          1           0        3.171820   -3.453409   -2.115589
     34          1           0        4.386210   -2.163179   -1.906589
     35          1           0        4.059330   -3.302589   -0.575899
     36          1           0        1.521060   -2.055739    2.080761
     37          1           0        0.274000   -1.327629    3.135741
     38          1           0        1.958600   -0.738339    3.198591
 ---------------------------------------------------------------------

 SCF Done:  E(RHF) =  -1690.25053496     A.U. after    2 cycles

 The electronic state is 1-A.
 Alpha  occ. eigenvalues -- -103.65710 -81.41399 -20.64526 -20.61230 -20.60815
 Alpha  occ. eigenvalues --  -20.56755 -20.52164 -15.83616 -15.73268 -15.67675
 Alpha  occ. eigenvalues --  -11.43378 -11.32345 -11.31992 -11.31980 -11.31273
 Alpha  occ. eigenvalues --  -11.30791 -11.24943 -11.24289 -11.23842 -10.69002
 Alpha  occ. eigenvalues --   -8.34725  -8.34441  -8.34424  -7.89722  -5.04368
 Alpha  occ. eigenvalues --   -5.04314  -5.04045  -1.49725  -1.39202  -1.37567
 Alpha  occ. eigenvalues --   -1.34344  -1.27300  -1.25125  -1.22725  -1.17228
 Alpha  occ. eigenvalues --   -1.05831  -1.04247  -1.03279  -1.02791  -0.95142
 Alpha  occ. eigenvalues --   -0.90819  -0.88061  -0.87162  -0.84636  -0.80654
 Alpha  occ. eigenvalues --   -0.79628  -0.77914  -0.73508  -0.72561  -0.70780
 Alpha  occ. eigenvalues --   -0.70056  -0.68839  -0.67846  -0.66599  -0.65513
 Alpha  occ. eigenvalues --   -0.64215  -0.63868  -0.62866  -0.62000  -0.61043
 Alpha  occ. eigenvalues --   -0.60575  -0.60290  -0.58523  -0.57065  -0.56373
 Alpha  occ. eigenvalues --   -0.55805  -0.55536  -0.54866  -0.53953  -0.53463
 Alpha  occ. eigenvalues --   -0.53182  -0.51563  -0.51043  -0.49997  -0.49564
 Alpha  occ. eigenvalues --   -0.49044  -0.47464  -0.46612  -0.46378  -0.45678
 Alpha  occ. eigenvalues --   -0.45106  -0.43751  -0.41766
 Alpha virt. eigenvalues --    0.02712   0.03055   0.03525   0.04272   0.04862
 Alpha virt. eigenvalues --    0.05019   0.05545   0.05816   0.06151   0.06355
 Alpha virt. eigenvalues --    0.06775   0.07214   0.07319   0.07898   0.08080

 Mulliken charges:
               1
     1  O   -0.533211
     2  N    0.245144
     3  N   -0.002373
     4  C    0.738124
     5  C    0.133801
     6  C    0.038652
     7  H   -0.049457
     8  H   -0.230725
     9  Cl  -0.118921
    10  H   -0.011505
    11  H    0.063459
    12  N   -0.078240
    13  O   -0.467174
    14  C   -0.254407
    15  H    0.052608
    16  P    2.525267
    17  C    0.668352
    18  H   -0.258012
    19  O   -0.971904
    20  O   -1.046294
    21  O   -1.008627
    22  C    0.598782
    23  C    0.714624
    24  C    0.275743
    25  H   -0.309119
    26  H   -0.052966
    27  C    0.253150
    28  H   -0.220619
    29  H   -0.260497
    30  H   -0.033096
    31  H   -0.069417
    32  H   -0.064276
    33  H    0.013707
    34  H   -0.017759
    35  H   -0.017380
    36  H   -0.117260
    37  H   -0.078552
    38  H   -0.049625
 Sum of Mulliken charges =  -0.00000

 Dipole moment (field-independent basis, Debye):
    X=             -1.0976    Y=             -2.9731    Z=             -4.1144  Tot=              5.1934

 Test job not archived.
 1\1\GINC-SE368\SP\RHF\Aug-CC-pVDZ\C9H19Cl1N3O5P1\OHZDE\08-Apr-2025\0\\
 #t hf aug-cc-pvdz iop(5/13=1,5/36=2,99/5=2) pseudo=read geom=check gue
 ss=(read,tcheck) scf=(maxcycle=1)\\title\\0,1\O,0,-2.66841,-1.44394,-2
 .26652\N,0,-1.8596,-1.16039,-1.39168\N,0,-2.39379,-0.90314,-0.1744\C,0
 ,-3.8298,-0.96153,0.0719\C,0,-1.48373,-0.60213,0.91139\C,0,-4.59372,0.
 20984,-0.53309\H,0,-4.21188,-1.88973,-0.38234\H,0,-3.95014,-0.99506,1.
 16043\Cl,0,-4.04516,1.78853,0.12554\H,0,-4.46928,0.25409,-1.61938\H,0,
 -5.65913,0.10944,-0.29223\N,0,-0.18879,-0.51367,0.52592\O,0,-1.91071,-

 Normal termination of Gaussian 16 at Tue Apr  8 17:16:11 2025.
