 Gaussian 16, Revision C.01,

 ----------------------------------------------------------------------
 #t hf aug-cc-pvdz symm=none int=(grid=ultrafine) guess=(read,tcheck) s
 table=(opt,rrhf)
 ----------------------------------------------------------------------
 -----
 title
 -----
 Symbolic Z-matrix:
 Charge =  0 Multiplicity = 1

 SCF Done:  E(RHF) =  -1112.30643669     A.U. after   16 cycles
 Normal termination of Gaussian 16 at Tue Apr  8 17:10:09 2025.
 Gaussian 16:  ES64L-G16RevC.01  3-Jul-2019

 ----------------------------------------------------------------------
 #t hf aug-cc-pvdz iop(5/13=1,5/36=2,99/5=2) pseudo=read geom=check gue
 ss=(read,tcheck) scf=(maxcycle=1)
 ----------------------------------------------------------------------
 -----
 title
 -----
 Structure from the checkpoint file:  "37Conf8_Cimetidine_2_mol1.chk"
 Charge =  0 Multiplicity = 1

                         Standard orientation:
 ---------------------------------------------------------------------
 Center     Atomic      Atomic             Coordinates (Angstroms)
 Number     Number       Type             X           Y           Z
 ---------------------------------------------------------------------
      1          7           0       -0.642086    3.190482    0.445510
      2          6           0       -1.442947    2.326493    0.385340
      3          7           0       -2.389388    1.419034    0.359290
      4          6           0       -2.134919    0.218503   -0.151560
      5          7           0       -0.909500   -0.176778   -0.567410
      6          7           0       -3.178870   -0.640885   -0.298990
      7          6           0       -0.553371   -1.419618   -1.220550
      8          1           0       -0.129879    0.418061   -0.285810
      9          6           0       -4.516900   -0.303324    0.157120
     10          1           0       -2.956472   -1.621586   -0.415030
     11          6           0       -0.208523   -2.597429   -0.291680
     12          1           0        0.316869   -1.199119   -1.854650
     13          1           0       -1.369162   -1.719708   -1.899720
     14         16           0        0.941828   -2.259610    1.076170
     15          1           0       -1.102433   -2.977428    0.229540
     16          1           0        0.179436   -3.422049   -0.910720
     17          6           0        2.420938   -1.561802    0.227670
     18          6           0        2.267760   -0.158432   -0.256630
     19          1           0        3.204028   -1.653353    0.995300
     20          1           0        2.703408   -2.212582   -0.611370
     21          7           0        2.300980    0.139038   -1.609360
     22          6           0        2.000111    0.986229    0.482970
     23          6           0        2.051392    1.437059   -1.691950
     24          7           0        1.878613    1.993249   -0.456690
     25          6           0        1.855302    1.229319    1.944340
     26          1           0        1.976063    2.013519   -2.609460
     27          1           0        1.416044    2.884079   -0.253390
     28          1           0        1.588671    0.295549    2.455850
     29          1           0        2.789232    1.610098    2.388450
     30          1           0        1.063733    1.967550    2.139290
     31          1           0       -4.593890   -0.295434    1.256000
     32          1           0       -4.786109    0.694356   -0.208060
     33          1           0       -5.220081   -1.039143   -0.251870
 ---------------------------------------------------------------------

 SCF Done:  E(RHF) =  -1112.53439289     A.U. after    2 cycles

 The electronic state is 1-A.
 Alpha  occ. eigenvalues --  -93.53499 -15.67763 -15.67526 -15.66861 -15.62487
 Alpha  occ. eigenvalues --  -15.61602 -15.60410 -11.41347 -11.30992 -11.30852
 Alpha  occ. eigenvalues --  -11.30158 -11.28968 -11.28828 -11.27941 -11.27666
 Alpha  occ. eigenvalues --  -11.26063 -11.23926  -8.83216  -6.17397  -6.17167
 Alpha  occ. eigenvalues --   -6.16871  -1.31856  -1.30484  -1.20642  -1.20013
 Alpha  occ. eigenvalues --   -1.13684  -1.13091  -1.07917  -1.04517  -0.99685
 Alpha  occ. eigenvalues --   -0.96846  -0.93420  -0.90420  -0.86462  -0.81961
 Alpha  occ. eigenvalues --   -0.81197  -0.77907  -0.74687  -0.72525  -0.71915
 Alpha  occ. eigenvalues --   -0.68063  -0.66077  -0.64123  -0.63077  -0.61841
 Alpha  occ. eigenvalues --   -0.61330  -0.60118  -0.57918  -0.57618  -0.57160
 Alpha  occ. eigenvalues --   -0.56464  -0.55962  -0.55541  -0.54932  -0.54560
 Alpha  occ. eigenvalues --   -0.53600  -0.51541  -0.49819  -0.48397  -0.44075
 Alpha  occ. eigenvalues --   -0.43406  -0.40770  -0.39788  -0.38193  -0.35159
 Alpha  occ. eigenvalues --   -0.35110  -0.30511
 Alpha virt. eigenvalues --    0.01868   0.03083   0.03509   0.04042   0.04954
 Alpha virt. eigenvalues --    0.05212   0.05552   0.06385   0.06822   0.07315
 Alpha virt. eigenvalues --    0.07756   0.07995   0.08600   0.09210   0.09398

 Mulliken charges:
               1
     1  N   -0.115362
     2  C   -0.662876
     3  N   -0.094798
     4  C    0.400241
     5  N    0.202362
     6  N   -0.416871
     7  C    0.781841
     8  H   -0.010376
     9  C    0.822441
    10  H   -0.074421
    11  C    0.084765
    12  H   -0.233310
    13  H   -0.292192
    14  S    0.600901
    15  H   -0.133173
    16  H   -0.093788
    17  C    0.443542
    18  C    0.091183
    19  H   -0.031760
    20  H   -0.198251
    21  N   -0.813355
    22  C   -0.895523
    23  C    0.765813
    24  N   -0.282463
    25  C    0.791196
    26  H   -0.384167
    27  H   -0.021527
    28  H    0.085748
    29  H    0.088671
    30  H   -0.014525
    31  H   -0.068892
    32  H   -0.094224
    33  H   -0.226850
 Sum of Mulliken charges =   0.00000

 Dipole moment (field-independent basis, Debye):
    X=             -2.1728    Y=             -4.2872    Z=             -1.2360  Tot=              4.9627

 Test job not archived.
 1\1\GINC-SE073\SP\RHF\Aug-CC-pVDZ\C10H16N6S1\OHZDE\08-Apr-2025\0\\#t h
 f aug-cc-pvdz iop(5/13=1,5/36=2,99/5=2) pseudo=read geom=check guess=(
 read,tcheck) scf=(maxcycle=1)\\title\\0,1\N,0,0.64209,3.19048,-0.44551
 \C,0,1.44295,2.32649,-0.38534\N,0,2.38939,1.41903,-0.35929\C,0,2.13492
 ,0.2185,0.15156\N,0,0.9095,-0.17678,0.56741\N,0,3.17887,-0.64089,0.298
 99\C,0,0.55337,-1.41962,1.22055\H,0,0.12988,0.41806,0.28581\C,0,4.5169
 ,-0.30333,-0.15712\H,0,2.95647,-1.62159,0.41503\C,0,0.20852,-2.59743,0
 .29168\H,0,-0.31687,-1.19912,1.85465\H,0,1.36916,-1.71971,1.89972\S,0,

 Normal termination of Gaussian 16 at Tue Apr  8 17:11:05 2025.
