 Gaussian 16, Revision C.01,

 ----------------------------------------------------------------------
 #t hf aug-cc-pvdz symm=none int=(grid=ultrafine) guess=(read,tcheck) s
 table=(opt,rrhf)
 ----------------------------------------------------------------------
 -----
 title
 -----
 Symbolic Z-matrix:
 Charge =  0 Multiplicity = 1

 SCF Done:  E(RHF) =  -1009.03981966     A.U. after   15 cycles
 Normal termination of Gaussian 16 at Tue Apr  8 17:11:54 2025.
 Gaussian 16:  ES64L-G16RevC.01  3-Jul-2019

 ----------------------------------------------------------------------
 #t hf aug-cc-pvdz iop(5/13=1,5/36=2,99/5=2) pseudo=read geom=check gue
 ss=(read,tcheck) scf=(maxcycle=1)
 ----------------------------------------------------------------------
 -----
 title
 -----
 Structure from the checkpoint file:  "37Conf8_Gemcitabine_2_mol1.chk"
 Charge =  0 Multiplicity = 1

                         Standard orientation:
 ---------------------------------------------------------------------
 Center     Atomic      Atomic             Coordinates (Angstroms)
 Number     Number       Type             X           Y           Z
 ---------------------------------------------------------------------
      1          1           0       -1.984629    2.635711    0.132699
      2          8           0       -2.944179    2.470351    0.153369
      3          6           0       -3.227769    1.637171   -0.964731
      4          6           0       -2.442659    0.339091   -0.935761
      5          1           0       -3.024339    2.157171   -1.919031
      6          1           0       -4.302209    1.405402   -0.925871
      7          1           0       -2.716799   -0.290079   -1.803131
      8          8           0       -1.036789    0.674151   -1.004621
      9          6           0       -2.634979   -0.521839    0.332569
     10          6           0       -0.327959   -0.430189   -0.436021
     11          1           0       -3.161939    0.040471    1.122689
     12          8           0       -3.311240   -1.706759   -0.040921
     13          6           0       -1.181310   -0.771939    0.800309
     14          1           0       -0.311890   -1.310519   -1.102831
     15          7           0        1.047071   -0.083500   -0.211281
     16          1           0       -3.323100   -2.303919    0.728209
     17          9           0       -0.978880   -2.046819    1.247059
     18          9           0       -0.886219    0.071231    1.853389
     19          6           0        2.066550   -0.971980   -0.767171
     20          6           0        1.388501    1.066610    0.432349
     21          8           0        1.702850   -1.971360   -1.372841
     22          7           0        3.364150   -0.615360   -0.554581
     23          1           0        0.564161    1.687480    0.775799
     24          6           0        2.692081    1.407380    0.615179
     25          6           0        3.670511    0.497669    0.094609
     26          1           0        2.962141    2.331370    1.122169
     27          7           0        4.991411    0.779419    0.238039
     28          1           0        5.657431    0.081879   -0.074271
     29          1           0        5.305701    1.538509    0.826419
 ---------------------------------------------------------------------

 SCF Done:  E(RHF) =  -1009.35018746     A.U. after    2 cycles

 The electronic state is 1-A.
 Alpha  occ. eigenvalues --  -26.15835 -26.15815 -20.61765 -20.60892 -20.59274
 Alpha  occ. eigenvalues --  -20.53071 -15.69833 -15.66889 -15.61246 -11.44463
 Alpha  occ. eigenvalues --  -11.39809 -11.37406 -11.36706 -11.34311 -11.33276
 Alpha  occ. eigenvalues --  -11.32489 -11.31115 -11.25999  -1.71802  -1.67381
 Alpha  occ. eigenvalues --   -1.39743  -1.35969  -1.35334  -1.33680  -1.27640
 Alpha  occ. eigenvalues --   -1.24380  -1.15181  -1.08796  -1.07437  -1.03686
 Alpha  occ. eigenvalues --   -0.94933  -0.92318  -0.89840  -0.87345  -0.85676
 Alpha  occ. eigenvalues --   -0.83541  -0.81594  -0.79100  -0.77078  -0.75839
 Alpha  occ. eigenvalues --   -0.75161  -0.73780  -0.72824  -0.71595  -0.70651
 Alpha  occ. eigenvalues --   -0.69748  -0.69320  -0.67740  -0.65766  -0.64204
 Alpha  occ. eigenvalues --   -0.63682  -0.62247  -0.61385  -0.60926  -0.60128
 Alpha  occ. eigenvalues --   -0.59437  -0.57420  -0.54368  -0.54117  -0.53131
 Alpha  occ. eigenvalues --   -0.50926  -0.48875  -0.47916  -0.47512  -0.45695
 Alpha  occ. eigenvalues --   -0.42517  -0.38595  -0.35177
 Alpha virt. eigenvalues --    0.01964   0.03181   0.03808   0.04184   0.05297
 Alpha virt. eigenvalues --    0.05526   0.06433   0.06820   0.07263   0.07672
 Alpha virt. eigenvalues --    0.07952   0.08556   0.09362   0.10377   0.10848

 Mulliken charges:
               1
     1  H    0.200545
     2  O   -0.579520
     3  C    1.005176
     4  C    0.625984
     5  H   -0.058474
     6  H   -0.115339
     7  H   -0.116426
     8  O   -0.886634
     9  C    0.436759
    10  C    0.576108
    11  H   -0.053395
    12  O   -0.625691
    13  C    0.334478
    14  H   -0.236005
    15  N   -0.417903
    16  H    0.169126
    17  F   -0.337600
    18  F   -0.433153
    19  C    0.661562
    20  C    0.406279
    21  O   -0.524902
    22  N   -0.582875
    23  H   -0.454353
    24  C    1.253815
    25  C    0.531898
    26  H   -0.536948
    27  N   -0.220851
    28  H   -0.003824
    29  H   -0.017836
 Sum of Mulliken charges =  -0.00000

 Dipole moment (field-independent basis, Debye):
    X=              0.5081    Y=              4.8533    Z=              2.3900  Tot=              5.4337

 Test job not archived.
 1\1\GINC-SE225\SP\RHF\Aug-CC-pVDZ\C9H11F2N3O4\OHZDE\08-Apr-2025\0\\#t
 hf aug-cc-pvdz iop(5/13=1,5/36=2,99/5=2) pseudo=read geom=check guess=
 (read,tcheck) scf=(maxcycle=1)\\title\\0,1\H,0,-1.98463,2.63571,0.1327
 \O,0,-2.94418,2.47035,0.15337\C,0,-3.22777,1.63717,-0.96473\C,0,-2.442
 66,0.33909,-0.93576\H,0,-3.02434,2.15717,-1.91903\H,0,-4.30221,1.4054,
 -0.92587\H,0,-2.7168,-0.29008,-1.80313\O,0,-1.03679,0.67415,-1.00462\C
 ,0,-2.63498,-0.52184,0.33257\C,0,-0.32796,-0.43019,-0.43602\H,0,-3.161
 94,0.04047,1.12269\O,0,-3.31124,-1.70676,-0.04092\C,0,-1.18131,-0.7719

 Normal termination of Gaussian 16 at Tue Apr  8 17:12:35 2025.
