 Gaussian 16, Revision C.01,

 ----------------------------------------------------------------------
 #t hf aug-cc-pvdz symm=none int=(grid=ultrafine) guess=(read,tcheck) s
 table=(opt,rrhf)
 ----------------------------------------------------------------------
 -----
 title
 -----
 Symbolic Z-matrix:
 Charge =  0 Multiplicity = 1

 SCF Done:  E(RHF) =  -1112.30013951     A.U. after   16 cycles
 Normal termination of Gaussian 16 at Tue Apr  8 17:13:28 2025.
 Gaussian 16:  ES64L-G16RevC.01  3-Jul-2019

 ----------------------------------------------------------------------
 #t hf aug-cc-pvdz iop(5/13=1,5/36=2,99/5=2) pseudo=read geom=check gue
 ss=(read,tcheck) scf=(maxcycle=1)
 ----------------------------------------------------------------------
 -----
 title
 -----
 Structure from the checkpoint file:  "37Conf8_Cimetidine_6_mol1.chk"
 Charge =  0 Multiplicity = 1

                         Standard orientation:
 ---------------------------------------------------------------------
 Center     Atomic      Atomic             Coordinates (Angstroms)
 Number     Number       Type             X           Y           Z
 ---------------------------------------------------------------------
      1          7           0       -0.340216    2.945079   -1.067090
      2          6           0       -1.071334    2.123628   -0.643040
      3          7           0       -1.905043    1.322807   -0.021840
      4          6           0       -2.220091    0.104166   -0.408640
      5          7           0       -1.639990   -0.616623   -1.414250
      6          7           0       -3.288160   -0.496426    0.198530
      7          6           0       -0.210590   -0.642221   -1.706390
      8          1           0       -2.146228   -1.461544   -1.670050
      9          6           0       -4.052581    0.192333    1.225690
     10          1           0       -3.216268   -1.504896    0.294130
     11          6           0        0.430933   -1.971460   -1.295940
     12          1           0       -0.053900   -0.483140   -2.786290
     13          1           0        0.268729    0.192500   -1.186160
     14         16           0        0.290653   -2.366720    0.479240
     15          1           0       -0.046256   -2.806550   -1.833500
     16          1           0        1.495393   -1.958568   -1.571130
     17          6           0        1.892192   -1.673047    1.115560
     18          6           0        2.197770   -0.321447    0.589380
     19          1           0        2.692813   -2.373566    0.846200
     20          1           0        1.766032   -1.684827    2.206850
     21          7           0        2.944610   -0.169585   -0.569540
     22          6           0        1.709858    0.903753    1.016940
     23          6           0        2.899627    1.122205   -0.847060
     24          7           0        2.183316    1.811373    0.090690
     25          6           0        0.860397    1.287371    2.176340
     26          1           0        3.363397    1.609525   -1.699830
     27          1           0        1.802815    2.748523   -0.037950
     28          1           0       -0.119003    1.675490    1.857800
     29          1           0        1.344446    2.056742    2.797790
     30          1           0        0.676409    0.409531    2.808790
     31          1           0       -4.345303    1.182602    0.858530
     32          1           0       -4.955560   -0.393069    1.439580
     33          1           0       -3.476681    0.330694    2.154850
 ---------------------------------------------------------------------

 SCF Done:  E(RHF) =  -1112.52787365     A.U. after    2 cycles

 The electronic state is 1-A.
 Alpha  occ. eigenvalues --  -93.52868 -15.67388 -15.67301 -15.67055 -15.63219
 Alpha  occ. eigenvalues --  -15.60867 -15.60460 -11.41663 -11.30821 -11.30397
 Alpha  occ. eigenvalues --  -11.29100 -11.28659 -11.27474 -11.27439 -11.27283
 Alpha  occ. eigenvalues --  -11.25369 -11.24188  -8.82584  -6.16767  -6.16553
 Alpha  occ. eigenvalues --   -6.16263  -1.31639  -1.29888  -1.20457  -1.20021
 Alpha  occ. eigenvalues --   -1.13294  -1.12943  -1.07408  -1.03983  -0.99725
 Alpha  occ. eigenvalues --   -0.95990  -0.92353  -0.88891  -0.87679  -0.81511
 Alpha  occ. eigenvalues --   -0.80459  -0.77602  -0.74330  -0.72993  -0.71483
 Alpha  occ. eigenvalues --   -0.66963  -0.66232  -0.64056  -0.63245  -0.61851
 Alpha  occ. eigenvalues --   -0.60348  -0.58508  -0.57720  -0.56765  -0.56388
 Alpha  occ. eigenvalues --   -0.56138  -0.55447  -0.54940  -0.54780  -0.54182
 Alpha  occ. eigenvalues --   -0.53263  -0.51763  -0.48993  -0.47862  -0.44197
 Alpha  occ. eigenvalues --   -0.42441  -0.40699  -0.39127  -0.38425  -0.35504
 Alpha  occ. eigenvalues --   -0.34567  -0.29804
 Alpha virt. eigenvalues --    0.02091   0.02835   0.03746   0.04065   0.04962
 Alpha virt. eigenvalues --    0.05017   0.05663   0.06040   0.06663   0.07431
 Alpha virt. eigenvalues --    0.07615   0.07892   0.08967   0.09407   0.09683

 Mulliken charges:
               1
     1  N   -0.190041
     2  C   -0.608227
     3  N    0.010139
     4  C    0.680663
     5  N   -0.554755
     6  N   -0.359447
     7  C    1.250309
     8  H   -0.060320
     9  C    0.861863
    10  H   -0.060345
    11  C    0.327495
    12  H   -0.127757
    13  H   -0.557489
    14  S    0.496585
    15  H   -0.208348
    16  H   -0.072745
    17  C    0.372909
    18  C   -0.031534
    19  H   -0.156413
    20  H   -0.006421
    21  N   -0.841136
    22  C   -0.299445
    23  C    0.782621
    24  N   -0.358177
    25  C    0.625304
    26  H   -0.384137
    27  H   -0.037871
    28  H   -0.022382
    29  H   -0.000161
    30  H   -0.028952
    31  H   -0.116660
    32  H   -0.240657
    33  H   -0.084470
 Sum of Mulliken charges =  -0.00000

 Dipole moment (field-independent basis, Debye):
    X=             -3.2408    Y=             -3.1549    Z=              1.0599  Tot=              4.6454

 Test job not archived.
 1\1\GINC-SE367\SP\RHF\Aug-CC-pVDZ\C10H16N6S1\OHZDE\08-Apr-2025\0\\#t h
 f aug-cc-pvdz iop(5/13=1,5/36=2,99/5=2) pseudo=read geom=check guess=(
 read,tcheck) scf=(maxcycle=1)\\title\\0,1\N,0,-0.34021,2.94508,-1.0670
 9\C,0,-1.07133,2.12363,-0.64304\N,0,-1.90504,1.32281,-0.02184\C,0,-2.2
 2009,0.10417,-0.40864\N,0,-1.63999,-0.61662,-1.41425\N,0,-3.28816,-0.4
 9642,0.19853\C,0,-0.21059,-0.64222,-1.70639\H,0,-2.14623,-1.46154,-1.6
 7005\C,0,-4.05258,0.19234,1.22569\H,0,-3.21627,-1.50489,0.29413\C,0,0.
 43093,-1.97146,-1.29594\H,0,-0.0539,-0.48314,-2.78629\H,0,0.26873,0.19

 Normal termination of Gaussian 16 at Tue Apr  8 17:14:19 2025.
