 Gaussian 16, Revision C.01,

 ----------------------------------------------------------------------
 #t hf aug-cc-pvdz symm=none int=(grid=ultrafine) guess=(read,tcheck) s
 table=(opt,rrhf)
 ----------------------------------------------------------------------
 -----
 title
 -----
 Symbolic Z-matrix:
 Charge =  0 Multiplicity = 1

 SCF Done:  E(RHF) =  -1153.33337978     A.U. after   16 cycles
 Normal termination of Gaussian 16 at Tue Apr  8 17:34:30 2025.
 Gaussian 16:  ES64L-G16RevC.01  3-Jul-2019

 ----------------------------------------------------------------------
 #t hf aug-cc-pvdz iop(5/13=1,5/36=2,99/5=2) pseudo=read geom=check gue
 ss=(read,tcheck) scf=(maxcycle=1)
 ----------------------------------------------------------------------
 -----
 title
 -----
 Structure from the checkpoint file:  "37Conf8_Pyridoxalphosphate_2_mol2.chk"
 Charge =  0 Multiplicity = 1

                         Standard orientation:
 ---------------------------------------------------------------------
 Center     Atomic      Atomic             Coordinates (Angstroms)
 Number     Number       Type             X           Y           Z
 ---------------------------------------------------------------------
      1          1           0        2.483109    2.370330    0.046509
      2          8           0        3.204799    1.667021    0.196019
      3          6           0        2.583619    0.495300    0.038039
      4          6           0        1.204809    0.415930   -0.275151
      5          6           0        3.338669   -0.704159    0.185969
      6          6           0        0.453539    1.652840   -0.443001
      7          6           0        0.625750   -0.871610   -0.418581
      8          7           0        2.767460   -1.896199    0.039609
      9          6           0        4.796589   -0.627819    0.514599
     10          8           0        0.972619    2.774630   -0.299851
     11          1           0       -0.620521    1.589050   -0.711551
     12          6           0        1.451680   -1.972400   -0.249051
     13          6           0       -0.824380   -1.075510   -0.737251
     14          1           0        5.343159   -0.060929   -0.254541
     15          1           0        5.207030   -1.640629    0.587909
     16          1           0        4.957539   -0.093229    1.463279
     17          1           0        1.041700   -2.981950   -0.349831
     18          8           0       -1.635681   -0.699051    0.421409
     19          1           0       -1.140831   -0.478781   -1.607191
     20          1           0       -1.018940   -2.136411   -0.947811
     21         15           0       -3.034851    0.019719    0.138989
     22          8           0       -3.951860   -1.208201   -0.344561
     23          8           0       -3.557931    0.296659    1.628809
     24          8           0       -3.004871    1.193509   -0.764911
     25          1           0       -4.714640   -0.884162   -0.857361
     26          1           0       -3.385311    1.222359    1.879729
 ---------------------------------------------------------------------

 SCF Done:  E(RHF) =  -1153.65211016     A.U. after    2 cycles

 The electronic state is 1-A.
 Alpha  occ. eigenvalues --  -81.47052 -20.63960 -20.63757 -20.63055 -20.60658
 Alpha  occ. eigenvalues --  -20.60021 -20.55513 -15.65583 -11.37614 -11.34780
 Alpha  occ. eigenvalues --  -11.34430 -11.30566 -11.29177 -11.28706 -11.28042
 Alpha  occ. eigenvalues --  -11.24047  -7.94861  -5.09525  -5.09457  -5.09451
 Alpha  occ. eigenvalues --   -1.41278  -1.39490  -1.36746  -1.36700  -1.35991
 Alpha  occ. eigenvalues --   -1.28173  -1.24607  -1.12177  -1.06215  -1.01110
 Alpha  occ. eigenvalues --   -0.93554  -0.92998  -0.86320  -0.85392  -0.83138
 Alpha  occ. eigenvalues --   -0.77887  -0.75732  -0.75041  -0.72213  -0.70831
 Alpha  occ. eigenvalues --   -0.70494  -0.67765  -0.67530  -0.66954  -0.65030
 Alpha  occ. eigenvalues --   -0.63711  -0.63113  -0.61851  -0.60461  -0.59703
 Alpha  occ. eigenvalues --   -0.58272  -0.57966  -0.56754  -0.56143  -0.55251
 Alpha  occ. eigenvalues --   -0.54617  -0.52811  -0.51994  -0.51494  -0.50957
 Alpha  occ. eigenvalues --   -0.47713  -0.42637  -0.39801  -0.33260
 Alpha virt. eigenvalues --    0.02511   0.02780   0.03691   0.03860   0.04400
 Alpha virt. eigenvalues --    0.04894   0.06005   0.06526   0.06639   0.07928
 Alpha virt. eigenvalues --    0.08302   0.08574   0.09690   0.09952   0.10577

 Mulliken charges:
               1
     1  H    0.275641
     2  O   -0.680347
     3  C   -0.244451
     4  C   -0.298240
     5  C   -0.631244
     6  C    1.043860
     7  C    0.603710
     8  N   -0.615068
     9  C    0.904626
    10  O   -0.733778
    11  H   -0.426187
    12  C    0.749771
    13  C    1.090739
    14  H    0.114296
    15  H   -0.111920
    16  H    0.112468
    17  H   -0.425925
    18  O   -1.016742
    19  H    0.010933
    20  H   -0.350901
    21  P    2.577152
    22  O   -0.684964
    23  O   -0.696456
    24  O   -0.933469
    25  H    0.185794
    26  H    0.180701
 Sum of Mulliken charges =   0.00000

 Dipole moment (field-independent basis, Debye):
    X=             -2.5603    Y=             -2.0443    Z=             -0.6087  Tot=              3.3324

 Test job not archived.
 1\1\GINC-SE115\SP\RHF\Aug-CC-pVDZ\C8H10N1O6P1\OHZDE\08-Apr-2025\0\\#t
 hf aug-cc-pvdz iop(5/13=1,5/36=2,99/5=2) pseudo=read geom=check guess=
 (read,tcheck) scf=(maxcycle=1)\\title\\0,1\H,0,2.48311,2.37033,0.04651
 \O,0,3.2048,1.66702,0.19602\C,0,2.58362,0.4953,0.03804\C,0,1.20481,0.4
 1593,-0.27515\C,0,3.33867,-0.70416,0.18597\C,0,0.45354,1.65284,-0.443\
 C,0,0.62575,-0.87161,-0.41858\N,0,2.76746,-1.8962,0.03961\C,0,4.79659,
 -0.62782,0.5146\O,0,0.97262,2.77463,-0.29985\H,0,-0.62052,1.58905,-0.7
 1155\C,0,1.45168,-1.9724,-0.24905\C,0,-0.82438,-1.07551,-0.73725\H,0,5

 Normal termination of Gaussian 16 at Tue Apr  8 17:35:01 2025.
