 Gaussian 16, Revision C.01,

 ----------------------------------------------------------------------
 #t hf aug-cc-pvdz symm=none int=(grid=ultrafine) guess=(read,tcheck) s
 table=(opt,rrhf)
 ----------------------------------------------------------------------
 -----
 title
 -----
 Symbolic Z-matrix:
 Charge =  0 Multiplicity = 1

 SCF Done:  E(RHF) =  -1689.89144450     A.U. after   18 cycles
 Normal termination of Gaussian 16 at Tue Apr  8 17:21:59 2025.
 Gaussian 16:  ES64L-G16RevC.01  3-Jul-2019

 ----------------------------------------------------------------------
 #t hf aug-cc-pvdz iop(5/13=1,5/36=2,99/5=2) pseudo=read geom=check gue
 ss=(read,tcheck) scf=(maxcycle=1)
 ----------------------------------------------------------------------
 -----
 title
 -----
 Structure from the checkpoint file:  "37Conf8_Fotemustin_5_mol1.chk"
 Charge =  0 Multiplicity = 1

                         Standard orientation:
 ---------------------------------------------------------------------
 Center     Atomic      Atomic             Coordinates (Angstroms)
 Number     Number       Type             X           Y           Z
 ---------------------------------------------------------------------
      1          8           0        2.444039   -1.959720   -2.078280
      2          7           0        1.657009   -2.187710   -1.173890
      3          7           0        1.793489   -1.364870   -0.085970
      4          6           0        2.856969   -0.363990   -0.008210
      5          6           0        1.012269   -1.665840    1.082680
      6          6           0        2.449619    0.893440   -0.773190
      7          1           0        3.772589   -0.795050   -0.435440
      8          1           0        3.011849   -0.151860    1.055030
      9         17           0        3.602958    2.224860   -0.418510
     10          1           0        2.467579    0.727200   -1.855510
     11          1           0        1.452979    1.230730   -0.466760
     12          7           0       -0.252201   -2.127871    0.854740
     13          8           0        1.501919   -1.528640    2.195670
     14          6           0       -1.143091   -1.748831   -0.243000
     15          1           0       -0.723591   -2.354691    1.730690
     16         15           0       -1.978421   -0.171141    0.216000
     17          6           0       -2.154941   -2.851791   -0.533880
     18          1           0       -0.538701   -1.557331   -1.136310
     19          8           0       -2.477601    0.303159   -1.231990
     20          8           0       -0.773371    0.855219    0.557930
     21          8           0       -2.992431   -0.288041    1.295750
     22          6           0       -3.373491    1.450969   -1.343670
     23          6           0       -0.557171    1.317579    1.931400
     24          6           0       -2.608352    2.685109   -1.775300
     25          1           0       -4.123381    1.159219   -2.091680
     26          1           0       -3.888631    1.596929   -0.381960
     27          6           0       -0.053322    2.743169    1.885610
     28          1           0        0.177869    0.645619    2.399650
     29          1           0       -1.507471    1.232079    2.475660
     30          1           0       -2.092022    2.510169   -2.729050
     31          1           0       -3.305932    3.525039   -1.909410
     32          1           0       -1.861302    2.970309   -1.022910
     33          1           0        0.890458    2.822340    1.327480
     34          1           0       -0.793292    3.410249    1.421630
     35          1           0        0.131268    3.096269    2.910630
     36          1           0       -2.817411   -2.551031   -1.355720
     37          1           0       -1.626450   -3.770891   -0.820510
     38          1           0       -2.779841   -3.052341    0.347660
 ---------------------------------------------------------------------

 SCF Done:  E(RHF) =  -1690.24438886     A.U. after    2 cycles

 The electronic state is 1-A.
 Alpha  occ. eigenvalues -- -103.65920 -81.41781 -20.64590 -20.61363 -20.61198
 Alpha  occ. eigenvalues --  -20.57404 -20.53446 -15.83474 -15.72742 -15.68409
 Alpha  occ. eigenvalues --  -11.43943 -11.32103 -11.31761 -11.31462 -11.31186
 Alpha  occ. eigenvalues --  -11.30686 -11.25731 -11.24850 -11.24515 -10.69195
 Alpha  occ. eigenvalues --   -8.34918  -8.34631  -8.34625  -7.90126  -5.04775
 Alpha  occ. eigenvalues --   -5.04711  -5.04418  -1.49729  -1.39583  -1.37609
 Alpha  occ. eigenvalues --   -1.34560  -1.26847  -1.26004  -1.22974  -1.17317
 Alpha  occ. eigenvalues --   -1.05690  -1.04350  -1.03484  -1.03061  -0.94817
 Alpha  occ. eigenvalues --   -0.90603  -0.88803  -0.87243  -0.86222  -0.80376
 Alpha  occ. eigenvalues --   -0.78395  -0.76925  -0.73696  -0.72901  -0.71559
 Alpha  occ. eigenvalues --   -0.70376  -0.67990  -0.67621  -0.66860  -0.65650
 Alpha  occ. eigenvalues --   -0.65142  -0.64406  -0.62814  -0.62000  -0.61643
 Alpha  occ. eigenvalues --   -0.60344  -0.59483  -0.57978  -0.57590  -0.57228
 Alpha  occ. eigenvalues --   -0.56134  -0.56012  -0.55370  -0.55046  -0.54324
 Alpha  occ. eigenvalues --   -0.53538  -0.51629  -0.51229  -0.50616  -0.50006
 Alpha  occ. eigenvalues --   -0.49241  -0.48654  -0.48011  -0.46597  -0.45743
 Alpha  occ. eigenvalues --   -0.45237  -0.43257  -0.41288
 Alpha virt. eigenvalues --    0.02806   0.03661   0.03919   0.04289   0.04949
 Alpha virt. eigenvalues --    0.05068   0.05522   0.05971   0.06395   0.06969
 Alpha virt. eigenvalues --    0.07376   0.07623   0.07718   0.08061   0.08379

 Mulliken charges:
               1
     1  O   -0.500479
     2  N    0.169892
     3  N   -0.143115
     4  C    0.820015
     5  C    0.418563
     6  C    0.433267
     7  H   -0.107903
     8  H   -0.243169
     9  Cl  -0.183576
    10  H    0.031628
    11  H   -0.322038
    12  N   -0.308417
    13  O   -0.566178
    14  C   -0.224404
    15  H   -0.026835
    16  P    2.703668
    17  C    0.853006
    18  H   -0.259420
    19  O   -0.921554
    20  O   -1.297635
    21  O   -1.034646
    22  C    0.669486
    23  C    0.869110
    24  C    0.402892
    25  H   -0.270091
    26  H   -0.124796
    27  C    0.387916
    28  H   -0.268427
    29  H   -0.168846
    30  H   -0.057670
    31  H   -0.028421
    32  H   -0.247674
    33  H   -0.192960
    34  H   -0.096033
    35  H   -0.005926
    36  H   -0.016836
    37  H   -0.073115
    38  H   -0.069282
 Sum of Mulliken charges =  -0.00000

 Dipole moment (field-independent basis, Debye):
    X=             -2.9613    Y=              1.2107    Z=             -1.5228  Tot=              3.5431

 Test job not archived.
 1\1\GINC-SE092\SP\RHF\Aug-CC-pVDZ\C9H19Cl1N3O5P1\OHZDE\08-Apr-2025\0\\
 #t hf aug-cc-pvdz iop(5/13=1,5/36=2,99/5=2) pseudo=read geom=check gue
 ss=(read,tcheck) scf=(maxcycle=1)\\title\\0,1\O,0,2.44404,-1.95972,-2.
 07828\N,0,1.65701,-2.18771,-1.17389\N,0,1.79349,-1.36487,-0.08597\C,0,
 2.85697,-0.36399,-0.00821\C,0,1.01227,-1.66584,1.08268\C,0,2.44962,0.8
 9344,-0.77319\H,0,3.77259,-0.79505,-0.43544\H,0,3.01185,-0.15186,1.055
 03\Cl,0,3.60296,2.22486,-0.41851\H,0,2.46758,0.7272,-1.85551\H,0,1.452
 98,1.23073,-0.46676\N,0,-0.2522,-2.12787,0.85474\O,0,1.50192,-1.52864,

 Normal termination of Gaussian 16 at Tue Apr  8 17:23:20 2025.
