 Gaussian 16, Revision C.01,

 ----------------------------------------------------------------------
 #t hf aug-cc-pvdz symm=none int=(grid=ultrafine) guess=(read,tcheck) s
 table=(opt,rrhf)
 ----------------------------------------------------------------------
 -----
 title
 -----
 Symbolic Z-matrix:
 Charge =  0 Multiplicity = 1

 SCF Done:  E(RHF) =  -898.731106547     A.U. after   15 cycles
 Normal termination of Gaussian 16 at Tue Apr  8 17:38:56 2025.
 Gaussian 16:  ES64L-G16RevC.01  3-Jul-2019

 ----------------------------------------------------------------------
 #t hf aug-cc-pvdz iop(5/13=1,5/36=2,99/5=2) pseudo=read geom=check gue
 ss=(read,tcheck) scf=(maxcycle=1)
 ----------------------------------------------------------------------
 -----
 title
 -----
 Structure from the checkpoint file:  "37Conf8_Knoevenagel_cond_7_mol1.chk"
 Charge =  0 Multiplicity = 1

                         Standard orientation:
 ---------------------------------------------------------------------
 Center     Atomic      Atomic             Coordinates (Angstroms)
 Number     Number       Type             X           Y           Z
 ---------------------------------------------------------------------
      1          8           0        2.349280   -0.745671   -1.468320
      2          6           0        2.067150   -0.482091   -0.314030
      3          6           0        0.682370   -0.611360    0.312660
      4          8           0        2.954580   -0.044701    0.607580
      5          6           0       -0.397480   -0.983890   -0.730820
      6          6           0        0.313620    0.591020    1.210470
      7          1           0        0.774270   -1.429830    1.044440
      8          6           0        4.333240    0.094259    0.162240
      9          6           0       -0.330850   -2.479020   -1.070440
     10          7           0       -1.703330   -0.491670   -0.277130
     11          1           0       -0.167120   -0.429200   -1.652890
     12          8           0        0.299570    1.847450    0.702040
     13          8           0        0.094090    0.442210    2.393480
     14          6           0        5.082220   -1.218361    0.284370
     15          1           0        4.331890    0.460389   -0.873710
     16          1           0        4.749230    0.863619    0.825100
     17          1           0        4.661060   -1.972341   -0.393470
     18          1           0        6.138140   -1.067931    0.016100
     19          1           0        5.040100   -1.598411    1.314290
     20          1           0       -1.099630   -2.745470   -1.809600
     21          1           0        0.649160   -2.723390   -1.500700
     22          1           0       -0.484170   -3.100520   -0.176220
     23          6           0       -2.670440   -0.318040   -1.357960
     24          6           0       -2.293010   -1.225140    0.846730
     25          6           0        0.320490    2.108130   -0.718130
     26          1           0       -3.029310   -1.296860   -1.753590
     27          1           0       -2.168670    0.198910   -2.191980
     28          6           0       -3.872040    0.493040   -0.874500
     29          1           0       -2.641940   -2.233890    0.529960
     30          1           0       -1.528430   -1.365230    1.623110
     31          6           0       -3.473340   -0.445530    1.422370
     32          6           0        0.498051    3.600660   -0.898500
     33          1           0        1.140800    1.558279   -1.204000
     34          1           0       -0.635430    1.764300   -1.141610
     35          1           0        0.496311    3.849300   -1.969340
     36          1           0        1.449351    3.937479   -0.464550
     37          1           0       -0.318989    4.150070   -0.411830
     38          1           0       -4.597160    0.600700   -1.696320
     39          1           0       -3.527060    1.504470   -0.602470
     40          6           0       -4.521070   -0.172310    0.341390
     41          1           0       -3.913070   -1.013780    2.256480
     42          1           0       -3.095640    0.503750    1.834710
     43          1           0       -5.336240    0.453180    0.736240
     44          1           0       -4.977800   -1.128390    0.028420
 ---------------------------------------------------------------------

 SCF Done:  E(RHF) =  -899.005234464     A.U. after    2 cycles

 The electronic state is 1-A.
 Alpha  occ. eigenvalues --  -20.62713 -20.60731 -20.57707 -20.54974 -15.61501
 Alpha  occ. eigenvalues --  -11.41430 -11.39772 -11.30987 -11.30669 -11.28398
 Alpha  occ. eigenvalues --  -11.27896 -11.26365 -11.25475 -11.24130 -11.23923
 Alpha  occ. eigenvalues --  -11.23150 -11.23072 -11.22833 -11.22322  -1.42782
 Alpha  occ. eigenvalues --   -1.40201  -1.33463  -1.31502  -1.21396  -1.09940
 Alpha  occ. eigenvalues --   -1.05467  -1.03592  -1.02422  -1.00968  -0.97643
 Alpha  occ. eigenvalues --   -0.90093  -0.87971  -0.87246  -0.84738  -0.80833
 Alpha  occ. eigenvalues --   -0.80226  -0.78053  -0.75250  -0.74233  -0.71166
 Alpha  occ. eigenvalues --   -0.69231  -0.67734  -0.67152  -0.66532  -0.65851
 Alpha  occ. eigenvalues --   -0.63477  -0.62410  -0.61683  -0.60512  -0.59473
 Alpha  occ. eigenvalues --   -0.59012  -0.58273  -0.57727  -0.56137  -0.55872
 Alpha  occ. eigenvalues --   -0.55269  -0.54939  -0.54541  -0.53878  -0.53104
 Alpha  occ. eigenvalues --   -0.52599  -0.52121  -0.51230  -0.50722  -0.49282
 Alpha  occ. eigenvalues --   -0.48496  -0.48157  -0.47672  -0.46601  -0.45868
 Alpha  occ. eigenvalues --   -0.44817  -0.44713  -0.44152  -0.35460
 Alpha virt. eigenvalues --    0.02919   0.03352   0.03469   0.04045   0.04490
 Alpha virt. eigenvalues --    0.04862   0.05351   0.05783   0.06115   0.06279
 Alpha virt. eigenvalues --    0.06615   0.07111   0.07365   0.07881   0.08402

 Mulliken charges:
               1
     1  O   -0.577973
     2  C    0.735643
     3  C   -0.132645
     4  O   -0.622029
     5  C   -0.043771
     6  C    0.732710
     7  H   -0.222030
     8  C    0.675007
     9  C    0.836396
    10  N   -1.476854
    11  H   -0.505985
    12  O   -0.737448
    13  O   -0.572704
    14  C    0.335560
    15  H   -0.050950
    16  H   -0.313377
    17  H   -0.048629
    18  H   -0.037337
    19  H   -0.092490
    20  H    0.065335
    21  H   -0.064302
    22  H    0.044186
    23  C    0.519429
    24  C    1.016973
    25  C    0.461182
    26  H   -0.112952
    27  H   -0.355039
    28  C    0.468453
    29  H   -0.081117
    30  H   -0.154384
    31  C    0.373241
    32  C    0.788386
    33  H   -0.317337
    34  H   -0.462573
    35  H    0.000809
    36  H   -0.011137
    37  H    0.002957
    38  H   -0.101228
    39  H    0.009306
    40  C    0.243890
    41  H   -0.108965
    42  H    0.018401
    43  H   -0.131753
    44  H    0.007146
 Sum of Mulliken charges =  -0.00000

 Dipole moment (field-independent basis, Debye):
    X=              0.6729    Y=             -0.5884    Z=             -3.2754  Tot=              3.3952

 Test job not archived.
 1\1\GINC-SE335\SP\RHF\Aug-CC-pVDZ\C14H25N1O4\OHZDE\08-Apr-2025\0\\#t h
 f aug-cc-pvdz iop(5/13=1,5/36=2,99/5=2) pseudo=read geom=check guess=(
 read,tcheck) scf=(maxcycle=1)\\title\\0,1\O,0,2.34928,-0.74567,-1.4683
 2\C,0,2.06715,-0.48209,-0.31403\C,0,0.68237,-0.61136,0.31266\O,0,2.954
 58,-0.0447,0.60758\C,0,-0.39748,-0.98389,-0.73082\C,0,0.31362,0.59102,
 1.21047\H,0,0.77427,-1.42983,1.04444\C,0,4.33324,0.09426,0.16224\C,0,-
 0.33085,-2.47902,-1.07044\N,0,-1.70333,-0.49167,-0.27713\H,0,-0.16712,
 -0.4292,-1.65289\O,0,0.29957,1.84745,0.70204\O,0,0.09409,0.44221,2.393

 Normal termination of Gaussian 16 at Tue Apr  8 17:40:28 2025.
