 Gaussian 16, Revision C.01,

 ----------------------------------------------------------------------
 #t hf aug-cc-pvdz symm=none int=(grid=ultrafine) guess=(read,tcheck) s
 table=(opt,rrhf)
 ----------------------------------------------------------------------
 -----
 title
 -----
 Symbolic Z-matrix:
 Charge =  0 Multiplicity = 1

 SCF Done:  E(RHF) =  -1689.88620101     A.U. after   18 cycles
 Normal termination of Gaussian 16 at Tue Apr  8 17:20:51 2025.
 Gaussian 16:  ES64L-G16RevC.01  3-Jul-2019

 ----------------------------------------------------------------------
 #t hf aug-cc-pvdz iop(5/13=1,5/36=2,99/5=2) pseudo=read geom=check gue
 ss=(read,tcheck) scf=(maxcycle=1)
 ----------------------------------------------------------------------
 -----
 title
 -----
 Structure from the checkpoint file:  "37Conf8_Fotemustin_7_mol1.chk"
 Charge =  0 Multiplicity = 1

                         Standard orientation:
 ---------------------------------------------------------------------
 Center     Atomic      Atomic             Coordinates (Angstroms)
 Number     Number       Type             X           Y           Z
 ---------------------------------------------------------------------
      1          8           0       -1.365030    3.032641   -0.654899
      2          7           0       -1.966771    2.036741   -1.017299
      3          7           0       -1.817021    0.906491   -0.244199
      4          6           0       -2.672611   -0.204989   -0.661859
      5          6           0       -1.241371    0.851711    1.089771
      6          6           0       -4.089851   -0.097119   -0.107509
      7          1           0       -2.694861   -0.191369   -1.759189
      8          1           0       -2.199761   -1.138369   -0.332449
      9         17           0       -5.069491   -1.473199   -0.720949
     10          1           0       -4.571291    0.826761   -0.450219
     11          1           0       -4.092041   -0.142969    0.985491
     12          7           0        0.018679    1.336371    1.207501
     13          8           0       -1.901521    0.398541    2.015971
     14          6           0        1.014479    1.464921    0.148641
     15          1           0        0.388079    1.245441    2.154271
     16         15           0        1.997629   -0.089489    0.136611
     17          6           0        1.898010    2.689441    0.365631
     18          1           0        0.498739    1.538581   -0.815399
     19          8           0        2.967119    0.028650   -1.145389
     20          8           0        0.861359   -1.119459   -0.338899
     21          8           0        2.689809   -0.384060    1.419781
     22          6           0        4.413149    0.081780   -0.965909
     23          6           0        1.020419   -2.543929   -0.062289
     24          6           0        5.016329   -1.305390   -1.034229
     25          1           0        4.774279    0.722140   -1.782619
     26          1           0        4.642019    0.562150   -0.003629
     27          6           0        0.404739   -2.904959    1.273331
     28          1           0        0.517779   -3.049239   -0.898229
     29          1           0        2.089589   -2.805309   -0.094659
     30          1           0        4.741789   -1.806190   -1.972959
     31          1           0        6.113369   -1.238400   -0.985619
     32          1           0        4.673369   -1.914270   -0.186359
     33          1           0       -0.654341   -2.613769    1.310561
     34          1           0        0.468919   -3.991959    1.429841
     35          1           0        0.937019   -2.400709    2.090151
     36          1           0        2.634540    2.779171   -0.443769
     37          1           0        1.271180    3.590231    0.374561
     38          1           0        2.440649    2.618291    1.319131
 ---------------------------------------------------------------------

 SCF Done:  E(RHF) =  -1690.23953109     A.U. after    2 cycles

 The electronic state is 1-A.
 Alpha  occ. eigenvalues -- -103.65465 -81.41561 -20.64109 -20.61115 -20.61033
 Alpha  occ. eigenvalues --  -20.56970 -20.53372 -15.83351 -15.71967 -15.67956
 Alpha  occ. eigenvalues --  -11.43392 -11.32002 -11.31886 -11.31268 -11.30962
 Alpha  occ. eigenvalues --  -11.30905 -11.25489 -11.24602 -11.23929 -10.68750
 Alpha  occ. eigenvalues --   -8.34472  -8.34187  -8.34175  -7.89932  -5.04587
 Alpha  occ. eigenvalues --   -5.04527  -5.04219  -1.49177  -1.38801  -1.37522
 Alpha  occ. eigenvalues --   -1.34600  -1.26176  -1.25923  -1.23105  -1.16791
 Alpha  occ. eigenvalues --   -1.05321  -1.03556  -1.02782  -1.02219  -0.96055
 Alpha  occ. eigenvalues --   -0.90683  -0.88126  -0.87249  -0.86467  -0.79936
 Alpha  occ. eigenvalues --   -0.77506  -0.77143  -0.72898  -0.72292  -0.70614
 Alpha  occ. eigenvalues --   -0.69377  -0.68339  -0.67042  -0.66941  -0.65842
 Alpha  occ. eigenvalues --   -0.64749  -0.63430  -0.62668  -0.62245  -0.61319
 Alpha  occ. eigenvalues --   -0.59849  -0.59345  -0.58401  -0.57418  -0.56951
 Alpha  occ. eigenvalues --   -0.55588  -0.55451  -0.54974  -0.54700  -0.53877
 Alpha  occ. eigenvalues --   -0.53487  -0.51817  -0.51002  -0.50890  -0.50399
 Alpha  occ. eigenvalues --   -0.49391  -0.48189  -0.47807  -0.46288  -0.45224
 Alpha  occ. eigenvalues --   -0.44322  -0.42467  -0.40658
 Alpha virt. eigenvalues --    0.02730   0.03360   0.04037   0.04169   0.04885
 Alpha virt. eigenvalues --    0.05138   0.05398   0.05692   0.06191   0.06736
 Alpha virt. eigenvalues --    0.07422   0.07570   0.07692   0.08105   0.08519

 Mulliken charges:
               1
     1  O   -0.470042
     2  N    0.142933
     3  N   -0.223050
     4  C    0.899618
     5  C    0.391388
     6  C    0.097631
     7  H   -0.175914
     8  H   -0.282422
     9  Cl  -0.140145
    10  H    0.019330
    11  H    0.027110
    12  N   -0.360864
    13  O   -0.523481
    14  C    0.250467
    15  H   -0.034161
    16  P    2.330508
    17  C    0.762753
    18  H   -0.280579
    19  O   -1.039735
    20  O   -1.037119
    21  O   -1.021602
    22  C    0.687684
    23  C    0.632023
    24  C    0.308906
    25  H   -0.250730
    26  H   -0.090779
    27  C    0.422886
    28  H   -0.298517
    29  H   -0.144863
    30  H   -0.049442
    31  H   -0.036741
    32  H   -0.074583
    33  H   -0.121373
    34  H   -0.051054
    35  H   -0.108113
    36  H   -0.041084
    37  H   -0.068265
    38  H   -0.048584
 Sum of Mulliken charges =  -0.00000

 Dipole moment (field-independent basis, Debye):
    X=              4.3423    Y=             -0.7503    Z=             -2.4789  Tot=              5.0560

 Test job not archived.
 1\1\GINC-SE459\SP\RHF\Aug-CC-pVDZ\C9H19Cl1N3O5P1\OHZDE\08-Apr-2025\0\\
 #t hf aug-cc-pvdz iop(5/13=1,5/36=2,99/5=2) pseudo=read geom=check gue
 ss=(read,tcheck) scf=(maxcycle=1)\\title\\0,1\O,0,1.36503,-3.03264,-0.
 6549\N,0,1.96677,-2.03674,-1.0173\N,0,1.81702,-0.90649,-0.2442\C,0,2.6
 7261,0.20499,-0.66186\C,0,1.24137,-0.85171,1.08977\C,0,4.08985,0.09712
 ,-0.10751\H,0,2.69486,0.19137,-1.75919\H,0,2.19976,1.13837,-0.33245\Cl
 ,0,5.06949,1.4732,-0.72095\H,0,4.57129,-0.82676,-0.45022\H,0,4.09204,0
 .14297,0.98549\N,0,-0.01868,-1.33637,1.2075\O,0,1.90152,-0.39854,2.015

 Normal termination of Gaussian 16 at Tue Apr  8 17:22:06 2025.
