 Gaussian 16, Revision C.01,

 ----------------------------------------------------------------------
 #t hf aug-cc-pvdz symm=none int=(grid=ultrafine) guess=(read,tcheck) s
 table=(opt,rrhf)
 ----------------------------------------------------------------------
 -----
 title
 -----
 Symbolic Z-matrix:
 Charge =  0 Multiplicity = 1

 SCF Done:  E(RHF) =  -1112.30158653     A.U. after   15 cycles
 Normal termination of Gaussian 16 at Tue Apr  8 17:05:58 2025.
 Gaussian 16:  ES64L-G16RevC.01  3-Jul-2019

 ----------------------------------------------------------------------
 #t hf aug-cc-pvdz iop(5/13=1,5/36=2,99/5=2) pseudo=read geom=check gue
 ss=(read,tcheck) scf=(maxcycle=1)
 ----------------------------------------------------------------------
 -----
 title
 -----
 Structure from the checkpoint file:  "37Conf8_Cimetidine_4_mol1.chk"
 Charge =  0 Multiplicity = 1

                         Standard orientation:
 ---------------------------------------------------------------------
 Center     Atomic      Atomic             Coordinates (Angstroms)
 Number     Number       Type             X           Y           Z
 ---------------------------------------------------------------------
      1          7           0        4.479409   -1.691954    0.018761
      2          6           0        3.981970   -0.640124   -0.171629
      3          7           0        3.555461    0.569307   -0.455149
      4          6           0        2.353801    1.055758   -0.195359
      5          7           0        1.363621    0.516048    0.555471
      6          7           0        2.094592    2.278198   -0.767889
      7          6           0        1.438660   -0.775752    1.220601
      8          1           0        0.415771    0.927599    0.506351
      9          6           0        1.115022    3.222388   -0.261509
     10          1           0        2.930392    2.658697   -1.200819
     11          6           0        1.118589   -1.981132    0.325401
     12          1           0        2.447720   -0.907413    1.632161
     13          1           0        0.732160   -0.747611    2.062451
     14         16           0       -0.637621   -2.381880    0.065571
     15          1           0        1.629099   -1.893192   -0.643179
     16          1           0        1.518278   -2.890022    0.799961
     17          6           0       -1.239100   -1.021320   -1.028199
     18          6           0       -2.063410   -0.004149   -0.321439
     19          1           0       -1.828111   -1.507270   -1.817479
     20          1           0       -0.362330   -0.563661   -1.505239
     21          7           0       -1.493939    1.034240    0.398561
     22          6           0       -3.442310    0.047821   -0.209579
     23          6           0       -2.494929    1.705651    0.938781
     24          7           0       -3.690299    1.145612    0.598021
     25          6           0       -4.526640   -0.819368   -0.742929
     26          1           0       -2.411118    2.588501    1.565891
     27          1           0       -4.607169    1.473872    0.882181
     28          1           0       -4.103551   -1.584138   -1.405519
     29          1           0       -5.266710   -0.246877   -1.323979
     30          1           0       -5.064081   -1.345257    0.062251
     31          1           0        1.182833    4.139598   -0.858549
     32          1           0        0.094332    2.828709   -0.364969
     33          1           0        1.282593    3.479758    0.800061
 ---------------------------------------------------------------------

 SCF Done:  E(RHF) =  -1112.53081179     A.U. after    2 cycles

 The electronic state is 1-A.
 Alpha  occ. eigenvalues --  -93.52508 -15.71067 -15.65410 -15.65071 -15.64169
 Alpha  occ. eigenvalues --  -15.60956 -15.57898 -11.39720 -11.34164 -11.29914
 Alpha  occ. eigenvalues --  -11.28564 -11.28217 -11.28213 -11.28143 -11.27926
 Alpha  occ. eigenvalues --  -11.27029 -11.26375  -8.82225  -6.16414  -6.16171
 Alpha  occ. eigenvalues --   -6.15870  -1.33315  -1.29671  -1.18436  -1.18042
 Alpha  occ. eigenvalues --   -1.16290  -1.10749  -1.08600  -1.04755  -1.00240
 Alpha  occ. eigenvalues --   -0.96402  -0.94748  -0.90026  -0.85080  -0.83467
 Alpha  occ. eigenvalues --   -0.80802  -0.76825  -0.75454  -0.74426  -0.73937
 Alpha  occ. eigenvalues --   -0.66279  -0.64665  -0.64343  -0.63356  -0.62776
 Alpha  occ. eigenvalues --   -0.60708  -0.60161  -0.59370  -0.58416  -0.57809
 Alpha  occ. eigenvalues --   -0.57007  -0.56539  -0.55908  -0.54974  -0.53604
 Alpha  occ. eigenvalues --   -0.51511  -0.49618  -0.49091  -0.46363  -0.45934
 Alpha  occ. eigenvalues --   -0.43610  -0.41267  -0.39032  -0.36455  -0.34402
 Alpha  occ. eigenvalues --   -0.32853  -0.32156
 Alpha virt. eigenvalues --    0.01051   0.02179   0.02853   0.03816   0.04554
 Alpha virt. eigenvalues --    0.04886   0.05400   0.05951   0.06835   0.06911
 Alpha virt. eigenvalues --    0.07298   0.07771   0.08599   0.09391   0.09619

 Mulliken charges:
               1
     1  N   -0.160969
     2  C   -0.668778
     3  N   -0.249660
     4  C    0.803281
     5  N    0.259623
     6  N   -0.431193
     7  C    0.319479
     8  H   -0.130374
     9  C    1.121796
    10  H   -0.064990
    11  C    0.247447
    12  H   -0.266266
    13  H   -0.236264
    14  S    0.485651
    15  H   -0.309580
    16  H    0.006601
    17  C    0.432379
    18  C    0.150463
    19  H   -0.039144
    20  H   -0.192430
    21  N   -0.604657
    22  C   -0.273616
    23  C    0.593813
    24  N   -0.557149
    25  C    0.546629
    26  H   -0.310095
    27  H   -0.095431
    28  H   -0.000954
    29  H    0.056944
    30  H    0.131959
    31  H   -0.224431
    32  H   -0.241422
    33  H   -0.098663
 Sum of Mulliken charges =  -0.00000

 Dipole moment (field-independent basis, Debye):
    X=            -11.3715    Y=              6.7901    Z=              0.8150  Tot=             13.2696

 Test job not archived.
 1\1\GINC-SE073\SP\RHF\Aug-CC-pVDZ\C10H16N6S1\OHZDE\08-Apr-2025\0\\#t h
 f aug-cc-pvdz iop(5/13=1,5/36=2,99/5=2) pseudo=read geom=check guess=(
 read,tcheck) scf=(maxcycle=1)\\title\\0,1\N,0,4.47941,-1.69195,0.01876
 \C,0,3.98197,-0.64012,-0.17163\N,0,3.55546,0.56931,-0.45515\C,0,2.3538
 ,1.05576,-0.19536\N,0,1.36362,0.51605,0.55547\N,0,2.09459,2.2782,-0.76
 789\C,0,1.43866,-0.77575,1.2206\H,0,0.41577,0.9276,0.50635\C,0,1.11502
 ,3.22239,-0.26151\H,0,2.93039,2.6587,-1.20082\C,0,1.11859,-1.98113,0.3
 254\H,0,2.44772,-0.90741,1.63216\H,0,0.73216,-0.74761,2.06245\S,0,-0.6

 Normal termination of Gaussian 16 at Tue Apr  8 17:06:51 2025.
