 Gaussian 16, Revision C.01,

 ----------------------------------------------------------------------
 #t hf aug-cc-pvdz symm=none int=(grid=ultrafine) guess=(read,tcheck) s
 table=(opt,rrhf)
 ----------------------------------------------------------------------
 -----
 title
 -----
 Symbolic Z-matrix:
 Charge =  0 Multiplicity = 1

 SCF Done:  E(RHF) =  -1374.25071447     A.U. after   14 cycles
 Normal termination of Gaussian 16 at Tue Apr  8 18:21:39 2025.
 Gaussian 16:  ES64L-G16RevC.01  3-Jul-2019

 ----------------------------------------------------------------------
 #t hf aug-cc-pvdz iop(5/13=1,5/36=2,99/5=2) pseudo=read geom=check gue
 ss=(read,tcheck) scf=(maxcycle=1)
 ----------------------------------------------------------------------
 -----
 title
 -----
 Structure from the checkpoint file:  "37Conf8_VX_3_mol2.chk"
 Charge =  0 Multiplicity = 1

                         Standard orientation:
 ---------------------------------------------------------------------
 Center     Atomic      Atomic             Coordinates (Angstroms)
 Number     Number       Type             X           Y           Z
 ---------------------------------------------------------------------
      1          1           0       -3.841351    1.383640   -1.293291
      2          6           0       -4.139031    0.358430   -1.026031
      3          6           0       -5.640581    0.181380   -1.060311
      4          8           0       -3.685091    0.086330    0.328629
      5          1           0       -3.633051   -0.341500   -1.711051
      6          1           0       -6.015191    0.387150   -2.073381
      7          1           0       -5.920131   -0.846100   -0.789841
      8          1           0       -6.132751    0.872810   -0.362651
      9         15           0       -2.098521    0.158300    0.635219
     10          6           0       -2.136101   -0.134840    2.416489
     11         16           0       -1.334091   -1.585609   -0.289741
     12          8           0       -1.385661    1.394090    0.200949
     13          1           0       -2.658271   -1.073840    2.638109
     14          1           0       -1.102531   -0.193719    2.778849
     15          1           0       -2.651701    0.705490    2.900819
     16          6           0        0.237579   -0.886509   -0.933691
     17          6           0        1.317949   -0.743339    0.141209
     18          1           0        0.563649   -1.573649   -1.726811
     19          1           0        0.000509    0.083811   -1.384971
     20          7           0        2.453009   -0.009659   -0.382741
     21          1           0        1.631479   -1.746769    0.462059
     22          1           0        0.874049   -0.256549    1.034159
     23          6           0        2.279279    1.452211   -0.347401
     24          6           0        3.785729   -0.553969   -0.091041
     25          6           0        3.011039    2.125221   -1.510351
     26          6           0        2.637499    2.116561    0.992239
     27          1           0        1.199829    1.615311   -0.499911
     28          6           0        4.074029   -1.754038   -0.999951
     29          6           0        4.047079   -0.922119    1.381669
     30          1           0        4.496739    0.242312   -0.362591
     31          1           0        2.713469    1.671201   -2.465341
     32          1           0        2.774548    3.198701   -1.541271
     33          1           0        4.104149    2.035142   -1.414171
     34          1           0        2.340068    3.175321    0.981869
     35          1           0        3.719929    2.075821    1.187129
     36          1           0        2.112969    1.634571    1.829979
     37          1           0        3.967179   -1.470409   -2.055361
     38          1           0        5.090919   -2.140758   -0.835341
     39          1           0        3.371460   -2.577469   -0.795891
     40          1           0        5.096499   -1.224048    1.516059
     41          1           0        3.422499   -1.770459    1.699869
     42          1           0        3.846439   -0.080459    2.056069
 ---------------------------------------------------------------------

 SCF Done:  E(RHF) =  -1374.52190176     A.U. after    2 cycles

 The electronic state is 1-A.
 Alpha  occ. eigenvalues --  -93.53524 -81.39239 -20.59922 -20.52003 -15.59499
 Alpha  occ. eigenvalues --  -11.30482 -11.26806 -11.26234 -11.26230 -11.25396
 Alpha  occ. eigenvalues --  -11.25328 -11.23845 -11.22083 -11.21998 -11.21558
 Alpha  occ. eigenvalues --  -11.21512  -8.83442  -7.87825  -6.17597  -6.17392
 Alpha  occ. eigenvalues --   -6.17115  -5.02414  -5.02142  -5.01983  -1.34786
 Alpha  occ. eigenvalues --   -1.24613  -1.19383  -1.05834  -1.04520  -1.03026
 Alpha  occ. eigenvalues --   -0.99244  -0.97791  -0.92793  -0.91367  -0.90446
 Alpha  occ. eigenvalues --   -0.85766  -0.82494  -0.81120  -0.74872  -0.73011
 Alpha  occ. eigenvalues --   -0.67950  -0.66556  -0.65207  -0.64111  -0.63211
 Alpha  occ. eigenvalues --   -0.61618  -0.60910  -0.59505  -0.58906  -0.58375
 Alpha  occ. eigenvalues --   -0.58169  -0.56495  -0.55490  -0.55266  -0.54348
 Alpha  occ. eigenvalues --   -0.53845  -0.53545  -0.52863  -0.52652  -0.52176
 Alpha  occ. eigenvalues --   -0.51473  -0.50394  -0.49406  -0.48921  -0.48175
 Alpha  occ. eigenvalues --   -0.47388  -0.47219  -0.46463  -0.45049  -0.44617
 Alpha  occ. eigenvalues --   -0.41489  -0.36776  -0.32875
 Alpha virt. eigenvalues --    0.03170   0.03717   0.03819   0.04283   0.04669
 Alpha virt. eigenvalues --    0.05013   0.05520   0.06068   0.06129   0.06439
 Alpha virt. eigenvalues --    0.06573   0.06902   0.07342   0.07858   0.08238

 Mulliken charges:
               1
     1  H   -0.185046
     2  C    0.436188
     3  C    0.280477
     4  O   -0.920747
     5  H   -0.109144
     6  H   -0.012313
     7  H   -0.036514
     8  H   -0.040381
     9  P    2.173307
    10  C    0.220235
    11  S   -0.052179
    12  O   -1.185236
    13  H   -0.079777
    14  H   -0.183596
    15  H   -0.118174
    16  C    0.612385
    17  C    0.471315
    18  H   -0.170036
    19  H   -0.197125
    20  N   -0.470050
    21  H   -0.348627
    22  H   -0.506440
    23  C   -1.068948
    24  C   -0.482022
    25  C    1.071350
    26  C    0.656458
    27  H   -0.312047
    28  C    0.848298
    29  C    0.687031
    30  H   -0.402928
    31  H   -0.020161
    32  H   -0.057930
    33  H   -0.068825
    34  H   -0.135232
    35  H   -0.020494
    36  H   -0.010205
    37  H   -0.001941
    38  H   -0.055888
    39  H   -0.046305
    40  H   -0.073644
    41  H   -0.025450
    42  H   -0.059640
 Sum of Mulliken charges =  -0.00000

 Dipole moment (field-independent basis, Debye):
    X=             -0.6048    Y=             -1.3808    Z=              0.4413  Tot=              1.5708

 Test job not archived.
 1\1\GINC-SE100\SP\RHF\Aug-CC-pVDZ\C11H26N1O2P1S1\OHZDE\08-Apr-2025\0\\
 #t hf aug-cc-pvdz iop(5/13=1,5/36=2,99/5=2) pseudo=read geom=check gue
 ss=(read,tcheck) scf=(maxcycle=1)\\title\\0,1\H,0,-3.84135,1.38364,-1.
 29329\C,0,-4.13903,0.35843,-1.02603\C,0,-5.64058,0.18138,-1.06031\O,0,
 -3.68509,0.08633,0.32863\H,0,-3.63305,-0.3415,-1.71105\H,0,-6.01519,0.
 38715,-2.07338\H,0,-5.92013,-0.8461,-0.78984\H,0,-6.13275,0.87281,-0.3
 6265\P,0,-2.09852,0.1583,0.63522\C,0,-2.1361,-0.13484,2.41649\S,0,-1.3
 3409,-1.58561,-0.28974\O,0,-1.38566,1.39409,0.20095\H,0,-2.65827,-1.07

 Normal termination of Gaussian 16 at Tue Apr  8 18:22:55 2025.
