 Gaussian 16, Revision C.01,

 ----------------------------------------------------------------------
 #t hf aug-cc-pvdz symm=none int=(grid=ultrafine) guess=(read,tcheck) s
 table=(opt,rrhf)
 ----------------------------------------------------------------------
 -----
 title
 -----
 Symbolic Z-matrix:
 Charge =  0 Multiplicity = 1

 SCF Done:  E(RHF) =  -1689.88914349     A.U. after   16 cycles
 Normal termination of Gaussian 16 at Tue Apr  8 17:18:52 2025.
 Gaussian 16:  ES64L-G16RevC.01  3-Jul-2019

 ----------------------------------------------------------------------
 #t hf aug-cc-pvdz iop(5/13=1,5/36=2,99/5=2) pseudo=read geom=check gue
 ss=(read,tcheck) scf=(maxcycle=1)
 ----------------------------------------------------------------------
 -----
 title
 -----
 Structure from the checkpoint file:  "37Conf8_Fotemustin_6_mol1.chk"
 Charge =  0 Multiplicity = 1

                         Standard orientation:
 ---------------------------------------------------------------------
 Center     Atomic      Atomic             Coordinates (Angstroms)
 Number     Number       Type             X           Y           Z
 ---------------------------------------------------------------------
      1          8           0       -2.211090   -0.530840    2.439330
      2          7           0       -1.476960   -0.989130    1.577120
      3          7           0       -1.747880   -0.556900    0.307010
      4          6           0       -2.878849    0.331560    0.029840
      5          6           0       -1.082770   -1.186570   -0.802200
      6          6           0       -4.192020   -0.438939   -0.072270
      7          1           0       -2.930209    1.053900    0.855060
      8          1           0       -2.668149    0.845190   -0.914330
      9         17           0       -5.536669    0.717082   -0.352360
     10          1           0       -4.413350   -0.975669    0.856750
     11          1           0       -4.165510   -1.131319   -0.920150
     12          7           0        0.166180   -1.692001   -0.592400
     13          8           0       -1.679030   -1.270230   -1.867330
     14          6           0        1.197650   -1.285501    0.366940
     15          1           0        0.538090   -2.079601   -1.460930
     16         15           0        2.194891    0.025548   -0.453580
     17          6           0        2.058220   -2.481852    0.766130
     18          1           0        0.708990   -0.876761    1.257970
     19          8           0        3.234561    0.419178    0.712540
     20          8           0        1.211271    1.292899   -0.627750
     21          8           0        2.760350   -0.387272   -1.759010
     22          6           0        4.481311    1.088007    0.342510
     23          6           0        0.746952    2.066529    0.509180
     24          6           0        5.590281    0.077977    0.139220
     25          1           0        4.695061    1.769937    1.177310
     26          1           0        4.318451    1.686607   -0.566710
     27          6           0       -0.121898    3.189469   -0.012800
     28          1           0        0.178741    1.413439    1.192350
     29          1           0        1.619002    2.452368    1.058780
     30          1           0        5.734000   -0.530303    1.043050
     31          1           0        6.533531    0.600616   -0.078420
     32          1           0        5.354170   -0.582153   -0.705530
     33          1           0       -0.493658    3.793869    0.826940
     34          1           0       -0.985388    2.794770   -0.564820
     35          1           0        0.449212    3.841479   -0.687100
     36          1           0        2.832360   -2.172262    1.479220
     37          1           0        1.427029   -3.249722    1.233380
     38          1           0        2.556489   -2.915722   -0.112570
 ---------------------------------------------------------------------

 SCF Done:  E(RHF) =  -1690.24323352     A.U. after    2 cycles

 The electronic state is 1-A.
 Alpha  occ. eigenvalues -- -103.65543 -81.41630 -20.65099 -20.61592 -20.61328
 Alpha  occ. eigenvalues --  -20.56865 -20.52791 -15.83943 -15.73352 -15.68134
 Alpha  occ. eigenvalues --  -11.43777 -11.32663 -11.32378 -11.31774 -11.31223
 Alpha  occ. eigenvalues --  -11.30993 -11.25863 -11.25198 -11.24468 -10.68825
 Alpha  occ. eigenvalues --   -8.34549  -8.34261  -8.34248  -7.89991  -5.04639
 Alpha  occ. eigenvalues --   -5.04587  -5.04299  -1.50156  -1.39334  -1.37880
 Alpha  occ. eigenvalues --   -1.34785  -1.26824  -1.25738  -1.22844  -1.17044
 Alpha  occ. eigenvalues --   -1.05607  -1.04495  -1.04077  -1.03246  -0.94979
 Alpha  occ. eigenvalues --   -0.90361  -0.88685  -0.87560  -0.87301  -0.80838
 Alpha  occ. eigenvalues --   -0.79029  -0.77441  -0.73159  -0.72882  -0.71057
 Alpha  occ. eigenvalues --   -0.69950  -0.68642  -0.67771  -0.67278  -0.66736
 Alpha  occ. eigenvalues --   -0.65738  -0.63597  -0.62680  -0.61968  -0.61366
 Alpha  occ. eigenvalues --   -0.60577  -0.59648  -0.58186  -0.57477  -0.56822
 Alpha  occ. eigenvalues --   -0.56330  -0.55982  -0.55185  -0.54961  -0.54403
 Alpha  occ. eigenvalues --   -0.53928  -0.52653  -0.51724  -0.50394  -0.49832
 Alpha  occ. eigenvalues --   -0.49301  -0.48398  -0.47873  -0.46785  -0.45566
 Alpha  occ. eigenvalues --   -0.44991  -0.43400  -0.41121
 Alpha virt. eigenvalues --    0.02514   0.03189   0.03874   0.04269   0.04854
 Alpha virt. eigenvalues --    0.04906   0.05627   0.05693   0.06428   0.06726
 Alpha virt. eigenvalues --    0.06909   0.07211   0.07620   0.08002   0.08648

 Mulliken charges:
               1
     1  O   -0.518581
     2  N    0.152009
     3  N   -0.087173
     4  C    0.645991
     5  C    0.173731
     6  C    0.202376
     7  H   -0.178761
     8  H   -0.237826
     9  Cl  -0.117329
    10  H    0.047031
    11  H    0.034104
    12  N   -0.463517
    13  O   -0.514298
    14  C    0.066180
    15  H   -0.020558
    16  P    2.614338
    17  C    1.036149
    18  H   -0.294970
    19  O   -1.072117
    20  O   -1.100179
    21  O   -1.043460
    22  C    0.612875
    23  C    0.813990
    24  C    0.261056
    25  H   -0.261505
    26  H   -0.049976
    27  C    0.334618
    28  H   -0.318419
    29  H   -0.188492
    30  H   -0.050681
    31  H   -0.039397
    32  H   -0.050450
    33  H   -0.024865
    34  H   -0.205597
    35  H   -0.020231
    36  H   -0.018210
    37  H   -0.084492
    38  H   -0.033366
 Sum of Mulliken charges =   0.00000

 Dipole moment (field-independent basis, Debye):
    X=              4.4034    Y=              1.2446    Z=              4.2245  Tot=              6.2278

 Test job not archived.
 1\1\GINC-SE393\SP\RHF\Aug-CC-pVDZ\C9H19Cl1N3O5P1\OHZDE\08-Apr-2025\0\\
 #t hf aug-cc-pvdz iop(5/13=1,5/36=2,99/5=2) pseudo=read geom=check gue
 ss=(read,tcheck) scf=(maxcycle=1)\\title\\0,1\O,0,2.21109,-0.53084,-2.
 43933\N,0,1.47696,-0.98913,-1.57712\N,0,1.74788,-0.5569,-0.30701\C,0,2
 .87885,0.33156,-0.02984\C,0,1.08277,-1.18657,0.8022\C,0,4.19202,-0.438
 94,0.07227\H,0,2.93021,1.0539,-0.85506\H,0,2.66815,0.84519,0.91433\Cl,
 0,5.53667,0.71708,0.35236\H,0,4.41335,-0.97567,-0.85675\H,0,4.16551,-1
 .13132,0.92015\N,0,-0.16618,-1.692,0.5924\O,0,1.67903,-1.27023,1.86733

 Normal termination of Gaussian 16 at Tue Apr  8 17:20:07 2025.
