 Gaussian 16, Revision C.01,

 ----------------------------------------------------------------------
 #t hf aug-cc-pvdz symm=none int=(grid=ultrafine) guess=(read,tcheck) s
 table=(opt,rrhf)
 ----------------------------------------------------------------------
 -----
 title
 -----
 Symbolic Z-matrix:
 Charge =  0 Multiplicity = 1

 SCF Done:  E(RHF) =  -1080.80562913     A.U. after   16 cycles
 Normal termination of Gaussian 16 at Tue Apr  8 18:26:34 2025.
 Gaussian 16:  ES64L-G16RevC.01  3-Jul-2019

 ----------------------------------------------------------------------
 #t hf aug-cc-pvdz iop(5/13=1,5/36=2,99/5=2) pseudo=read geom=check gue
 ss=(read,tcheck) scf=(maxcycle=1)
 ----------------------------------------------------------------------
 -----
 title
 -----
 Structure from the checkpoint file:  "37Conf8_RH34_6_mol2.chk"
 Charge =  0 Multiplicity = 1

                         Standard orientation:
 ---------------------------------------------------------------------
 Center     Atomic      Atomic             Coordinates (Angstroms)
 Number     Number       Type             X           Y           Z
 ---------------------------------------------------------------------
      1          1           0       -4.917699    3.460570    0.541359
      2          6           0       -4.361809    2.530690    0.409279
      3          6           0       -3.088999    2.386970    0.952669
      4          6           0       -4.942719    1.483540   -0.314331
      5          1           0       -2.633759    3.202690    1.515889
      6          6           0       -2.391809    1.186660    0.772919
      7          1           0       -5.938089    1.609020   -0.738061
      8          6           0       -4.238379    0.287920   -0.487301
      9          1           0       -1.387489    1.070290    1.183049
     10          6           0       -2.947679    0.123590    0.061599
     11          8           0       -4.717710   -0.790500   -1.185451
     12          6           0       -2.228170   -1.187140   -0.141071
     13          6           0       -6.014860   -0.680560   -1.758221
     14          7           0       -0.957650   -1.245390    0.559409
     15          1           0       -2.031130   -1.328300   -1.219401
     16          1           0       -2.917030   -2.016850    0.132939
     17          6           0       -0.217790   -2.473480    0.325859
     18          1           0       -1.089700   -1.100610    1.563589
     19          6           0        1.097890   -2.478421    1.103799
     20          1           0       -0.002940   -2.550090   -0.751961
     21          1           0       -0.774640   -3.395820    0.607379
     22          7           0        1.910140   -1.290331    0.820609
     23          1           0        1.689440   -3.357371    0.821679
     24          1           0        0.912100   -2.484931    2.184719
     25          6           0        1.751360   -0.195041    1.676279
     26          6           0        2.706330   -1.309851   -0.339911
     27          8           0        1.039210   -0.209581    2.674889
     28          7           0        2.479791    0.927349    1.328519
     29          8           0        2.755620   -2.311441   -1.048051
     30          6           0        3.448861   -0.070301   -0.620361
     31          1           0        2.354331    1.714399    1.958429
     32          6           0        3.309741    1.040709    0.230119
     33          6           0        4.284911    0.016449   -1.741531
     34          6           0        4.005751    2.228509   -0.043971
     35          1           0        4.366300   -0.862991   -2.381311
     36          6           0        4.976671    1.189649   -2.013831
     37          1           0        3.893451    3.089729    0.617859
     38          6           0        4.831591    2.293659   -1.159881
     39          1           0        5.627471    1.254879   -2.885911
     40          1           0        5.371181    3.218499   -1.370181
     41          1           0       -6.061509    0.136470   -2.497791
     42          1           0       -6.203920   -1.636559   -2.259821
     43          1           0       -6.784650   -0.513559   -0.986051
 ---------------------------------------------------------------------

 SCF Done:  E(RHF) =  -1081.12396987     A.U. after    2 cycles

 The electronic state is 1-A.
 Alpha  occ. eigenvalues --  -20.59766 -20.55470 -20.55264 -15.69113 -15.68514
 Alpha  occ. eigenvalues --  -15.60207 -11.42444 -11.39063 -11.33430 -11.30490
 Alpha  occ. eigenvalues --  -11.29771 -11.28178 -11.27541 -11.27496 -11.26833
 Alpha  occ. eigenvalues --  -11.26827 -11.26017 -11.25852 -11.25832 -11.24232
 Alpha  occ. eigenvalues --  -11.23913 -11.23717 -11.23582 -11.23104  -1.38585
 Alpha  occ. eigenvalues --   -1.36471  -1.35751  -1.26598  -1.21989  -1.17595
 Alpha  occ. eigenvalues --   -1.15457  -1.12890  -1.05752  -1.03432  -1.02878
 Alpha  occ. eigenvalues --   -1.00504  -0.99025  -0.93869  -0.91240  -0.89624
 Alpha  occ. eigenvalues --   -0.88095  -0.86224  -0.83346  -0.80263  -0.79735
 Alpha  occ. eigenvalues --   -0.78519  -0.74924  -0.73351  -0.71843  -0.68200
 Alpha  occ. eigenvalues --   -0.67839  -0.67306  -0.67164  -0.66412  -0.65789
 Alpha  occ. eigenvalues --   -0.64569  -0.64454  -0.63319  -0.62653  -0.61600
 Alpha  occ. eigenvalues --   -0.60599  -0.60558  -0.59841  -0.58071  -0.57691
 Alpha  occ. eigenvalues --   -0.56065  -0.55330  -0.54802  -0.54311  -0.53157
 Alpha  occ. eigenvalues --   -0.52941  -0.51579  -0.51352  -0.50919  -0.49847
 Alpha  occ. eigenvalues --   -0.47886  -0.47303  -0.46907  -0.46775  -0.46068
 Alpha  occ. eigenvalues --   -0.41180  -0.36939  -0.36298  -0.33114  -0.33068
 Alpha  occ. eigenvalues --   -0.30722
 Alpha virt. eigenvalues --    0.02367   0.03305   0.03420   0.04035   0.04366
 Alpha virt. eigenvalues --    0.04906   0.05256   0.05376   0.06036   0.06073
 Alpha virt. eigenvalues --    0.06458   0.06660   0.07089   0.07463   0.07982

 Mulliken charges:
               1
     1  H   -0.461510
     2  C    0.025598
     3  C    0.457141
     4  C    1.036425
     5  H   -0.536782
     6  C    1.103307
     7  H   -0.728047
     8  C   -0.393236
     9  H   -0.633699
    10  C    0.118119
    11  O   -0.781490
    12  C    0.243978
    13  C    0.860994
    14  N   -0.298316
    15  H   -0.027290
    16  H    0.023403
    17  C    0.665166
    18  H    0.105309
    19  C    0.749375
    20  H   -0.263683
    21  H   -0.136536
    22  N   -0.218654
    23  H   -0.191700
    24  H   -0.200257
    25  C    0.498280
    26  C   -0.552828
    27  O   -0.512552
    28  N   -0.552482
    29  O   -0.517649
    30  C    1.887827
    31  H   -0.062235
    32  C   -0.258443
    33  C    0.179415
    34  C    1.233883
    35  H   -0.614899
    36  C    0.433169
    37  H   -0.589276
    38  C    0.243580
    39  H   -0.446716
    40  H   -0.451868
    41  H   -0.066652
    42  H   -0.304254
    43  H   -0.063915
 Sum of Mulliken charges =  -0.00000

 Dipole moment (field-independent basis, Debye):
    X=              0.4969    Y=              3.2757    Z=             -0.8929  Tot=              3.4313

 Test job not archived.
 1\1\GINC-SE195\SP\RHF\Aug-CC-pVDZ\C18H19N3O3\OHZDE\08-Apr-2025\0\\#t h
 f aug-cc-pvdz iop(5/13=1,5/36=2,99/5=2) pseudo=read geom=check guess=(
 read,tcheck) scf=(maxcycle=1)\\title\\0,1\H,0,-4.9177,3.46057,0.54136\
 C,0,-4.36181,2.53069,0.40928\C,0,-3.089,2.38697,0.95267\C,0,-4.94272,1
 .48354,-0.31433\H,0,-2.63376,3.20269,1.51589\C,0,-2.39181,1.18666,0.77
 292\H,0,-5.93809,1.60902,-0.73806\C,0,-4.23838,0.28792,-0.4873\H,0,-1.
 38749,1.07029,1.18305\C,0,-2.94768,0.12359,0.0616\O,0,-4.71771,-0.7905
 ,-1.18545\C,0,-2.22817,-1.18714,-0.14107\C,0,-6.01486,-0.68056,-1.7582

 Normal termination of Gaussian 16 at Tue Apr  8 18:28:29 2025.
