 Gaussian 16, Revision C.01,

 ----------------------------------------------------------------------
 #t hf aug-cc-pvdz symm=none int=(grid=ultrafine) guess=(read,tcheck) s
 table=(opt,rrhf)
 ----------------------------------------------------------------------
 -----
 title
 -----
 Symbolic Z-matrix:
 Charge =  0 Multiplicity = 1

 SCF Done:  E(RHF) =  -1374.23619522     A.U. after   14 cycles
 Normal termination of Gaussian 16 at Tue Apr  8 18:24:12 2025.
 Gaussian 16:  ES64L-G16RevC.01  3-Jul-2019

 ----------------------------------------------------------------------
 #t hf aug-cc-pvdz iop(5/13=1,5/36=2,99/5=2) pseudo=read geom=check gue
 ss=(read,tcheck) scf=(maxcycle=1)
 ----------------------------------------------------------------------
 -----
 title
 -----
 Structure from the checkpoint file:  "37Conf8_VX_8_mol1.chk"
 Charge =  0 Multiplicity = 1

                         Standard orientation:
 ---------------------------------------------------------------------
 Center     Atomic      Atomic             Coordinates (Angstroms)
 Number     Number       Type             X           Y           Z
 ---------------------------------------------------------------------
      1          1           0       -2.625840    0.789790   -1.872510
      2          6           0       -2.966580    1.506390   -1.106310
      3          6           0       -2.381650    2.881300   -1.350270
      4          8           0       -2.528370    1.051890    0.195280
      5          1           0       -4.069270    1.535310   -1.116200
      6          1           0       -2.728480    3.268960   -2.319080
      7          1           0       -1.284030    2.837500   -1.365720
      8          1           0       -2.690920    3.582510   -0.563400
      9         15           0       -2.474980   -0.518590    0.598160
     10          6           0       -4.174670   -1.120270    0.441340
     11         16           0       -1.471230   -1.558900   -0.942150
     12          8           0       -1.850750   -0.667930    1.938470
     13          1           0       -4.539090   -1.016490   -0.590120
     14          1           0       -4.206220   -2.176010    0.735840
     15          1           0       -4.808340   -0.529650    1.117180
     16          6           0        0.242100   -1.313530   -0.320830
     17          6           0        0.804270    0.080630   -0.649110
     18          1           0        0.821270   -2.109760   -0.809310
     19          1           0        0.223940   -1.503980    0.760850
     20          7           0        2.172100    0.321479   -0.213340
     21          1           0        0.758960    0.230550   -1.740240
     22          1           0        0.142260    0.837360   -0.209280
     23          6           0        3.162110   -0.454211   -1.000470
     24          6           0        2.386640    0.434249    1.243450
     25          6           0        4.246990    0.444299   -1.611910
     26          6           0        3.771740   -1.672981   -0.290950
     27          1           0        2.591540   -0.854111   -1.855720
     28          6           0        3.695340    1.171239    1.551870
     29          6           0        1.237580    1.177709    1.930440
     30          1           0        2.452630   -0.571251    1.713870
     31          1           0        4.844870   -0.122701   -2.342280
     32          1           0        3.782740    1.295749   -2.127600
     33          1           0        4.933520    0.842779   -0.854140
     34          1           0        4.384380   -2.245201   -1.002710
     35          1           0        2.996850   -2.345101    0.103830
     36          1           0        4.424480   -1.386631    0.545290
     37          1           0        3.682450    2.171649    1.094240
     38          1           0        4.583000    0.640019    1.188400
     39          1           0        3.804680    1.285379    2.640000
     40          1           0        1.083530    2.164169    1.465710
     41          1           0        0.286910    0.628340    1.920950
     42          1           0        1.503630    1.341099    2.984030
 ---------------------------------------------------------------------

 SCF Done:  E(RHF) =  -1374.50701444     A.U. after    2 cycles

 The electronic state is 1-A.
 Alpha  occ. eigenvalues --  -93.54048 -81.39468 -20.60028 -20.51559 -15.60003
 Alpha  occ. eigenvalues --  -11.31382 -11.27221 -11.26478 -11.26216 -11.25999
 Alpha  occ. eigenvalues --  -11.25764 -11.24251 -11.22464 -11.21760 -11.21482
 Alpha  occ. eigenvalues --  -11.20672  -8.83980  -7.88054  -6.18134  -6.17934
 Alpha  occ. eigenvalues --   -6.17653  -5.02605  -5.02399  -5.02229  -1.34951
 Alpha  occ. eigenvalues --   -1.24411  -1.19174  -1.05953  -1.04506  -1.03153
 Alpha  occ. eigenvalues --   -1.00204  -0.98588  -0.92533  -0.91463  -0.90080
 Alpha  occ. eigenvalues --   -0.86599  -0.83038  -0.80886  -0.75324  -0.72860
 Alpha  occ. eigenvalues --   -0.68563  -0.66223  -0.66038  -0.64633  -0.63555
 Alpha  occ. eigenvalues --   -0.63104  -0.60707  -0.59953  -0.58762  -0.58471
 Alpha  occ. eigenvalues --   -0.57434  -0.57011  -0.55313  -0.55248  -0.54990
 Alpha  occ. eigenvalues --   -0.54225  -0.54017  -0.53324  -0.52429  -0.51572
 Alpha  occ. eigenvalues --   -0.50700  -0.50437  -0.48988  -0.48688  -0.48415
 Alpha  occ. eigenvalues --   -0.47440  -0.47240  -0.45865  -0.45177  -0.44747
 Alpha  occ. eigenvalues --   -0.42049  -0.37797  -0.32884
 Alpha virt. eigenvalues --    0.02803   0.03478   0.03890   0.04247   0.04774
 Alpha virt. eigenvalues --    0.05113   0.05196   0.06055   0.06326   0.06759
 Alpha virt. eigenvalues --    0.06901   0.07099   0.07260   0.07583   0.08440

 Mulliken charges:
               1
     1  H   -0.083836
     2  C    0.710064
     3  C    0.319753
     4  O   -0.993144
     5  H   -0.258563
     6  H   -0.018003
     7  H   -0.114740
     8  H   -0.046308
     9  P    1.893212
    10  C    0.390130
    11  S    0.115113
    12  O   -1.155976
    13  H   -0.102817
    14  H   -0.128974
    15  H   -0.089383
    16  C    0.285172
    17  C    0.014240
    18  H   -0.210220
    19  H   -0.067300
    20  N   -0.254461
    21  H   -0.329084
    22  H   -0.621342
    23  C   -0.631845
    24  C   -0.727045
    25  C    0.788853
    26  C    0.919505
    27  H   -0.264568
    28  C    0.774142
    29  C    1.081837
    30  H   -0.242206
    31  H   -0.040512
    32  H   -0.024025
    33  H   -0.113718
    34  H   -0.163797
    35  H   -0.054021
    36  H   -0.031723
    37  H    0.042305
    38  H   -0.103986
    39  H   -0.087907
    40  H    0.058079
    41  H   -0.341548
    42  H   -0.091348
 Sum of Mulliken charges =   0.00000

 Dipole moment (field-independent basis, Debye):
    X=             -1.7419    Y=              0.1099    Z=             -3.8186  Tot=              4.1986

 Test job not archived.
 1\1\GINC-SE230\SP\RHF\Aug-CC-pVDZ\C11H26N1O2P1S1\OHZDE\08-Apr-2025\0\\
 #t hf aug-cc-pvdz iop(5/13=1,5/36=2,99/5=2) pseudo=read geom=check gue
 ss=(read,tcheck) scf=(maxcycle=1)\\title\\0,1\H,0,-2.62584,0.78979,-1.
 87251\C,0,-2.96658,1.50639,-1.10631\C,0,-2.38165,2.8813,-1.35027\O,0,-
 2.52837,1.05189,0.19528\H,0,-4.06927,1.53531,-1.1162\H,0,-2.72848,3.26
 896,-2.31908\H,0,-1.28403,2.8375,-1.36572\H,0,-2.69092,3.58251,-0.5634
 \P,0,-2.47498,-0.51859,0.59816\C,0,-4.17467,-1.12027,0.44134\S,0,-1.47
 123,-1.5589,-0.94215\O,0,-1.85075,-0.66793,1.93847\H,0,-4.53909,-1.016

 Normal termination of Gaussian 16 at Tue Apr  8 18:25:33 2025.
