 Gaussian 16, Revision C.01,

 ----------------------------------------------------------------------
 #t hf aug-cc-pvdz symm=none int=(grid=ultrafine) guess=(read,tcheck) s
 table=(opt,rrhf)
 ----------------------------------------------------------------------
 -----
 title
 -----
 Symbolic Z-matrix:
 Charge =  0 Multiplicity = 1

 SCF Done:  E(RHF) =  -1153.32897288     A.U. after   17 cycles
 Normal termination of Gaussian 16 at Tue Apr  8 17:33:47 2025.
 Gaussian 16:  ES64L-G16RevC.01  3-Jul-2019

 ----------------------------------------------------------------------
 #t hf aug-cc-pvdz iop(5/13=1,5/36=2,99/5=2) pseudo=read geom=check gue
 ss=(read,tcheck) scf=(maxcycle=1)
 ----------------------------------------------------------------------
 -----
 title
 -----
 Structure from the checkpoint file:  "37Conf8_Pyridoxalphosphate_2_mol1.chk"
 Charge =  0 Multiplicity = 1

                         Standard orientation:
 ---------------------------------------------------------------------
 Center     Atomic      Atomic             Coordinates (Angstroms)
 Number     Number       Type             X           Y           Z
 ---------------------------------------------------------------------
      1          1           0       -3.057593    2.011527   -0.482170
      2          8           0       -3.461843    1.085247   -0.587610
      3          6           0       -2.534652    0.242177   -0.125610
      4          6           0       -1.290112    0.697059    0.373830
      5          6           0       -2.812591   -1.155303   -0.141250
      6          6           0       -1.020384    2.127739    0.380150
      7          6           0       -0.363051   -0.267571    0.847190
      8          7           0       -1.921030   -2.035722    0.305380
      9          6           0       -4.122840   -1.646484   -0.671410
     10          8           0       -1.837654    2.970358   -0.025090
     11          1           0       -0.036254    2.467380    0.760120
     12          6           0       -0.735050   -1.602411    0.782950
     13          6           0        0.979908    0.113181    1.402530
     14          1           0       -4.269120   -1.328384   -1.714970
     15          1           0       -4.153799   -2.739614   -0.610780
     16          1           0       -4.961491   -1.220285   -0.099810
     17          1           0       -0.044940   -2.377820    1.127780
     18          8           0        1.800488    0.780071    0.398520
     19          1           0        1.494819   -0.778419    1.787620
     20          1           0        0.892048    0.835340    2.226870
     21         15           0        2.913028   -0.040088   -0.425590
     22          8           0        2.194400   -1.406048   -0.885740
     23          8           0        3.883859   -0.683147    0.686090
     24          8           0        3.546218    0.807443   -1.448970
     25          1           0        1.517439   -1.239049   -1.566290
     26          1           0        4.759569   -0.261016    0.629900
 ---------------------------------------------------------------------

 SCF Done:  E(RHF) =  -1153.64750636     A.U. after    2 cycles

 The electronic state is 1-A.
 Alpha  occ. eigenvalues --  -81.46575 -20.63627 -20.63552 -20.63059 -20.61463
 Alpha  occ. eigenvalues --  -20.60874 -20.54268 -15.66324 -11.38656 -11.35560
 Alpha  occ. eigenvalues --  -11.34886 -11.31284 -11.29854 -11.29381 -11.28860
 Alpha  occ. eigenvalues --  -11.24636  -7.94357  -5.09028  -5.08944  -5.08908
 Alpha  occ. eigenvalues --   -1.41076  -1.40308  -1.36919  -1.36596  -1.36222
 Alpha  occ. eigenvalues --   -1.27246  -1.25313  -1.12830  -1.06911  -1.01494
 Alpha  occ. eigenvalues --   -0.94335  -0.93667  -0.87001  -0.86156  -0.83989
 Alpha  occ. eigenvalues --   -0.77818  -0.75206  -0.74309  -0.72213  -0.71425
 Alpha  occ. eigenvalues --   -0.70364  -0.68721  -0.68493  -0.67278  -0.65606
 Alpha  occ. eigenvalues --   -0.64334  -0.63771  -0.62260  -0.60689  -0.59448
 Alpha  occ. eigenvalues --   -0.58714  -0.58357  -0.56978  -0.55936  -0.55484
 Alpha  occ. eigenvalues --   -0.54636  -0.53065  -0.52652  -0.50573  -0.50196
 Alpha  occ. eigenvalues --   -0.48759  -0.43325  -0.40577  -0.34017
 Alpha virt. eigenvalues --    0.01864   0.02676   0.03302   0.03971   0.04239
 Alpha virt. eigenvalues --    0.04738   0.05786   0.05874   0.06662   0.07638
 Alpha virt. eigenvalues --    0.07983   0.08882   0.09040   0.09369   0.10423

 Mulliken charges:
               1
     1  H    0.277472
     2  O   -0.677491
     3  C   -0.157412
     4  C   -0.523216
     5  C   -0.732199
     6  C    0.830139
     7  C    0.841045
     8  N   -0.595124
     9  C    0.898707
    10  O   -0.690076
    11  H   -0.370824
    12  C    0.871082
    13  C    1.025409
    14  H    0.111845
    15  H   -0.114966
    16  H    0.112801
    17  H   -0.486527
    18  O   -0.975819
    19  H   -0.217902
    20  H   -0.027899
    21  P    2.486723
    22  O   -0.747940
    23  O   -0.691700
    24  O   -0.836074
    25  H    0.199041
    26  H    0.190904
 Sum of Mulliken charges =  -0.00000

 Dipole moment (field-independent basis, Debye):
    X=              0.3074    Y=             -1.9617    Z=              3.2603  Tot=              3.8173

 Test job not archived.
 1\1\GINC-SE335\SP\RHF\Aug-CC-pVDZ\C8H10N1O6P1\OHZDE\08-Apr-2025\0\\#t
 hf aug-cc-pvdz iop(5/13=1,5/36=2,99/5=2) pseudo=read geom=check guess=
 (read,tcheck) scf=(maxcycle=1)\\title\\0,1\H,0,-3.05759,2.01153,-0.482
 17\O,0,-3.46184,1.08525,-0.58761\C,0,-2.53465,0.24218,-0.12561\C,0,-1.
 29011,0.69706,0.37383\C,0,-2.81259,-1.1553,-0.14125\C,0,-1.02038,2.127
 74,0.38015\C,0,-0.36305,-0.26757,0.84719\N,0,-1.92103,-2.03572,0.30538
 \C,0,-4.12284,-1.64648,-0.67141\O,0,-1.83765,2.97036,-0.02509\H,0,-0.0
 3625,2.46738,0.76012\C,0,-0.73505,-1.60241,0.78295\C,0,0.97991,0.11318

 Normal termination of Gaussian 16 at Tue Apr  8 17:34:17 2025.
