 Gaussian 16, Revision C.01,

 ----------------------------------------------------------------------
 #t hf aug-cc-pvdz symm=none int=(grid=ultrafine) guess=(read,tcheck) s
 table=(opt,rrhf)
 ----------------------------------------------------------------------
 -----
 title
 -----
 Symbolic Z-matrix:
 Charge =  0 Multiplicity = 1

 SCF Done:  E(RHF) =  -1153.32424716     A.U. after   16 cycles
 Normal termination of Gaussian 16 at Tue Apr  8 17:39:12 2025.
 Gaussian 16:  ES64L-G16RevC.01  3-Jul-2019

 ----------------------------------------------------------------------
 #t hf aug-cc-pvdz iop(5/13=1,5/36=2,99/5=2) pseudo=read geom=check gue
 ss=(read,tcheck) scf=(maxcycle=1)
 ----------------------------------------------------------------------
 -----
 title
 -----
 Structure from the checkpoint file:  "37Conf8_Pyridoxalphosphate_5_mol1.chk"
 Charge =  0 Multiplicity = 1

                         Standard orientation:
 ---------------------------------------------------------------------
 Center     Atomic      Atomic             Coordinates (Angstroms)
 Number     Number       Type             X           Y           Z
 ---------------------------------------------------------------------
      1          1           0       -3.771890    1.383128   -1.073962
      2          8           0       -2.902170    1.651549   -0.725482
      3          6           0       -2.308120    0.564839   -0.159102
      4          6           0       -1.035920    0.720250    0.433728
      5          6           0       -2.932659   -0.701241   -0.187082
      6          6           0       -0.472771    2.082030    0.461108
      7          6           0       -0.434979   -0.432970    0.992388
      8          7           0       -2.354248   -1.769681    0.364398
      9          6           0       -4.273809   -0.875432   -0.842052
     10          8           0        0.697929    2.397681    0.662738
     11          1           0       -1.219591    2.885440    0.290528
     12          6           0       -1.151558   -1.627230    0.937938
     13          6           0        0.925431   -0.471019    1.647808
     14          1           0       -5.048729   -0.239413   -0.379602
     15          1           0       -4.587378   -1.919522   -0.734942
     16          1           0       -4.237729   -0.639032   -1.919222
     17          1           0       -0.720188   -2.530450    1.379508
     18          8           0        1.929261   -1.065248    0.790928
     19          1           0        0.885951   -1.139279    2.518358
     20          1           0        1.253160    0.521601    1.982798
     21         15           0        2.387831   -0.273868   -0.546182
     22          8           0        2.988410    1.110072   -0.029872
     23          8           0        3.714011   -1.099857   -0.899412
     24          8           0        1.366011   -0.200499   -1.616192
     25          1           0        2.233440    1.709032    0.216398
     26          1           0        3.633921   -1.440647   -1.808012
 ---------------------------------------------------------------------

 SCF Done:  E(RHF) =  -1153.64206459     A.U. after    2 cycles

 The electronic state is 1-A.
 Alpha  occ. eigenvalues --  -81.43810 -20.64427 -20.61033 -20.60651 -20.60427
 Alpha  occ. eigenvalues --  -20.59384 -20.52117 -15.66362 -11.38556 -11.35528
 Alpha  occ. eigenvalues --  -11.32829 -11.31599 -11.29707 -11.29522 -11.29009
 Alpha  occ. eigenvalues --  -11.26885  -7.91617  -5.06271  -5.06231  -5.06181
 Alpha  occ. eigenvalues --   -1.40903  -1.38762  -1.37978  -1.34150  -1.32851
 Alpha  occ. eigenvalues --   -1.25561  -1.24794  -1.12404  -1.07534  -1.01935
 Alpha  occ. eigenvalues --   -0.94338  -0.93229  -0.87496  -0.83747  -0.81636
 Alpha  occ. eigenvalues --   -0.78340  -0.75850  -0.73506  -0.72099  -0.70515
 Alpha  occ. eigenvalues --   -0.67749  -0.67293  -0.66526  -0.65676  -0.65080
 Alpha  occ. eigenvalues --   -0.64197  -0.63096  -0.62489  -0.60133  -0.58772
 Alpha  occ. eigenvalues --   -0.57951  -0.57715  -0.57245  -0.56192  -0.55466
 Alpha  occ. eigenvalues --   -0.53451  -0.52768  -0.51686  -0.48394  -0.48052
 Alpha  occ. eigenvalues --   -0.47297  -0.43507  -0.40177  -0.34653
 Alpha virt. eigenvalues --    0.02200   0.02387   0.03541   0.03786   0.04618
 Alpha virt. eigenvalues --    0.05289   0.05466   0.05654   0.07362   0.07803
 Alpha virt. eigenvalues --    0.08046   0.08753   0.09676   0.09759   0.10426

 Mulliken charges:
               1
     1  H    0.162298
     2  O   -0.637397
     3  C   -0.277952
     4  C    0.233141
     5  C   -0.037675
     6  C    0.599401
     7  C    0.296481
     8  N   -0.583222
     9  C    0.531171
    10  O   -0.608351
    11  H   -0.327313
    12  C    0.561870
    13  C    1.025140
    14  H    0.186830
    15  H   -0.153118
    16  H    0.198299
    17  H   -0.451715
    18  O   -1.052469
    19  H   -0.207821
    20  H   -0.143105
    21  P    2.637410
    22  O   -0.718678
    23  O   -0.656447
    24  O   -0.970425
    25  H    0.237416
    26  H    0.156231
 Sum of Mulliken charges =   0.00000

 Dipole moment (field-independent basis, Debye):
    X=             -5.8832    Y=             -0.0551    Z=              1.0487  Tot=              5.9762

 Test job not archived.
 1\1\GINC-SE048\SP\RHF\Aug-CC-pVDZ\C8H10N1O6P1\OHZDE\08-Apr-2025\0\\#t
 hf aug-cc-pvdz iop(5/13=1,5/36=2,99/5=2) pseudo=read geom=check guess=
 (read,tcheck) scf=(maxcycle=1)\\title\\0,1\H,0,3.77189,1.38313,1.07396
 \O,0,2.90217,1.65155,0.72548\C,0,2.30812,0.56484,0.1591\C,0,1.03592,0.
 72025,-0.43373\C,0,2.93266,-0.70124,0.18708\C,0,0.47277,2.08203,-0.461
 11\C,0,0.43498,-0.43297,-0.99239\N,0,2.35425,-1.76968,-0.3644\C,0,4.27
 381,-0.87543,0.84205\O,0,-0.69793,2.39768,-0.66274\H,0,1.21959,2.88544
 ,-0.29053\C,0,1.15156,-1.62723,-0.93794\C,0,-0.92543,-0.47102,-1.64781

 Normal termination of Gaussian 16 at Tue Apr  8 17:39:44 2025.
