 Gaussian 16, Revision C.01,

 ----------------------------------------------------------------------
 #t hf aug-cc-pvdz symm=none int=(grid=ultrafine) guess=(read,tcheck) s
 table=(opt,rrhf)
 ----------------------------------------------------------------------
 -----
 title
 -----
 Symbolic Z-matrix:
 Charge =  0 Multiplicity = 1

 SCF Done:  E(RHF) =  -822.382380918     A.U. after   17 cycles
 Normal termination of Gaussian 16 at Tue Apr  8 17:48:28 2025.
 Gaussian 16:  ES64L-G16RevC.01  3-Jul-2019

 ----------------------------------------------------------------------
 #t hf aug-cc-pvdz iop(5/13=1,5/36=2,99/5=2) pseudo=read geom=check gue
 ss=(read,tcheck) scf=(maxcycle=1)
 ----------------------------------------------------------------------
 -----
 title
 -----
 Structure from the checkpoint file:  "37Conf8_Propranolol_8_mol2.chk"
 Charge =  0 Multiplicity = 1

                         Standard orientation:
 ---------------------------------------------------------------------
 Center     Atomic      Atomic             Coordinates (Angstroms)
 Number     Number       Type             X           Y           Z
 ---------------------------------------------------------------------
      1          1           0       -4.075160   -1.165730   -0.233521
      2          8           0       -3.810549   -1.642550   -1.054471
      3          6           0       -2.623270   -0.959580   -1.440341
      4          6           0       -2.791640    0.547670   -1.191111
      5          6           0       -1.455209   -1.573410   -0.665881
      6          1           0       -2.476490   -1.129170   -2.519271
      7          7           0       -3.240980    0.775860    0.187109
      8          1           0       -3.566970    0.906780   -1.883631
      9          1           0       -1.856130    1.079400   -1.433401
     10          6           0       -2.212790    1.218860    1.149879
     11          1           0       -4.012260    1.444540    0.202249
     12          6           0       -1.696690    2.636620    0.878619
     13          6           0       -2.775270    1.092570    2.562819
     14          1           0       -1.364110    0.524190    1.048979
     15          1           0       -1.296410    2.734800   -0.140361
     16          1           0       -2.507930    3.372050    1.003849
     17          1           0       -0.888660    2.900980    1.576189
     18          1           0       -3.646170    1.755370    2.693609
     19          1           0       -3.099640    0.062280    2.762819
     20          1           0       -2.024100    1.378330    3.312409
     21          8           0       -0.267230   -0.832400   -0.959921
     22          1           0       -1.335399   -2.632670   -0.948421
     23          1           0       -1.675589   -1.529270    0.415259
     24          6           0        0.834750   -1.051120   -0.186731
     25          6           0        0.943421   -2.069390    0.745639
     26          6           0        1.912190   -0.129550   -0.389181
     27          1           0        0.127501   -2.774750    0.894649
     28          6           0        2.129531   -2.207750    1.504559
     29          6           0        1.830010    0.931390   -1.324791
     30          6           0        3.104190   -0.287650    0.391149
     31          1           0        2.194841   -3.019520    2.231129
     32          6           0        3.187690   -1.343710    1.337789
     33          1           0        0.920970    1.040060   -1.915881
     34          6           0        2.884470    1.807200   -1.489591
     35          6           0        4.167540    0.631160    0.192639
     36          1           0        4.099701   -1.455900    1.926829
     37          1           0        2.809110    2.620320   -2.213511
     38          6           0        4.063290    1.655680   -0.725051
     39          1           0        5.076690    0.510210    0.785999
     40          1           0        4.891990    2.352320   -0.863101
 ---------------------------------------------------------------------

 SCF Done:  E(RHF) =  -822.624877033     A.U. after    2 cycles

 The electronic state is 1-A.
 Alpha  occ. eigenvalues --  -20.60470 -20.56401 -15.61884 -11.31965 -11.29643
 Alpha  occ. eigenvalues --  -11.29058 -11.27049 -11.26559 -11.25827 -11.25359
 Alpha  occ. eigenvalues --  -11.25291 -11.25091 -11.24915 -11.24801 -11.24702
 Alpha  occ. eigenvalues --  -11.24241 -11.24050 -11.22907 -11.22841  -1.37538
 Alpha  occ. eigenvalues --   -1.31651  -1.18406  -1.16370  -1.10127  -1.05512
 Alpha  occ. eigenvalues --   -1.03627  -1.00924  -0.99932  -0.96725  -0.93349
 Alpha  occ. eigenvalues --   -0.91658  -0.85445  -0.84805  -0.81822  -0.79912
 Alpha  occ. eigenvalues --   -0.79030  -0.73087  -0.71881  -0.69901  -0.69382
 Alpha  occ. eigenvalues --   -0.66561  -0.65936  -0.65777  -0.64667  -0.63414
 Alpha  occ. eigenvalues --   -0.61012  -0.60739  -0.60459  -0.59437  -0.58244
 Alpha  occ. eigenvalues --   -0.57458  -0.57047  -0.54799  -0.54167  -0.53851
 Alpha  occ. eigenvalues --   -0.53671  -0.52922  -0.50989  -0.50396  -0.49463
 Alpha  occ. eigenvalues --   -0.49183  -0.48767  -0.48044  -0.46752  -0.45331
 Alpha  occ. eigenvalues --   -0.44695  -0.37743  -0.37466  -0.32755  -0.28474
 Alpha virt. eigenvalues --    0.02861   0.03302   0.03509   0.04104   0.04527
 Alpha virt. eigenvalues --    0.04764   0.05366   0.05842   0.06272   0.06601
 Alpha virt. eigenvalues --    0.06997   0.07525   0.07710   0.08004   0.08362

 Mulliken charges:
               1
     1  H    0.218881
     2  O   -0.649098
     3  C    0.492961
     4  C    1.106275
     5  C    0.611926
     6  H   -0.189291
     7  N   -0.802014
     8  H   -0.154594
     9  H   -0.189872
    10  C   -1.060964
    11  H    0.020737
    12  C    0.730430
    13  C    1.236781
    14  H   -0.428582
    15  H   -0.147883
    16  H   -0.023487
    17  H   -0.023170
    18  H   -0.061974
    19  H   -0.054776
    20  H   -0.027312
    21  O   -0.602066
    22  H   -0.299120
    23  H   -0.123736
    24  C   -0.225968
    25  C    0.305843
    26  C    0.818487
    27  H   -0.739205
    28  C    0.644868
    29  C    0.724982
    30  C    0.511258
    31  H   -0.466764
    32  C    0.606695
    33  H   -0.760881
    34  C    0.018659
    35  C    0.681273
    36  H   -0.595509
    37  H   -0.481453
    38  C    0.399893
    39  H   -0.579534
    40  H   -0.442695
 Sum of Mulliken charges =   0.00000

 Dipole moment (field-independent basis, Debye):
    X=              0.4438    Y=              2.1001    Z=              1.2647  Tot=              2.4913

 Test job not archived.
 1\1\GINC-SE459\SP\RHF\Aug-CC-pVDZ\C16H21N1O2\OHZDE\08-Apr-2025\0\\#t h
 f aug-cc-pvdz iop(5/13=1,5/36=2,99/5=2) pseudo=read geom=check guess=(
 read,tcheck) scf=(maxcycle=1)\\title\\0,1\H,0,-4.07516,-1.16573,-0.233
 52\O,0,-3.81055,-1.64255,-1.05447\C,0,-2.62327,-0.95958,-1.44034\C,0,-
 2.79164,0.54767,-1.19111\C,0,-1.45521,-1.57341,-0.66588\H,0,-2.47649,-
 1.12917,-2.51927\N,0,-3.24098,0.77586,0.18711\H,0,-3.56697,0.90678,-1.
 88363\H,0,-1.85613,1.0794,-1.4334\C,0,-2.21279,1.21886,1.14988\H,0,-4.
 01226,1.44454,0.20225\C,0,-1.69669,2.63662,0.87862\C,0,-2.77527,1.0925

 Normal termination of Gaussian 16 at Tue Apr  8 17:49:50 2025.
