 Gaussian 16, Revision C.01,

 ----------------------------------------------------------------------
 #t hf aug-cc-pvdz symm=none int=(grid=ultrafine) guess=(read,tcheck) s
 table=(opt,rrhf)
 ----------------------------------------------------------------------
 -----
 title
 -----
 Symbolic Z-matrix:
 Charge =  0 Multiplicity = 1

 SCF Done:  E(RHF) =  -1673.89003381     A.U. after   17 cycles
 Normal termination of Gaussian 16 at Tue Apr  8 18:17:55 2025.
 Gaussian 16:  ES64L-G16RevC.01  3-Jul-2019

 ----------------------------------------------------------------------
 #t hf aug-cc-pvdz iop(5/13=1,5/36=2,99/5=2) pseudo=read geom=check gue
 ss=(read,tcheck) scf=(maxcycle=1)
 ----------------------------------------------------------------------
 -----
 title
 -----
 Structure from the checkpoint file:  "37Conf8_Pantoprazole_5_mol1.chk"
 Charge =  0 Multiplicity = 1

                         Standard orientation:
 ---------------------------------------------------------------------
 Center     Atomic      Atomic             Coordinates (Angstroms)
 Number     Number       Type             X           Y           Z
 ---------------------------------------------------------------------
      1          1           0       -1.014160    2.690870    2.831741
      2          6           0       -1.510340    2.177150    2.007261
      3          6           0       -2.728120    1.523520    2.174531
      4          6           0       -0.901530    2.166870    0.748961
      5          1           0       -3.230760    1.535580    3.146061
      6          7           0       -3.347360    0.846180    1.199731
      7          8           0        0.281890    2.830440    0.596991
      8          6           0       -1.574790    1.518200   -0.308769
      9          6           0       -2.775950    0.833180   -0.017309
     10          6           0        1.382540    2.052390    0.073281
     11          8           0       -1.094170    1.506620   -1.595269
     12          6           0       -3.442370    0.011230   -1.065939
     13          1           0        1.164510    1.649350   -0.924399
     14          1           0        2.235790    2.736850    0.027851
     15          1           0        1.612060    1.223460    0.758441
     16          6           0       -1.002670    2.804450   -2.213069
     17         16           0       -3.184260   -1.844900   -0.849839
     18          1           0       -3.069890    0.220390   -2.076639
     19          1           0       -4.536670    0.091881   -1.017619
     20          6           0       -1.419790   -1.738210   -0.503839
     21          8           0       -3.782440   -2.268140    0.457801
     22          7           0       -0.429660   -1.638610   -1.361909
     23          7           0       -1.034940   -1.767720    0.811231
     24          6           0        0.700820   -1.564850   -0.559109
     25          1           0       -1.696880   -1.834560    1.582101
     26          6           0        0.339280   -1.643940    0.818621
     27          6           0        2.044840   -1.418970   -0.924269
     28          6           0        1.285860   -1.589310    1.843691
     29          1           0        2.350490   -1.352090   -1.967149
     30          6           0        2.971230   -1.346470    0.106451
     31          1           0        1.005780   -1.654780    2.895231
     32          6           0        2.617420   -1.436300    1.465241
     33          8           0        4.343110   -1.244421   -0.217039
     34          1           0        3.405420   -1.378780    2.214961
     35          6           0        4.855100    0.014209   -0.338689
     36          9           0        4.214080    0.746269   -1.313809
     37          9           0        4.717880    0.746729    0.819271
     38          1           0        5.921010   -0.067911   -0.591179
     39          1           0       -0.609570    2.628850   -3.220879
     40          1           0       -2.000909    3.266390   -2.278749
     41          1           0       -0.328309    3.472050   -1.656949
 ---------------------------------------------------------------------

 SCF Done:  E(RHF) =  -1674.31762310     A.U. after    2 cycles

 The electronic state is 1-A.
 Alpha  occ. eigenvalues --  -93.68382 -26.15218 -26.15186 -20.63664 -20.60751
 Alpha  occ. eigenvalues --  -20.60736 -20.53717 -15.69614 -15.63988 -15.63894
 Alpha  occ. eigenvalues --  -11.49505 -11.35736 -11.33742 -11.32306 -11.32219
 Alpha  occ. eigenvalues --  -11.30948 -11.30485 -11.30356 -11.29511 -11.29409
 Alpha  occ. eigenvalues --  -11.29367 -11.28895 -11.27169 -11.26590 -11.26505
 Alpha  occ. eigenvalues --  -11.25937  -8.96665  -6.30930  -6.30796  -6.30482
 Alpha  occ. eigenvalues --   -1.71578  -1.66774  -1.40908  -1.38565  -1.36095
 Alpha  occ. eigenvalues --   -1.33985  -1.31166  -1.23933  -1.16437  -1.15018
 Alpha  occ. eigenvalues --   -1.08637  -1.07259  -1.04332  -1.02871  -1.00288
 Alpha  occ. eigenvalues --   -0.97853  -0.95995  -0.93782  -0.91750  -0.87355
 Alpha  occ. eigenvalues --   -0.85881  -0.84616  -0.84057  -0.83642  -0.83256
 Alpha  occ. eigenvalues --   -0.81174  -0.79279  -0.75218  -0.74266  -0.74104
 Alpha  occ. eigenvalues --   -0.73760  -0.72757  -0.71019  -0.70806  -0.68693
 Alpha  occ. eigenvalues --   -0.67195  -0.66261  -0.66109  -0.64992  -0.64954
 Alpha  occ. eigenvalues --   -0.64141  -0.63610  -0.63192  -0.62619  -0.62296
 Alpha  occ. eigenvalues --   -0.61691  -0.60745  -0.60013  -0.58430  -0.57284
 Alpha  occ. eigenvalues --   -0.56820  -0.56409  -0.54992  -0.54485  -0.53378
 Alpha  occ. eigenvalues --   -0.52787  -0.52692  -0.50918  -0.48985  -0.47132
 Alpha  occ. eigenvalues --   -0.46536  -0.44934  -0.44204  -0.43046  -0.40384
 Alpha  occ. eigenvalues --   -0.37005  -0.34406  -0.33309  -0.32191
 Alpha virt. eigenvalues --    0.02774   0.03053   0.03422   0.04265   0.04539
 Alpha virt. eigenvalues --    0.04908   0.05360   0.05717   0.05967   0.06292
 Alpha virt. eigenvalues --    0.07005   0.07535   0.07672   0.08111   0.08356

 Mulliken charges:
               1
     1  H   -0.561641
     2  C    1.175975
     3  C    0.641639
     4  C   -0.496408
     5  H   -0.441268
     6  N   -0.635746
     7  O   -0.898113
     8  C    1.152078
     9  C   -0.117297
    10  C    1.072951
    11  O   -0.823012
    12  C    0.338357
    13  H   -0.182148
    14  H   -0.172327
    15  H   -0.202898
    16  C    0.909830
    17  S    1.393217
    18  H   -0.183840
    19  H   -0.056878
    20  C   -0.028923
    21  O   -1.141100
    22  N   -1.036943
    23  N   -0.508310
    24  C   -0.177949
    25  H   -0.070815
    26  C   -0.321222
    27  C    1.171494
    28  C    1.476128
    29  H   -0.622055
    30  C    0.618834
    31  H   -0.614393
    32  C    1.043222
    33  O   -0.859921
    34  H   -0.618667
    35  C    1.210683
    36  F   -0.357004
    37  F   -0.375811
    38  H   -0.303063
    39  H   -0.176441
    40  H   -0.091617
    41  H   -0.128599
 Sum of Mulliken charges =  -0.00000

 Dipole moment (field-independent basis, Debye):
    X=              2.5974    Y=              2.8221    Z=             -0.2832  Tot=              3.8459

 Test job not archived.
 1\1\GINC-SE437\SP\RHF\Aug-CC-pVDZ\C16H15F2N3O4S1\OHZDE\08-Apr-2025\0\\
 #t hf aug-cc-pvdz iop(5/13=1,5/36=2,99/5=2) pseudo=read geom=check gue
 ss=(read,tcheck) scf=(maxcycle=1)\\title\\0,1\H,0,-1.01416,2.69087,2.8
 3174\C,0,-1.51034,2.17715,2.00726\C,0,-2.72812,1.52352,2.17453\C,0,-0.
 90153,2.16687,0.74896\H,0,-3.23076,1.53558,3.14606\N,0,-3.34736,0.8461
 8,1.19973\O,0,0.28189,2.83044,0.59699\C,0,-1.57479,1.5182,-0.30877\C,0
 ,-2.77595,0.83318,-0.01731\C,0,1.38254,2.05239,0.07328\O,0,-1.09417,1.
 50662,-1.59527\C,0,-3.44237,0.01123,-1.06594\H,0,1.16451,1.64935,-0.92

 Normal termination of Gaussian 16 at Tue Apr  8 18:20:14 2025.
