 Gaussian 16, Revision C.01,

 ----------------------------------------------------------------------
 #t hf aug-cc-pvdz symm=none int=(grid=ultrafine) guess=(read,tcheck) s
 table=(opt,rrhf)
 ----------------------------------------------------------------------
 -----
 title
 -----
 Symbolic Z-matrix:
 Charge =  0 Multiplicity = 1

 SCF Done:  E(RHF) =  -898.751280797     A.U. after   15 cycles
 Normal termination of Gaussian 16 at Tue Apr  8 17:41:03 2025.
 Gaussian 16:  ES64L-G16RevC.01  3-Jul-2019

 ----------------------------------------------------------------------
 #t hf aug-cc-pvdz iop(5/13=1,5/36=2,99/5=2) pseudo=read geom=check gue
 ss=(read,tcheck) scf=(maxcycle=1)
 ----------------------------------------------------------------------
 -----
 title
 -----
 Structure from the checkpoint file:  "37Conf8_Knoevenagel_cond_5_mol2.chk"
 Charge =  0 Multiplicity = 1

                         Standard orientation:
 ---------------------------------------------------------------------
 Center     Atomic      Atomic             Coordinates (Angstroms)
 Number     Number       Type             X           Y           Z
 ---------------------------------------------------------------------
      1          8           0        2.216111   -1.061788   -1.622690
      2          6           0        2.027741   -0.832378   -0.445460
      3          6           0        0.672231   -0.747548    0.246970
      4          8           0        3.017311   -0.597488    0.449530
      5          6           0       -0.477479   -1.188349   -0.684160
      6          6           0        0.415310    0.677762    0.739640
      7          1           0        0.716741   -1.370648    1.151700
      8          6           0        4.364041   -0.588067   -0.096200
      9          6           0       -0.480589   -2.708429   -0.886090
     10          7           0       -1.734449   -0.607039   -0.198040
     11          1           0       -0.280419   -0.710859   -1.656140
     12          8           0        0.541620    1.556252   -0.282190
     13          8           0        0.147260    0.983952    1.882360
     14          6           0        5.312151   -0.268057    1.037340
     15          1           0        4.407670    0.159573   -0.902210
     16          1           0        4.566411   -1.571997   -0.545110
     17          1           0        6.345051   -0.249817    0.661640
     18          1           0        5.086530    0.714123    1.474710
     19          1           0        5.247901   -1.024057    1.831840
     20          1           0       -1.312779   -3.012409   -1.536910
     21          1           0        0.453921   -3.029088   -1.365050
     22          1           0       -0.582589   -3.242209    0.070290
     23          6           0       -2.758479   -0.476959   -1.228270
     24          6           0       -2.270349   -1.197309    1.027610
     25          6           0        0.208510    2.930682    0.038400
     26          1           0       -3.185599   -1.466269   -1.517990
     27          1           0       -2.286719   -0.052839   -2.128110
     28          6           0       -3.892280    0.427190   -0.746220
     29          1           0       -2.673909   -2.219969    0.846810
     30          1           0       -1.458579   -1.288079    1.763290
     31          6           0       -3.380529   -0.316109    1.597970
     32          6           0        0.350469    3.741602   -1.229970
     33          1           0       -0.818300    2.951261    0.434180
     34          1           0        0.880800    3.279722    0.836490
     35          1           0       -0.329420    3.373091   -2.010440
     36          1           0        1.378090    3.695352   -1.616020
     37          1           0        0.105279    4.793822   -1.027150
     38          1           0       -4.665370    0.495770   -1.527580
     39          1           0       -3.489260    1.441731   -0.589510
     40          6           0       -4.485809   -0.098300    0.562730
     41          1           0       -3.786059   -0.782910    2.509070
     42          1           0       -2.939740    0.650441    1.890750
     43          1           0       -5.251200    0.592840    0.948060
     44          1           0       -4.995349   -1.059100    0.367890
 ---------------------------------------------------------------------

 SCF Done:  E(RHF) =  -899.026323374     A.U. after    2 cycles

 The electronic state is 1-A.
 Alpha  occ. eigenvalues --  -20.61967 -20.61321 -20.56810 -20.55865 -15.60793
 Alpha  occ. eigenvalues --  -11.40326 -11.39814 -11.30442 -11.29955 -11.27522
 Alpha  occ. eigenvalues --  -11.26991 -11.25705 -11.25350 -11.23957 -11.23688
 Alpha  occ. eigenvalues --  -11.22714 -11.22661 -11.22635 -11.22237  -1.42072
 Alpha  occ. eigenvalues --   -1.40968  -1.32606  -1.31869  -1.20852  -1.09883
 Alpha  occ. eigenvalues --   -1.05337  -1.03618  -1.01736  -1.00622  -0.97093
 Alpha  occ. eigenvalues --   -0.89203  -0.87665  -0.85823  -0.84324  -0.80507
 Alpha  occ. eigenvalues --   -0.79751  -0.77630  -0.74597  -0.73173  -0.70415
 Alpha  occ. eigenvalues --   -0.69455  -0.68643  -0.67645  -0.66972  -0.65704
 Alpha  occ. eigenvalues --   -0.62780  -0.61794  -0.60401  -0.59600  -0.59179
 Alpha  occ. eigenvalues --   -0.58630  -0.58166  -0.56673  -0.56279  -0.55397
 Alpha  occ. eigenvalues --   -0.54974  -0.54538  -0.53429  -0.52930  -0.52630
 Alpha  occ. eigenvalues --   -0.52183  -0.51836  -0.51419  -0.50925  -0.49093
 Alpha  occ. eigenvalues --   -0.48152  -0.47397  -0.47090  -0.46918  -0.46249
 Alpha  occ. eigenvalues --   -0.45047  -0.44461  -0.44116  -0.34738
 Alpha virt. eigenvalues --    0.03214   0.03504   0.03636   0.04131   0.04513
 Alpha virt. eigenvalues --    0.04983   0.05316   0.05663   0.06023   0.06407
 Alpha virt. eigenvalues --    0.06688   0.06835   0.07488   0.07779   0.08344

 Mulliken charges:
               1
     1  O   -0.502230
     2  C    0.309237
     3  C    0.085392
     4  O   -0.561880
     5  C    0.336812
     6  C    0.324218
     7  H   -0.280937
     8  C    0.728925
     9  C    0.764354
    10  N   -1.431052
    11  H   -0.286737
    12  O   -0.601302
    13  O   -0.531843
    14  C    0.293184
    15  H   -0.162874
    16  H   -0.159433
    17  H   -0.032229
    18  H   -0.040081
    19  H   -0.041059
    20  H    0.022770
    21  H   -0.110905
    22  H    0.016720
    23  C    0.583451
    24  C    0.779101
    25  C    0.710909
    26  H   -0.025169
    27  H   -0.316670
    28  C    0.394172
    29  H   -0.095270
    30  H   -0.172594
    31  C    0.313821
    32  C    0.334882
    33  H   -0.153136
    34  H   -0.201295
    35  H   -0.092485
    36  H   -0.061370
    37  H   -0.035391
    38  H   -0.097708
    39  H   -0.000980
    40  C    0.261007
    41  H   -0.101112
    42  H   -0.010921
    43  H   -0.125721
    44  H   -0.026575
 Sum of Mulliken charges =   0.00000

 Dipole moment (field-independent basis, Debye):
    X=              0.2771    Y=              0.2698    Z=             -0.5302  Tot=              0.6563

 Test job not archived.
 1\1\GINC-SE045\SP\RHF\Aug-CC-pVDZ\C14H25N1O4\OHZDE\08-Apr-2025\0\\#t h
 f aug-cc-pvdz iop(5/13=1,5/36=2,99/5=2) pseudo=read geom=check guess=(
 read,tcheck) scf=(maxcycle=1)\\title\\0,1\O,0,2.21611,-1.06179,-1.6226
 9\C,0,2.02774,-0.83238,-0.44546\C,0,0.67223,-0.74755,0.24697\O,0,3.017
 31,-0.59749,0.44953\C,0,-0.47748,-1.18835,-0.68416\C,0,0.41531,0.67776
 ,0.73964\H,0,0.71674,-1.37065,1.1517\C,0,4.36404,-0.58807,-0.0962\C,0,
 -0.48059,-2.70843,-0.88609\N,0,-1.73445,-0.60704,-0.19804\H,0,-0.28042
 ,-0.71086,-1.65614\O,0,0.54162,1.55625,-0.28219\O,0,0.14726,0.98395,1.

 Normal termination of Gaussian 16 at Tue Apr  8 17:42:44 2025.
