 Gaussian 16, Revision C.01,

 ----------------------------------------------------------------------
 #t hf aug-cc-pvdz symm=none int=(grid=ultrafine) guess=(read,tcheck) s
 table=(opt,rrhf)
 ----------------------------------------------------------------------
 -----
 title
 -----
 Symbolic Z-matrix:
 Charge =  0 Multiplicity = 1

 SCF Done:  E(RHF) =  -1374.24040324     A.U. after   14 cycles
 Normal termination of Gaussian 16 at Tue Apr  8 18:26:34 2025.
 Gaussian 16:  ES64L-G16RevC.01  3-Jul-2019

 ----------------------------------------------------------------------
 #t hf aug-cc-pvdz iop(5/13=1,5/36=2,99/5=2) pseudo=read geom=check gue
 ss=(read,tcheck) scf=(maxcycle=1)
 ----------------------------------------------------------------------
 -----
 title
 -----
 Structure from the checkpoint file:  "37Conf8_VX_6_mol1.chk"
 Charge =  0 Multiplicity = 1

                         Standard orientation:
 ---------------------------------------------------------------------
 Center     Atomic      Atomic             Coordinates (Angstroms)
 Number     Number       Type             X           Y           Z
 ---------------------------------------------------------------------
      1          1           0       -2.793581    2.384521    0.406591
      2          6           0       -1.964701    1.999390   -0.205179
      3          6           0       -1.595591    2.948880   -1.322819
      4          8           0       -2.379381    0.739090   -0.799969
      5          1           0       -1.107691    1.813860    0.463211
      6          1           0       -2.451451    3.119360   -1.990169
      7          1           0       -0.763421    2.551330   -1.921139
      8          1           0       -1.286021    3.915850   -0.900929
      9         15           0       -2.777141   -0.468739    0.210681
     10          6           0       -3.558442   -1.597079   -0.966809
     11         16           0       -0.981652   -1.341520    0.877981
     12          8           0       -3.600031   -0.096059    1.390851
     13          1           0       -2.896752   -1.839199   -1.807499
     14          1           0       -4.467861   -1.112789   -1.347489
     15          1           0       -3.825802   -2.514089   -0.428189
     16          6           0       -0.004432   -1.502480   -0.673489
     17          6           0        0.984089   -0.359710   -0.925519
     18          1           0       -0.696502   -1.606320   -1.521989
     19          1           0        0.540608   -2.449720   -0.561129
     20          7           0        2.007839   -0.232370    0.096301
     21          1           0        1.447709   -0.558440   -1.907189
     22          1           0        0.421459    0.581670   -1.051729
     23          6           0        3.387359   -0.524770   -0.312879
     24          6           0        1.787299    0.847810    1.069691
     25          6           0        3.907339    0.252420   -1.538739
     26          6           0        3.572928   -2.031270   -0.528669
     27          1           0        4.015319   -0.238520    0.544701
     28          6           0        2.198319    2.253720    0.598481
     29          6           0        2.405809    0.516900    2.428731
     30          1           0        0.696959    0.852320    1.224341
     31          1           0        3.390719   -0.051530   -2.461929
     32          1           0        4.977519    0.045830   -1.688599
     33          1           0        3.783319    1.335860   -1.421229
     34          1           0        2.968978   -2.384280   -1.379629
     35          1           0        4.623098   -2.270000   -0.753159
     36          1           0        3.265018   -2.590000    0.365241
     37          1           0        1.768119    2.489590   -0.386549
     38          1           0        3.291809    2.351590    0.528441
     39          1           0        1.844369    3.014630    1.310411
     40          1           0        3.505919    0.522960    2.397531
     41          1           0        2.072599   -0.473400    2.766991
     42          1           0        2.099689    1.263800    3.175271
 ---------------------------------------------------------------------

 SCF Done:  E(RHF) =  -1374.51152176     A.U. after    2 cycles

 The electronic state is 1-A.
 Alpha  occ. eigenvalues --  -93.53582 -81.39017 -20.60119 -20.51215 -15.60285
 Alpha  occ. eigenvalues --  -11.30741 -11.27959 -11.27266 -11.26985 -11.26552
 Alpha  occ. eigenvalues --  -11.25373 -11.24274 -11.22799 -11.22766 -11.22757
 Alpha  occ. eigenvalues --  -11.22199  -8.83465  -7.87608  -6.17631  -6.17403
 Alpha  occ. eigenvalues --   -6.17159  -5.02182  -5.01920  -5.01759  -1.34863
 Alpha  occ. eigenvalues --   -1.23970  -1.20143  -1.06522  -1.05457  -1.03304
 Alpha  occ. eigenvalues --   -0.99786  -0.97823  -0.93698  -0.92361  -0.91656
 Alpha  occ. eigenvalues --   -0.86039  -0.83393  -0.81560  -0.75311  -0.73938
 Alpha  occ. eigenvalues --   -0.68215  -0.67029  -0.66417  -0.64081  -0.63373
 Alpha  occ. eigenvalues --   -0.62232  -0.61240  -0.60264  -0.59207  -0.58854
 Alpha  occ. eigenvalues --   -0.58431  -0.56862  -0.56625  -0.56023  -0.55545
 Alpha  occ. eigenvalues --   -0.54234  -0.53876  -0.53766  -0.53566  -0.52601
 Alpha  occ. eigenvalues --   -0.52064  -0.51420  -0.50324  -0.49798  -0.48442
 Alpha  occ. eigenvalues --   -0.47911  -0.46841  -0.46430  -0.45905  -0.44662
 Alpha  occ. eigenvalues --   -0.41419  -0.36887  -0.33541
 Alpha virt. eigenvalues --    0.02668   0.03425   0.03561   0.03946   0.04933
 Alpha virt. eigenvalues --    0.04991   0.05394   0.05770   0.06053   0.06636
 Alpha virt. eigenvalues --    0.06810   0.07098   0.07317   0.07639   0.07995

 Mulliken charges:
               1
     1  H   -0.232523
     2  C    1.023683
     3  C    0.372052
     4  O   -0.905719
     5  H   -0.478974
     6  H   -0.092699
     7  H   -0.183093
     8  H   -0.035708
     9  P    1.992026
    10  C    0.182948
    11  S   -0.133454
    12  O   -1.095161
    13  H   -0.176505
    14  H   -0.114562
    15  H   -0.080423
    16  C    0.584072
    17  C    1.105824
    18  H   -0.330206
    19  H   -0.046688
    20  N   -0.631294
    21  H   -0.286360
    22  H   -0.552570
    23  C   -0.388841
    24  C   -1.576202
    25  C    0.627003
    26  C    0.883733
    27  H   -0.389040
    28  C    0.914403
    29  C    1.238083
    30  H   -0.584779
    31  H   -0.030310
    32  H   -0.061009
    33  H   -0.109261
    34  H   -0.012458
    35  H   -0.075888
    36  H    0.021261
    37  H   -0.085478
    38  H   -0.029869
    39  H   -0.113526
    40  H   -0.063293
    41  H    0.027070
    42  H   -0.076265
 Sum of Mulliken charges =   0.00000

 Dipole moment (field-independent basis, Debye):
    X=              3.2898    Y=              0.4256    Z=             -4.1569  Tot=              5.3183

 Test job not archived.
 1\1\GINC-SE120\SP\RHF\Aug-CC-pVDZ\C11H26N1O2P1S1\OHZDE\08-Apr-2025\0\\
 #t hf aug-cc-pvdz iop(5/13=1,5/36=2,99/5=2) pseudo=read geom=check gue
 ss=(read,tcheck) scf=(maxcycle=1)\\title\\0,1\H,0,-2.79358,2.38452,0.4
 0659\C,0,-1.9647,1.99939,-0.20518\C,0,-1.59559,2.94888,-1.32282\O,0,-2
 .37938,0.73909,-0.79997\H,0,-1.10769,1.81386,0.46321\H,0,-2.45145,3.11
 936,-1.99017\H,0,-0.76342,2.55133,-1.92114\H,0,-1.28602,3.91585,-0.900
 93\P,0,-2.77714,-0.46874,0.21068\C,0,-3.55844,-1.59708,-0.96681\S,0,-0
 .98165,-1.34152,0.87798\O,0,-3.60003,-0.09606,1.39085\H,0,-2.89675,-1.

 Normal termination of Gaussian 16 at Tue Apr  8 18:27:58 2025.
