 Gaussian 16, Revision C.01,

 ----------------------------------------------------------------------
 #t hf aug-cc-pvdz symm=none int=(grid=ultrafine) guess=(read,tcheck) s
 table=(opt,rrhf)
 ----------------------------------------------------------------------
 -----
 title
 -----
 Symbolic Z-matrix:
 Charge =  0 Multiplicity = 1

 SCF Done:  E(RHF) =  -1667.18272532     A.U. after   12 cycles
 Normal termination of Gaussian 16 at Tue Apr  8 17:16:48 2025.
 Gaussian 16:  ES64L-G16RevC.01  3-Jul-2019

 ----------------------------------------------------------------------
 #t hf aug-cc-pvdz iop(5/13=1,5/36=2,99/5=2) pseudo=read geom=check gue
 ss=(read,tcheck) scf=(maxcycle=1)
 ----------------------------------------------------------------------
 -----
 title
 -----
 Structure from the checkpoint file:  "37Conf8_N_iprit_2_mol1.chk"
 Charge =  0 Multiplicity = 1

                         Standard orientation:
 ---------------------------------------------------------------------
 Center     Atomic      Atomic             Coordinates (Angstroms)
 Number     Number       Type             X           Y           Z
 ---------------------------------------------------------------------
      1          1           0       -0.203792   -1.279998    1.999789
      2          6           0        0.051847   -1.454198    0.928379
      3          6           0        1.485677   -1.964010    0.919209
      4          7           0       -0.160071   -0.286018    0.100029
      5          1           0       -0.609774   -2.255348    0.566309
      6         17           0        2.010976   -2.501001   -0.715931
      7          1           0        2.196748   -1.191341    1.239379
      8          1           0        1.583766   -2.827300    1.589269
      9          6           0       -1.473871   -0.140367   -0.497941
     10          6           0        0.507911    0.939721    0.511559
     11          6           0       -2.583410    0.149365    0.517749
     12          1           0       -1.441750    0.674313   -1.237331
     13          1           0       -1.721892   -1.058236   -1.053281
     14          6           0        1.588681    1.316140   -0.500021
     15          1           0       -0.204478    1.776962    0.603449
     16          1           0        0.967000    0.818680    1.506959
     17         17           0       -4.165220    0.369077   -0.314491
     18          1           0       -2.389029    1.071685    1.079819
     19          1           0       -2.711592   -0.679895    1.224739
     20         17           0        2.430303    2.828478    0.006099
     21          1           0        1.154981    1.502080   -1.490021
     22          1           0        2.346300    0.529199   -0.589421
 ---------------------------------------------------------------------

 SCF Done:  E(RHF) =  -1667.32472203     A.U. after    2 cycles

 The electronic state is 1-A.
 Alpha  occ. eigenvalues -- -103.65690-103.65671-103.65188 -15.63647 -11.31902
 Alpha  occ. eigenvalues --  -11.31376 -11.30795 -11.30044 -11.29366 -11.29268
 Alpha  occ. eigenvalues --  -10.68965 -10.68952 -10.68475  -8.34687  -8.34673
 Alpha  occ. eigenvalues --   -8.34400  -8.34392  -8.34389  -8.34386  -8.34195
 Alpha  occ. eigenvalues --   -8.33914  -8.33906  -1.23708  -1.17408  -1.16817
 Alpha  occ. eigenvalues --   -1.15734  -1.03010  -1.02408  -0.94337  -0.87185
 Alpha  occ. eigenvalues --   -0.86565  -0.79477  -0.70745  -0.68506  -0.66510
 Alpha  occ. eigenvalues --   -0.64228  -0.63962  -0.61165  -0.59315  -0.57635
 Alpha  occ. eigenvalues --   -0.57049  -0.55658  -0.54663  -0.52544  -0.52088
 Alpha  occ. eigenvalues --   -0.51659  -0.46065  -0.45675  -0.45540  -0.45258
 Alpha  occ. eigenvalues --   -0.44997  -0.44670  -0.36653
 Alpha virt. eigenvalues --    0.02589   0.03985   0.04180   0.04434   0.06203
 Alpha virt. eigenvalues --    0.06496   0.06735   0.07102   0.07407   0.08772
 Alpha virt. eigenvalues --    0.09058   0.09386   0.09460   0.10751   0.11091

 Mulliken charges:
               1
     1  H   -0.107463
     2  C    0.428473
     3  C    0.227866
     4  N   -0.394076
     5  H   -0.286857
     6  Cl  -0.159079
     7  H   -0.033127
     8  H    0.000672
     9  C    0.614930
    10  C    0.586927
    11  C    0.043562
    12  H   -0.209559
    13  H   -0.212706
    14  C    0.137585
    15  H   -0.196439
    16  H   -0.155938
    17  Cl  -0.154805
    18  H    0.021210
    19  H    0.029479
    20  Cl  -0.152200
    21  H   -0.009513
    22  H   -0.018942
 Sum of Mulliken charges =  -0.00000

 Dipole moment (field-independent basis, Debye):
    X=             -0.2995    Y=             -1.5715    Z=              2.6285  Tot=              3.0770

 Test job not archived.
 1\1\GINC-SE179\SP\RHF\Aug-CC-pVDZ\C6H12Cl3N1\OHZDE\08-Apr-2025\0\\#t h
 f aug-cc-pvdz iop(5/13=1,5/36=2,99/5=2) pseudo=read geom=check guess=(
 read,tcheck) scf=(maxcycle=1)\\title\\0,1\H,0,-0.20379,-1.28,1.99979\C
 ,0,0.05185,-1.4542,0.92838\C,0,1.48568,-1.96401,0.91921\N,0,-0.16007,-
 0.28602,0.10003\H,0,-0.60977,-2.25535,0.56631\Cl,0,2.01098,-2.501,-0.7
 1593\H,0,2.19675,-1.19134,1.23938\H,0,1.58377,-2.8273,1.58927\C,0,-1.4
 7387,-0.14037,-0.49794\C,0,0.50791,0.93972,0.51156\C,0,-2.58341,0.1493
 6,0.51775\H,0,-1.44175,0.67431,-1.23733\H,0,-1.72189,-1.05824,-1.05328

 Normal termination of Gaussian 16 at Tue Apr  8 17:17:03 2025.
