 Gaussian 16, Revision C.01,

 ----------------------------------------------------------------------
 #t hf aug-cc-pvdz symm=none int=(grid=ultrafine) guess=(read,tcheck) s
 table=(opt,rrhf)
 ----------------------------------------------------------------------
 -----
 title
 -----
 Symbolic Z-matrix:
 Charge =  0 Multiplicity = 1

 SCF Done:  E(RHF) =  -1153.31888194     A.U. after   17 cycles
 Normal termination of Gaussian 16 at Tue Apr  8 17:41:00 2025.
 Gaussian 16:  ES64L-G16RevC.01  3-Jul-2019

 ----------------------------------------------------------------------
 #t hf aug-cc-pvdz iop(5/13=1,5/36=2,99/5=2) pseudo=read geom=check gue
 ss=(read,tcheck) scf=(maxcycle=1)
 ----------------------------------------------------------------------
 -----
 title
 -----
 Structure from the checkpoint file:  "37Conf8_Pyridoxalphosphate_8_mol1.chk"
 Charge =  0 Multiplicity = 1

                         Standard orientation:
 ---------------------------------------------------------------------
 Center     Atomic      Atomic             Coordinates (Angstroms)
 Number     Number       Type             X           Y           Z
 ---------------------------------------------------------------------
      1          1           0        4.030310    0.467988   -1.057321
      2          8           0        3.297850    1.029109   -0.740021
      3          6           0        2.379530    0.229479   -0.149091
      4          6           0        1.203170    0.791539    0.387949
      5          6           0        2.584550   -1.172131   -0.072621
      6          6           0        0.908871    2.245829    0.324699
      7          6           0        0.284190   -0.095071    0.998429
      8          7           0        1.699249   -1.986001    0.504319
      9          6           0        3.827309   -1.785032   -0.656441
     10          8           0        1.648881    3.104539   -0.120721
     11          1           0       -0.093029    2.523920    0.729849
     12          6           0        0.582750   -1.455621    1.025759
     13          6           0       -1.017530    0.358260    1.604889
     14          1           0        4.743160   -1.400342   -0.175311
     15          1           0        3.793669   -2.868912   -0.501851
     16          1           0        3.911440   -1.597132   -1.740861
     17          1           0       -0.122801   -2.157140    1.480169
     18          8           0       -1.974710    0.823790    0.605279
     19          1           0       -0.891240    1.211930    2.282159
     20          1           0       -1.470810   -0.473140    2.163129
     21         15           0       -2.654730   -0.284710   -0.339431
     22          8           0       -3.859760    0.555661   -0.982061
     23          8           0       -1.658040   -0.384110   -1.594911
     24          8           0       -2.987260   -1.568540    0.316389
     25          1           0       -4.622370    0.587801   -0.376611
     26          1           0       -1.604850   -1.309430   -1.895211
 ---------------------------------------------------------------------

 SCF Done:  E(RHF) =  -1153.63728986     A.U. after    2 cycles

 The electronic state is 1-A.
 Alpha  occ. eigenvalues --  -81.46159 -20.62974 -20.62829 -20.62610 -20.62519
 Alpha  occ. eigenvalues --  -20.57736 -20.54541 -15.65819 -11.35512 -11.34673
 Alpha  occ. eigenvalues --  -11.33850 -11.31251 -11.29438 -11.28572 -11.28448
 Alpha  occ. eigenvalues --  -11.26444  -7.93963  -5.08631  -5.08555  -5.08529
 Alpha  occ. eigenvalues --   -1.40433  -1.39369  -1.36047  -1.35765  -1.35441
 Alpha  occ. eigenvalues --   -1.27188  -1.25105  -1.12050  -1.06686  -1.01497
 Alpha  occ. eigenvalues --   -0.94259  -0.92698  -0.86530  -0.84457  -0.81371
 Alpha  occ. eigenvalues --   -0.77867  -0.75814  -0.74735  -0.71708  -0.70111
 Alpha  occ. eigenvalues --   -0.69613  -0.67967  -0.65851  -0.65698  -0.64941
 Alpha  occ. eigenvalues --   -0.64247  -0.62538  -0.61636  -0.60259  -0.59359
 Alpha  occ. eigenvalues --   -0.59250  -0.57961  -0.56972  -0.55795  -0.55542
 Alpha  occ. eigenvalues --   -0.54567  -0.52529  -0.52450  -0.50446  -0.50274
 Alpha  occ. eigenvalues --   -0.45852  -0.42655  -0.39475  -0.34125
 Alpha virt. eigenvalues --    0.02633   0.02972   0.03667   0.04135   0.04428
 Alpha virt. eigenvalues --    0.04774   0.05769   0.05941   0.06601   0.07867
 Alpha virt. eigenvalues --    0.08275   0.08819   0.09276   0.09802   0.10407

 Mulliken charges:
               1
     1  H    0.163754
     2  O   -0.619204
     3  C   -0.237206
     4  C   -0.944761
     5  C   -0.004544
     6  C    0.912064
     7  C    0.830630
     8  N   -0.592076
     9  C    0.563905
    10  O   -0.543092
    11  H   -0.383081
    12  C    0.844954
    13  C    1.002981
    14  H    0.198452
    15  H   -0.160106
    16  H    0.196431
    17  H   -0.534784
    18  O   -1.005370
    19  H   -0.052386
    20  H   -0.243762
    21  P    2.531623
    22  O   -0.677081
    23  O   -0.726876
    24  O   -0.886441
    25  H    0.174751
    26  H    0.191224
 Sum of Mulliken charges =   0.00000

 Dipole moment (field-independent basis, Debye):
    X=              0.3491    Y=             -2.3883    Z=              0.8670  Tot=              2.5647

 Test job not archived.
 1\1\GINC-SE435\SP\RHF\Aug-CC-pVDZ\C8H10N1O6P1\OHZDE\08-Apr-2025\0\\#t
 hf aug-cc-pvdz iop(5/13=1,5/36=2,99/5=2) pseudo=read geom=check guess=
 (read,tcheck) scf=(maxcycle=1)\\title\\0,1\H,0,-4.03031,0.46799,1.0573
 2\O,0,-3.29785,1.02911,0.74002\C,0,-2.37953,0.22948,0.14909\C,0,-1.203
 17,0.79154,-0.38795\C,0,-2.58455,-1.17213,0.07262\C,0,-0.90887,2.24583
 ,-0.3247\C,0,-0.28419,-0.09507,-0.99843\N,0,-1.69925,-1.986,-0.50432\C
 ,0,-3.82731,-1.78503,0.65644\O,0,-1.64888,3.10454,0.12072\H,0,0.09303,
 2.52392,-0.72985\C,0,-0.58275,-1.45562,-1.02576\C,0,1.01753,0.35826,-1

 Normal termination of Gaussian 16 at Tue Apr  8 17:41:31 2025.
