 Gaussian 16, Revision C.01,

 ----------------------------------------------------------------------
 #t hf aug-cc-pvdz symm=none int=(grid=ultrafine) guess=(read,tcheck) s
 table=(opt,rrhf)
 ----------------------------------------------------------------------
 -----
 title
 -----
 Symbolic Z-matrix:
 Charge =  0 Multiplicity = 1

 SCF Done:  E(RHF) =  -535.061760706     A.U. after   13 cycles
 Normal termination of Gaussian 16 at Tue Apr  8 17:46:15 2025.
 Gaussian 16:  ES64L-G16RevC.01  3-Jul-2019

 ----------------------------------------------------------------------
 #t hf aug-cc-pvdz iop(5/13=1,5/36=2,99/5=2) pseudo=read geom=check gue
 ss=(read,tcheck) scf=(maxcycle=1)
 ----------------------------------------------------------------------
 -----
 title
 -----
 Structure from the checkpoint file:  "37Conf8_RAMBO_2_mol2.chk"
 Charge =  0 Multiplicity = 1

                         Standard orientation:
 ---------------------------------------------------------------------
 Center     Atomic      Atomic             Coordinates (Angstroms)
 Number     Number       Type             X           Y           Z
 ---------------------------------------------------------------------
      1          1           0       -1.681180    1.755151   -0.339800
      2          7           0       -0.686120    1.928221   -0.530800
      3          7           0       -0.007360    0.709371   -0.075130
      4          1           0       -0.417380    2.647191    0.150940
      5          6           0        1.352970    0.674501   -0.642470
      6          6           0       -0.693230   -0.486219   -0.569150
      7          1           0        1.347810    1.181151   -1.625630
      8          6           0        2.385500    1.278562    0.322110
      9          6           0        1.702100   -0.840688   -0.743470
     10          1           0       -0.962940   -0.372959   -1.644160
     11          6           0       -1.953110   -0.811479    0.213240
     12          6           0        0.382151   -1.559119   -0.395950
     13          1           0        3.269150    1.614912   -0.245060
     14          1           0        1.987180    2.149302    0.863010
     15          6           0        2.760670    0.104542    1.235070
     16          1           0        2.005601   -1.096448   -1.767700
     17          6           0        2.858801   -1.072998    0.252530
     18          8           0       -2.984960    0.123831   -0.096570
     19          1           0       -2.294329   -1.836199   -0.039520
     20          1           0       -1.721370   -0.779959    1.296780
     21          6           0       -4.161820   -0.116370    0.655140
     22          1           0       -4.902710    0.634360    0.352380
     23          1           0       -4.566959   -1.126190    0.453020
     24          1           0       -3.975120   -0.026370    1.742110
     25          1           0        0.396021   -1.895399    0.654090
     26          1           0        0.193401   -2.438379   -1.026660
     27          1           0        1.944670   -0.070398    1.954130
     28          1           0        3.684050    0.269372    1.808120
     29          1           0        3.825001   -1.030418   -0.275500
     30          1           0        2.798941   -2.056898    0.741230
 ---------------------------------------------------------------------

 SCF Done:  E(RHF) =  -535.219902475     A.U. after    2 cycles

 The electronic state is 1-A.
 Alpha  occ. eigenvalues --  -20.57815 -15.62713 -15.62039 -11.29016 -11.28781
 Alpha  occ. eigenvalues --  -11.25902 -11.24690 -11.23045 -11.22959 -11.22386
 Alpha  occ. eigenvalues --  -11.22080 -11.21952  -1.33816  -1.23587  -1.11519
 Alpha  occ. eigenvalues --   -1.06574  -0.99372  -0.98067  -0.92337  -0.90581
 Alpha  occ. eigenvalues --   -0.86506  -0.78771  -0.76638  -0.73679  -0.69392
 Alpha  occ. eigenvalues --   -0.67155  -0.65996  -0.64905  -0.63560  -0.61753
 Alpha  occ. eigenvalues --   -0.61562  -0.58757  -0.57313  -0.54743  -0.53394
 Alpha  occ. eigenvalues --   -0.51496  -0.50551  -0.49477  -0.47384  -0.47165
 Alpha  occ. eigenvalues --   -0.46842  -0.45491  -0.45121  -0.44587  -0.44394
 Alpha  occ. eigenvalues --   -0.43059  -0.32278
 Alpha virt. eigenvalues --    0.03284   0.03595   0.03914   0.04333   0.05548
 Alpha virt. eigenvalues --    0.05665   0.05951   0.06488   0.06803   0.07268
 Alpha virt. eigenvalues --    0.07352   0.07741   0.08597   0.09070   0.09666

 Mulliken charges:
               1
     1  H    0.106682
     2  N   -0.232180
     3  N   -0.747369
     4  H    0.065184
     5  C    0.434350
     6  C    0.089578
     7  H   -0.285435
     8  C    0.702563
     9  C   -0.353604
    10  H   -0.275851
    11  C    0.938725
    12  C    0.391145
    13  H   -0.083230
    14  H   -0.154695
    15  C    0.333472
    16  H   -0.145790
    17  C    0.538189
    18  O   -0.670736
    19  H   -0.077674
    20  H   -0.112406
    21  C    0.717427
    22  H   -0.262541
    23  H   -0.067270
    24  H   -0.057653
    25  H   -0.156939
    26  H   -0.100173
    27  H   -0.132133
    28  H   -0.124508
    29  H   -0.139878
    30  H   -0.137250
 Sum of Mulliken charges =  -0.00000

 Dipole moment (field-independent basis, Debye):
    X=             -0.6751    Y=             -1.5592    Z=              1.4105  Tot=              2.2082

 Test job not archived.
 1\1\GINC-SE437\SP\RHF\Aug-CC-pVDZ\C9H18N2O1\OHZDE\08-Apr-2025\0\\#t hf
  aug-cc-pvdz iop(5/13=1,5/36=2,99/5=2) pseudo=read geom=check guess=(r
 ead,tcheck) scf=(maxcycle=1)\\title\\0,1\H,0,-1.68118,1.75515,-0.3398\
 N,0,-0.68612,1.92822,-0.5308\N,0,-0.00736,0.70937,-0.07513\H,0,-0.4173
 8,2.64719,0.15094\C,0,1.35297,0.6745,-0.64247\C,0,-0.69323,-0.48622,-0
 .56915\H,0,1.34781,1.18115,-1.62563\C,0,2.3855,1.27856,0.32211\C,0,1.7
 021,-0.84069,-0.74347\H,0,-0.96294,-0.37296,-1.64416\C,0,-1.95311,-0.8
 1148,0.21324\C,0,0.38215,-1.55912,-0.39595\H,0,3.26915,1.61491,-0.2450

 Normal termination of Gaussian 16 at Tue Apr  8 17:46:44 2025.
