 Gaussian 16, Revision C.01,

 ----------------------------------------------------------------------
 #t hf aug-cc-pvdz symm=none int=(grid=ultrafine) guess=(read,tcheck) s
 table=(opt,rrhf)
 ----------------------------------------------------------------------
 -----
 title
 -----
 Symbolic Z-matrix:
 Charge =  0 Multiplicity = 1

 SCF Done:  E(RHF) =  -382.148066143     A.U. after   12 cycles

 1\1\GINC-SE073\Stability\RHF\Aug-CC-pVDZ\C7H14N2\OHZDE\08-Apr-2025\0\\
 #t hf aug-cc-pvdz symm=none int=(grid=ultrafine) guess=(read,tcheck) s
 table=(opt,rrhf)\\title\\0,1\H,0,-2.75704,0.,-0.91999\N,0,-1.96634,0.,
 -0.2751\C,0,-1.17088,1.21528,-0.44365\C,0,-1.17088,-1.21528,-0.44365\H
 ,0,-0.76709,1.31606,-1.47889\H,0,-1.83263,2.0783,-0.27825\C,0,0.01193,
 1.23695,0.56541\H,0,-0.76709,-1.31606,-1.47889\H,0,-1.83263,-2.0783,-0
 .27825\C,0,0.01193,-1.23695,0.56541\H,0,-0.04355,2.15244,1.17606\C,0,1
 .37599,1.22002,-0.15393\C,0,-0.06989,0.,1.47087\H,0,-0.04355,-2.15244,

 Normal termination of Gaussian 16 at Tue Apr  8 16:44:16 2025.
 Gaussian 16:  ES64L-G16RevC.01  3-Jul-2019

 ----------------------------------------------------------------------
 #t hf aug-cc-pvdz iop(5/13=1,5/36=2,99/5=2) pseudo=read geom=check gue
 ss=(read,tcheck) scf=(maxcycle=1)
 ----------------------------------------------------------------------
 -----
 title
 -----
 Structure from the checkpoint file:  "37Conf8_Bispidin_5_mol1.chk"
 Charge =  0 Multiplicity = 1

                         Standard orientation:
 ---------------------------------------------------------------------
 Center     Atomic      Atomic             Coordinates (Angstroms)
 Number     Number       Type             X           Y           Z
 ---------------------------------------------------------------------
      1          1           0        1.089467   -2.694573    0.000000
      2          7           0        1.066903   -1.674484    0.000000
      3          6           0        0.422406   -1.178712    1.215280
      4          6           0        0.422406   -1.178712   -1.215280
      5          1           0       -0.627243   -1.543409    1.316060
      6          1           0        0.977726   -1.574806    2.078300
      7          6           0        0.422406    0.376036    1.236950
      8          1           0       -0.627243   -1.543409   -1.316060
      9          1           0        0.977726   -1.574806   -2.078300
     10          6           0        0.422406    0.376036   -1.236950
     11          1           0        0.922980    0.730152    2.152440
     12          6           0       -1.010148    0.946911    1.220020
     13          6           0        1.164358    0.901450   -0.000000
     14          1           0        0.922980    0.730152   -2.152440
     15          6           0       -1.010148    0.946911   -1.220020
     16          1           0       -1.587704    0.567213    2.077860
     17          1           0       -0.953421    2.044975    1.331120
     18          7           0       -1.764071    0.654800    0.000000
     19          1           0        1.160078    2.004279   -0.000000
     20          1           0        2.210475    0.567919   -0.000000
     21          1           0       -1.587704    0.567213   -2.077860
     22          1           0       -0.953421    2.044975   -1.331120
     23          1           0       -2.046651   -0.327608    0.000000
 ---------------------------------------------------------------------

 SCF Done:  E(RHF) =  -382.258500837     A.U. after    2 cycles

 The electronic state is 1-A'.
 Alpha  occ. eigenvalues --  -15.60475 -15.60197 -11.25785 -11.25781 -11.25286
 Alpha  occ. eigenvalues --  -11.25282 -11.22958 -11.22955 -11.22053  -1.19787
 Alpha  occ. eigenvalues --   -1.16003  -1.03805  -1.03206  -0.92583  -0.86934
 Alpha  occ. eigenvalues --   -0.83596  -0.80543  -0.70373  -0.68941  -0.66057
 Alpha  occ. eigenvalues --   -0.64994  -0.61985  -0.57735  -0.57046  -0.55573
 Alpha  occ. eigenvalues --   -0.54937  -0.51903  -0.51735  -0.49115  -0.48037
 Alpha  occ. eigenvalues --   -0.47870  -0.44401  -0.42698  -0.35734  -0.34842
 Alpha virt. eigenvalues --    0.03210   0.03760   0.03784   0.04547   0.06008
 Alpha virt. eigenvalues --    0.06209   0.06399   0.06467   0.07017   0.08751
 Alpha virt. eigenvalues --    0.08804   0.09117   0.09300   0.09512   0.12754

 Mulliken charges:
               1
     1  H   -0.081253
     2  N   -0.636506
     3  C    0.979927
     4  C    0.979927
     5  H   -0.173789
     6  H   -0.200433
     7  C   -0.462690
     8  H   -0.173789
     9  H   -0.200433
    10  C   -0.462690
    11  H   -0.150789
    12  C    0.799147
    13  C    0.539123
    14  H   -0.150789
    15  C    0.799147
    16  H   -0.181956
    17  H   -0.132203
    18  N   -0.606715
    19  H   -0.092882
    20  H   -0.143303
    21  H   -0.181956
    22  H   -0.132203
    23  H    0.067110
 Sum of Mulliken charges =  -0.00000

 Dipole moment (field-independent basis, Debye):
    X=              0.3424    Y=             -1.1744    Z=             -0.0000  Tot=              1.2233

 Test job not archived.
 1\1\GINC-SE073\SP\RHF\Aug-CC-pVDZ\C7H14N2\OHZDE\08-Apr-2025\0\\#t hf a
 ug-cc-pvdz iop(5/13=1,5/36=2,99/5=2) pseudo=read geom=check guess=(rea
 d,tcheck) scf=(maxcycle=1)\\title\\0,1\H,0,-2.75704,0.,-0.91999\N,0,-1
 .96634,0.,-0.2751\C,0,-1.17088,1.21528,-0.44365\C,0,-1.17088,-1.21528,
 -0.44365\H,0,-0.76709,1.31606,-1.47889\H,0,-1.83263,2.0783,-0.27825\C,
 0,0.01193,1.23695,0.56541\H,0,-0.76709,-1.31606,-1.47889\H,0,-1.83263,
 -2.0783,-0.27825\C,0,0.01193,-1.23695,0.56541\H,0,-0.04355,2.15244,1.1
 7606\C,0,1.37599,1.22002,-0.15393\C,0,-0.06989,0.,1.47087\H,0,-0.04355

 Normal termination of Gaussian 16 at Tue Apr  8 16:44:25 2025.
