 Gaussian 16, Revision C.01,

 ----------------------------------------------------------------------
 #t hf aug-cc-pvdz symm=none int=(grid=ultrafine) guess=(read,tcheck) s
 table=(opt,rrhf)
 ----------------------------------------------------------------------
 -----
 title
 -----
 Symbolic Z-matrix:
 Charge =  0 Multiplicity = 1

 SCF Done:  E(RHF) =  -822.384312210     A.U. after   17 cycles
 Normal termination of Gaussian 16 at Tue Apr  8 17:47:28 2025.
 Gaussian 16:  ES64L-G16RevC.01  3-Jul-2019

 ----------------------------------------------------------------------
 #t hf aug-cc-pvdz iop(5/13=1,5/36=2,99/5=2) pseudo=read geom=check gue
 ss=(read,tcheck) scf=(maxcycle=1)
 ----------------------------------------------------------------------
 -----
 title
 -----
 Structure from the checkpoint file:  "37Conf8_Propranolol_3_mol1.chk"
 Charge =  0 Multiplicity = 1

                         Standard orientation:
 ---------------------------------------------------------------------
 Center     Atomic      Atomic             Coordinates (Angstroms)
 Number     Number       Type             X           Y           Z
 ---------------------------------------------------------------------
      1          1           0        0.685880   -1.998890   -0.715621
      2          8           0        1.645560   -1.942679   -0.553661
      3          6           0        1.809920   -1.100069    0.593419
      4          6           0        3.279140   -0.701439    0.663069
      5          6           0        0.890490    0.107840    0.500129
      6          1           0        1.555260   -1.664249    1.512579
      7          7           0        3.648770    0.078641   -0.513251
      8          1           0        3.866680   -1.633509    0.793639
      9          1           0        3.432070   -0.094859    1.569739
     10          6           0        5.053810    0.509991   -0.601491
     11          1           0        3.413700   -0.480159   -1.337201
     12          6           0        6.080400   -0.633868   -0.579831
     13          6           0        5.365339    1.554082    0.471609
     14          1           0        5.131870    1.011231   -1.581731
     15          1           0        5.848920   -1.387158   -1.347681
     16          1           0        7.093120   -0.251008   -0.775291
     17          1           0        6.102460   -1.139048    0.397369
     18          1           0        6.360379    1.990452    0.305949
     19          1           0        4.620639    2.361711    0.451769
     20          1           0        5.368670    1.110472    1.478929
     21          8           0       -0.443170   -0.414170    0.411839
     22          1           0        1.134810    0.699750   -0.395141
     23          1           0        0.991660    0.745610    1.396059
     24          6           0       -1.467600    0.464040    0.197109
     25          6           0       -1.307581    1.836060    0.106449
     26          6           0       -2.763870   -0.130780    0.071489
     27          1           0       -0.323011    2.289270    0.207189
     28          6           0       -2.432391    2.663730   -0.120651
     29          6           0       -2.967270   -1.529711    0.170109
     30          6           0       -3.889070    0.726899   -0.160811
     31          1           0       -2.283101    3.742560   -0.190351
     32          6           0       -3.693981    2.130829   -0.254161
     33          1           0       -2.109740   -2.175230    0.358349
     34          6           0       -4.231720   -2.068301    0.039669
     35          6           0       -5.173150    0.136589   -0.289981
     36          1           0       -4.557511    2.774559   -0.430761
     37          1           0       -4.374389   -3.147291    0.118549
     38          6           0       -5.344010   -1.228641   -0.193721
     39          1           0       -6.029970    0.790389   -0.467721
     40          1           0       -6.339640   -1.663801   -0.295711
 ---------------------------------------------------------------------

 SCF Done:  E(RHF) =  -822.627400641     A.U. after    2 cycles

 The electronic state is 1-A.
 Alpha  occ. eigenvalues --  -20.60785 -20.57374 -15.60324 -11.31966 -11.29899
 Alpha  occ. eigenvalues --  -11.29712 -11.26590 -11.26288 -11.25770 -11.25345
 Alpha  occ. eigenvalues --  -11.25224 -11.25015 -11.24883 -11.24743 -11.24650
 Alpha  occ. eigenvalues --  -11.24223 -11.24010 -11.22489 -11.22476  -1.37840
 Alpha  occ. eigenvalues --   -1.32016  -1.17694  -1.16346  -1.10101  -1.05842
 Alpha  occ. eigenvalues --   -1.03644  -1.00825  -0.99663  -0.96968  -0.92736
 Alpha  occ. eigenvalues --   -0.92247  -0.85280  -0.84804  -0.81576  -0.80048
 Alpha  occ. eigenvalues --   -0.76909  -0.73727  -0.72131  -0.69886  -0.69557
 Alpha  occ. eigenvalues --   -0.68490  -0.66307  -0.65472  -0.64339  -0.62148
 Alpha  occ. eigenvalues --   -0.61082  -0.60492  -0.60080  -0.58929  -0.58124
 Alpha  occ. eigenvalues --   -0.57656  -0.56002  -0.55203  -0.54231  -0.53884
 Alpha  occ. eigenvalues --   -0.53754  -0.52820  -0.51424  -0.50099  -0.49524
 Alpha  occ. eigenvalues --   -0.49123  -0.48821  -0.47686  -0.47183  -0.45175
 Alpha  occ. eigenvalues --   -0.44742  -0.37542  -0.36216  -0.32692  -0.28450
 Alpha virt. eigenvalues --    0.03120   0.03467   0.03587   0.03884   0.04308
 Alpha virt. eigenvalues --    0.04539   0.05454   0.05797   0.06317   0.06498
 Alpha virt. eigenvalues --    0.06964   0.07206   0.07289   0.07703   0.08330

 Mulliken charges:
               1
     1  H    0.192520
     2  O   -0.710448
     3  C    0.663889
     4  C    0.864408
     5  C    0.291511
     6  H   -0.208534
     7  N   -0.469059
     8  H   -0.113120
     9  H   -0.279715
    10  C   -0.595388
    11  H    0.047075
    12  C    0.678843
    13  C    0.698394
    14  H   -0.289785
    15  H   -0.043039
    16  H   -0.090815
    17  H   -0.031730
    18  H   -0.078202
    19  H   -0.070441
    20  H   -0.049550
    21  O   -0.708077
    22  H   -0.136147
    23  H   -0.201272
    24  C   -0.505998
    25  C    0.564652
    26  C    0.854010
    27  H   -0.684965
    28  C    0.567678
    29  C    0.707093
    30  C    0.393444
    31  H   -0.457867
    32  C    0.638649
    33  H   -0.652506
    34  C    0.143465
    35  C    0.723496
    36  H   -0.579733
    37  H   -0.458878
    38  C    0.377920
    39  H   -0.562898
    40  H   -0.428882
 Sum of Mulliken charges =  -0.00000

 Dipole moment (field-independent basis, Debye):
    X=              0.6140    Y=              0.9271    Z=              0.6705  Tot=              1.2985

 Test job not archived.
 1\1\GINC-SE125\SP\RHF\Aug-CC-pVDZ\C16H21N1O2\OHZDE\08-Apr-2025\0\\#t h
 f aug-cc-pvdz iop(5/13=1,5/36=2,99/5=2) pseudo=read geom=check guess=(
 read,tcheck) scf=(maxcycle=1)\\title\\0,1\H,0,0.68588,-1.99889,-0.7156
 2\O,0,1.64556,-1.94268,-0.55366\C,0,1.80992,-1.10007,0.59342\C,0,3.279
 14,-0.70144,0.66307\C,0,0.89049,0.10784,0.50013\H,0,1.55526,-1.66425,1
 .51258\N,0,3.64877,0.07864,-0.51325\H,0,3.86668,-1.63351,0.79364\H,0,3
 .43207,-0.09486,1.56974\C,0,5.05381,0.50999,-0.60149\H,0,3.4137,-0.480
 16,-1.3372\C,0,6.0804,-0.63387,-0.57983\C,0,5.36534,1.55408,0.47161\H,

 Normal termination of Gaussian 16 at Tue Apr  8 17:48:42 2025.
