 Gaussian 16, Revision C.01,

 ----------------------------------------------------------------------
 #t hf aug-cc-pvdz symm=none int=(grid=ultrafine) guess=(read,tcheck) s
 table=(opt,rrhf)
 ----------------------------------------------------------------------
 -----
 title
 -----
 Symbolic Z-matrix:
 Charge =  0 Multiplicity = 1

 SCF Done:  E(RHF) =  -1112.30655297     A.U. after   16 cycles
 Normal termination of Gaussian 16 at Tue Apr  8 17:09:57 2025.
 Gaussian 16:  ES64L-G16RevC.01  3-Jul-2019

 ----------------------------------------------------------------------
 #t hf aug-cc-pvdz iop(5/13=1,5/36=2,99/5=2) pseudo=read geom=check gue
 ss=(read,tcheck) scf=(maxcycle=1)
 ----------------------------------------------------------------------
 -----
 title
 -----
 Structure from the checkpoint file:  "37Conf8_Cimetidine_2_mol2.chk"
 Charge =  0 Multiplicity = 1

                         Standard orientation:
 ---------------------------------------------------------------------
 Center     Atomic      Atomic             Coordinates (Angstroms)
 Number     Number       Type             X           Y           Z
 ---------------------------------------------------------------------
      1          7           0        3.349502   -1.163300   -1.086980
      2          6           0        2.860608   -0.183267   -0.646750
      3          7           0        2.349174    0.864816   -0.044810
      4          6           0        1.129387    1.283293   -0.370130
      5          7           0        0.368003    0.712737   -1.338870
      6          7           0        0.609893    2.352256    0.291510
      7          6           0       -0.832013    1.279044   -1.932540
      8          1           0        0.727308   -0.159705   -1.719520
      9          6           0        1.361837    2.988181    1.361450
     10          1           0       -0.405038    2.282782    0.429100
     11          6           0       -2.161407    0.706752   -1.427030
     12          1           0       -0.780724    1.106614   -3.020940
     13          1           0       -0.799847    2.368524   -1.785370
     14         16           0       -2.469985    0.991134    0.350410
     15          1           0       -2.983984    1.174427   -1.988070
     16          1           0       -2.199233   -0.379128   -1.595650
     17          6           0       -2.332075   -0.734497    1.039230
     18          6           0       -1.158930   -1.506744    0.569640
     19          1           0       -3.260858   -1.255421    0.774570
     20          1           0       -2.320824   -0.574637    2.125680
     21          7           0       -1.218524   -2.219073   -0.619150
     22          6           0        0.113800   -1.584741    1.117020
     23          6           0       -0.003587   -2.709681   -0.796910
     24          7           0        0.827245   -2.367375    0.232130
     25          6           0        0.708683   -1.009545    2.353690
     26          1           0        0.326870   -3.320363   -1.632320
     27          1           0        1.842905   -2.469031    0.212490
     28          1           0        1.594047   -0.396280    2.125290
     29          1           0       -0.023663   -0.365930    2.857800
     30          1           0        1.013289   -1.793207    3.065130
     31          1           0        2.358338    3.265716    0.999350
     32          1           0        0.825292    3.894745    1.667060
     33          1           0        1.491013    2.329561    2.235990
 ---------------------------------------------------------------------

 SCF Done:  E(RHF) =  -1112.53369341     A.U. after    2 cycles

 The electronic state is 1-A.
 Alpha  occ. eigenvalues --  -93.53867 -15.68107 -15.67255 -15.66314 -15.62696
 Alpha  occ. eigenvalues --  -15.61885 -15.60738 -11.41103 -11.31289 -11.30858
 Alpha  occ. eigenvalues --  -11.30596 -11.28494 -11.28388 -11.28263 -11.27821
 Alpha  occ. eigenvalues --  -11.26363 -11.25209  -8.83607  -6.17794  -6.17585
 Alpha  occ. eigenvalues --   -6.17343  -1.31703  -1.30836  -1.20491  -1.19716
 Alpha  occ. eigenvalues --   -1.14128  -1.13160  -1.08098  -1.04785  -1.00296
 Alpha  occ. eigenvalues --   -0.96266  -0.93632  -0.90248  -0.86070  -0.82306
 Alpha  occ. eigenvalues --   -0.81108  -0.77969  -0.75231  -0.72505  -0.72318
 Alpha  occ. eigenvalues --   -0.67670  -0.65715  -0.64204  -0.62960  -0.62568
 Alpha  occ. eigenvalues --   -0.60744  -0.60545  -0.58862  -0.57903  -0.56890
 Alpha  occ. eigenvalues --   -0.56410  -0.56012  -0.55851  -0.54872  -0.54197
 Alpha  occ. eigenvalues --   -0.53785  -0.52016  -0.50320  -0.47923  -0.45162
 Alpha  occ. eigenvalues --   -0.42971  -0.40803  -0.39817  -0.38940  -0.35667
 Alpha  occ. eigenvalues --   -0.35160  -0.30805
 Alpha virt. eigenvalues --    0.02555   0.02713   0.03538   0.04042   0.05159
 Alpha virt. eigenvalues --    0.05459   0.05669   0.05764   0.07079   0.07455
 Alpha virt. eigenvalues --    0.07770   0.07879   0.08937   0.09125   0.09705

 Mulliken charges:
               1
     1  N   -0.209691
     2  C   -0.610660
     3  N   -0.111267
     4  C    0.782919
     5  N   -0.079813
     6  N   -0.427201
     7  C    0.557900
     8  H   -0.037171
     9  C    0.902651
    10  H   -0.003283
    11  C    0.373390
    12  H   -0.235915
    13  H   -0.193153
    14  S    0.351227
    15  H   -0.099767
    16  H   -0.181792
    17  C    0.427191
    18  C    0.158314
    19  H   -0.090470
    20  H   -0.058357
    21  N   -0.900873
    22  C   -0.638869
    23  C    0.729362
    24  N   -0.235538
    25  C    0.772897
    26  H   -0.422754
    27  H   -0.056189
    28  H   -0.030460
    29  H    0.018867
    30  H    0.007419
    31  H   -0.139713
    32  H   -0.227052
    33  H   -0.092150
 Sum of Mulliken charges =  -0.00000

 Dipole moment (field-independent basis, Debye):
    X=             -2.9278    Y=              2.4453    Z=              1.2156  Tot=              4.0036

 Test job not archived.
 1\1\GINC-SE435\SP\RHF\Aug-CC-pVDZ\C10H16N6S1\OHZDE\08-Apr-2025\0\\#t h
 f aug-cc-pvdz iop(5/13=1,5/36=2,99/5=2) pseudo=read geom=check guess=(
 read,tcheck) scf=(maxcycle=1)\\title\\0,1\N,0,-3.34951,1.16328,-1.0869
 8\C,0,-2.86061,0.18325,-0.64675\N,0,-2.34917,-0.86483,-0.04481\C,0,-1.
 12938,-1.2833,-0.37013\N,0,-0.368,-0.71274,-1.33887\N,0,-0.60988,-2.35
 226,0.29151\C,0,0.83202,-1.27904,-1.93254\H,0,-0.72731,0.1597,-1.71952
 \C,0,-1.36182,-2.98819,1.36145\H,0,0.40505,-2.28278,0.4291\C,0,2.16141
 ,-0.70674,-1.42703\H,0,0.78073,-1.10661,-3.02094\H,0,0.79986,-2.36852,

 Normal termination of Gaussian 16 at Tue Apr  8 17:10:54 2025.
