 Gaussian 16, Revision C.01,

 ----------------------------------------------------------------------
 #t hf aug-cc-pvdz symm=none int=(grid=ultrafine) guess=(read,tcheck) s
 table=(opt,rrhf)
 ----------------------------------------------------------------------
 -----
 title
 -----
 Symbolic Z-matrix:
 Charge =  0 Multiplicity = 1

 SCF Done:  E(RHF) =  -914.179865656     A.U. after   16 cycles
 Normal termination of Gaussian 16 at Tue Apr  8 18:24:34 2025.
 Gaussian 16:  ES64L-G16RevC.01  3-Jul-2019

 ----------------------------------------------------------------------
 #t hf aug-cc-pvdz iop(5/13=1,5/36=2,99/5=2) pseudo=read geom=check gue
 ss=(read,tcheck) scf=(maxcycle=1)
 ----------------------------------------------------------------------
 -----
 title
 -----
 Structure from the checkpoint file:  "37Conf8_shiepox_depox_3_mol2.chk"
 Charge =  0 Multiplicity = 1

                         Standard orientation:
 ---------------------------------------------------------------------
 Center     Atomic      Atomic             Coordinates (Angstroms)
 Number     Number       Type             X           Y           Z
 ---------------------------------------------------------------------
      1          8           0        0.420510    2.116330   -0.050120
      2          6           0        0.191810    0.943540    0.158350
      3          6           0       -1.038331    0.215730   -0.419760
      4          6           0        1.120349    0.023960    0.962550
      5          8           0       -0.538011   -0.806070   -1.284700
      6          8           0       -1.798451   -0.283359    0.666140
      7          6           0       -2.012300    1.089611   -1.222900
      8          1           0        0.648999   -0.157660    1.942900
      9          8           0        2.413349    0.556609    1.154260
     10          6           0        1.387259   -1.279330    0.195900
     11          6           0        0.208499   -1.814760   -0.595360
     12          6           0       -3.206011   -0.073469    0.346690
     13          1           0       -2.162091    0.641041   -2.218660
     14          1           0       -1.645010    2.118291   -1.320300
     15          8           0       -3.209380    1.106641   -0.447510
     16          6           0        3.260179    0.058899    0.080870
     17          1           0        1.728549   -2.067450    0.897580
     18          8           0        2.448989   -0.871201   -0.663400
     19          1           0       -0.454421   -2.366920    0.091790
     20          1           0        0.565619   -2.502730   -1.373030
     21          6           0       -3.746811   -1.278229   -0.422090
     22          6           0       -3.950471    0.202771    1.635680
     23          6           0        3.664040    1.188099   -0.850170
     24          6           0        4.447569   -0.648911    0.720790
     25          1           0       -3.173221   -1.439989   -1.343630
     26          1           0       -4.800781   -1.110009   -0.681630
     27          1           0       -3.675151   -2.184319    0.194710
     28          1           0       -5.002801    0.424191    1.415020
     29          1           0       -3.500560    1.064991    2.142490
     30          1           0       -3.906341   -0.673159    2.295740
     31          1           0        4.244209    0.788899   -1.693290
     32          1           0        2.771560    1.698009   -1.230020
     33          1           0        4.282500    1.914529   -0.306870
     34          1           0        5.134179   -1.013121   -0.055120
     35          1           0        4.105549   -1.499801    1.324930
     36          1           0        4.988479    0.046139    1.376770
 ---------------------------------------------------------------------

 SCF Done:  E(RHF) =  -914.455447695     A.U. after    2 cycles

 The electronic state is 1-A.
 Alpha  occ. eigenvalues --  -20.60373 -20.60294 -20.59071 -20.58914 -20.58772
 Alpha  occ. eigenvalues --  -20.58315 -11.37580 -11.36673 -11.35811 -11.35580
 Alpha  occ. eigenvalues --  -11.31917 -11.31818 -11.31012 -11.29914 -11.23989
 Alpha  occ. eigenvalues --  -11.23847 -11.23400 -11.22486  -1.42577  -1.40582
 Alpha  occ. eigenvalues --   -1.36671  -1.35644  -1.30406  -1.29940  -1.09568
 Alpha  occ. eigenvalues --   -1.08226  -1.01388  -0.99928  -0.96060  -0.94842
 Alpha  occ. eigenvalues --   -0.94066  -0.88050  -0.85858  -0.81244  -0.80336
 Alpha  occ. eigenvalues --   -0.78151  -0.73676  -0.72638  -0.70864  -0.69272
 Alpha  occ. eigenvalues --   -0.68649  -0.67111  -0.65286  -0.64097  -0.63823
 Alpha  occ. eigenvalues --   -0.63063  -0.62031  -0.60660  -0.59583  -0.57233
 Alpha  occ. eigenvalues --   -0.56947  -0.56021  -0.55582  -0.55011  -0.54935
 Alpha  occ. eigenvalues --   -0.54437  -0.54110  -0.53527  -0.53230  -0.53055
 Alpha  occ. eigenvalues --   -0.51836  -0.51683  -0.50647  -0.50198  -0.48469
 Alpha  occ. eigenvalues --   -0.47304  -0.44882  -0.44064  -0.41157
 Alpha virt. eigenvalues --    0.02928   0.03800   0.04043   0.04258   0.05041
 Alpha virt. eigenvalues --    0.05139   0.05284   0.05756   0.06301   0.06574
 Alpha virt. eigenvalues --    0.06948   0.07465   0.07839   0.08002   0.09199

 Mulliken charges:
               1
     1  O   -0.540484
     2  C    0.084876
     3  C    0.115916
     4  C    0.855596
     5  O   -0.819259
     6  O   -0.747247
     7  C    1.307944
     8  H   -0.151874
     9  O   -0.790720
    10  C    0.255609
    11  C    0.979329
    12  C   -0.896765
    13  H    0.021543
    14  H   -0.149423
    15  O   -0.732554
    16  C   -1.030152
    17  H   -0.261143
    18  O   -0.768355
    19  H    0.089673
    20  H   -0.226486
    21  C    0.528905
    22  C    0.973731
    23  C    0.803153
    24  C    0.669520
    25  H   -0.076317
    26  H    0.063279
    27  H    0.026551
    28  H    0.057844
    29  H    0.024673
    30  H    0.077991
    31  H    0.078557
    32  H   -0.014218
    33  H    0.055608
    34  H    0.083757
    35  H   -0.035815
    36  H    0.086761
 Sum of Mulliken charges =  -0.00000

 Dipole moment (field-independent basis, Debye):
    X=             -0.6415    Y=             -4.1690    Z=              0.9451  Tot=              4.3227

 Test job not archived.
 1\1\GINC-SE338\SP\RHF\Aug-CC-pVDZ\C12H18O6\OHZDE\08-Apr-2025\0\\#t hf
 aug-cc-pvdz iop(5/13=1,5/36=2,99/5=2) pseudo=read geom=check guess=(re
 ad,tcheck) scf=(maxcycle=1)\\title\\0,1\O,0,0.42051,2.11633,-0.05012\C
 ,0,0.19181,0.94354,0.15835\C,0,-1.03833,0.21573,-0.41976\C,0,1.12035,0
 .02396,0.96255\O,0,-0.53801,-0.80607,-1.2847\O,0,-1.79845,-0.28336,0.6
 6614\C,0,-2.0123,1.08961,-1.2229\H,0,0.649,-0.15766,1.9429\O,0,2.41335
 ,0.55661,1.15426\C,0,1.38726,-1.27933,0.1959\C,0,0.2085,-1.81476,-0.59
 536\C,0,-3.20601,-0.07347,0.34669\H,0,-2.16209,0.64104,-2.21866\H,0,-1

 Normal termination of Gaussian 16 at Tue Apr  8 18:25:28 2025.
