 Gaussian 16, Revision C.01,

 ----------------------------------------------------------------------
 #t hf aug-cc-pvdz symm=none int=(grid=ultrafine) guess=(read,tcheck) s
 table=(opt,rrhf)
 ----------------------------------------------------------------------
 -----
 title
 -----
 Symbolic Z-matrix:
 Charge =  0 Multiplicity = 1

 SCF Done:  E(RHF) =  -1667.17832830     A.U. after   12 cycles
 Normal termination of Gaussian 16 at Tue Apr  8 17:18:44 2025.
 Gaussian 16:  ES64L-G16RevC.01  3-Jul-2019

 ----------------------------------------------------------------------
 #t hf aug-cc-pvdz iop(5/13=1,5/36=2,99/5=2) pseudo=read geom=check gue
 ss=(read,tcheck) scf=(maxcycle=1)
 ----------------------------------------------------------------------
 -----
 title
 -----
 Structure from the checkpoint file:  "37Conf8_N_iprit_4_mol1.chk"
 Charge =  0 Multiplicity = 1

                         Standard orientation:
 ---------------------------------------------------------------------
 Center     Atomic      Atomic             Coordinates (Angstroms)
 Number     Number       Type             X           Y           Z
 ---------------------------------------------------------------------
      1          1           0        0.705490   -0.227652   -1.628921
      2          6           0        0.441842    0.573418   -0.918301
      3          6           0        1.723144    1.350855   -0.652611
      4          7           0       -0.163030   -0.021960    0.264689
      5          1           0       -0.269076    1.235591   -1.444921
      6         17           0        1.432049    2.866375    0.292129
      7          1           0        2.188235    1.665203   -1.596371
      8          1           0        2.432743    0.752472   -0.071411
      9          6           0       -0.211914   -1.474250    0.319089
     10          6           0       -1.281468    0.701254    0.847109
     11          6           0        1.045184   -2.131273    0.875969
     12          1           0       -0.457635   -1.928919   -0.660061
     13          1           0       -1.029445   -1.761787    0.998249
     14          6           0       -2.544507    0.869127    0.003549
     15          1           0       -0.942155    1.722293    1.092629
     16          1           0       -1.546829    0.221324    1.801079
     17         17           0        2.444934   -2.108668   -0.272101
     18          1           0        0.860031   -3.191783    1.090069
     19          1           0        1.384665   -1.619614    1.784589
     20         17           0       -3.383752   -0.691450   -0.351251
     21          1           0       -2.333786    1.326517   -0.971031
     22          1           0       -3.269645    1.498909    0.535239
 ---------------------------------------------------------------------

 SCF Done:  E(RHF) =  -1667.31979466     A.U. after    2 cycles

 The electronic state is 1-A.
 Alpha  occ. eigenvalues -- -103.65332-103.65329-103.64703 -15.62672 -11.31061
 Alpha  occ. eigenvalues --  -11.30968 -11.30270 -11.28615 -11.28601 -11.28486
 Alpha  occ. eigenvalues --  -10.68638 -10.68633 -10.68011  -8.34353  -8.34351
 Alpha  occ. eigenvalues --   -8.34090  -8.34081  -8.34073  -8.34065  -8.33728
 Alpha  occ. eigenvalues --   -8.33462  -8.33443  -1.22486  -1.16863  -1.16292
 Alpha  occ. eigenvalues --   -1.14880  -1.02442  -1.02041  -0.94491  -0.86351
 Alpha  occ. eigenvalues --   -0.85368  -0.78254  -0.69414  -0.67902  -0.65495
 Alpha  occ. eigenvalues --   -0.63464  -0.62408  -0.60579  -0.59660  -0.57184
 Alpha  occ. eigenvalues --   -0.56900  -0.55457  -0.54594  -0.51425  -0.50805
 Alpha  occ. eigenvalues --   -0.50428  -0.45857  -0.45788  -0.45200  -0.44983
 Alpha  occ. eigenvalues --   -0.44316  -0.43952  -0.35767
 Alpha virt. eigenvalues --    0.03403   0.03666   0.04151   0.04763   0.06182
 Alpha virt. eigenvalues --    0.06458   0.06755   0.07022   0.07506   0.08575
 Alpha virt. eigenvalues --    0.08980   0.09611   0.10232   0.10799   0.11530

 Mulliken charges:
               1
     1  H   -0.147066
     2  C    0.353987
     3  C    0.165211
     4  N    0.008780
     5  H   -0.223797
     6  Cl  -0.152187
     7  H    0.027627
     8  H    0.018802
     9  C    0.504696
    10  C    0.334499
    11  C    0.107171
    12  H   -0.139735
    13  H   -0.250719
    14  C    0.032176
    15  H   -0.205820
    16  H   -0.208237
    17  Cl  -0.159922
    18  H    0.033764
    19  H   -0.000094
    20  Cl  -0.149949
    21  H    0.015147
    22  H    0.035668
 Sum of Mulliken charges =  -0.00000

 Dipole moment (field-independent basis, Debye):
    X=             -0.9653    Y=             -0.2800    Z=              0.4138  Tot=              1.0869

 Test job not archived.
 1\1\GINC-SE177\SP\RHF\Aug-CC-pVDZ\C6H12Cl3N1\OHZDE\08-Apr-2025\0\\#t h
 f aug-cc-pvdz iop(5/13=1,5/36=2,99/5=2) pseudo=read geom=check guess=(
 read,tcheck) scf=(maxcycle=1)\\title\\0,1\H,0,0.70549,-0.22765,-1.6289
 2\C,0,0.44184,0.57342,-0.9183\C,0,1.72314,1.35086,-0.65261\N,0,-0.1630
 3,-0.02196,0.26469\H,0,-0.26908,1.23559,-1.44492\Cl,0,1.43204,2.86638,
 0.29213\H,0,2.18823,1.66521,-1.59637\H,0,2.43274,0.75248,-0.07141\C,0,
 -0.21191,-1.47425,0.31909\C,0,-1.28147,0.70125,0.84711\C,0,1.04519,-2.
 13127,0.87597\H,0,-0.45763,-1.92892,-0.66006\H,0,-1.02944,-1.76179,0.9

 Normal termination of Gaussian 16 at Tue Apr  8 17:19:00 2025.
