 Gaussian 16, Revision C.01,

 ----------------------------------------------------------------------
 #t hf aug-cc-pvdz symm=none int=(grid=ultrafine) guess=(read,tcheck) s
 table=(opt,rrhf)
 ----------------------------------------------------------------------
 -----
 title
 -----
 Symbolic Z-matrix:
 Charge =  0 Multiplicity = 1

 SCF Done:  E(RHF) =  -360.953455062     A.U. after   14 cycles
 Normal termination of Gaussian 16 at Tue Apr  8 17:01:02 2025.
 Gaussian 16:  ES64L-G16RevC.01  3-Jul-2019

 ----------------------------------------------------------------------
 #t hf aug-cc-pvdz iop(5/13=1,5/36=2,99/5=2) pseudo=read geom=check gue
 ss=(read,tcheck) scf=(maxcycle=1)
 ----------------------------------------------------------------------
 -----
 title
 -----
 Structure from the checkpoint file:  "37Conf8_GABA_8_mol2.chk"
 Charge =  0 Multiplicity = 1

                         Standard orientation:
 ---------------------------------------------------------------------
 Center     Atomic      Atomic             Coordinates (Angstroms)
 Number     Number       Type             X           Y           Z
 ---------------------------------------------------------------------
      1          1           0        0.126437   -1.368137    0.333659
      2          8           0       -0.830293   -1.394946    0.006739
      3          6           0       -1.336831   -0.141976    0.049279
      4          6           0       -0.434449    0.896593    0.714809
      5          8           0       -2.432601    0.115776   -0.403661
      6          6           0        0.789811    1.319502   -0.123091
      7          1           0       -1.051068    1.779854    0.921389
      8          1           0       -0.097270    0.492313    1.682479
      9          6           0        1.639530    0.171750   -0.676311
     10          1           0        0.458932    1.935242   -0.973081
     11          1           0        1.418352    1.972781    0.505009
     12          7           0        1.836578   -0.885080    0.337869
     13          1           0        1.118739   -0.298299   -1.524321
     14          1           0        2.589750    0.579829   -1.064221
     15          1           0        2.434167   -1.628851   -0.027821
     16          1           0        2.300699   -0.511030    1.169059
 ---------------------------------------------------------------------

 SCF Done:  E(RHF) =  -361.065474383     A.U. after    2 cycles

 The electronic state is 1-A.
 Alpha  occ. eigenvalues --  -20.58945 -20.54019 -15.65305 -11.38020 -11.29190
 Alpha  occ. eigenvalues --  -11.26415 -11.25921  -1.38593  -1.29828  -1.18856
 Alpha  occ. eigenvalues --   -1.06349  -0.95405  -0.84313  -0.80231  -0.70875
 Alpha  occ. eigenvalues --   -0.70477  -0.67408  -0.65077  -0.63040  -0.60434
 Alpha  occ. eigenvalues --   -0.59157  -0.56625  -0.52963  -0.51388  -0.50569
 Alpha  occ. eigenvalues --   -0.46849  -0.44199  -0.43229
 Alpha virt. eigenvalues --    0.02016   0.03460   0.03607   0.04995   0.06323
 Alpha virt. eigenvalues --    0.06604   0.07176   0.07667   0.08682   0.11293
 Alpha virt. eigenvalues --    0.12394   0.13375   0.13893   0.14191   0.14376

 Mulliken charges:
               1
     1  H    0.373357
     2  O   -0.526354
     3  C    0.637916
     4  C    0.222035
     5  O   -0.492552
     6  C   -0.006700
     7  H   -0.072986
     8  H    0.004012
     9  C    0.693343
    10  H   -0.036103
    11  H   -0.059803
    12  N   -0.556311
    13  H   -0.135274
    14  H   -0.157833
    15  H    0.011101
    16  H    0.102152
 Sum of Mulliken charges =   0.00000

 Dipole moment (field-independent basis, Debye):
    X=              7.0975    Y=              1.3332    Z=              1.6232  Tot=              7.4018

 Test job not archived.
 1\1\GINC-SE179\SP\RHF\Aug-CC-pVDZ\C4H9N1O2\OHZDE\08-Apr-2025\0\\#t hf
 aug-cc-pvdz iop(5/13=1,5/36=2,99/5=2) pseudo=read geom=check guess=(re
 ad,tcheck) scf=(maxcycle=1)\\title\\0,1\H,0,0.12644,-1.36814,0.33366\O
 ,0,-0.83029,-1.39495,0.00674\C,0,-1.33683,-0.14198,0.04928\C,0,-0.4344
 5,0.89659,0.71481\O,0,-2.4326,0.11577,-0.40366\C,0,0.78981,1.3195,-0.1
 2309\H,0,-1.05107,1.77985,0.92139\H,0,-0.09727,0.49231,1.68248\C,0,1.6
 3953,0.17175,-0.67631\H,0,0.45893,1.93524,-0.97308\H,0,1.41835,1.97278
 ,0.50501\N,0,1.83658,-0.88508,0.33787\H,0,1.11874,-0.2983,-1.52432\H,0

 Normal termination of Gaussian 16 at Tue Apr  8 17:01:07 2025.
