 Gaussian 16, Revision C.01,

 ----------------------------------------------------------------------
 #t hf aug-cc-pvdz symm=none int=(grid=ultrafine) guess=(read,tcheck) s
 table=(opt,rrhf)
 ----------------------------------------------------------------------
 -----
 title
 -----
 Symbolic Z-matrix:
 Charge =  0 Multiplicity = 1

 SCF Done:  E(RHF) =  -1542.36312933     A.U. after   17 cycles
 Normal termination of Gaussian 16 at Tue Apr  8 17:56:44 2025.
 Gaussian 16:  ES64L-G16RevC.01  3-Jul-2019

 ----------------------------------------------------------------------
 #t hf aug-cc-pvdz iop(5/13=1,5/36=2,99/5=2) pseudo=read geom=check gue
 ss=(read,tcheck) scf=(maxcycle=1)
 ----------------------------------------------------------------------
 -----
 title
 -----
 Structure from the checkpoint file:  "37Conf8_Indometacin_3_mol1.chk"
 Charge =  0 Multiplicity = 1

                         Standard orientation:
 ---------------------------------------------------------------------
 Center     Atomic      Atomic             Coordinates (Angstroms)
 Number     Number       Type             X           Y           Z
 ---------------------------------------------------------------------
      1          1           0        3.480260   -1.281660    1.186959
      2          8           0        4.463980   -1.320420    1.199369
      3          6           0        4.888960   -1.194321   -0.083151
      4          6           0        3.778420   -1.111110   -1.145841
      5          8           0        6.065040   -1.177371   -0.358291
      6          6           0        2.401440   -0.861110   -0.626321
      7          1           0        4.086180   -0.326220   -1.851821
      8          1           0        3.832190   -2.057630   -1.705631
      9          6           0        1.857100    0.442440   -0.317181
     10          6           0        1.431580   -1.801600   -0.339611
     11          6           0        2.413310    1.722290   -0.360551
     12          6           0        0.526450    0.251901    0.134319
     13          7           0        0.267210   -1.137849    0.098049
     14          6           0        1.487559   -3.277110   -0.524231
     15          1           0        3.437421    1.896530   -0.692961
     16          6           0        1.638111    2.806930    0.063259
     17          6           0       -0.231330    1.325241    0.595679
     18          6           0       -0.895500   -1.801919    0.556889
     19          1           0        2.391509   -3.542910   -1.086581
     20          1           0        0.612609   -3.648800   -1.076491
     21          1           0        1.499879   -3.810230    0.435979
     22          8           0        2.240691    4.032070   -0.012731
     23          6           0        0.329741    2.604131    0.547439
     24          1           0       -1.237970    1.196601    0.988179
     25          6           0       -2.200280   -1.139879    0.286629
     26          8           0       -0.825151   -2.894909    1.102179
     27          6           0        1.502321    5.162180    0.438049
     28          1           0       -0.263909    3.445201    0.900299
     29          6           0       -3.260460   -1.375429    1.174009
     30          6           0       -2.428630   -0.386829   -0.874941
     31          1           0        0.580561    5.305021   -0.150941
     32          1           0        2.161412    6.025730    0.294839
     33          1           0        1.241731    5.075460    1.506329
     34          1           0       -3.079530   -1.986299    2.059159
     35          6           0       -4.521300   -0.842068    0.928919
     36          1           0       -1.613950   -0.210649   -1.577881
     37          6           0       -3.691910    0.131222   -1.144171
     38          1           0       -5.345400   -1.007108    1.622269
     39          6           0       -4.727740   -0.091328   -0.232591
     40          1           0       -3.880160    0.704612   -2.051261
     41         17           0       -6.300990    0.570032   -0.552391
 ---------------------------------------------------------------------

 SCF Done:  E(RHF) =  -1542.69963731     A.U. after    2 cycles

 The electronic state is 1-A.
 Alpha  occ. eigenvalues -- -103.68937 -20.61890 -20.60815 -20.58627 -20.55355
 Alpha  occ. eigenvalues --  -15.70585 -11.41268 -11.39718 -11.34583 -11.32514
 Alpha  occ. eigenvalues --  -11.32469 -11.30693 -11.30189 -11.29430 -11.29133
 Alpha  occ. eigenvalues --  -11.28943 -11.28545 -11.28472 -11.27679 -11.27295
 Alpha  occ. eigenvalues --  -11.27101 -11.26502 -11.26171 -11.25997 -11.25556
 Alpha  occ. eigenvalues --  -10.72236  -8.37976  -8.37659  -8.37646  -1.40858
 Alpha  occ. eigenvalues --   -1.39015  -1.37585  -1.31990  -1.29117  -1.22654
 Alpha  occ. eigenvalues --   -1.16662  -1.14879  -1.11556  -1.05419  -1.04918
 Alpha  occ. eigenvalues --   -1.04238  -1.03231  -1.01104  -0.95735  -0.94763
 Alpha  occ. eigenvalues --   -0.89620  -0.87799  -0.85625  -0.83612  -0.82926
 Alpha  occ. eigenvalues --   -0.80450  -0.77256  -0.75817  -0.73299  -0.72128
 Alpha  occ. eigenvalues --   -0.70895  -0.69323  -0.68774  -0.67785  -0.67244
 Alpha  occ. eigenvalues --   -0.67063  -0.66882  -0.65517  -0.64767  -0.63659
 Alpha  occ. eigenvalues --   -0.63042  -0.62135  -0.61280  -0.60549  -0.59327
 Alpha  occ. eigenvalues --   -0.58493  -0.58072  -0.57484  -0.57089  -0.56567
 Alpha  occ. eigenvalues --   -0.55845  -0.55648  -0.54785  -0.54207  -0.53220
 Alpha  occ. eigenvalues --   -0.52663  -0.50748  -0.49555  -0.48959  -0.48512
 Alpha  occ. eigenvalues --   -0.48047  -0.46813  -0.46327  -0.40826  -0.38083
 Alpha  occ. eigenvalues --   -0.36949  -0.31586  -0.31529
 Alpha virt. eigenvalues --    0.02354   0.02874   0.03163   0.03638   0.03865
 Alpha virt. eigenvalues --    0.04559   0.04867   0.05082   0.05450   0.05707
 Alpha virt. eigenvalues --    0.06427   0.06650   0.06733   0.07226   0.07575

 Mulliken charges:
               1
     1  H    0.267014
     2  O   -0.428897
     3  C    0.681018
     4  C    0.130508
     5  O   -0.515226
     6  C    0.126856
     7  H    0.003354
     8  H    0.025459
     9  C   -0.119763
    10  C   -0.624462
    11  C    0.792259
    12  C    0.095630
    13  N   -0.674479
    14  C    0.707737
    15  H   -0.673333
    16  C   -0.076772
    17  C    1.177956
    18  C   -0.852288
    19  H   -0.083347
    20  H    0.189383
    21  H    0.198483
    22  O   -0.702778
    23  C    0.738264
    24  H   -0.559601
    25  C    1.101885
    26  O   -0.472517
    27  C    0.862313
    28  H   -0.768499
    29  C    0.356278
    30  C    0.991258
    31  H   -0.067614
    32  H   -0.331017
    33  H   -0.062460
    34  H   -0.642114
    35  C    0.823944
    36  H   -0.694284
    37  C    0.535327
    38  H   -0.428909
    39  C   -0.209584
    40  H   -0.479087
    41  Cl  -0.337891
 Sum of Mulliken charges =  -0.00000

 Dipole moment (field-independent basis, Debye):
    X=             -6.9227    Y=              2.4258    Z=             -1.3901  Tot=              7.4660

 Test job not archived.
 1\1\GINC-SE331\SP\RHF\Aug-CC-pVDZ\C19H16Cl1N1O4\OHZDE\08-Apr-2025\0\\#
 t hf aug-cc-pvdz iop(5/13=1,5/36=2,99/5=2) pseudo=read geom=check gues
 s=(read,tcheck) scf=(maxcycle=1)\\title\\0,1\H,0,3.48026,-1.28166,1.18
 696\O,0,4.46398,-1.32042,1.19937\C,0,4.88896,-1.19432,-0.08315\C,0,3.7
 7842,-1.11111,-1.14584\O,0,6.06504,-1.17737,-0.35829\C,0,2.40144,-0.86
 111,-0.62632\H,0,4.08618,-0.32622,-1.85182\H,0,3.83219,-2.05763,-1.705
 63\C,0,1.8571,0.44244,-0.31718\C,0,1.43158,-1.8016,-0.33961\C,0,2.4133
 1,1.72229,-0.36055\C,0,0.52645,0.2519,0.13432\N,0,0.26721,-1.13785,0.0

 Normal termination of Gaussian 16 at Tue Apr  8 17:58:25 2025.
