 Gaussian 16, Revision C.01,

 ----------------------------------------------------------------------
 #t hf aug-cc-pvdz symm=none int=(grid=ultrafine) guess=(read,tcheck) s
 table=(opt,rrhf)
 ----------------------------------------------------------------------
 -----
 title
 -----
 Symbolic Z-matrix:
 Charge =  0 Multiplicity = 1

 SCF Done:  E(RHF) =  -1689.90756820     A.U. after   15 cycles
 Normal termination of Gaussian 16 at Tue Apr  8 17:14:39 2025.
 Gaussian 16:  ES64L-G16RevC.01  3-Jul-2019

 ----------------------------------------------------------------------
 #t hf aug-cc-pvdz iop(5/13=1,5/36=2,99/5=2) pseudo=read geom=check gue
 ss=(read,tcheck) scf=(maxcycle=1)
 ----------------------------------------------------------------------
 -----
 title
 -----
 Structure from the checkpoint file:  "37Conf8_Fotemustin_2_mol2.chk"
 Charge =  0 Multiplicity = 1

                         Standard orientation:
 ---------------------------------------------------------------------
 Center     Atomic      Atomic             Coordinates (Angstroms)
 Number     Number       Type             X           Y           Z
 ---------------------------------------------------------------------
      1          8           0        3.145191    0.640189    2.434180
      2          7           0        2.176251    0.180269    1.853590
      3          7           0        2.306301    0.061449    0.500650
      4          6           0        3.509351    0.486389   -0.209900
      5          6           0        1.210491   -0.519961   -0.231780
      6          6           0        4.508511   -0.661151   -0.320400
      7          1           0        3.203891    0.823069   -1.206370
      8          1           0        3.945141    1.314969    0.363160
      9         17           0        5.986661   -0.096181   -1.166210
     10          1           0        4.090321   -1.486711   -0.907780
     11          1           0        4.815381   -1.018191    0.669480
     12          7           0        0.156561   -0.879791    0.539770
     13          8           0        1.302561   -0.653621   -1.444600
     14          6           0       -1.079849   -1.393461   -0.034720
     15          1           0        0.193071   -0.659261    1.534960
     16         15           0       -2.349199   -0.102551    0.276060
     17          6           0       -1.468929   -2.747601    0.555130
     18          1           0       -0.920379   -1.461901   -1.120160
     19          8           0       -1.938469    1.145499   -0.656540
     20          8           0       -3.607399   -0.714011   -0.504560
     21          8           0       -2.513629    0.226789    1.716430
     22          6           0       -1.239939    2.292419   -0.096490
     23          6           0       -4.884339   -0.014751   -0.433580
     24          6           0       -1.983589    3.558139   -0.464670
     25          1           0       -0.226269    2.283869   -0.526410
     26          1           0       -1.171399    2.172359    0.994610
     27          6           0       -5.951219   -0.928591   -0.992190
     28          1           0       -4.799199    0.913529   -1.020220
     29          1           0       -5.082099    0.248109    0.616840
     30          1           0       -2.090819    3.647009   -1.554520
     31          1           0       -1.430329    4.435479   -0.098680
     32          1           0       -2.983529    3.567189   -0.009270
     33          1           0       -5.729259   -1.199141   -2.033520
     34          1           0       -6.925559   -0.419771   -0.966680
     35          1           0       -6.026699   -1.849731   -0.398490
     36          1           0       -2.394449   -3.111661    0.090940
     37          1           0       -0.668999   -3.478391    0.372610
     38          1           0       -1.636779   -2.668261    1.638380
 ---------------------------------------------------------------------

 SCF Done:  E(RHF) =  -1690.26341297     A.U. after    2 cycles

 The electronic state is 1-A.
 Alpha  occ. eigenvalues -- -103.65772 -81.41142 -20.64901 -20.60812 -20.60497
 Alpha  occ. eigenvalues --  -20.57012 -20.52871 -15.83770 -15.73291 -15.68090
 Alpha  occ. eigenvalues --  -11.43749 -11.31677 -11.31610 -11.31361 -11.30806
 Alpha  occ. eigenvalues --  -11.30723 -11.25188 -11.24606 -11.24364 -10.69055
 Alpha  occ. eigenvalues --   -8.34779  -8.34488  -8.34476  -7.89499  -5.04161
 Alpha  occ. eigenvalues --   -5.04095  -5.03805  -1.50054  -1.39479  -1.37274
 Alpha  occ. eigenvalues --   -1.34141  -1.27289  -1.25570  -1.22952  -1.17312
 Alpha  occ. eigenvalues --   -1.05992  -1.04263  -1.02956  -1.02708  -0.94752
 Alpha  occ. eigenvalues --   -0.90436  -0.88346  -0.86478  -0.85185  -0.81319
 Alpha  occ. eigenvalues --   -0.79557  -0.77635  -0.73563  -0.72552  -0.70110
 Alpha  occ. eigenvalues --   -0.68991  -0.68735  -0.68241  -0.66943  -0.66134
 Alpha  occ. eigenvalues --   -0.65120  -0.63981  -0.62442  -0.62150  -0.61506
 Alpha  occ. eigenvalues --   -0.59540  -0.59172  -0.57697  -0.57054  -0.56517
 Alpha  occ. eigenvalues --   -0.56178  -0.55812  -0.55286  -0.54806  -0.54111
 Alpha  occ. eigenvalues --   -0.53015  -0.51930  -0.50890  -0.49788  -0.49602
 Alpha  occ. eigenvalues --   -0.48656  -0.48177  -0.47494  -0.46815  -0.45877
 Alpha  occ. eigenvalues --   -0.45285  -0.43769  -0.40816
 Alpha virt. eigenvalues --    0.02933   0.03147   0.03854   0.04395   0.04616
 Alpha virt. eigenvalues --    0.04895   0.05556   0.05929   0.06213   0.06380
 Alpha virt. eigenvalues --    0.06738   0.06830   0.07591   0.07952   0.08386

 Mulliken charges:
               1
     1  O   -0.504377
     2  N    0.155449
     3  N    0.072466
     4  C    0.855569
     5  C    0.248598
     6  C    0.062916
     7  H   -0.201316
     8  H   -0.142213
     9  Cl  -0.126680
    10  H    0.012160
    11  H    0.010143
    12  N   -0.145295
    13  O   -0.512235
    14  C   -0.517524
    15  H   -0.002299
    16  P    2.839338
    17  C    0.773613
    18  H   -0.270531
    19  O   -1.074087
    20  O   -1.001752
    21  O   -1.018644
    22  C    0.765584
    23  C    0.562775
    24  C    0.180384
    25  H   -0.323206
    26  H   -0.208953
    27  C    0.281189
    28  H   -0.187756
    29  H   -0.145390
    30  H   -0.010290
    31  H   -0.009791
    32  H   -0.056397
    33  H   -0.038069
    34  H   -0.027829
    35  H   -0.048864
    36  H   -0.073131
    37  H   -0.108807
    38  H   -0.064746
 Sum of Mulliken charges =  -0.00000

 Dipole moment (field-independent basis, Debye):
    X=             -3.8417    Y=             -0.1952    Z=             -0.8067  Tot=              3.9303

 Test job not archived.
 1\1\GINC-SE437\SP\RHF\Aug-CC-pVDZ\C9H19Cl1N3O5P1\OHZDE\08-Apr-2025\0\\
 #t hf aug-cc-pvdz iop(5/13=1,5/36=2,99/5=2) pseudo=read geom=check gue
 ss=(read,tcheck) scf=(maxcycle=1)\\title\\0,1\O,0,3.14519,0.64019,2.43
 418\N,0,2.17625,0.18027,1.85359\N,0,2.3063,0.06145,0.50065\C,0,3.50935
 ,0.48639,-0.2099\C,0,1.21049,-0.51996,-0.23178\C,0,4.50851,-0.66115,-0
 .3204\H,0,3.20389,0.82307,-1.20637\H,0,3.94514,1.31497,0.36316\Cl,0,5.
 98666,-0.09618,-1.16621\H,0,4.09032,-1.48671,-0.90778\H,0,4.81538,-1.0
 1819,0.66948\N,0,0.15656,-0.87979,0.53977\O,0,1.30256,-0.65362,-1.4446

 Normal termination of Gaussian 16 at Tue Apr  8 17:15:48 2025.
