 Gaussian 16, Revision C.01,

 ----------------------------------------------------------------------
 #t hf aug-cc-pvdz symm=none int=(grid=ultrafine) guess=(read,tcheck) s
 table=(opt,rrhf)
 ----------------------------------------------------------------------
 -----
 title
 -----
 Symbolic Z-matrix:
 Charge =  0 Multiplicity = 1

 SCF Done:  E(RHF) =  -1542.35879090     A.U. after   17 cycles
 Normal termination of Gaussian 16 at Tue Apr  8 18:02:41 2025.
 Gaussian 16:  ES64L-G16RevC.01  3-Jul-2019

 ----------------------------------------------------------------------
 #t hf aug-cc-pvdz iop(5/13=1,5/36=2,99/5=2) pseudo=read geom=check gue
 ss=(read,tcheck) scf=(maxcycle=1)
 ----------------------------------------------------------------------
 -----
 title
 -----
 Structure from the checkpoint file:  "37Conf8_Indometacin_6_mol1.chk"
 Charge =  0 Multiplicity = 1

                         Standard orientation:
 ---------------------------------------------------------------------
 Center     Atomic      Atomic             Coordinates (Angstroms)
 Number     Number       Type             X           Y           Z
 ---------------------------------------------------------------------
      1          1           0       -2.391372    4.936240    0.304881
      2          8           0       -1.631542    4.848200   -0.301249
      3          6           0       -1.100401    3.593121   -0.187829
      4          6           0       -1.758621    2.713480    0.883251
      5          8           0       -0.160661    3.272451   -0.871919
      6          6           0       -1.413000    1.269820    0.770161
      7          1           0       -2.852191    2.845720    0.847621
      8          1           0       -1.434011    3.128660    1.856011
      9          6           0       -2.297240    0.219040    0.333151
     10          6           0       -0.184800    0.714401    1.042611
     11          6           0       -3.628740    0.208500   -0.088659
     12          6           0       -1.562259   -0.992730    0.386171
     13          7           0       -0.247240   -0.670459    0.782041
     14          6           0        0.992520    1.391651    1.657061
     15          1           0       -4.226590    1.118689   -0.156849
     16          6           0       -4.212219   -1.011851   -0.446159
     17          6           0       -2.135309   -2.208070    0.028971
     18          6           0        0.803611   -1.611879    0.797691
     19          1           0        1.673819    1.817612    0.907131
     20          1           0        0.641039    2.222641    2.285521
     21          1           0        1.574450    0.709932    2.290581
     22          8           0       -5.522899   -0.945841   -0.843029
     23          6           0       -3.469889   -2.208370   -0.387719
     24          1           0       -1.570989   -3.135780    0.092841
     25          6           0        2.147761   -1.139578    0.364481
     26          8           0        0.590101   -2.787189    1.069731
     27          6           0       -6.154639   -2.159461   -1.231669
     28          1           0       -3.930779   -3.156501   -0.658189
     29          6           0        3.281341   -1.774608    0.892791
     30          6           0        2.304800   -0.179988   -0.647109
     31          1           0       -5.646449   -2.623121   -2.094109
     32          1           0       -7.177149   -1.886812   -1.517069
     33          1           0       -6.189209   -2.883491   -0.399969
     34          1           0        3.146271   -2.545208    1.652781
     35          6           0        4.554961   -1.432067    0.452891
     36          1           0        1.429850    0.305412   -1.083039
     37          6           0        3.573860    0.153472   -1.113759
     38          1           0        5.441191   -1.907987    0.871691
     39          6           0        4.691020   -0.467497   -0.550809
     40          1           0        3.700370    0.889222   -1.907329
     41         17           0        6.279170   -0.041606   -1.113419
 ---------------------------------------------------------------------

 SCF Done:  E(RHF) =  -1542.69556069     A.U. after    2 cycles

 The electronic state is 1-A.
 Alpha  occ. eigenvalues -- -103.67870 -20.63731 -20.59805 -20.57212 -20.57144
 Alpha  occ. eigenvalues --  -15.69101 -11.41260 -11.39842 -11.33373 -11.31131
 Alpha  occ. eigenvalues --  -11.30885 -11.29833 -11.28899 -11.28176 -11.28084
 Alpha  occ. eigenvalues --  -11.27926 -11.27730 -11.27363 -11.27299 -11.25763
 Alpha  occ. eigenvalues --  -11.25699 -11.25287 -11.25126 -11.24320 -11.24270
 Alpha  occ. eigenvalues --  -10.71169  -8.36908  -8.36593  -8.36580  -1.42410
 Alpha  occ. eigenvalues --   -1.37465  -1.36470  -1.33678  -1.27665  -1.21497
 Alpha  occ. eigenvalues --   -1.15555  -1.13323  -1.10526  -1.04609  -1.04049
 Alpha  occ. eigenvalues --   -1.02770  -1.02181  -1.00734  -0.94708  -0.93664
 Alpha  occ. eigenvalues --   -0.88547  -0.86580  -0.85170  -0.83494  -0.82409
 Alpha  occ. eigenvalues --   -0.79443  -0.77370  -0.73576  -0.73241  -0.71367
 Alpha  occ. eigenvalues --   -0.69812  -0.68588  -0.68083  -0.67750  -0.66963
 Alpha  occ. eigenvalues --   -0.66260  -0.66028  -0.64514  -0.64145  -0.62653
 Alpha  occ. eigenvalues --   -0.62190  -0.61774  -0.60938  -0.60030  -0.59027
 Alpha  occ. eigenvalues --   -0.58379  -0.57718  -0.57468  -0.55886  -0.55450
 Alpha  occ. eigenvalues --   -0.55083  -0.54357  -0.53589  -0.53099  -0.52378
 Alpha  occ. eigenvalues --   -0.51431  -0.50630  -0.49469  -0.48609  -0.47912
 Alpha  occ. eigenvalues --   -0.47814  -0.46585  -0.44918  -0.39371  -0.36859
 Alpha  occ. eigenvalues --   -0.35710  -0.30149  -0.29791
 Alpha virt. eigenvalues --    0.02212   0.03194   0.03458   0.04220   0.04698
 Alpha virt. eigenvalues --    0.04739   0.05124   0.05532   0.05682   0.05976
 Alpha virt. eigenvalues --    0.06232   0.06948   0.07320   0.07698   0.08105

 Mulliken charges:
               1
     1  H    0.196231
     2  O   -0.549717
     3  C    0.756234
     4  C   -0.210052
     5  O   -0.441970
     6  C    0.360406
     7  H   -0.145987
     8  H    0.152526
     9  C   -0.252263
    10  C   -0.808663
    11  C    0.928858
    12  C    0.143755
    13  N   -0.813153
    14  C    1.255323
    15  H   -0.646504
    16  C   -0.124017
    17  C    0.856650
    18  C   -0.687295
    19  H    0.213614
    20  H   -0.061945
    21  H    0.015826
    22  O   -0.711973
    23  C    0.971116
    24  H   -0.661635
    25  C    1.240820
    26  O   -0.497632
    27  C    0.821700
    28  H   -0.744285
    29  C    0.277861
    30  C    0.951693
    31  H   -0.053737
    32  H   -0.343500
    33  H   -0.062776
    34  H   -0.651126
    35  C    0.907126
    36  H   -0.702000
    37  C    0.592756
    38  H   -0.434033
    39  C   -0.243459
    40  H   -0.461248
    41  Cl  -0.333525
 Sum of Mulliken charges =   0.00000

 Dipole moment (field-independent basis, Debye):
    X=             -2.2656    Y=              1.0099    Z=              2.7763  Tot=              3.7229

 Test job not archived.
 1\1\GINC-SE073\SP\RHF\Aug-CC-pVDZ\C19H16Cl1N1O4\OHZDE\08-Apr-2025\0\\#
 t hf aug-cc-pvdz iop(5/13=1,5/36=2,99/5=2) pseudo=read geom=check gues
 s=(read,tcheck) scf=(maxcycle=1)\\title\\0,1\H,0,-2.39137,4.93624,0.30
 488\O,0,-1.63154,4.8482,-0.30125\C,0,-1.1004,3.59312,-0.18783\C,0,-1.7
 5862,2.71348,0.88325\O,0,-0.16066,3.27245,-0.87192\C,0,-1.413,1.26982,
 0.77016\H,0,-2.85219,2.84572,0.84762\H,0,-1.43401,3.12866,1.85601\C,0,
 -2.29724,0.21904,0.33315\C,0,-0.1848,0.7144,1.04261\C,0,-3.62874,0.208
 5,-0.08866\C,0,-1.56226,-0.99273,0.38617\N,0,-0.24724,-0.67046,0.78204

 Normal termination of Gaussian 16 at Tue Apr  8 18:04:43 2025.
