 Gaussian 16, Revision C.01,

 ----------------------------------------------------------------------
 #t hf aug-cc-pvdz symm=none int=(grid=ultrafine) guess=(read,tcheck) s
 table=(opt,rrhf)
 ----------------------------------------------------------------------
 -----
 title
 -----
 Symbolic Z-matrix:
 Charge =  0 Multiplicity = 1

 SCF Done:  E(RHF) =  -1673.89622838     A.U. after   17 cycles
 Normal termination of Gaussian 16 at Tue Apr  8 17:56:01 2025.
 Gaussian 16:  ES64L-G16RevC.01  3-Jul-2019

 ----------------------------------------------------------------------
 #t hf aug-cc-pvdz iop(5/13=1,5/36=2,99/5=2) pseudo=read geom=check gue
 ss=(read,tcheck) scf=(maxcycle=1)
 ----------------------------------------------------------------------
 -----
 title
 -----
 Structure from the checkpoint file:  "37Conf8_Pantoprazole_4_mol1.chk"
 Charge =  0 Multiplicity = 1

                         Standard orientation:
 ---------------------------------------------------------------------
 Center     Atomic      Atomic             Coordinates (Angstroms)
 Number     Number       Type             X           Y           Z
 ---------------------------------------------------------------------
      1          1           0       -6.844979    1.837219   -0.324669
      2          6           0       -5.786219    1.608339   -0.197449
      3          6           0       -4.789169    2.466619   -0.656459
      4          6           0       -5.416999    0.409019    0.414431
      5          1           0       -5.055580    3.409609   -1.141969
      6          7           0       -3.482159    2.200289   -0.559679
      7          8           0       -6.404459   -0.428081    0.855821
      8          6           0       -4.041049    0.144199    0.586941
      9          6           0       -3.115579    1.064039    0.056911
     10          6           0       -6.355629   -1.777471    0.348181
     11          8           0       -3.581879   -0.982861    1.226881
     12          6           0       -1.650239    0.780740    0.121971
     13          1           0       -6.453969   -1.768371   -0.748359
     14          1           0       -5.422359   -2.286941    0.624561
     15          1           0       -7.216129   -2.290751    0.791431
     16          6           0       -3.920579   -1.046411    2.625691
     17         16           0       -1.080919    0.195900   -1.556669
     18          1           0       -1.061759    1.691020    0.300511
     19          1           0       -1.396119   -0.014920    0.830861
     20          6           0        0.615801   -0.092950   -1.020659
     21          8           0       -1.622749   -1.186100   -1.797389
     22          7           0        1.513321    0.785710   -0.627179
     23          7           0        1.070501   -1.382650   -1.076929
     24          6           0        2.649171    0.022150   -0.391799
     25          1           0        0.480881   -2.166930   -1.347359
     26          6           0        2.391381   -1.349910   -0.668479
     27          6           0        3.910121    0.428981    0.069601
     28          6           0        3.365441   -2.336459   -0.501989
     29          1           0        4.091681    1.470391    0.330301
     30          6           0        4.876611   -0.562019    0.213631
     31          1           0        3.168602   -3.388349   -0.710619
     32          6           0        4.616561   -1.920439   -0.062249
     33          8           0        6.170291   -0.303419    0.663391
     34          1           0        5.425942   -2.636459    0.078171
     35          6           0        6.673841    0.956431    0.452511
     36          9           0        8.024501    0.856201    0.508381
     37          9           0        6.292321    1.816191    1.458871
     38          1           0        6.361991    1.394011   -0.511039
     39          1           0       -5.010049   -1.034491    2.779191
     40          1           0       -3.500469   -1.988831    2.995501
     41          1           0       -3.466459   -0.201051    3.167171
 ---------------------------------------------------------------------

 SCF Done:  E(RHF) =  -1674.32730071     A.U. after    2 cycles

 The electronic state is 1-A.
 Alpha  occ. eigenvalues --  -93.68564 -26.14789 -26.14221 -20.63397 -20.61529
 Alpha  occ. eigenvalues --  -20.61144 -20.54314 -15.70151 -15.64385 -15.64232
 Alpha  occ. eigenvalues --  -11.49003 -11.36164 -11.34159 -11.33190 -11.32519
 Alpha  occ. eigenvalues --  -11.31209 -11.30945 -11.30701 -11.30097 -11.29920
 Alpha  occ. eigenvalues --  -11.29471 -11.29259 -11.27468 -11.26380 -11.26266
 Alpha  occ. eigenvalues --  -11.26248  -8.96887  -6.31149  -6.31027  -6.30671
 Alpha  occ. eigenvalues --   -1.71267  -1.66326  -1.40967  -1.39112  -1.36641
 Alpha  occ. eigenvalues --   -1.34295  -1.31485  -1.24427  -1.16723  -1.15010
 Alpha  occ. eigenvalues --   -1.09124  -1.07638  -1.04434  -1.02970  -1.00919
 Alpha  occ. eigenvalues --   -0.98052  -0.96625  -0.94380  -0.91981  -0.87569
 Alpha  occ. eigenvalues --   -0.86046  -0.85089  -0.84014  -0.83625  -0.82231
 Alpha  occ. eigenvalues --   -0.81907  -0.78833  -0.75243  -0.74358  -0.73773
 Alpha  occ. eigenvalues --   -0.73384  -0.71731  -0.71414  -0.70467  -0.70297
 Alpha  occ. eigenvalues --   -0.67797  -0.67211  -0.66812  -0.65638  -0.64983
 Alpha  occ. eigenvalues --   -0.64289  -0.63478  -0.63335  -0.63055  -0.62916
 Alpha  occ. eigenvalues --   -0.61153  -0.60825  -0.60287  -0.58575  -0.58311
 Alpha  occ. eigenvalues --   -0.57557  -0.56253  -0.55768  -0.54691  -0.53942
 Alpha  occ. eigenvalues --   -0.53683  -0.53364  -0.51412  -0.48424  -0.47445
 Alpha  occ. eigenvalues --   -0.47301  -0.45369  -0.44792  -0.43035  -0.40856
 Alpha  occ. eigenvalues --   -0.37500  -0.35034  -0.33391  -0.31715
 Alpha virt. eigenvalues --    0.02598   0.03043   0.03588   0.03841   0.04369
 Alpha virt. eigenvalues --    0.04690   0.05189   0.05426   0.05582   0.06016
 Alpha virt. eigenvalues --    0.06513   0.07160   0.07284   0.07495   0.08109

 Mulliken charges:
               1
     1  H   -0.521907
     2  C    1.206493
     3  C    0.571369
     4  C   -0.438701
     5  H   -0.413084
     6  N   -0.510839
     7  O   -0.800457
     8  C    0.817695
     9  C   -0.324053
    10  C    0.806519
    11  O   -0.840529
    12  C    0.670390
    13  H   -0.069291
    14  H   -0.114019
    15  H   -0.153391
    16  C    0.789959
    17  S    1.562657
    18  H   -0.041144
    19  H   -0.232859
    20  C   -0.239641
    21  O   -1.174518
    22  N   -0.859521
    23  N   -0.552082
    24  C   -0.503388
    25  H   -0.045628
    26  C   -0.245331
    27  C    1.284881
    28  C    1.439484
    29  H   -0.615995
    30  C    0.255685
    31  H   -0.540038
    32  C    1.187816
    33  O   -0.784166
    34  H   -0.571604
    35  C    1.185305
    36  F   -0.307698
    37  F   -0.357954
    38  H   -0.194896
    39  H   -0.134759
    40  H   -0.128756
    41  H   -0.062001
 Sum of Mulliken charges =  -0.00000

 Dipole moment (field-independent basis, Debye):
    X=             -4.9334    Y=             -2.4049    Z=              0.5637  Tot=              5.5172

 Test job not archived.
 1\1\GINC-SE214\SP\RHF\Aug-CC-pVDZ\C16H15F2N3O4S1\OHZDE\08-Apr-2025\0\\
 #t hf aug-cc-pvdz iop(5/13=1,5/36=2,99/5=2) pseudo=read geom=check gue
 ss=(read,tcheck) scf=(maxcycle=1)\\title\\0,1\H,0,-6.84498,1.83722,-0.
 32467\C,0,-5.78622,1.60834,-0.19745\C,0,-4.78917,2.46662,-0.65646\C,0,
 -5.417,0.40902,0.41443\H,0,-5.05558,3.40961,-1.14197\N,0,-3.48216,2.20
 029,-0.55968\O,0,-6.40446,-0.42808,0.85582\C,0,-4.04105,0.1442,0.58694
 \C,0,-3.11558,1.06404,0.05691\C,0,-6.35563,-1.77747,0.34818\O,0,-3.581
 88,-0.98286,1.22688\C,0,-1.65024,0.78074,0.12197\H,0,-6.45397,-1.76837

 Normal termination of Gaussian 16 at Tue Apr  8 17:57:44 2025.
