 Gaussian 16, Revision C.01,

 ----------------------------------------------------------------------
 #t hf aug-cc-pvdz symm=none int=(grid=ultrafine) guess=(read,tcheck) s
 table=(opt,rrhf)
 ----------------------------------------------------------------------
 -----
 title
 -----
 Symbolic Z-matrix:
 Charge =  0 Multiplicity = 1

 SCF Done:  E(RHF) =  -914.173851091     A.U. after   14 cycles
 Normal termination of Gaussian 16 at Tue Apr  8 18:29:30 2025.
 Gaussian 16:  ES64L-G16RevC.01  3-Jul-2019

 ----------------------------------------------------------------------
 #t hf aug-cc-pvdz iop(5/13=1,5/36=2,99/5=2) pseudo=read geom=check gue
 ss=(read,tcheck) scf=(maxcycle=1)
 ----------------------------------------------------------------------
 -----
 title
 -----
 Structure from the checkpoint file:  "37Conf8_shiepox_depox_6_mol1.chk"
 Charge =  0 Multiplicity = 1

                         Standard orientation:
 ---------------------------------------------------------------------
 Center     Atomic      Atomic             Coordinates (Angstroms)
 Number     Number       Type             X           Y           Z
 ---------------------------------------------------------------------
      1          8           0       -0.159070    1.784961    0.479680
      2          6           0       -0.104350    0.676381   -0.009900
      3          6           0        1.118790   -0.259769    0.187550
      4          6           0       -1.194730    0.043301   -0.866600
      5          8           0        0.721860   -1.634839    0.065310
      6          8           0        2.028260    0.003781   -0.844290
      7          6           0        1.915330    0.008181    1.474640
      8          1           0       -0.760570   -0.146819   -1.863890
      9          8           0       -2.367870    0.810671   -0.988060
     10          6           0       -1.659770   -1.267089   -0.199950
     11          6           0       -0.553720   -1.877929    0.664810
     12          6           0        3.363380    0.205031   -0.270000
     13          1           0        1.764360    1.048711    1.807310
     14          1           0        1.654170   -0.688049    2.281190
     15          8           0        3.256540   -0.249159    1.073350
     16          6           0       -3.368520    0.280091   -0.079000
     17          1           0       -2.009610   -1.979399   -0.969660
     18          8           0       -2.736220   -0.812919    0.612690
     19          1           0       -0.648810   -2.966889    0.753130
     20          1           0       -0.622000   -1.442529    1.680350
     21          6           0        3.695450    1.691421   -0.347090
     22          6           0        4.349350   -0.679609   -1.005830
     23          6           0       -4.550780   -0.209199   -0.906500
     24          6           0       -3.743250    1.333141    0.947800
     25          1           0        3.693560    2.023191   -1.393830
     26          1           0        4.689320    1.875321    0.082680
     27          1           0        2.951000    2.283611    0.201170
     28          1           0        4.395870   -0.393499   -2.064430
     29          1           0        4.032120   -1.726199   -0.925360
     30          1           0        5.349640   -0.568289   -0.566430
     31          1           0       -4.235120   -1.009649   -1.588920
     32          1           0       -4.956180    0.616820   -1.505780
     33          1           0       -5.341660   -0.592390   -0.247730
     34          1           0       -4.227430    2.183221    0.449610
     35          1           0       -2.839670    1.688431    1.457240
     36          1           0       -4.440080    0.910731    1.684350
 ---------------------------------------------------------------------

 SCF Done:  E(RHF) =  -914.449830840     A.U. after    2 cycles

 The electronic state is 1-A.
 Alpha  occ. eigenvalues --  -20.59936 -20.59618 -20.59564 -20.59048 -20.59002
 Alpha  occ. eigenvalues --  -20.58866 -11.37603 -11.36240 -11.36234 -11.35995
 Alpha  occ. eigenvalues --  -11.31974 -11.31917 -11.31400 -11.30355 -11.23687
 Alpha  occ. eigenvalues --  -11.23345 -11.23240 -11.22952  -1.42407  -1.40878
 Alpha  occ. eigenvalues --   -1.37024  -1.35506  -1.30664  -1.30206  -1.09758
 Alpha  occ. eigenvalues --   -1.07896  -1.00659  -0.99693  -0.96235  -0.95037
 Alpha  occ. eigenvalues --   -0.94350  -0.87859  -0.86297  -0.81212  -0.81071
 Alpha  occ. eigenvalues --   -0.76760  -0.75132  -0.71774  -0.71336  -0.70358
 Alpha  occ. eigenvalues --   -0.68065  -0.66792  -0.65524  -0.64654  -0.63448
 Alpha  occ. eigenvalues --   -0.62707  -0.61978  -0.61533  -0.58723  -0.57535
 Alpha  occ. eigenvalues --   -0.56625  -0.56362  -0.55591  -0.55077  -0.54560
 Alpha  occ. eigenvalues --   -0.54453  -0.54124  -0.53719  -0.53528  -0.53202
 Alpha  occ. eigenvalues --   -0.52324  -0.51937  -0.50587  -0.50106  -0.47893
 Alpha  occ. eigenvalues --   -0.47162  -0.44862  -0.44418  -0.40864
 Alpha virt. eigenvalues --    0.03196   0.03957   0.04126   0.04216   0.05013
 Alpha virt. eigenvalues --    0.05105   0.05421   0.05696   0.05851   0.06806
 Alpha virt. eigenvalues --    0.07274   0.07579   0.07678   0.08109   0.08903

 Mulliken charges:
               1
     1  O   -0.518528
     2  C    0.112768
     3  C    0.351015
     4  C    0.979984
     5  O   -0.781951
     6  O   -0.804803
     7  C    1.084495
     8  H   -0.142197
     9  O   -0.807903
    10  C   -0.102308
    11  C    1.114202
    12  C   -0.920842
    13  H   -0.063047
    14  H   -0.159112
    15  O   -0.682145
    16  C   -0.938577
    17  H   -0.236579
    18  O   -0.722480
    19  H   -0.198818
    20  H    0.033401
    21  C    0.613087
    22  C    0.842721
    23  C    0.690433
    24  C    0.810785
    25  H    0.062431
    26  H    0.061238
    27  H   -0.098329
    28  H    0.070066
    29  H    0.020449
    30  H    0.065246
    31  H   -0.030026
    32  H    0.094925
    33  H    0.066626
    34  H    0.061441
    35  H   -0.014959
    36  H    0.087291
 Sum of Mulliken charges =  -0.00000

 Dipole moment (field-independent basis, Debye):
    X=             -0.8800    Y=             -1.6652    Z=             -0.2510  Tot=              1.9001

 Test job not archived.
 1\1\GINC-SE333\SP\RHF\Aug-CC-pVDZ\C12H18O6\OHZDE\08-Apr-2025\0\\#t hf
 aug-cc-pvdz iop(5/13=1,5/36=2,99/5=2) pseudo=read geom=check guess=(re
 ad,tcheck) scf=(maxcycle=1)\\title\\0,1\O,0,0.15907,-1.78496,0.47968\C
 ,0,0.10435,-0.67638,-0.0099\C,0,-1.11879,0.25977,0.18755\C,0,1.19473,-
 0.0433,-0.8666\O,0,-0.72186,1.63484,0.06531\O,0,-2.02826,-0.00378,-0.8
 4429\C,0,-1.91533,-0.00818,1.47464\H,0,0.76057,0.14682,-1.86389\O,0,2.
 36787,-0.81067,-0.98806\C,0,1.65977,1.26709,-0.19995\C,0,0.55372,1.877
 93,0.66481\C,0,-3.36338,-0.20503,-0.27\H,0,-1.76436,-1.04871,1.80731\H

 Normal termination of Gaussian 16 at Tue Apr  8 18:30:34 2025.
