 Gaussian 16, Revision C.01,

 ----------------------------------------------------------------------
 #t hf aug-cc-pvdz symm=none int=(grid=ultrafine) guess=(read,tcheck) s
 table=(opt,rrhf)
 ----------------------------------------------------------------------
 -----
 title
 -----
 Symbolic Z-matrix:
 Charge =  0 Multiplicity = 1

 SCF Done:  E(RHF) =  -983.487013546     A.U. after   14 cycles
 Normal termination of Gaussian 16 at Tue Apr  8 18:33:41 2025.
 Gaussian 16:  ES64L-G16RevC.01  3-Jul-2019

 ----------------------------------------------------------------------
 #t hf aug-cc-pvdz iop(5/13=1,5/36=2,99/5=2) pseudo=read geom=check gue
 ss=(read,tcheck) scf=(maxcycle=1)
 ----------------------------------------------------------------------
 -----
 title
 -----
 Structure from the checkpoint file:  "37Conf8_Tsogoeva_8_mol1.chk"
 Charge =  0 Multiplicity = 1

                         Standard orientation:
 ---------------------------------------------------------------------
 Center     Atomic      Atomic             Coordinates (Angstroms)
 Number     Number       Type             X           Y           Z
 ---------------------------------------------------------------------
      1          1           0        6.588191   -1.998161   -0.014951
      2          8           0        5.681471   -1.980231   -0.387961
      3          6           0        5.194981   -0.729371   -0.134761
      4          6           0        3.736171   -0.618421   -0.569551
      5          8           0        5.844091    0.121849    0.440089
      6          1           0        3.589341   -1.231781   -1.470251
      7          7           0        2.864101   -1.124201    0.520969
      8          6           0        3.292221    0.851369   -0.744521
      9          1           0        3.269641   -1.921831    1.012709
     10          6           0        2.579571    0.031609    1.384379
     11          1           0        4.145662    1.515709   -0.557801
     12          1           0        2.905332    1.051679   -1.750361
     13          6           0        2.202892    1.077679    0.330539
     14          1           0        3.451601    0.381729    1.969309
     15          1           0        1.753381   -0.193601    2.072679
     16          1           0        2.193892    2.105139    0.713209
     17          7           0        0.866991    0.813940   -0.179251
     18          6           0       -0.144498    1.730980   -0.134841
     19          1           0        0.649031   -0.155230   -0.396741
     20          6           0       -1.529018    1.212270   -0.549731
     21          8           0        0.007062    2.894500    0.233109
     22          1           0       -2.007288    2.061870   -1.061271
     23          7           0       -1.588379    0.012520   -1.400831
     24          6           0       -2.334839    0.800060    0.719069
     25          1           0       -0.808189   -0.087850   -2.047341
     26          6           0       -1.880969   -1.155470   -0.565581
     27          1           0       -3.102558    1.534050    0.986309
     28          1           0       -1.659589    0.696170    1.580799
     29          6           0       -2.943529   -0.574410    0.369669
     30          1           0       -2.262699   -1.989130   -1.171771
     31          1           0       -1.025809   -1.531030    0.036469
     32          1           0       -3.131969   -1.182010    1.263229
     33          7           0       -4.210539   -0.459550   -0.330721
     34          6           0       -5.412699   -0.721300    0.267309
     35          1           0       -4.176529   -0.132450   -1.291831
     36          6           0       -6.631049   -0.526870   -0.617281
     37          8           0       -5.508159   -1.090770    1.436899
     38          1           0       -6.389939   -0.226150   -1.645991
     39          1           0       -7.201699   -1.464760   -0.640301
     40          1           0       -7.276179    0.237140   -0.162601
 ---------------------------------------------------------------------

 SCF Done:  E(RHF) =  -983.779585693     A.U. after    2 cycles

 The electronic state is 1-A.
 Alpha  occ. eigenvalues --  -20.64422 -20.58459 -20.53481 -20.52882 -15.65223
 Alpha  occ. eigenvalues --  -15.64922 -15.64348 -15.63312 -11.41544 -11.36543
 Alpha  occ. eigenvalues --  -11.36439 -11.30485 -11.28801 -11.28779 -11.28560
 Alpha  occ. eigenvalues --  -11.28215 -11.27860 -11.25103 -11.25028 -11.24940
 Alpha  occ. eigenvalues --   -1.43557  -1.34173  -1.33930  -1.33614  -1.24023
 Alpha  occ. eigenvalues --   -1.23477  -1.19135  -1.17353  -1.03777  -1.03577
 Alpha  occ. eigenvalues --   -1.02499  -1.00220  -0.97537  -0.89884  -0.86747
 Alpha  occ. eigenvalues --   -0.82877  -0.82155  -0.80178  -0.78943  -0.78846
 Alpha  occ. eigenvalues --   -0.73780  -0.73579  -0.72502  -0.70652  -0.68545
 Alpha  occ. eigenvalues --   -0.67635  -0.67141  -0.66171  -0.65534  -0.63293
 Alpha  occ. eigenvalues --   -0.62965  -0.62084  -0.60718  -0.60147  -0.58885
 Alpha  occ. eigenvalues --   -0.58352  -0.56786  -0.55474  -0.54954  -0.54405
 Alpha  occ. eigenvalues --   -0.53946  -0.53705  -0.53007  -0.51908  -0.51712
 Alpha  occ. eigenvalues --   -0.51171  -0.51095  -0.50419  -0.49782  -0.49292
 Alpha  occ. eigenvalues --   -0.44737  -0.43567  -0.40609  -0.39801  -0.38770
 Alpha  occ. eigenvalues --   -0.37340
 Alpha virt. eigenvalues --    0.02021   0.02608   0.03269   0.03440   0.04011
 Alpha virt. eigenvalues --    0.05037   0.05176   0.05763   0.06291   0.06513
 Alpha virt. eigenvalues --    0.06738   0.07195   0.07460   0.07825   0.08245

 Mulliken charges:
               1
     1  H    0.216790
     2  O   -0.569285
     3  C    0.690504
     4  C    0.386595
     5  O   -0.503514
     6  H   -0.226758
     7  N   -0.808084
     8  C    0.939585
     9  H   -0.045422
    10  C    1.552029
    11  H   -0.123373
    12  H   -0.082429
    13  C   -0.532178
    14  H   -0.131783
    15  H   -0.182503
    16  H   -0.321167
    17  N   -0.222364
    18  C    0.567557
    19  H   -0.123211
    20  C    0.376847
    21  O   -0.646365
    22  H   -0.194183
    23  N   -0.576148
    24  C    0.584131
    25  H   -0.109285
    26  C    1.424438
    27  H   -0.111354
    28  H   -0.137527
    29  C   -0.124247
    30  H   -0.191151
    31  H   -0.139785
    32  H   -0.240694
    33  N   -0.174100
    34  C    0.074991
    35  H   -0.030361
    36  C    0.424832
    37  O   -0.583696
    38  H   -0.185625
    39  H    0.036008
    40  H    0.042285
 Sum of Mulliken charges =  -0.00000

 Dipole moment (field-independent basis, Debye):
    X=              2.1839    Y=             -3.9161    Z=             -4.1880  Tot=              6.1355

 Test job not archived.
 1\1\GINC-SE018\SP\RHF\Aug-CC-pVDZ\C12H20N4O4\OHZDE\08-Apr-2025\0\\#t h
 f aug-cc-pvdz iop(5/13=1,5/36=2,99/5=2) pseudo=read geom=check guess=(
 read,tcheck) scf=(maxcycle=1)\\title\\0,1\H,0,6.58819,-1.99816,-0.0149
 5\O,0,5.68147,-1.98023,-0.38796\C,0,5.19498,-0.72937,-0.13476\C,0,3.73
 617,-0.61842,-0.56955\O,0,5.84409,0.12185,0.44009\H,0,3.58934,-1.23178
 ,-1.47025\N,0,2.8641,-1.1242,0.52097\C,0,3.29222,0.85137,-0.74452\H,0,
 3.26964,-1.92183,1.01271\C,0,2.57957,0.03161,1.38438\H,0,4.14566,1.515
 71,-0.5578\H,0,2.90533,1.05168,-1.75036\C,0,2.20289,1.07768,0.33054\H,

 Normal termination of Gaussian 16 at Tue Apr  8 18:35:00 2025.
