 Gaussian 16, Revision C.01,

 ----------------------------------------------------------------------
 #t hf aug-cc-pvdz symm=none int=(grid=ultrafine) guess=(read,tcheck) s
 table=(opt,rrhf)
 ----------------------------------------------------------------------
 -----
 title
 -----
 Symbolic Z-matrix:
 Charge =  0 Multiplicity = 1

 SCF Done:  E(RHF) =  -1542.36145684     A.U. after   17 cycles
 Normal termination of Gaussian 16 at Tue Apr  8 17:51:50 2025.
 Gaussian 16:  ES64L-G16RevC.01  3-Jul-2019

 ----------------------------------------------------------------------
 #t hf aug-cc-pvdz iop(5/13=1,5/36=2,99/5=2) pseudo=read geom=check gue
 ss=(read,tcheck) scf=(maxcycle=1)
 ----------------------------------------------------------------------
 -----
 title
 -----
 Structure from the checkpoint file:  "37Conf8_Indometacin_4_mol1.chk"
 Charge =  0 Multiplicity = 1

                         Standard orientation:
 ---------------------------------------------------------------------
 Center     Atomic      Atomic             Coordinates (Angstroms)
 Number     Number       Type             X           Y           Z
 ---------------------------------------------------------------------
      1          1           0        2.441029    1.704369    1.514590
      2          8           0        3.007070    2.508249    1.545960
      3          6           0        2.945060    3.104189    0.328200
      4          6           0        2.004510    2.445189   -0.696390
      5          8           0        3.583090    4.101029    0.084980
      6          6           0        1.392809    1.145959   -0.287900
      7          1           0        2.596790    2.328489   -1.617450
      8          1           0        1.239470    3.198559   -0.933980
      9          6           0        2.089889   -0.119931   -0.242430
     10          6           0        0.105769    0.938070    0.170550
     11          6           0        3.398219   -0.486681   -0.599520
     12          6           0        1.191819   -1.076921    0.276900
     13          7           0       -0.040831   -0.427890    0.493420
     14          6           0       -0.933380    1.971310    0.452720
     15          1           0        4.089459    0.256599   -0.994010
     16          6           0        3.774479   -1.820721   -0.426290
     17          6           0        1.565489   -2.413261    0.443490
     18          6           0       -1.181741   -1.090750    1.004920
     19          1           0       -1.700610    2.041820   -0.331930
     20          1           0       -0.451820    2.953350    0.541460
     21          1           0       -1.459471    1.770280    1.396170
     22          8           0        5.013729   -2.314991   -0.721290
     23          6           0        2.859909   -2.768471    0.087200
     24          1           0        0.878389   -3.144921    0.862410
     25          6           0       -2.509791   -0.657030    0.493120
     26          8           0       -1.064451   -2.035210    1.773500
     27          6           0        5.981279   -1.394811   -1.215520
     28          1           0        3.205739   -3.794881    0.211430
     29          6           0       -3.622331   -0.759110    1.340790
     30          6           0       -2.696401   -0.279890   -0.844600
     31          1           0        5.661369   -0.949331   -2.172800
     32          1           0        6.896229   -1.976511   -1.373160
     33          1           0        6.178679   -0.589351   -0.488340
     34          1           0       -3.472841   -1.088710    2.369680
     35          6           0       -4.895851   -0.447890    0.877650
     36          1           0       -1.839481   -0.231100   -1.518540
     37          6           0       -3.970271    0.006730   -1.328400
     38          1           0       -5.762231   -0.505860    1.535820
     39          6           0       -5.060671   -0.066410   -0.457950
     40          1           0       -4.125041    0.282160   -2.371190
     41         17           0       -6.649301    0.311190   -1.047560
 ---------------------------------------------------------------------

 SCF Done:  E(RHF) =  -1542.69795823     A.U. after    2 cycles

 The electronic state is 1-A.
 Alpha  occ. eigenvalues -- -103.69001 -20.62420 -20.60540 -20.58597 -20.55879
 Alpha  occ. eigenvalues --  -15.70692 -11.41230 -11.40270 -11.34648 -11.32673
 Alpha  occ. eigenvalues --  -11.32129 -11.30291 -11.29631 -11.29438 -11.29240
 Alpha  occ. eigenvalues --  -11.29113 -11.28769 -11.28633 -11.28154 -11.27379
 Alpha  occ. eigenvalues --  -11.26841 -11.26724 -11.26311 -11.25616 -11.25065
 Alpha  occ. eigenvalues --  -10.72300  -8.38040  -8.37722  -8.37709  -1.41371
 Alpha  occ. eigenvalues --   -1.38952  -1.37327  -1.32488  -1.29098  -1.22754
 Alpha  occ. eigenvalues --   -1.16884  -1.14466  -1.11409  -1.05873  -1.05430
 Alpha  occ. eigenvalues --   -1.04040  -1.02449  -1.01180  -0.97453  -0.93151
 Alpha  occ. eigenvalues --   -0.89878  -0.87961  -0.84837  -0.83814  -0.83130
 Alpha  occ. eigenvalues --   -0.80596  -0.78492  -0.74797  -0.73438  -0.72178
 Alpha  occ. eigenvalues --   -0.70717  -0.69236  -0.68989  -0.68181  -0.67155
 Alpha  occ. eigenvalues --   -0.66943  -0.66864  -0.65562  -0.64606  -0.63957
 Alpha  occ. eigenvalues --   -0.63177  -0.62450  -0.61572  -0.60618  -0.60202
 Alpha  occ. eigenvalues --   -0.58571  -0.58097  -0.57414  -0.57174  -0.56706
 Alpha  occ. eigenvalues --   -0.56012  -0.55252  -0.55085  -0.54350  -0.53358
 Alpha  occ. eigenvalues --   -0.52382  -0.50516  -0.49776  -0.49067  -0.48981
 Alpha  occ. eigenvalues --   -0.47881  -0.47189  -0.45969  -0.40436  -0.38266
 Alpha  occ. eigenvalues --   -0.36982  -0.31879  -0.30857
 Alpha virt. eigenvalues --    0.02255   0.02866   0.03378   0.03451   0.03986
 Alpha virt. eigenvalues --    0.04398   0.04615   0.05277   0.05886   0.05923
 Alpha virt. eigenvalues --    0.06277   0.06666   0.07005   0.07463   0.07618

 Mulliken charges:
               1
     1  H    0.283358
     2  O   -0.434199
     3  C    0.657048
     4  C    0.160396
     5  O   -0.517713
     6  C   -0.177408
     7  H    0.037256
     8  H   -0.019808
     9  C   -0.482588
    10  C   -0.275805
    11  C    0.857611
    12  C    1.043205
    13  N   -0.774920
    14  C    0.906514
    15  H   -0.809774
    16  C   -0.067329
    17  C    0.445553
    18  C   -0.675623
    19  H    0.201695
    20  H   -0.106413
    21  H    0.098007
    22  O   -0.667851
    23  C    0.438403
    24  H   -0.620267
    25  C    1.279361
    26  O   -0.481118
    27  C    0.893232
    28  H   -0.621831
    29  C    0.147221
    30  C    0.807518
    31  H   -0.052175
    32  H   -0.341874
    33  H   -0.028413
    34  H   -0.642145
    35  C    0.953930
    36  H   -0.697474
    37  C    0.694267
    38  H   -0.431601
    39  C   -0.192380
    40  H   -0.458227
    41  Cl  -0.327640
 Sum of Mulliken charges =  -0.00000

 Dipole moment (field-independent basis, Debye):
    X=             -3.8847    Y=             -0.9931    Z=             -2.5421  Tot=              4.7476

 Test job not archived.
 1\1\GINC-SE185\SP\RHF\Aug-CC-pVDZ\C19H16Cl1N1O4\OHZDE\08-Apr-2025\0\\#
 t hf aug-cc-pvdz iop(5/13=1,5/36=2,99/5=2) pseudo=read geom=check gues
 s=(read,tcheck) scf=(maxcycle=1)\\title\\0,1\H,0,2.44103,1.70437,1.514
 59\O,0,3.00707,2.50825,1.54596\C,0,2.94506,3.10419,0.3282\C,0,2.00451,
 2.44519,-0.69639\O,0,3.58309,4.10103,0.08498\C,0,1.39281,1.14596,-0.28
 79\H,0,2.59679,2.32849,-1.61745\H,0,1.23947,3.19856,-0.93398\C,0,2.089
 89,-0.11993,-0.24243\C,0,0.10577,0.93807,0.17055\C,0,3.39822,-0.48668,
 -0.59952\C,0,1.19182,-1.07692,0.2769\N,0,-0.04083,-0.42789,0.49342\C,0

 Normal termination of Gaussian 16 at Tue Apr  8 17:53:52 2025.
