 Gaussian 16, Revision C.01,

 ----------------------------------------------------------------------
 #t hf aug-cc-pvdz symm=none int=(grid=ultrafine) guess=(read,tcheck) s
 table=(opt,rrhf)
 ----------------------------------------------------------------------
 -----
 title
 -----
 Symbolic Z-matrix:
 Charge =  0 Multiplicity = 1

 SCF Done:  E(RHF) =  -360.949152782     A.U. after   14 cycles
 Normal termination of Gaussian 16 at Tue Apr  8 17:00:01 2025.
 Gaussian 16:  ES64L-G16RevC.01  3-Jul-2019

 ----------------------------------------------------------------------
 #t hf aug-cc-pvdz iop(5/13=1,5/36=2,99/5=2) pseudo=read geom=check gue
 ss=(read,tcheck) scf=(maxcycle=1)
 ----------------------------------------------------------------------
 -----
 title
 -----
 Structure from the checkpoint file:  "37Conf8_GABA_7_mol1.chk"
 Charge =  0 Multiplicity = 1

                         Standard orientation:
 ---------------------------------------------------------------------
 Center     Atomic      Atomic             Coordinates (Angstroms)
 Number     Number       Type             X           Y           Z
 ---------------------------------------------------------------------
      1          1           0        2.243679   -1.222052   -0.430581
      2          8           0        2.234020   -0.259732   -0.589381
      3          6           0        1.217781    0.304579    0.134829
      4          6           0        0.342730   -0.653621    0.919729
      5          8           0        1.040442    1.501019    0.077899
      6          6           0       -0.765561   -1.269459    0.039819
      7          1           0        0.946999   -1.453451    1.377169
      8          1           0       -0.121800   -0.079620    1.731649
      9          6           0       -1.597540   -0.221109   -0.705221
     10          1           0       -0.329862   -1.968380   -0.693681
     11          1           0       -1.424311   -1.854209    0.699769
     12          7           0       -2.137169    0.777362    0.224419
     13          1           0       -0.982579    0.220181   -1.515491
     14          1           0       -2.439730   -0.734588   -1.193551
     15          1           0       -2.901668    1.288443   -0.218811
     16          1           0       -1.410698    1.469511    0.429539
 ---------------------------------------------------------------------

 SCF Done:  E(RHF) =  -361.061258234     A.U. after    2 cycles

 The electronic state is 1-A.
 Alpha  occ. eigenvalues --  -20.63177 -20.56540 -15.60621 -11.40477 -11.26854
 Alpha  occ. eigenvalues --  -11.26821 -11.25682  -1.41737  -1.32902  -1.15270
 Alpha  occ. eigenvalues --   -1.06224  -0.94665  -0.84701  -0.81228  -0.72096
 Alpha  occ. eigenvalues --   -0.69367  -0.67851  -0.65119  -0.63345  -0.60861
 Alpha  occ. eigenvalues --   -0.57902  -0.56754  -0.53480  -0.51365  -0.49633
 Alpha  occ. eigenvalues --   -0.48798  -0.46283  -0.38936
 Alpha virt. eigenvalues --    0.02534   0.03878   0.04409   0.04843   0.06442
 Alpha virt. eigenvalues --    0.06713   0.07204   0.07664   0.09140   0.10744
 Alpha virt. eigenvalues --    0.12786   0.13387   0.13817   0.14094   0.14695

 Mulliken charges:
               1
     1  H    0.203830
     2  O   -0.555974
     3  C    0.802126
     4  C    0.148124
     5  O   -0.513102
     6  C    0.104462
     7  H   -0.074611
     8  H   -0.037514
     9  C    0.576323
    10  H   -0.077176
    11  H   -0.055272
    12  N   -0.370487
    13  H   -0.063113
    14  H   -0.166231
    15  H   -0.033132
    16  H    0.111747
 Sum of Mulliken charges =  -0.00000

 Dipole moment (field-independent basis, Debye):
    X=             -0.7481    Y=             -4.0125    Z=              0.1201  Tot=              4.0834

 Test job not archived.
 1\1\GINC-SE454\SP\RHF\Aug-CC-pVDZ\C4H9N1O2\OHZDE\08-Apr-2025\0\\#t hf
 aug-cc-pvdz iop(5/13=1,5/36=2,99/5=2) pseudo=read geom=check guess=(re
 ad,tcheck) scf=(maxcycle=1)\\title\\0,1\H,0,-2.24368,1.22205,-0.43058\
 O,0,-2.23402,0.25973,-0.58938\C,0,-1.21778,-0.30458,0.13483\C,0,-0.342
 73,0.65362,0.91973\O,0,-1.04044,-1.50102,0.0779\C,0,0.76556,1.26946,0.
 03982\H,0,-0.947,1.45345,1.37717\H,0,0.1218,0.07962,1.73165\C,0,1.5975
 4,0.22111,-0.70522\H,0,0.32986,1.96838,-0.69368\H,0,1.42431,1.85421,0.
 69977\N,0,2.13717,-0.77736,0.22442\H,0,0.98258,-0.22018,-1.51549\H,0,2

 Normal termination of Gaussian 16 at Tue Apr  8 17:00:06 2025.
