 Gaussian 16, Revision C.01,

 ----------------------------------------------------------------------
 #t hf aug-cc-pvdz symm=none int=(grid=ultrafine) guess=(read,tcheck) s
 table=(opt,rrhf)
 ----------------------------------------------------------------------
 -----
 title
 -----
 Symbolic Z-matrix:
 Charge =  0 Multiplicity = 1

 SCF Done:  E(RHF) =  -983.492311277     A.U. after   14 cycles
 Normal termination of Gaussian 16 at Tue Apr  8 18:24:01 2025.
 Gaussian 16:  ES64L-G16RevC.01  3-Jul-2019

 ----------------------------------------------------------------------
 #t hf aug-cc-pvdz iop(5/13=1,5/36=2,99/5=2) pseudo=read geom=check gue
 ss=(read,tcheck) scf=(maxcycle=1)
 ----------------------------------------------------------------------
 -----
 title
 -----
 Structure from the checkpoint file:  "37Conf8_Tsogoeva_2_mol2.chk"
 Charge =  0 Multiplicity = 1

                         Standard orientation:
 ---------------------------------------------------------------------
 Center     Atomic      Atomic             Coordinates (Angstroms)
 Number     Number       Type             X           Y           Z
 ---------------------------------------------------------------------
      1          1           0        5.258510   -0.746550   -0.973430
      2          8           0        5.889250   -0.066370   -0.575430
      3          6           0        5.044590    0.881230   -0.128130
      4          6           0        3.579290    0.584720   -0.509900
      5          8           0        5.398260    1.868520    0.480310
      6          1           0        3.371350    1.192580   -1.403420
      7          7           0        3.455150   -0.845920   -0.853310
      8          6           0        2.583170    0.891120    0.630190
      9          1           0        2.667930   -0.943000   -1.505080
     10          6           0        3.041540   -1.490190    0.404980
     11          1           0        3.071250    1.481930    1.416170
     12          1           0        1.722870    1.463260    0.262500
     13          6           0        2.110050   -0.497820    1.144630
     14          1           0        3.935060   -1.664350    1.026030
     15          1           0        2.564480   -2.458180    0.210040
     16          1           0        2.259540   -0.581320    2.229240
     17          7           0        0.687400   -0.747920    0.933020
     18          6           0        0.055210   -0.834720   -0.258050
     19          1           0        0.036860   -0.750380    1.725440
     20          6           0       -1.466500   -1.047061   -0.118790
     21          8           0        0.601530   -0.793520   -1.369190
     22          1           0       -1.628130   -2.131731   -0.216050
     23          7           0       -1.950000   -0.596791    1.198060
     24          6           0       -2.258370   -0.267761   -1.192460
     25          1           0       -2.842110   -1.071701    1.372510
     26          6           0       -2.275180    0.821579    0.995160
     27          1           0       -3.090870   -0.874111   -1.568630
     28          1           0       -1.612870   -0.004021   -2.039810
     29          6           0       -2.816650    0.979129   -0.453820
     30          1           0       -2.985130    1.172609    1.753480
     31          1           0       -1.351100    1.415799    1.088440
     32          1           0       -2.421480    1.902269   -0.898380
     33          7           0       -4.273320    1.112189   -0.538160
     34          6           0       -5.168970    0.224889   -0.018920
     35          1           0       -4.638550    1.873119   -1.099150
     36          6           0       -6.627940    0.517679   -0.312810
     37          8           0       -4.831680   -0.758011    0.648500
     38          1           0       -7.037250   -0.309821   -0.908690
     39          1           0       -6.795590    1.460499   -0.850390
     40          1           0       -7.179700    0.540479    0.635970
 ---------------------------------------------------------------------

 SCF Done:  E(RHF) =  -983.783386275     A.U. after    2 cycles

 The electronic state is 1-A.
 Alpha  occ. eigenvalues --  -20.59685 -20.55248 -20.54635 -20.54315 -15.67264
 Alpha  occ. eigenvalues --  -15.65394 -15.62727 -15.62477 -11.38738 -11.37978
 Alpha  occ. eigenvalues --  -11.37145 -11.30251 -11.29608 -11.28932 -11.28738
 Alpha  occ. eigenvalues --  -11.27869 -11.27554 -11.26750 -11.24680 -11.24577
 Alpha  occ. eigenvalues --   -1.39364  -1.35880  -1.34968  -1.30576  -1.23512
 Alpha  occ. eigenvalues --   -1.22663  -1.20738  -1.18385  -1.04531  -1.03192
 Alpha  occ. eigenvalues --   -1.01264  -1.00120  -0.98059  -0.88231  -0.86838
 Alpha  occ. eigenvalues --   -0.85472  -0.82048  -0.79123  -0.77908  -0.76584
 Alpha  occ. eigenvalues --   -0.73291  -0.72890  -0.71007  -0.69623  -0.69061
 Alpha  occ. eigenvalues --   -0.67436  -0.66721  -0.65901  -0.64453  -0.64310
 Alpha  occ. eigenvalues --   -0.62835  -0.62098  -0.61082  -0.60680  -0.59234
 Alpha  occ. eigenvalues --   -0.58358  -0.57950  -0.56145  -0.54355  -0.53811
 Alpha  occ. eigenvalues --   -0.53332  -0.52716  -0.52457  -0.51596  -0.51452
 Alpha  occ. eigenvalues --   -0.51248  -0.50246  -0.49977  -0.47254  -0.45987
 Alpha  occ. eigenvalues --   -0.45272  -0.44747  -0.42430  -0.41577  -0.39002
 Alpha  occ. eigenvalues --   -0.38301
 Alpha virt. eigenvalues --    0.01631   0.02736   0.02983   0.03288   0.04290
 Alpha virt. eigenvalues --    0.04871   0.04883   0.05848   0.05995   0.06166
 Alpha virt. eigenvalues --    0.06696   0.06986   0.07481   0.07955   0.08354

 Mulliken charges:
               1
     1  H    0.332019
     2  O   -0.543857
     3  C    0.725959
     4  C    0.186740
     5  O   -0.523426
     6  H   -0.113767
     7  N   -0.671985
     8  C    0.748826
     9  H    0.128193
    10  C    1.146991
    11  H   -0.145516
    12  H   -0.158215
    13  C   -0.414241
    14  H   -0.227275
    15  H   -0.198422
    16  H   -0.308465
    17  N    0.202942
    18  C    0.353051
    19  H   -0.043334
    20  C    0.321297
    21  O   -0.632251
    22  H   -0.177971
    23  N   -0.641785
    24  C    0.755580
    25  H    0.148488
    26  C    1.037710
    27  H   -0.126544
    28  H   -0.139542
    29  C   -0.278107
    30  H   -0.219015
    31  H   -0.211010
    32  H   -0.228795
    33  N    0.108842
    34  C   -0.091481
    35  H   -0.118058
    36  C    0.634722
    37  O   -0.559512
    38  H    0.035608
    39  H   -0.126567
    40  H    0.032173
 Sum of Mulliken charges =  -0.00000

 Dipole moment (field-independent basis, Debye):
    X=             -9.6721    Y=              0.7138    Z=             -0.7110  Tot=              9.7245

 Test job not archived.
 1\1\GINC-SE456\SP\RHF\Aug-CC-pVDZ\C12H20N4O4\OHZDE\08-Apr-2025\0\\#t h
 f aug-cc-pvdz iop(5/13=1,5/36=2,99/5=2) pseudo=read geom=check guess=(
 read,tcheck) scf=(maxcycle=1)\\title\\0,1\H,0,5.25851,-0.74655,-0.9734
 3\O,0,5.88925,-0.06637,-0.57543\C,0,5.04459,0.88123,-0.12813\C,0,3.579
 29,0.58472,-0.5099\O,0,5.39826,1.86852,0.48031\H,0,3.37135,1.19258,-1.
 40342\N,0,3.45515,-0.84592,-0.85331\C,0,2.58317,0.89112,0.63019\H,0,2.
 66793,-0.943,-1.50508\C,0,3.04154,-1.49019,0.40498\H,0,3.07125,1.48193
 ,1.41617\H,0,1.72287,1.46326,0.2625\C,0,2.11005,-0.49782,1.14463\H,0,3

 Normal termination of Gaussian 16 at Tue Apr  8 18:25:21 2025.
