 Gaussian 16, Revision C.01,

 ----------------------------------------------------------------------
 #t hf aug-cc-pvdz symm=none int=(grid=ultrafine) guess=(read,tcheck) s
 table=(opt,rrhf)
 ----------------------------------------------------------------------
 -----
 title
 -----
 Symbolic Z-matrix:
 Charge =  0 Multiplicity = 1

 SCF Done:  E(RHF) =  -382.157155423     A.U. after   12 cycles

 1\1\GINC-SE073\Stability\RHF\Aug-CC-pVDZ\C7H14N2\OHZDE\08-Apr-2025\0\\
 #t hf aug-cc-pvdz symm=none int=(grid=ultrafine) guess=(read,tcheck) s
 table=(opt,rrhf)\\title\\0,1\H,0,0.76351,0.,-1.75009\N,0,1.49086,0.,-1
 .03025\C,0,1.29354,-1.21771,-0.23748\C,0,1.29354,1.21771,-0.23748\H,0,
 1.29398,-2.0757,-0.92868\H,0,2.1665,-1.34454,0.42931\C,0,0.02075,-1.23
 429,0.63846\H,0,1.29398,2.0757,-0.92868\H,0,2.1665,1.34454,0.42931\C,0
 ,0.02075,1.23429,0.63846\H,0,0.02977,-2.15562,1.24583\C,0,-1.2828,-1.2
 2442,-0.17347\C,0,0.03923,0.,1.54893\H,0,0.02977,2.15562,1.24583\C,0,-

 Normal termination of Gaussian 16 at Tue Apr  8 16:41:14 2025.
 Gaussian 16:  ES64L-G16RevC.01  3-Jul-2019

 ----------------------------------------------------------------------
 #t hf aug-cc-pvdz iop(5/13=1,5/36=2,99/5=2) pseudo=read geom=check gue
 ss=(read,tcheck) scf=(maxcycle=1)
 ----------------------------------------------------------------------
 -----
 title
 -----
 Structure from the checkpoint file:  "37Conf8_Bispidin_3_mol2.chk"
 Charge =  0 Multiplicity = 1

                         Standard orientation:
 ---------------------------------------------------------------------
 Center     Atomic      Atomic             Coordinates (Angstroms)
 Number     Number       Type             X           Y           Z
 ---------------------------------------------------------------------
      1          1           0        1.889163   -0.277182    0.000000
      2          7           0        1.662698    0.720776    0.000000
      3          6           0        0.885463    0.972420    1.217710
      4          6           0        0.885463    0.972420   -1.217710
      5          1           0        1.472395    0.607361    2.075700
      6          1           0        0.781010    2.065927    1.344540
      7          6           0       -0.530962    0.355162    1.234290
      8          1           0        1.472395    0.607361   -2.075700
      9          1           0        0.781010    2.065927   -1.344540
     10          6           0       -0.530962    0.355162   -1.234290
     11          1           0       -1.041737    0.683930    2.155620
     12          6           0       -0.530962   -1.180570    1.224420
     13          6           0       -1.294010    0.852206   -0.000000
     14          1           0       -1.041737    0.683930   -2.155620
     15          6           0       -0.530962   -1.180570   -1.224420
     16          1           0        0.034016   -1.569454    2.087270
     17          1           0       -1.585653   -1.522710    1.338590
     18          7           0        0.092481   -1.697020   -0.000000
     19          1           0       -2.328099    0.467298   -0.000000
     20          1           0       -1.352382    1.953439    0.000000
     21          1           0        0.034016   -1.569454   -2.087270
     22          1           0       -1.585653   -1.522710   -1.338590
     23          1           0        0.066588   -2.717327   -0.000000
 ---------------------------------------------------------------------

 SCF Done:  E(RHF) =  -382.267147707     A.U. after    2 cycles

 The electronic state is 1-A'.
 Alpha  occ. eigenvalues --  -15.60913 -15.58747 -11.25992 -11.25989 -11.24783
 Alpha  occ. eigenvalues --  -11.24780 -11.23077 -11.23074 -11.22620  -1.19885
 Alpha  occ. eigenvalues --   -1.15003  -1.04518  -1.03395  -0.92426  -0.86499
 Alpha  occ. eigenvalues --   -0.83558  -0.80554  -0.72217  -0.68738  -0.64359
 Alpha  occ. eigenvalues --   -0.62750  -0.60098  -0.59100  -0.57601  -0.57033
 Alpha  occ. eigenvalues --   -0.56301  -0.51425  -0.50986  -0.49655  -0.47980
 Alpha  occ. eigenvalues --   -0.47184  -0.43571  -0.42978  -0.38249  -0.32892
 Alpha virt. eigenvalues --    0.02997   0.03757   0.03791   0.04606   0.06130
 Alpha virt. eigenvalues --    0.06162   0.06373   0.06625   0.06896   0.08686
 Alpha virt. eigenvalues --    0.08788   0.08997   0.09134   0.09705   0.12823

 Mulliken charges:
               1
     1  H    0.191182
     2  N   -0.645843
     3  C    0.858527
     4  C    0.858527
     5  H   -0.156612
     6  H   -0.129650
     7  C   -0.764041
     8  H   -0.156612
     9  H   -0.129650
    10  C   -0.764041
    11  H   -0.120906
    12  C    0.974105
    13  C    0.568272
    14  H   -0.120906
    15  C    0.974105
    16  H   -0.166580
    17  H   -0.069107
    18  N   -0.723306
    19  H   -0.099715
    20  H   -0.105398
    21  H   -0.166580
    22  H   -0.069107
    23  H   -0.036663
 Sum of Mulliken charges =  -0.00000

 Dipole moment (field-independent basis, Debye):
    X=             -2.0088    Y=             -1.4050    Z=              0.0000  Tot=              2.4514

 Test job not archived.
 1\1\GINC-SE073\SP\RHF\Aug-CC-pVDZ\C7H14N2\OHZDE\08-Apr-2025\0\\#t hf a
 ug-cc-pvdz iop(5/13=1,5/36=2,99/5=2) pseudo=read geom=check guess=(rea
 d,tcheck) scf=(maxcycle=1)\\title\\0,1\H,0,0.76351,0.,-1.75009\N,0,1.4
 9086,0.,-1.03025\C,0,1.29354,-1.21771,-0.23748\C,0,1.29354,1.21771,-0.
 23748\H,0,1.29398,-2.0757,-0.92868\H,0,2.1665,-1.34454,0.42931\C,0,0.0
 2075,-1.23429,0.63846\H,0,1.29398,2.0757,-0.92868\H,0,2.1665,1.34454,0
 .42931\C,0,0.02075,1.23429,0.63846\H,0,0.02977,-2.15562,1.24583\C,0,-1
 .2828,-1.22442,-0.17347\C,0,0.03923,0.,1.54893\H,0,0.02977,2.15562,1.2

 Normal termination of Gaussian 16 at Tue Apr  8 16:41:23 2025.
