 Gaussian 16, Revision C.01,

 ----------------------------------------------------------------------
 #t hf aug-cc-pvdz symm=none int=(grid=ultrafine) guess=(read,tcheck) s
 table=(opt,rrhf)
 ----------------------------------------------------------------------
 -----
 title
 -----
 Symbolic Z-matrix:
 Charge =  0 Multiplicity = 1

 SCF Done:  E(RHF) =  -798.303537579     A.U. after   14 cycles

 1\1\GINC-SE018\Stability\RHF\Aug-CC-pVDZ\C9H14O6\OHZDE\08-Apr-2025\0\\
 #t hf aug-cc-pvdz symm=none int=(grid=ultrafine) guess=(read,tcheck) s
 table=(opt,rrhf)\\title\\0,1\H,0,-3.19293,2.72349,0.96449\C,0,-2.65325
 ,2.96704,0.03714\C,0,-1.88474,1.75231,-0.4089\H,0,-3.3776,3.24502,-0.7
 3472\H,0,-1.97876,3.80371,0.25772\O,0,-0.76265,1.59882,0.35815\O,0,-2.
 2087,1.00229,-1.30558\C,0,0.04805,0.42303,0.10867\C,0,1.49002,0.89492,
 0.21839\C,0,-0.29244,-0.64673,1.13584\H,0,-0.16257,0.04895,-0.90301\O,
 0,2.32608,-0.22744,-0.12574\H,0,1.67364,1.72921,-0.4735\H,0,1.72846,1.

 Normal termination of Gaussian 16 at Tue Apr  8 17:59:45 2025.
 Gaussian 16:  ES64L-G16RevC.01  3-Jul-2019

 ----------------------------------------------------------------------
 #t hf aug-cc-pvdz iop(5/13=1,5/36=2,99/5=2) pseudo=read geom=check gue
 ss=(read,tcheck) scf=(maxcycle=1)
 ----------------------------------------------------------------------
 -----
 title
 -----
 Structure from the checkpoint file:  "37Conf8_Triacetin_2_mol1.chk"
 Charge =  0 Multiplicity = 1

                         Standard orientation:
 ---------------------------------------------------------------------
 Center     Atomic      Atomic             Coordinates (Angstroms)
 Number     Number       Type             X           Y           Z
 ---------------------------------------------------------------------
      1          1           0       -3.192930    2.723491    0.964491
      2          6           0       -2.653250    2.967040    0.037141
      3          6           0       -1.884741    1.752310   -0.408899
      4          1           0       -3.377600    3.245021   -0.734719
      5          1           0       -1.978760    3.803710    0.257721
      6          8           0       -0.762651    1.598820    0.358151
      7          8           0       -2.208701    1.002290   -1.305579
      8          6           0        0.048049    0.423030    0.108671
      9          6           0        1.490019    0.894920    0.218391
     10          6           0       -0.292441   -0.646730    1.135841
     11          1           0       -0.162571    0.048950   -0.903009
     12          8           0        2.326079   -0.227440   -0.125739
     13          1           0        1.673639    1.729210   -0.473499
     14          1           0        1.728459    1.241500    1.236331
     15          8           0       -1.673031   -1.042120    1.026431
     16          1           0        0.365819   -1.514120    0.990841
     17          1           0       -0.183801   -0.247760    2.153731
     18          6           0        3.667519    0.030760   -0.119929
     19          6           0       -1.941581   -1.964810    0.048791
     20          6           0        4.445129   -1.209160   -0.470639
     21          8           0        4.132859    1.118410    0.147651
     22          6           0       -3.424131   -2.145539   -0.109779
     23          8           0       -1.080851   -2.520020   -0.600579
     24          1           0        4.013799   -1.702260   -1.351339
     25          1           0        5.491409   -0.944180   -0.650369
     26          1           0        4.389309   -1.923460    0.363881
     27          1           0       -3.794321   -1.321219   -0.738599
     28          1           0       -3.628351   -3.096609   -0.611759
     29          1           0       -3.941181   -2.092729    0.856111
 ---------------------------------------------------------------------

 SCF Done:  E(RHF) =  -798.554614706     A.U. after    2 cycles

 The electronic state is 1-A.
 Alpha  occ. eigenvalues --  -20.62742 -20.62693 -20.61925 -20.57142 -20.57018
 Alpha  occ. eigenvalues --  -20.56211 -11.40996 -11.40575 -11.39849 -11.31687
 Alpha  occ. eigenvalues --  -11.31476 -11.30819 -11.26187 -11.25951 -11.24993
 Alpha  occ. eigenvalues --   -1.42684  -1.42201  -1.41177  -1.33570  -1.32892
 Alpha  occ. eigenvalues --   -1.32145  -1.09119  -1.03286  -1.02465  -0.99672
 Alpha  occ. eigenvalues --   -0.94492  -0.87180  -0.81892  -0.78704  -0.77578
 Alpha  occ. eigenvalues --   -0.72375  -0.71853  -0.71278  -0.70410  -0.69326
 Alpha  occ. eigenvalues --   -0.68827  -0.68238  -0.66436  -0.64296  -0.61544
 Alpha  occ. eigenvalues --   -0.60513  -0.59908  -0.59314  -0.58192  -0.56828
 Alpha  occ. eigenvalues --   -0.56520  -0.56427  -0.55821  -0.54243  -0.53392
 Alpha  occ. eigenvalues --   -0.52383  -0.51770  -0.50218  -0.48834  -0.47875
 Alpha  occ. eigenvalues --   -0.47471  -0.46814  -0.45817
 Alpha virt. eigenvalues --    0.03041   0.03731   0.04226   0.04495   0.05209
 Alpha virt. eigenvalues --    0.05389   0.06034   0.06247   0.06469   0.07077
 Alpha virt. eigenvalues --    0.07639   0.08241   0.08744   0.09266   0.09617

 Mulliken charges:
               1
     1  H    0.055953
     2  C    0.321075
     3  C    0.283486
     4  H   -0.007456
     5  H    0.000843
     6  O   -0.562017
     7  O   -0.465199
     8  C   -0.008588
     9  C    0.937619
    10  C    0.901422
    11  H   -0.202077
    12  O   -0.447446
    13  H   -0.135738
    14  H   -0.114800
    15  O   -0.619038
    16  H   -0.004077
    17  H   -0.207654
    18  C    0.229729
    19  C    0.358746
    20  C    0.243531
    21  O   -0.468095
    22  C    0.281736
    23  O   -0.525406
    24  H    0.024544
    25  H   -0.016110
    26  H    0.070026
    27  H    0.090798
    28  H   -0.007653
    29  H   -0.008151
 Sum of Mulliken charges =  -0.00000

 Dipole moment (field-independent basis, Debye):
    X=             -1.4977    Y=              0.5005    Z=              2.0605  Tot=              2.5960

 Test job not archived.
 1\1\GINC-SE018\SP\RHF\Aug-CC-pVDZ\C9H14O6\OHZDE\08-Apr-2025\0\\#t hf a
 ug-cc-pvdz iop(5/13=1,5/36=2,99/5=2) pseudo=read geom=check guess=(rea
 d,tcheck) scf=(maxcycle=1)\\title\\0,1\H,0,-3.19293,2.72349,0.96449\C,
 0,-2.65325,2.96704,0.03714\C,0,-1.88474,1.75231,-0.4089\H,0,-3.3776,3.
 24502,-0.73472\H,0,-1.97876,3.80371,0.25772\O,0,-0.76265,1.59882,0.358
 15\O,0,-2.2087,1.00229,-1.30558\C,0,0.04805,0.42303,0.10867\C,0,1.4900
 2,0.89492,0.21839\C,0,-0.29244,-0.64673,1.13584\H,0,-0.16257,0.04895,-
 0.90301\O,0,2.32608,-0.22744,-0.12574\H,0,1.67364,1.72921,-0.4735\H,0,

 Normal termination of Gaussian 16 at Tue Apr  8 18:00:17 2025.
