 Gaussian 16, Revision C.01,

 ----------------------------------------------------------------------
 #t hf aug-cc-pvdz symm=none int=(grid=ultrafine) guess=(read,tcheck) s
 table=(opt,rrhf)
 ----------------------------------------------------------------------
 -----
 title
 -----
 Symbolic Z-matrix:
 Charge =  0 Multiplicity = 1

 SCF Done:  E(RHF) =  -1587.90328843     A.U. after   16 cycles
 Normal termination of Gaussian 16 at Tue Apr  8 18:47:56 2025.
 Gaussian 16:  ES64L-G16RevC.01  3-Jul-2019

 ----------------------------------------------------------------------
 #t hf aug-cc-pvdz iop(5/13=1,5/36=2,99/5=2) pseudo=read geom=check gue
 ss=(read,tcheck) scf=(maxcycle=1)
 ----------------------------------------------------------------------
 -----
 title
 -----
 Structure from the checkpoint file:  "37Conf8_XylitolPentanit_7_mol1.chk"
 Charge =  0 Multiplicity = 1

                         Standard orientation:
 ---------------------------------------------------------------------
 Center     Atomic      Atomic             Coordinates (Angstroms)
 Number     Number       Type             X           Y           Z
 ---------------------------------------------------------------------
      1          1           0       -2.194101    1.817920    1.454400
      2          6           0       -1.255910    1.285550    1.250050
      3          6           0       -1.434100    0.393580    0.000160
      4          8           0       -0.178471    2.215930    1.095350
      5          1           0       -0.966670    0.711240    2.139070
      6          6           0       -0.734520   -0.981300    0.131140
      7          8           0       -2.804580    0.257010   -0.421280
      8          1           0       -1.028940    0.940740   -0.861460
      9          7           0       -0.559081    3.437770    0.323120
     10          6           0        0.817470   -0.967940    0.205710
     11          8           0       -1.250540   -1.993260   -0.756030
     12          1           0       -1.044950   -1.419090    1.091790
     13          7           0       -3.699610   -0.411991    0.546030
     14          8           0        0.377389    4.171890    0.182060
     15          8           0       -1.709611    3.515500   -0.035740
     16          6           0        1.568490    0.039300   -0.658380
     17          8           0        1.166360   -0.712670    1.576490
     18          1           0        1.143230   -1.987950   -0.053740
     19          7           0       -1.269370   -1.711820   -2.213580
     20          8           0       -3.232800   -0.671281    1.635070
     21          8           0       -4.792320   -0.585991    0.091050
     22          8           0        2.942900   -0.375259   -0.579820
     23          1           0        1.454290    1.056840   -0.260110
     24          1           0        1.215280    0.004230   -1.697290
     25          7           0        3.853760    0.564671   -1.256400
     26          8           0        4.999940    0.220741   -1.161520
     27          8           0        3.341100    1.515511   -1.799830
     28          7           0        1.958020   -1.814430    2.246470
     29          8           0       -0.767620   -0.676610   -2.589550
     30          8           0       -1.799690   -2.599120   -2.815020
     31          8           0        2.256880   -1.493010    3.358990
     32          8           0        2.159470   -2.812940    1.606760
 ---------------------------------------------------------------------

 SCF Done:  E(RHF) =  -1588.38485483     A.U. after    2 cycles

 The electronic state is 1-A.
 Alpha  occ. eigenvalues --  -20.72550 -20.72481 -20.71746 -20.71290 -20.70524
 Alpha  occ. eigenvalues --  -20.69701 -20.69550 -20.69397 -20.69259 -20.69244
 Alpha  occ. eigenvalues --  -20.69065 -20.68997 -20.68988 -20.67498 -20.67415
 Alpha  occ. eigenvalues --  -16.03228 -16.02986 -16.02886 -16.02468 -16.01289
 Alpha  occ. eigenvalues --  -11.39334 -11.39011 -11.38273 -11.37033 -11.35783
 Alpha  occ. eigenvalues --   -1.64539  -1.64306  -1.64045  -1.63813  -1.62512
 Alpha  occ. eigenvalues --   -1.46288  -1.46211  -1.46033  -1.45723  -1.44158
 Alpha  occ. eigenvalues --   -1.43422  -1.42019  -1.41536  -1.40903  -1.39671
 Alpha  occ. eigenvalues --   -1.14789  -1.09219  -1.04120  -1.00747  -0.98252
 Alpha  occ. eigenvalues --   -0.94599  -0.93039  -0.91619  -0.90726  -0.88322
 Alpha  occ. eigenvalues --   -0.86573  -0.85820  -0.85657  -0.84318  -0.82653
 Alpha  occ. eigenvalues --   -0.82303  -0.82092  -0.81964  -0.81478  -0.81359
 Alpha  occ. eigenvalues --   -0.81122  -0.80770  -0.80527  -0.79692  -0.78070
 Alpha  occ. eigenvalues --   -0.75088  -0.73461  -0.71530  -0.70996  -0.69528
 Alpha  occ. eigenvalues --   -0.68679  -0.67313  -0.65783  -0.64881  -0.63573
 Alpha  occ. eigenvalues --   -0.62295  -0.61547  -0.60459  -0.58973  -0.58625
 Alpha  occ. eigenvalues --   -0.58210  -0.58075  -0.57862  -0.57766  -0.56568
 Alpha  occ. eigenvalues --   -0.56533  -0.56072  -0.55528  -0.54784  -0.54652
 Alpha  occ. eigenvalues --   -0.54571  -0.54362  -0.54119  -0.52989  -0.52466
 Alpha  occ. eigenvalues --   -0.52323
 Alpha virt. eigenvalues --    0.03032   0.03242   0.03794   0.04073   0.04598
 Alpha virt. eigenvalues --    0.04757   0.04996   0.05401   0.05899   0.05976
 Alpha virt. eigenvalues --    0.07030   0.07451   0.08504   0.08539   0.10389

 Mulliken charges:
               1
     1  H    0.023208
     2  C    1.389890
     3  C    0.831825
     4  O   -0.472536
     5  H   -0.218892
     6  C    0.998819
     7  O   -0.583075
     8  H   -0.296929
     9  N    0.735596
    10  C   -0.153400
    11  O   -0.595093
    12  H   -0.222521
    13  N    0.748104
    14  O   -0.423551
    15  O   -0.406165
    16  C    1.333650
    17  O   -0.491529
    18  H   -0.030932
    19  N    0.637146
    20  O   -0.428493
    21  O   -0.429530
    22  O   -0.553106
    23  H   -0.180289
    24  H   -0.191804
    25  N    0.858550
    26  O   -0.459369
    27  O   -0.412069
    28  N    0.590136
    29  O   -0.422499
    30  O   -0.411464
    31  O   -0.401730
    32  O   -0.361946
 Sum of Mulliken charges =  -0.00000

 Dipole moment (field-independent basis, Debye):
    X=             -1.9125    Y=             -0.3118    Z=              1.3684  Tot=              2.3722

 Test job not archived.
 1\1\GINC-SE186\SP\RHF\Aug-CC-pVDZ\C5H7N5O15\OHZDE\08-Apr-2025\0\\#t hf
  aug-cc-pvdz iop(5/13=1,5/36=2,99/5=2) pseudo=read geom=check guess=(r
 ead,tcheck) scf=(maxcycle=1)\\title\\0,1\H,0,2.1941,1.81792,-1.4544\C,
 0,1.25591,1.28555,-1.25005\C,0,1.4341,0.39358,-0.00016\O,0,0.17847,2.2
 1593,-1.09535\H,0,0.96667,0.71124,-2.13907\C,0,0.73452,-0.9813,-0.1311
 4\O,0,2.80458,0.25701,0.42128\H,0,1.02894,0.94074,0.86146\N,0,0.55908,
 3.43777,-0.32312\C,0,-0.81747,-0.96794,-0.20571\O,0,1.25054,-1.99326,0
 .75603\H,0,1.04495,-1.41909,-1.09179\N,0,3.69961,-0.41199,-0.54603\O,0

 Normal termination of Gaussian 16 at Tue Apr  8 18:49:11 2025.
