 Gaussian 16, Revision C.01,

 ----------------------------------------------------------------------
 #t hf aug-cc-pvdz symm=none int=(grid=ultrafine) guess=(read,tcheck) s
 table=(opt,rrhf)
 ----------------------------------------------------------------------
 -----
 title
 -----
 Symbolic Z-matrix:
 Charge =  0 Multiplicity = 1

 SCF Done:  E(RHF) =  -1673.90290552     A.U. after   17 cycles
 Normal termination of Gaussian 16 at Tue Apr  8 18:01:35 2025.
 Gaussian 16:  ES64L-G16RevC.01  3-Jul-2019

 ----------------------------------------------------------------------
 #t hf aug-cc-pvdz iop(5/13=1,5/36=2,99/5=2) pseudo=read geom=check gue
 ss=(read,tcheck) scf=(maxcycle=1)
 ----------------------------------------------------------------------
 -----
 title
 -----
 Structure from the checkpoint file:  "37Conf8_Pantoprazole_2_mol2.chk"
 Charge =  0 Multiplicity = 1

                         Standard orientation:
 ---------------------------------------------------------------------
 Center     Atomic      Atomic             Coordinates (Angstroms)
 Number     Number       Type             X           Y           Z
 ---------------------------------------------------------------------
      1          1           0        6.774449   -1.807912   -0.378991
      2          6           0        5.727249   -1.535532   -0.255831
      3          6           0        4.734309   -2.275612   -0.903171
      4          6           0        5.340020   -0.461702    0.550949
      5          1           0        5.018239   -3.119342   -1.539051
      6          7           0        3.428539   -2.027432   -0.800331
      7          8           0        6.183800    0.328488    1.258939
      8          6           0        3.958780   -0.168232    0.658129
      9          6           0        3.052149   -0.987412   -0.029111
     10          6           0        7.580220    0.038367    1.176209
     11          8           0        3.502340    0.823628    1.483229
     12          6           0        1.585759   -0.710071    0.046439
     13          1           0        7.948480    0.139927    0.142739
     14          1           0        7.797729   -0.976073    1.546679
     15          1           0        8.074370    0.776547    1.816749
     16          6           0        3.763650    2.170488    1.032869
     17         16           0        1.052330    0.166199   -1.507961
     18          1           0        0.994759   -1.636391    0.045189
     19          1           0        1.314590   -0.057031    0.883769
     20          6           0       -0.667220    0.319089   -0.995011
     21          8           0        1.565620    1.583499   -1.465291
     22          7           0       -1.549191   -0.638331   -0.802501
     23          7           0       -1.161110    1.585959   -0.837591
     24          6           0       -2.716120    0.040779   -0.477661
     25          1           0       -0.591450    2.422239   -0.943751
     26          6           0       -2.493920    1.446239   -0.495251
     27          6           0       -3.986081   -0.474030   -0.176681
     28          6           0       -3.510060    2.362160   -0.215411
     29          1           0       -4.168581   -1.546780   -0.213691
     30          6           0       -4.984550    0.449350    0.118799
     31          1           0       -3.342620    3.439370   -0.232971
     32          6           0       -4.759610    1.841560    0.099379
     33          8           0       -6.291570    0.082160    0.433759
     34          1           0       -5.594770    2.499380    0.338689
     35          6           0       -6.484621   -1.159730    0.986799
     36          9           0       -6.591241   -2.124810    0.010359
     37          9           0       -7.673251   -1.121650    1.637629
     38          1           0       -5.678861   -1.457420    1.679179
     39          1           0        3.230010    2.355788    0.088259
     40          1           0        4.842680    2.342778    0.910609
     41          1           0        3.375220    2.826038    1.821209
 ---------------------------------------------------------------------

 SCF Done:  E(RHF) =  -1674.33397891     A.U. after    2 cycles

 The electronic state is 1-A.
 Alpha  occ. eigenvalues --  -93.68644 -26.14742 -26.14166 -20.63353 -20.62843
 Alpha  occ. eigenvalues --  -20.59678 -20.54610 -15.70226 -15.64259 -15.63875
 Alpha  occ. eigenvalues --  -11.48962 -11.36244 -11.34713 -11.33163 -11.31995
 Alpha  occ. eigenvalues --  -11.31774 -11.30760 -11.30102 -11.30037 -11.29308
 Alpha  occ. eigenvalues --  -11.29249 -11.28677 -11.27455 -11.26355 -11.26355
 Alpha  occ. eigenvalues --  -11.26249  -8.96984  -6.31250  -6.31124  -6.30767
 Alpha  occ. eigenvalues --   -1.71213  -1.66278  -1.40923  -1.40119  -1.35922
 Alpha  occ. eigenvalues --   -1.34364  -1.31591  -1.24105  -1.16769  -1.15005
 Alpha  occ. eigenvalues --   -1.09046  -1.07606  -1.04397  -1.02954  -1.00896
 Alpha  occ. eigenvalues --   -0.98485  -0.97486  -0.93821  -0.91246  -0.87421
 Alpha  occ. eigenvalues --   -0.85981  -0.85288  -0.83608  -0.83391  -0.82179
 Alpha  occ. eigenvalues --   -0.81770  -0.78868  -0.75275  -0.74577  -0.73987
 Alpha  occ. eigenvalues --   -0.73721  -0.71687  -0.70637  -0.70355  -0.70246
 Alpha  occ. eigenvalues --   -0.69042  -0.67761  -0.65830  -0.65372  -0.64988
 Alpha  occ. eigenvalues --   -0.64061  -0.63612  -0.63256  -0.63168  -0.62231
 Alpha  occ. eigenvalues --   -0.61420  -0.60823  -0.59974  -0.58563  -0.58324
 Alpha  occ. eigenvalues --   -0.57550  -0.56018  -0.55785  -0.55113  -0.54157
 Alpha  occ. eigenvalues --   -0.53719  -0.52073  -0.51125  -0.48402  -0.48077
 Alpha  occ. eigenvalues --   -0.47354  -0.45367  -0.44883  -0.42715  -0.41012
 Alpha  occ. eigenvalues --   -0.36855  -0.34617  -0.33383  -0.31721
 Alpha virt. eigenvalues --    0.02404   0.02840   0.03650   0.03917   0.04342
 Alpha virt. eigenvalues --    0.04709   0.05190   0.05545   0.06158   0.06258
 Alpha virt. eigenvalues --    0.06560   0.06992   0.07311   0.07904   0.08205

 Mulliken charges:
               1
     1  H   -0.663289
     2  C    1.375379
     3  C    0.398836
     4  C   -0.168864
     5  H   -0.413820
     6  N   -0.504592
     7  O   -0.700331
     8  C    0.267891
     9  C    0.376003
    10  C    0.850654
    11  O   -0.768274
    12  C    0.365177
    13  H   -0.081756
    14  H   -0.072914
    15  H   -0.317527
    16  C    0.842390
    17  S    1.502333
    18  H   -0.048091
    19  H   -0.186668
    20  C   -0.193638
    21  O   -1.201236
    22  N   -0.840586
    23  N   -0.523927
    24  C   -0.637930
    25  H   -0.041504
    26  C   -0.236846
    27  C    1.371175
    28  C    1.413019
    29  H   -0.624443
    30  C    0.251654
    31  H   -0.542232
    32  C    1.178696
    33  O   -0.777603
    34  H   -0.570041
    35  C    1.143820
    36  F   -0.365286
    37  F   -0.297871
    38  H   -0.157305
    39  H   -0.121171
    40  H   -0.091334
    41  H   -0.187951
 Sum of Mulliken charges =  -0.00000

 Dipole moment (field-independent basis, Debye):
    X=              7.4790    Y=              1.9759    Z=              1.7071  Tot=              7.9218

 Test job not archived.
 1\1\GINC-SE177\SP\RHF\Aug-CC-pVDZ\C16H15F2N3O4S1\OHZDE\08-Apr-2025\0\\
 #t hf aug-cc-pvdz iop(5/13=1,5/36=2,99/5=2) pseudo=read geom=check gue
 ss=(read,tcheck) scf=(maxcycle=1)\\title\\0,1\H,0,6.77445,-1.80791,-0.
 37899\C,0,5.72725,-1.53553,-0.25583\C,0,4.73431,-2.27561,-0.90317\C,0,
 5.34002,-0.4617,0.55095\H,0,5.01824,-3.11934,-1.53905\N,0,3.42854,-2.0
 2743,-0.80033\O,0,6.1838,0.32849,1.25894\C,0,3.95878,-0.16823,0.65813\
 C,0,3.05215,-0.98741,-0.02911\C,0,7.58022,0.03837,1.17621\O,0,3.50234,
 0.82363,1.48323\C,0,1.58576,-0.71007,0.04644\H,0,7.94848,0.13993,0.142

 Normal termination of Gaussian 16 at Tue Apr  8 18:03:17 2025.
