 Gaussian 16, Revision C.01,

 ----------------------------------------------------------------------
 #t hf aug-cc-pvdz symm=none int=(grid=ultrafine) guess=(read,tcheck) s
 table=(opt,rrhf)
 ----------------------------------------------------------------------
 -----
 title
 -----
 Symbolic Z-matrix:
 Charge =  0 Multiplicity = 1

 SCF Done:  E(RHF) =  -1009.02787960     A.U. after   15 cycles
 Normal termination of Gaussian 16 at Tue Apr  8 17:13:30 2025.
 Gaussian 16:  ES64L-G16RevC.01  3-Jul-2019

 ----------------------------------------------------------------------
 #t hf aug-cc-pvdz iop(5/13=1,5/36=2,99/5=2) pseudo=read geom=check gue
 ss=(read,tcheck) scf=(maxcycle=1)
 ----------------------------------------------------------------------
 -----
 title
 -----
 Structure from the checkpoint file:  "37Conf8_Gemcitabine_7_mol1.chk"
 Charge =  0 Multiplicity = 1

                         Standard orientation:
 ---------------------------------------------------------------------
 Center     Atomic      Atomic             Coordinates (Angstroms)
 Number     Number       Type             X           Y           Z
 ---------------------------------------------------------------------
      1          1           0       -0.975433    3.886459    0.601100
      2          8           0       -1.282663    3.218989   -0.034930
      3          6           0       -1.730702    2.082409    0.705170
      4          6           0       -2.257452    1.053249   -0.284910
      5          1           0       -0.920012    1.654929    1.322040
      6          1           0       -2.567103    2.345618    1.380020
      7          1           0       -3.069002    1.507688   -0.870760
      8          8           0       -1.270632    0.618529   -1.261670
      9          6           0       -2.722431   -0.246442    0.373870
     10          6           0       -0.559761   -0.508991   -0.787140
     11          1           0       -3.105061   -0.111852    1.394540
     12          8           0       -3.740421   -0.901242   -0.353990
     13          6           0       -1.394221   -1.055321    0.421900
     14          1           0       -0.517451   -1.288651   -1.561960
     15          7           0        0.828989   -0.163060   -0.457670
     16          1           0       -3.437271   -1.018012   -1.272860
     17          9           0       -1.613870   -2.387051    0.336470
     18          9           0       -0.756721   -0.805581    1.617400
     19          6           0        1.729379   -1.280460   -0.291610
     20          6           0        1.265058    1.119360   -0.403860
     21          8           0        1.263620   -2.407940   -0.424410
     22          7           0        3.030939   -0.989809   -0.005870
     23          1           0        0.528608    1.895740   -0.615740
     24          6           0        2.571628    1.391531   -0.120230
     25          6           0        3.433998    0.268641    0.091490
     26          1           0        2.928157    2.418831   -0.078400
     27          7           0        4.739328    0.471592    0.426500
     28          1           0        5.159958    1.384802    0.318590
     29          1           0        5.342939   -0.343468    0.429800
 ---------------------------------------------------------------------

 SCF Done:  E(RHF) =  -1009.33785800     A.U. after    2 cycles

 The electronic state is 1-A.
 Alpha  occ. eigenvalues --  -26.14957 -26.14116 -20.62079 -20.61104 -20.60745
 Alpha  occ. eigenvalues --  -20.52291 -15.69286 -15.66226 -15.60745 -11.44121
 Alpha  occ. eigenvalues --  -11.38895 -11.37201 -11.36650 -11.33519 -11.33362
 Alpha  occ. eigenvalues --  -11.33212 -11.32695 -11.25274  -1.70727  -1.66297
 Alpha  occ. eigenvalues --   -1.40124  -1.35624  -1.35489  -1.34649  -1.26856
 Alpha  occ. eigenvalues --   -1.23483  -1.14448  -1.08709  -1.07541  -1.03456
 Alpha  occ. eigenvalues --   -0.95432  -0.91197  -0.89602  -0.86716  -0.85936
 Alpha  occ. eigenvalues --   -0.82685  -0.81303  -0.78088  -0.76678  -0.76385
 Alpha  occ. eigenvalues --   -0.74432  -0.73637  -0.72683  -0.71463  -0.70267
 Alpha  occ. eigenvalues --   -0.68947  -0.68175  -0.67206  -0.66029  -0.64483
 Alpha  occ. eigenvalues --   -0.63260  -0.62951  -0.61867  -0.60378  -0.60087
 Alpha  occ. eigenvalues --   -0.58663  -0.57084  -0.55726  -0.54096  -0.52962
 Alpha  occ. eigenvalues --   -0.50489  -0.49985  -0.48047  -0.47298  -0.45631
 Alpha  occ. eigenvalues --   -0.41881  -0.38015  -0.34296
 Alpha virt. eigenvalues --    0.01653   0.02641   0.03736   0.03941   0.05021
 Alpha virt. eigenvalues --    0.05343   0.05974   0.06426   0.06748   0.07770
 Alpha virt. eigenvalues --    0.08352   0.09275   0.10173   0.10390   0.10759

 Mulliken charges:
               1
     1  H    0.198791
     2  O   -0.624279
     3  C    0.943661
     4  C    0.161407
     5  H   -0.019193
     6  H   -0.130981
     7  H   -0.192329
     8  O   -0.837150
     9  C    0.965585
    10  C    0.857920
    11  H   -0.156264
    12  O   -0.596694
    13  C    0.353594
    14  H   -0.177081
    15  N   -0.325584
    16  H    0.152548
    17  F   -0.286974
    18  F   -0.432595
    19  C    0.510583
    20  C    0.377447
    21  O   -0.545753
    22  N   -0.594898
    23  H   -0.425707
    24  C    1.138087
    25  C    0.510294
    26  H   -0.562241
    27  N   -0.249815
    28  H   -0.014657
    29  H    0.002276
 Sum of Mulliken charges =  -0.00000

 Dipole moment (field-independent basis, Debye):
    X=              0.7504    Y=              8.7778    Z=              0.7599  Tot=              8.8426

 Test job not archived.
 1\1\GINC-SE179\SP\RHF\Aug-CC-pVDZ\C9H11F2N3O4\OHZDE\08-Apr-2025\0\\#t
 hf aug-cc-pvdz iop(5/13=1,5/36=2,99/5=2) pseudo=read geom=check guess=
 (read,tcheck) scf=(maxcycle=1)\\title\\0,1\H,0,-0.97543,3.88646,0.6011
 \O,0,-1.28266,3.21899,-0.03493\C,0,-1.7307,2.08241,0.70517\C,0,-2.2574
 5,1.05325,-0.28491\H,0,-0.92001,1.65493,1.32204\H,0,-2.5671,2.34562,1.
 38002\H,0,-3.069,1.50769,-0.87076\O,0,-1.27063,0.61853,-1.26167\C,0,-2
 .72243,-0.24644,0.37387\C,0,-0.55976,-0.50899,-0.78714\H,0,-3.10506,-0
 .11185,1.39454\O,0,-3.74042,-0.90124,-0.35399\C,0,-1.39422,-1.05532,0.

 Normal termination of Gaussian 16 at Tue Apr  8 17:14:13 2025.
