 Gaussian 16, Revision C.01,

 ----------------------------------------------------------------------
 #t hf aug-cc-pvdz symm=none int=(grid=ultrafine) guess=(read,tcheck) s
 table=(opt,rrhf)
 ----------------------------------------------------------------------
 -----
 title
 -----
 Symbolic Z-matrix:
 Charge =  0 Multiplicity = 1

 SCF Done:  E(RHF) =  -914.177712538     A.U. after   14 cycles
 Normal termination of Gaussian 16 at Tue Apr  8 18:25:58 2025.
 Gaussian 16:  ES64L-G16RevC.01  3-Jul-2019

 ----------------------------------------------------------------------
 #t hf aug-cc-pvdz iop(5/13=1,5/36=2,99/5=2) pseudo=read geom=check gue
 ss=(read,tcheck) scf=(maxcycle=1)
 ----------------------------------------------------------------------
 -----
 title
 -----
 Structure from the checkpoint file:  "37Conf8_shiepox_depox_3_mol1.chk"
 Charge =  0 Multiplicity = 1

                         Standard orientation:
 ---------------------------------------------------------------------
 Center     Atomic      Atomic             Coordinates (Angstroms)
 Number     Number       Type             X           Y           Z
 ---------------------------------------------------------------------
      1          8           0       -0.598882    2.431569   -0.596159
      2          6           0       -0.072861    1.395219   -0.253569
      3          6           0       -0.877350    0.113239    0.068901
      4          6           0        1.437699    1.249401   -0.093509
      5          8           0       -0.148069   -0.725761    0.961301
      6          8           0       -2.130390    0.488818    0.577151
      7          6           0       -1.203479   -0.725812   -1.196339
      8          1           0        1.919939    2.216931   -0.312419
      9          8           0        1.878160    0.219181   -0.969149
     10          6           0        1.788900    0.707131    1.313671
     11          6           0        0.579210    0.018830    1.944011
     12          6           0       -3.151749   -0.298353   -0.085999
     13          1           0       -0.691009   -0.369661   -2.098709
     14          1           0       -0.901648   -1.768361   -0.992569
     15          8           0       -2.598989   -0.576253   -1.376179
     16          6           0        2.980401   -0.464288   -0.340079
     17          1           0        2.154439    1.507381    1.978671
     18          8           0        2.851401   -0.211698    1.070841
     19          1           0        0.914081   -0.703170    2.700051
     20          1           0       -0.077770    0.762269    2.432781
     21          6           0       -3.418698   -1.582074    0.697491
     22          6           0       -4.379090    0.569506   -0.265759
     23          6           0        2.826342   -1.949678   -0.614309
     24          6           0        4.305050    0.111973   -0.828609
     25          1           0       -4.176958   -2.185844    0.180531
     26          1           0       -2.499498   -2.172133    0.804261
     27          1           0       -3.784908   -1.336574    1.703241
     28          1           0       -5.141720    0.023145   -0.836129
     29          1           0       -4.101991    1.482116   -0.806779
     30          1           0       -4.796370    0.840015    0.712761
     31          1           0        2.864532   -2.140778   -1.695199
     32          1           0        1.862752   -2.291799   -0.217149
     33          1           0        3.638583   -2.507038   -0.129559
     34          1           0        4.426341   -0.070317   -1.904799
     35          1           0        4.339149    1.194383   -0.645099
     36          1           0        5.139941   -0.357966   -0.291739
 ---------------------------------------------------------------------

 SCF Done:  E(RHF) =  -914.453556221     A.U. after    2 cycles

 The electronic state is 1-A.
 Alpha  occ. eigenvalues --  -20.60126 -20.59875 -20.59178 -20.58988 -20.58815
 Alpha  occ. eigenvalues --  -20.58447 -11.37265 -11.36618 -11.35948 -11.35675
 Alpha  occ. eigenvalues --  -11.32345 -11.32130 -11.30846 -11.30271 -11.23955
 Alpha  occ. eigenvalues --  -11.23546 -11.23131 -11.22716  -1.42217  -1.40893
 Alpha  occ. eigenvalues --   -1.37044  -1.35485  -1.31008  -1.29612  -1.10042
 Alpha  occ. eigenvalues --   -1.07546  -1.01191  -0.99967  -0.95558  -0.94930
 Alpha  occ. eigenvalues --   -0.93377  -0.88842  -0.86276  -0.81521  -0.80849
 Alpha  occ. eigenvalues --   -0.77206  -0.74174  -0.72997  -0.70543  -0.69039
 Alpha  occ. eigenvalues --   -0.67444  -0.66707  -0.65808  -0.64670  -0.63401
 Alpha  occ. eigenvalues --   -0.62946  -0.62473  -0.61387  -0.59127  -0.57278
 Alpha  occ. eigenvalues --   -0.56757  -0.56531  -0.55839  -0.55018  -0.54881
 Alpha  occ. eigenvalues --   -0.54272  -0.53729  -0.53646  -0.53164  -0.53138
 Alpha  occ. eigenvalues --   -0.52176  -0.51651  -0.51141  -0.50159  -0.48183
 Alpha  occ. eigenvalues --   -0.46116  -0.44212  -0.43978  -0.42001
 Alpha virt. eigenvalues --    0.03136   0.03800   0.03898   0.04400   0.05026
 Alpha virt. eigenvalues --    0.05164   0.05207   0.05782   0.05985   0.07023
 Alpha virt. eigenvalues --    0.07082   0.07357   0.07902   0.08189   0.08661

 Mulliken charges:
               1
     1  O   -0.500541
     2  C    0.196766
     3  C    0.451164
     4  C    0.671284
     5  O   -0.730906
     6  O   -0.784201
     7  C    0.828766
     8  H   -0.315684
     9  O   -0.695812
    10  C    0.632254
    11  C    0.878721
    12  C   -0.941782
    13  H   -0.227654
    14  H   -0.070112
    15  O   -0.702691
    16  C   -0.947307
    17  H   -0.265513
    18  O   -0.798071
    19  H   -0.239105
    20  H    0.040608
    21  C    0.687302
    22  C    0.889864
    23  C    0.755837
    24  C    0.806679
    25  H    0.084290
    26  H   -0.121705
    27  H    0.051543
    28  H    0.079011
    29  H    0.029230
    30  H    0.069821
    31  H    0.057196
    32  H   -0.064695
    33  H    0.087986
    34  H    0.060834
    35  H   -0.023901
    36  H    0.070523
 Sum of Mulliken charges =  -0.00000

 Dipole moment (field-independent basis, Debye):
    X=              2.1596    Y=             -1.6476    Z=              1.6643  Tot=              3.1857

 Test job not archived.
 1\1\GINC-SE364\SP\RHF\Aug-CC-pVDZ\C12H18O6\OHZDE\08-Apr-2025\0\\#t hf
 aug-cc-pvdz iop(5/13=1,5/36=2,99/5=2) pseudo=read geom=check guess=(re
 ad,tcheck) scf=(maxcycle=1)\\title\\0,1\O,0,-0.59888,2.43157,-0.59616\
 C,0,-0.07286,1.39522,-0.25357\C,0,-0.87735,0.11324,0.0689\C,0,1.4377,1
 .2494,-0.09351\O,0,-0.14807,-0.72576,0.9613\O,0,-2.13039,0.48882,0.577
 15\C,0,-1.20348,-0.72581,-1.19634\H,0,1.91994,2.21693,-0.31242\O,0,1.8
 7816,0.21918,-0.96915\C,0,1.7889,0.70713,1.31367\C,0,0.57921,0.01883,1
 .94401\C,0,-3.15175,-0.29835,-0.086\H,0,-0.69101,-0.36966,-2.09871\H,0

 Normal termination of Gaussian 16 at Tue Apr  8 18:27:04 2025.
