 Gaussian 16, Revision C.01,

 ----------------------------------------------------------------------
 #t hf aug-cc-pvdz symm=none int=(grid=ultrafine) guess=(read,tcheck) s
 table=(opt,rrhf)
 ----------------------------------------------------------------------
 -----
 title
 -----
 Symbolic Z-matrix:
 Charge =  0 Multiplicity = 1

 SCF Done:  E(RHF) =  -1689.89436715     A.U. after   18 cycles
 Normal termination of Gaussian 16 at Tue Apr  8 17:18:08 2025.
 Gaussian 16:  ES64L-G16RevC.01  3-Jul-2019

 ----------------------------------------------------------------------
 #t hf aug-cc-pvdz iop(5/13=1,5/36=2,99/5=2) pseudo=read geom=check gue
 ss=(read,tcheck) scf=(maxcycle=1)
 ----------------------------------------------------------------------
 -----
 title
 -----
 Structure from the checkpoint file:  "37Conf8_Fotemustin_3_mol1.chk"
 Charge =  0 Multiplicity = 1

                         Standard orientation:
 ---------------------------------------------------------------------
 Center     Atomic      Atomic             Coordinates (Angstroms)
 Number     Number       Type             X           Y           Z
 ---------------------------------------------------------------------
      1          8           0        1.638229    2.113710    0.557360
      2          7           0        2.521639    1.707700   -0.196070
      3          7           0        2.478289    0.399250   -0.574910
      4          6           0        3.589849    0.013340   -1.440380
      5          6           0        1.473689   -0.623480   -0.310110
      6          6           0        4.570260   -0.942019   -0.777260
      7          1           0        3.183699   -0.478080   -2.336440
      8          1           0        4.087439    0.949051   -1.723220
      9         17           0        5.356879   -0.202919    0.660030
     10          1           0        5.366360   -1.199269   -1.486600
     11          1           0        4.068830   -1.856139   -0.443820
     12          7           0        0.514959   -0.253290    0.567330
     13          8           0        1.575290   -1.704510   -0.873960
     14          6           0       -0.646610   -1.089420    0.832000
     15          1           0        0.565999    0.713710    0.911560
     16         15           0       -2.068811   -0.266970    0.000430
     17          6           0       -0.843990   -1.325610    2.328360
     18          1           0       -0.486220   -2.038190    0.299370
     19          8           0       -3.284160   -1.151151    0.563190
     20          8           0       -2.213841    1.134660    0.797430
     21          8           0       -1.950331   -0.110530   -1.471030
     22          6           0       -4.628630   -0.907191    0.054070
     23          6           0       -1.992831    2.396120    0.099200
     24          6           0       -4.911870   -1.754501   -1.169280
     25          1           0       -4.744691    0.166599   -0.163280
     26          1           0       -5.295930   -1.158211    0.889990
     27          6           0       -3.303841    2.981999   -0.380180
     28          1           0       -1.306811    2.227130   -0.742590
     29          1           0       -1.500341    3.046490    0.835290
     30          1           0       -4.230570   -1.487461   -1.987450
     31          1           0       -5.947730   -1.590401   -1.501980
     32          1           0       -4.788580   -2.821701   -0.938970
     33          1           0       -3.752971    2.339669   -1.150570
     34          1           0       -3.129441    3.974049   -0.822630
     35          1           0       -4.011891    3.095579    0.452760
     36          1           0       -1.715450   -1.968600    2.501140
     37          1           0        0.048380   -1.811990    2.746030
     38          1           0       -1.006731   -0.376530    2.857620
 ---------------------------------------------------------------------

 SCF Done:  E(RHF) =  -1690.24851644     A.U. after    2 cycles

 The electronic state is 1-A.
 Alpha  occ. eigenvalues -- -103.65576 -81.40657 -20.64262 -20.60334 -20.60054
 Alpha  occ. eigenvalues --  -20.56337 -20.52216 -15.83841 -15.73012 -15.66964
 Alpha  occ. eigenvalues --  -11.43150 -11.31498 -11.31396 -11.30974 -11.30805
 Alpha  occ. eigenvalues --  -11.30157 -11.24623 -11.23923 -11.23492 -10.68872
 Alpha  occ. eigenvalues --   -8.34593  -8.34312  -8.34298  -7.88995  -5.03641
 Alpha  occ. eigenvalues --   -5.03578  -5.03291  -1.49048  -1.38612  -1.36660
 Alpha  occ. eigenvalues --   -1.33623  -1.26599  -1.24902  -1.22788  -1.16907
 Alpha  occ. eigenvalues --   -1.05194  -1.03300  -1.02608  -1.02106  -0.95696
 Alpha  occ. eigenvalues --   -0.89603  -0.88311  -0.86323  -0.84989  -0.82338
 Alpha  occ. eigenvalues --   -0.76941  -0.76470  -0.73004  -0.71682  -0.69636
 Alpha  occ. eigenvalues --   -0.69497  -0.67847  -0.66593  -0.66173  -0.65185
 Alpha  occ. eigenvalues --   -0.63333  -0.62984  -0.62263  -0.62191  -0.60843
 Alpha  occ. eigenvalues --   -0.60206  -0.59561  -0.57805  -0.57466  -0.56876
 Alpha  occ. eigenvalues --   -0.55521  -0.54957  -0.54069  -0.53846  -0.53240
 Alpha  occ. eigenvalues --   -0.52202  -0.51151  -0.50280  -0.50018  -0.49760
 Alpha  occ. eigenvalues --   -0.48197  -0.47551  -0.46536  -0.46171  -0.45297
 Alpha  occ. eigenvalues --   -0.44920  -0.43334  -0.40175
 Alpha virt. eigenvalues --    0.03054   0.03439   0.03871   0.04131   0.04869
 Alpha virt. eigenvalues --    0.05005   0.05383   0.05934   0.06119   0.06556
 Alpha virt. eigenvalues --    0.06773   0.06989   0.07635   0.07911   0.08546

 Mulliken charges:
               1
     1  O   -0.457644
     2  N   -0.114263
     3  N    0.245728
     4  C    0.609515
     5  C    0.275069
     6  C    0.121100
     7  H   -0.068752
     8  H   -0.217195
     9  Cl  -0.165954
    10  H    0.033138
    11  H    0.017272
    12  N   -0.226587
    13  O   -0.477174
    14  C   -0.278228
    15  H    0.083840
    16  P    2.620671
    17  C    0.794263
    18  H   -0.297925
    19  O   -0.932089
    20  O   -1.000430
    21  O   -1.029712
    22  C    0.667908
    23  C    0.740860
    24  C    0.314820
    25  H   -0.167956
    26  H   -0.284529
    27  C    0.267601
    28  H   -0.165151
    29  H   -0.261669
    30  H   -0.116890
    31  H   -0.026758
    32  H   -0.073329
    33  H   -0.058367
    34  H   -0.053377
    35  H   -0.053281
    36  H   -0.115794
    37  H   -0.080153
    38  H   -0.068576
 Sum of Mulliken charges =  -0.00000

 Dipole moment (field-independent basis, Debye):
    X=             -2.1408    Y=              0.4939    Z=              0.2425  Tot=              2.2104

 Test job not archived.
 1\1\GINC-SE220\SP\RHF\Aug-CC-pVDZ\C9H19Cl1N3O5P1\OHZDE\08-Apr-2025\0\\
 #t hf aug-cc-pvdz iop(5/13=1,5/36=2,99/5=2) pseudo=read geom=check gue
 ss=(read,tcheck) scf=(maxcycle=1)\\title\\0,1\O,0,1.63823,2.11371,0.55
 736\N,0,2.52164,1.7077,-0.19607\N,0,2.47829,0.39925,-0.57491\C,0,3.589
 85,0.01334,-1.44038\C,0,1.47369,-0.62348,-0.31011\C,0,4.57026,-0.94202
 ,-0.77726\H,0,3.1837,-0.47808,-2.33644\H,0,4.08744,0.94905,-1.72322\Cl
 ,0,5.35688,-0.20292,0.66003\H,0,5.36636,-1.19927,-1.4866\H,0,4.06883,-
 1.85614,-0.44382\N,0,0.51496,-0.25329,0.56733\O,0,1.57529,-1.70451,-0.

 Normal termination of Gaussian 16 at Tue Apr  8 17:19:21 2025.
