 Gaussian 16, Revision C.01,

 ----------------------------------------------------------------------
 #t hf aug-cc-pvdz symm=none int=(grid=ultrafine) guess=(read,tcheck) s
 table=(opt,rrhf)
 ----------------------------------------------------------------------
 -----
 title
 -----
 Symbolic Z-matrix:
 Charge =  0 Multiplicity = 1

 SCF Done:  E(RHF) =  -891.125014454     A.U. after   14 cycles
 Normal termination of Gaussian 16 at Tue Apr  8 17:11:09 2025.
 Gaussian 16:  ES64L-G16RevC.01  3-Jul-2019

 ----------------------------------------------------------------------
 #t hf aug-cc-pvdz iop(5/13=1,5/36=2,99/5=2) pseudo=read geom=check gue
 ss=(read,tcheck) scf=(maxcycle=1)
 ----------------------------------------------------------------------
 -----
 title
 -----
 Structure from the checkpoint file:  "37Conf8_Glufosinate_7_mol1.chk"
 Charge =  0 Multiplicity = 1

                         Standard orientation:
 ---------------------------------------------------------------------
 Center     Atomic      Atomic             Coordinates (Angstroms)
 Number     Number       Type             X           Y           Z
 ---------------------------------------------------------------------
      1          1           0        3.943041    1.919238   -0.022800
      2          8           0        3.214361    1.491509   -0.520400
      3          6           0        2.982670    0.299369    0.096880
      4          6           0        1.817250   -0.457020   -0.539800
      5          8           0        3.620480   -0.082521    1.057020
      6          6           0        0.498120    0.174870   -0.039200
      7          7           0        1.834659   -1.884210   -0.252390
      8          1           0        1.875910   -0.312190   -1.630570
      9          6           0       -0.715540   -0.414289   -0.757080
     10          1           0        0.547870    1.264470   -0.181690
     11          1           0        0.419720   -0.009910    1.044830
     12         15           0       -2.336230   -0.002978   -0.041700
     13          1           0       -0.746670   -0.102779   -1.814040
     14          1           0       -0.651901   -1.514149   -0.749330
     15          6           0       -2.425869    1.799972    0.089420
     16          8           0       -2.196200   -0.419318    1.537000
     17          8           0       -3.477111   -0.655627   -0.742010
     18          1           0       -2.350669    2.239882   -0.913940
     19          1           0       -3.399189    2.062883    0.523400
     20          1           0       -1.624979    2.195942    0.727670
     21          1           0       -2.690311   -1.247298    1.680730
     22          1           0        2.592748   -2.336771   -0.766400
     23          1           0        2.053259   -2.014921    0.740190
 ---------------------------------------------------------------------

 SCF Done:  E(RHF) =  -891.349092182     A.U. after    2 cycles

 The electronic state is 1-A.
 Alpha  occ. eigenvalues --  -81.37514 -20.64397 -20.60488 -20.58366 -20.50920
 Alpha  occ. eigenvalues --  -15.62872 -11.41405 -11.30639 -11.26648 -11.25257
 Alpha  occ. eigenvalues --  -11.25207  -7.86306  -5.00894  -5.00659  -5.00467
 Alpha  occ. eigenvalues --   -1.43564  -1.34353  -1.33961  -1.23578  -1.18497
 Alpha  occ. eigenvalues --   -1.06253  -0.99121  -0.96719  -0.87367  -0.80919
 Alpha  occ. eigenvalues --   -0.78379  -0.73658  -0.72783  -0.69045  -0.67216
 Alpha  occ. eigenvalues --   -0.66088  -0.64235  -0.63938  -0.62251  -0.60877
 Alpha  occ. eigenvalues --   -0.59232  -0.57706  -0.56599  -0.56333  -0.53566
 Alpha  occ. eigenvalues --   -0.53189  -0.51693  -0.51036  -0.49960  -0.48954
 Alpha  occ. eigenvalues --   -0.46262  -0.43028  -0.41649
 Alpha virt. eigenvalues --    0.02661   0.03706   0.03886   0.04223   0.05382
 Alpha virt. eigenvalues --    0.05960   0.06309   0.07092   0.07525   0.08462
 Alpha virt. eigenvalues --    0.09022   0.09792   0.10139   0.11023   0.11869

 Mulliken charges:
               1
     1  H    0.218405
     2  O   -0.578944
     3  C    0.972268
     4  C    0.432138
     5  O   -0.551135
     6  C    0.015207
     7  N   -0.411183
     8  H   -0.087334
     9  C    0.072430
    10  H   -0.185266
    11  H   -0.149609
    12  P    2.068092
    13  H   -0.121397
    14  H   -0.077831
    15  C    0.150517
    16  O   -0.782090
    17  O   -0.996362
    18  H   -0.074555
    19  H   -0.125155
    20  H   -0.098720
    21  H    0.180475
    22  H    0.029485
    23  H    0.100566
 Sum of Mulliken charges =  -0.00000

 Dipole moment (field-independent basis, Debye):
    X=              3.2893    Y=              2.2511    Z=             -0.0436  Tot=              3.9861

 Test job not archived.
 1\1\GINC-SE177\SP\RHF\Aug-CC-pVDZ\C5H12N1O4P1\OHZDE\08-Apr-2025\0\\#t
 hf aug-cc-pvdz iop(5/13=1,5/36=2,99/5=2) pseudo=read geom=check guess=
 (read,tcheck) scf=(maxcycle=1)\\title\\0,1\H,0,3.94304,1.91924,-0.0228
 \O,0,3.21436,1.49151,-0.5204\C,0,2.98267,0.29937,0.09688\C,0,1.81725,-
 0.45702,-0.5398\O,0,3.62048,-0.08252,1.05702\C,0,0.49812,0.17487,-0.03
 92\N,0,1.83466,-1.88421,-0.25239\H,0,1.87591,-0.31219,-1.63057\C,0,-0.
 71554,-0.41429,-0.75708\H,0,0.54787,1.26447,-0.18169\H,0,0.41972,-0.00
 991,1.04483\P,0,-2.33623,-0.00298,-0.0417\H,0,-0.74667,-0.10278,-1.814

 Normal termination of Gaussian 16 at Tue Apr  8 17:11:25 2025.
