 Gaussian 16, Revision C.01,

 ----------------------------------------------------------------------
 #t hf aug-cc-pvdz symm=none int=(grid=ultrafine) guess=(read,tcheck) s
 table=(opt,rrhf)
 ----------------------------------------------------------------------
 -----
 title
 -----
 Symbolic Z-matrix:
 Charge =  0 Multiplicity = 1

 SCF Done:  E(RHF) =  -798.279841861     A.U. after   14 cycles

 1\1\GINC-SE459\Stability\RHF\Aug-CC-pVDZ\C9H14O6\OHZDE\08-Apr-2025\0\\
 #t hf aug-cc-pvdz symm=none int=(grid=ultrafine) guess=(read,tcheck) s
 table=(opt,rrhf)\\title\\0,1\H,0,1.45865,-0.52659,1.53204\C,0,1.66486,
 -1.60088,1.47201\C,0,2.06687,-2.01859,0.0779\H,0,0.7654,-2.14572,1.791
 88\H,0,2.48823,-1.86242,2.14389\O,0,1.26153,-1.71742,-0.99982\O,0,3.06
 219,-2.66377,-0.15555\C,0,0.14017,-0.80794,-1.06154\C,0,0.57099,0.6368
 7,-1.24057\C,0,-0.93146,-1.01805,0.00739\H,0,-0.32652,-1.08812,-2.0199
 8\O,0,1.08383,1.16043,0.00318\H,0,1.35067,0.70336,-2.01306\H,0,-0.2895

 Normal termination of Gaussian 16 at Tue Apr  8 17:58:46 2025.
 Gaussian 16:  ES64L-G16RevC.01  3-Jul-2019

 ----------------------------------------------------------------------
 #t hf aug-cc-pvdz iop(5/13=1,5/36=2,99/5=2) pseudo=read geom=check gue
 ss=(read,tcheck) scf=(maxcycle=1)
 ----------------------------------------------------------------------
 -----
 title
 -----
 Structure from the checkpoint file:  "37Conf8_Triacetin_8_mol1.chk"
 Charge =  0 Multiplicity = 1

                         Standard orientation:
 ---------------------------------------------------------------------
 Center     Atomic      Atomic             Coordinates (Angstroms)
 Number     Number       Type             X           Y           Z
 ---------------------------------------------------------------------
      1          1           0        1.458650   -0.526589    1.532039
      2          6           0        1.664860   -1.600879    1.472009
      3          6           0        2.066870   -2.018589    0.077899
      4          1           0        0.765400   -2.145720    1.791879
      5          1           0        2.488230   -1.862419    2.143889
      6          8           0        1.261530   -1.717420   -0.999821
      7          8           0        3.062190   -2.663769   -0.155551
      8          6           0        0.140170   -0.807940   -1.061541
      9          6           0        0.570990    0.636870   -1.240571
     10          6           0       -0.931460   -1.018050    0.007389
     11          1           0       -0.326520   -1.088120   -2.019981
     12          8           0        1.083830    1.160430    0.003179
     13          1           0        1.350670    0.703361   -2.013061
     14          1           0       -0.289530    1.240290   -1.563691
     15          8           0       -2.135860   -0.437150   -0.540071
     16          1           0       -1.089460   -2.092220    0.186079
     17          1           0       -0.703540   -0.530880    0.961409
     18          6           0        1.281000    2.514971    0.029719
     19          6           0       -3.165280   -0.295610    0.350279
     20          6           0        1.833940    2.940201    1.363379
     21          8           0        1.034450    3.239520   -0.909571
     22          6           0       -4.353320    0.344060   -0.315691
     23          8           0       -3.093410   -0.644020    1.509369
     24          1           0        1.950430    4.027791    1.379209
     25          1           0        2.807200    2.459191    1.535699
     26          1           0        1.163080    2.622130    2.173539
     27          1           0       -4.639110   -0.221930   -1.212631
     28          1           0       -4.095000    1.361870   -0.641191
     29          1           0       -5.188960    0.382300    0.389269
 ---------------------------------------------------------------------

 SCF Done:  E(RHF) =  -798.530972449     A.U. after    2 cycles

 The electronic state is 1-A.
 Alpha  occ. eigenvalues --  -20.63886 -20.63651 -20.61949 -20.58147 -20.58043
 Alpha  occ. eigenvalues --  -20.55941 -11.41691 -11.41603 -11.40394 -11.33779
 Alpha  occ. eigenvalues --  -11.32604 -11.32159 -11.27022 -11.26962 -11.26125
 Alpha  occ. eigenvalues --   -1.43515  -1.43230  -1.40901  -1.34365  -1.33997
 Alpha  occ. eigenvalues --   -1.32313  -1.09511  -1.04687  -1.02426  -1.01546
 Alpha  occ. eigenvalues --   -0.96118  -0.89373  -0.82459  -0.80242  -0.77386
 Alpha  occ. eigenvalues --   -0.73308  -0.72428  -0.71909  -0.71742  -0.70429
 Alpha  occ. eigenvalues --   -0.69557  -0.67953  -0.66735  -0.66242  -0.62369
 Alpha  occ. eigenvalues --   -0.61566  -0.60796  -0.59813  -0.59684  -0.59103
 Alpha  occ. eigenvalues --   -0.58720  -0.56941  -0.56570  -0.55282  -0.54329
 Alpha  occ. eigenvalues --   -0.52823  -0.51280  -0.49937  -0.49537  -0.48763
 Alpha  occ. eigenvalues --   -0.48451  -0.47305  -0.46393
 Alpha virt. eigenvalues --    0.02581   0.03258   0.04099   0.04288   0.05170
 Alpha virt. eigenvalues --    0.05218   0.05666   0.05865   0.06785   0.06885
 Alpha virt. eigenvalues --    0.08062   0.08230   0.08709   0.09735   0.10374

 Mulliken charges:
               1
     1  H   -0.059096
     2  C    0.528619
     3  C    0.481365
     4  H    0.062575
     5  H   -0.208500
     6  O   -0.784468
     7  O   -0.504991
     8  C    0.857453
     9  C    0.576624
    10  C    0.679915
    11  H   -0.167694
    12  O   -0.566240
    13  H   -0.150009
    14  H   -0.126460
    15  O   -0.583088
    16  H   -0.141179
    17  H   -0.210236
    18  C    0.321681
    19  C    0.218928
    20  C    0.239743
    21  O   -0.470598
    22  C    0.301236
    23  O   -0.450950
    24  H   -0.024309
    25  H    0.049307
    26  H    0.055089
    27  H    0.032365
    28  H    0.052958
    29  H   -0.010038
 Sum of Mulliken charges =  -0.00000

 Dipole moment (field-independent basis, Debye):
    X=             -3.4548    Y=              2.3751    Z=              1.3798  Tot=              4.4137

 Test job not archived.
 1\1\GINC-SE459\SP\RHF\Aug-CC-pVDZ\C9H14O6\OHZDE\08-Apr-2025\0\\#t hf a
 ug-cc-pvdz iop(5/13=1,5/36=2,99/5=2) pseudo=read geom=check guess=(rea
 d,tcheck) scf=(maxcycle=1)\\title\\0,1\H,0,1.45865,-0.52659,1.53204\C,
 0,1.66486,-1.60088,1.47201\C,0,2.06687,-2.01859,0.0779\H,0,0.7654,-2.1
 4572,1.79188\H,0,2.48823,-1.86242,2.14389\O,0,1.26153,-1.71742,-0.9998
 2\O,0,3.06219,-2.66377,-0.15555\C,0,0.14017,-0.80794,-1.06154\C,0,0.57
 099,0.63687,-1.24057\C,0,-0.93146,-1.01805,0.00739\H,0,-0.32652,-1.088
 12,-2.01998\O,0,1.08383,1.16043,0.00318\H,0,1.35067,0.70336,-2.01306\H

 Normal termination of Gaussian 16 at Tue Apr  8 17:59:17 2025.
