 Gaussian 16, Revision C.01,

 ----------------------------------------------------------------------
 #t hf aug-cc-pvdz symm=none int=(grid=ultrafine) guess=(read,tcheck) s
 table=(opt,rrhf)
 ----------------------------------------------------------------------
 -----
 title
 -----
 Symbolic Z-matrix:
 Charge =  0 Multiplicity = 1

 SCF Done:  E(RHF) =  -787.709343082     A.U. after   16 cycles
 Normal termination of Gaussian 16 at Tue Apr  8 17:21:29 2025.
 Gaussian 16:  ES64L-G16RevC.01  3-Jul-2019

 ----------------------------------------------------------------------
 #t hf aug-cc-pvdz iop(5/13=1,5/36=2,99/5=2) pseudo=read geom=check gue
 ss=(read,tcheck) scf=(maxcycle=1)
 ----------------------------------------------------------------------
 -----
 title
 -----
 Structure from the checkpoint file:  "37Conf8_Eperisone_8_mol1.chk"
 Charge =  0 Multiplicity = 1

                         Standard orientation:
 ---------------------------------------------------------------------
 Center     Atomic      Atomic             Coordinates (Angstroms)
 Number     Number       Type             X           Y           Z
 ---------------------------------------------------------------------
      1          8           0        0.603761    3.101930   -0.654420
      2          6           0        0.463931    2.045250   -0.046460
      3          6           0       -0.896939    1.654810    0.528600
      4          6           0        1.616661    1.096930    0.091400
      5          6           0       -1.587939    0.712761   -0.488840
      6          6           0       -1.760849    2.876251    0.825750
      7          1           0       -0.734959    1.090100    1.460990
      8          6           0        2.832261    1.440310   -0.524190
      9          6           0        1.548230   -0.113610    0.799240
     10          7           0       -2.849690    0.177171   -0.000470
     11          1           0       -1.801229    1.306961   -1.392130
     12          1           0       -0.884710   -0.091810   -0.800860
     13          6           0       -3.748880   -0.174439   -1.106890
     14          6           0       -2.694100   -0.905729    0.990010
     15          1           0       -3.214160   -0.720829   -1.918750
     16          1           0       -4.125709    0.759521   -1.554170
     17          6           0       -4.895570   -1.043429   -0.603880
     18          1           0       -1.686500   -0.837389    1.426090
     19          1           0       -3.399040   -0.747539    1.825930
     20          6           0       -2.922970   -2.294819    0.389280
     21          1           0       -5.393450   -0.513969    0.224160
     22          1           0       -5.647340   -1.166229   -1.396700
     23          6           0       -4.369390   -2.414639   -0.129650
     24          1           0       -2.706860   -3.074159    1.135760
     25          1           0       -2.207430   -2.447699   -0.435060
     26          1           0       -4.407340   -3.140779   -0.956290
     27          1           0       -5.024130   -2.809049    0.662510
     28          1           0       -1.844369    3.511091   -0.066360
     29          1           0       -2.764149    2.548631    1.127540
     30          1           0       -1.324149    3.486090    1.628630
     31          1           0        2.879101    2.384800   -1.068240
     32          6           0        3.936631    0.602369   -0.435010
     33          1           0        0.624680   -0.410560    1.296780
     34          6           0        2.658240   -0.951310    0.884930
     35          1           0        4.875271    0.889229   -0.916140
     36          6           0        3.870690   -0.610321    0.270260
     37          1           0        2.586830   -1.887300    1.444570
     38          6           0        5.054540   -1.540351    0.322020
     39          6           0        5.073790   -2.517921   -0.863010
     40          1           0        5.984410   -0.950151    0.323890
     41          1           0        5.034980   -2.108511    1.265240
     42          1           0        5.116500   -1.974781   -1.818010
     43          1           0        4.165990   -3.138251   -0.873460
     44          1           0        5.945480   -3.185731   -0.808690
 ---------------------------------------------------------------------

 SCF Done:  E(RHF) =  -787.940693607     A.U. after    2 cycles

 The electronic state is 1-A.
 Alpha  occ. eigenvalues --  -20.55206 -15.60693 -11.33813 -11.26510 -11.26481
 Alpha  occ. eigenvalues --  -11.26294 -11.26139 -11.25831 -11.25411 -11.25138
 Alpha  occ. eigenvalues --  -11.24995 -11.24904 -11.24758 -11.24383 -11.23777
 Alpha  occ. eigenvalues --  -11.23355 -11.23303 -11.23110 -11.21368  -1.33748
 Alpha  occ. eigenvalues --   -1.20255  -1.15581  -1.08443  -1.06823  -1.03465
 Alpha  occ. eigenvalues --   -1.01607  -1.00748  -0.99372  -0.92393  -0.89849
 Alpha  occ. eigenvalues --   -0.86462  -0.85743  -0.83695  -0.82363  -0.79517
 Alpha  occ. eigenvalues --   -0.74382  -0.73013  -0.70629  -0.67901  -0.67200
 Alpha  occ. eigenvalues --   -0.66169  -0.64723  -0.62936  -0.62475  -0.60988
 Alpha  occ. eigenvalues --   -0.59919  -0.59584  -0.58977  -0.57572  -0.57278
 Alpha  occ. eigenvalues --   -0.56796  -0.55151  -0.54038  -0.53628  -0.53440
 Alpha  occ. eigenvalues --   -0.52195  -0.51876  -0.51097  -0.50552  -0.49517
 Alpha  occ. eigenvalues --   -0.49199  -0.48796  -0.48297  -0.47606  -0.46617
 Alpha  occ. eigenvalues --   -0.45078  -0.44747  -0.41686  -0.34916  -0.34178
 Alpha  occ. eigenvalues --   -0.33586
 Alpha virt. eigenvalues --    0.02682   0.03265   0.03596   0.03929   0.04372
 Alpha virt. eigenvalues --    0.04739   0.04915   0.05702   0.06131   0.06240
 Alpha virt. eigenvalues --    0.06412   0.06532   0.06911   0.07200   0.07333

 Mulliken charges:
               1
     1  O   -0.561601
     2  C   -0.524216
     3  C   -0.562401
     4  C    1.800115
     5  C    0.674746
     6  C    1.264788
     7  H   -0.197283
     8  C   -0.414574
     9  C    0.943769
    10  N   -1.011957
    11  H   -0.223219
    12  H   -0.351003
    13  C    0.744560
    14  C    0.879144
    15  H   -0.008498
    16  H   -0.297685
    17  C    0.320619
    18  H   -0.478409
    19  H   -0.172001
    20  C    0.042388
    21  H   -0.059557
    22  H   -0.076343
    23  C    0.245404
    24  H   -0.142180
    25  H   -0.031731
    26  H   -0.058168
    27  H   -0.098633
    28  H    0.054470
    29  H    0.042083
    30  H   -0.113001
    31  H   -0.676297
    32  C    0.036788
    33  H   -0.883975
    34  C   -0.296528
    35  H   -0.616830
    36  C    1.237653
    37  H   -0.650845
    38  C    0.287022
    39  C    0.346550
    40  H   -0.086160
    41  H   -0.101782
    42  H   -0.080853
    43  H   -0.089272
    44  H   -0.055093
 Sum of Mulliken charges =  -0.00000

 Dipole moment (field-independent basis, Debye):
    X=              0.5059    Y=             -4.4624    Z=              0.9829  Tot=              4.5973

 Test job not archived.
 1\1\GINC-SE247\SP\RHF\Aug-CC-pVDZ\C17H25N1O1\OHZDE\08-Apr-2025\0\\#t h
 f aug-cc-pvdz iop(5/13=1,5/36=2,99/5=2) pseudo=read geom=check guess=(
 read,tcheck) scf=(maxcycle=1)\\title\\0,1\O,0,0.60376,3.10193,-0.65442
 \C,0,0.46393,2.04525,-0.04646\C,0,-0.89694,1.65481,0.5286\C,0,1.61666,
 1.09693,0.0914\C,0,-1.58794,0.71276,-0.48884\C,0,-1.76085,2.87625,0.82
 575\H,0,-0.73496,1.0901,1.46099\C,0,2.83226,1.44031,-0.52419\C,0,1.548
 23,-0.11361,0.79924\N,0,-2.84969,0.17717,-0.00047\H,0,-1.80123,1.30696
 ,-1.39213\H,0,-0.88471,-0.09181,-0.80086\C,0,-3.74888,-0.17444,-1.1068

 Normal termination of Gaussian 16 at Tue Apr  8 17:23:04 2025.
