 Gaussian 16, Revision C.01,

 ----------------------------------------------------------------------
 #t hf aug-cc-pvdz symm=none int=(grid=ultrafine) guess=(read,tcheck) s
 table=(opt,rrhf)
 ----------------------------------------------------------------------
 -----
 title
 -----
 Symbolic Z-matrix:
 Charge =  0 Multiplicity = 1

 SCF Done:  E(RHF) =  -1673.88693931     A.U. after   17 cycles
 Normal termination of Gaussian 16 at Tue Apr  8 17:57:37 2025.
 Gaussian 16:  ES64L-G16RevC.01  3-Jul-2019

 ----------------------------------------------------------------------
 #t hf aug-cc-pvdz iop(5/13=1,5/36=2,99/5=2) pseudo=read geom=check gue
 ss=(read,tcheck) scf=(maxcycle=1)
 ----------------------------------------------------------------------
 -----
 title
 -----
 Structure from the checkpoint file:  "37Conf8_Pantoprazole_2_mol1.chk"
 Charge =  0 Multiplicity = 1

                         Standard orientation:
 ---------------------------------------------------------------------
 Center     Atomic      Atomic             Coordinates (Angstroms)
 Number     Number       Type             X           Y           Z
 ---------------------------------------------------------------------
      1          1           0       -4.428281   -3.278720    0.309880
      2          6           0       -4.002161   -2.311460    0.050340
      3          6           0       -2.743851   -2.245500   -0.543940
      4          6           0       -4.675211   -1.116440    0.329760
      5          1           0       -2.191421   -3.164590   -0.755520
      6          7           0       -2.142751   -1.101330   -0.877800
      7          8           0       -5.873241   -1.031570    0.952530
      8          6           0       -4.058251    0.104510   -0.037500
      9          6           0       -2.791871    0.061580   -0.643800
     10          6           0       -6.495171   -2.252050    1.367280
     11          8           0       -4.602190    1.323010    0.249590
     12          6           0       -2.100480    1.326830   -1.023540
     13          1           0       -6.716171   -2.899200    0.504000
     14          1           0       -7.430011   -1.955349    1.853820
     15          1           0       -5.860581   -2.793780    2.085730
     16          6           0       -5.882030    1.623640   -0.341140
     17         16           0       -1.025970    2.062620    0.346920
     18          1           0       -1.470900    1.209400   -1.912770
     19          1           0       -2.812080    2.148720   -1.161620
     20          6           0        0.468480    1.094609   -0.024760
     21          8           0       -0.759860    3.475930   -0.045820
     22          7           0        1.653680    1.526549    0.360070
     23          7           0        0.482449   -0.152681   -0.603750
     24          6           0        2.519569    0.506239    0.007890
     25          1           0       -0.367821   -0.687631   -0.885630
     26          6           0        1.800289   -0.565801   -0.589250
     27          6           0        3.914149    0.435609    0.153550
     28          6           0        2.438559   -1.723651   -1.042950
     29          1           0        4.469250    1.279789    0.559780
     30          6           0        4.531779   -0.732191   -0.281850
     31          1           0        1.891059   -2.543291   -1.509490
     32          6           0        3.815919   -1.795061   -0.871890
     33          8           0        5.909059   -0.943002   -0.195730
     34          1           0        4.375089   -2.674021   -1.192160
     35          6           0        6.587699   -0.278942    0.793770
     36          9           0        6.960530    0.980888    0.380050
     37          9           0        7.731719   -0.972362    1.024410
     38          1           0        6.008259   -0.177332    1.727030
     39          1           0       -5.836650    1.500610   -1.435020
     40          1           0       -6.077150    2.674020   -0.098430
     41          1           0       -6.675610    0.988480    0.073510
 ---------------------------------------------------------------------

 SCF Done:  E(RHF) =  -1674.31912480     A.U. after    2 cycles

 The electronic state is 1-A.
 Alpha  occ. eigenvalues --  -93.68083 -26.14036 -26.13402 -20.64876 -20.62545
 Alpha  occ. eigenvalues --  -20.61991 -20.53012 -15.68208 -15.66722 -15.62610
 Alpha  occ. eigenvalues --  -11.48202 -11.37157 -11.34724 -11.34071 -11.33670
 Alpha  occ. eigenvalues --  -11.33227 -11.32694 -11.32167 -11.31345 -11.29631
 Alpha  occ. eigenvalues --  -11.28802 -11.28550 -11.27825 -11.26515 -11.25390
 Alpha  occ. eigenvalues --  -11.25345  -8.96264  -6.30545  -6.30401  -6.30055
 Alpha  occ. eigenvalues --   -1.70448  -1.65516  -1.42249  -1.40105  -1.38319
 Alpha  occ. eigenvalues --   -1.32556  -1.30524  -1.26788  -1.15178  -1.13902
 Alpha  occ. eigenvalues --   -1.10765  -1.09487  -1.03675  -1.01981  -1.01301
 Alpha  occ. eigenvalues --   -0.99899  -0.97339  -0.95523  -0.91354  -0.87967
 Alpha  occ. eigenvalues --   -0.86202  -0.85529  -0.84394  -0.82802  -0.81277
 Alpha  occ. eigenvalues --   -0.80899  -0.77659  -0.76850  -0.76453  -0.73750
 Alpha  occ. eigenvalues --   -0.72986  -0.72727  -0.70988  -0.70840  -0.69728
 Alpha  occ. eigenvalues --   -0.69502  -0.67619  -0.67517  -0.66617  -0.65535
 Alpha  occ. eigenvalues --   -0.65225  -0.64308  -0.63498  -0.62806  -0.62419
 Alpha  occ. eigenvalues --   -0.61269  -0.60931  -0.58999  -0.58435  -0.57685
 Alpha  occ. eigenvalues --   -0.57451  -0.57061  -0.56332  -0.55758  -0.55335
 Alpha  occ. eigenvalues --   -0.54255  -0.53563  -0.52749  -0.50137  -0.47371
 Alpha  occ. eigenvalues --   -0.46016  -0.45470  -0.43994  -0.43259  -0.40116
 Alpha  occ. eigenvalues --   -0.38682  -0.36270  -0.32207  -0.30643
 Alpha virt. eigenvalues --    0.01256   0.02308   0.02924   0.03670   0.04105
 Alpha virt. eigenvalues --    0.04525   0.04905   0.05537   0.05653   0.06273
 Alpha virt. eigenvalues --    0.06501   0.06769   0.07076   0.07401   0.07520

 Mulliken charges:
               1
     1  H   -0.696697
     2  C    1.326154
     3  C    0.532273
     4  C   -0.197540
     5  H   -0.463712
     6  N   -0.395088
     7  O   -0.684502
     8  C    0.498707
     9  C   -0.045450
    10  C    0.897258
    11  O   -0.779978
    12  C    0.291440
    13  H   -0.072562
    14  H   -0.307979
    15  H   -0.065239
    16  C    0.750143
    17  S    1.423568
    18  H   -0.087789
    19  H   -0.129236
    20  C   -0.130413
    21  O   -1.064249
    22  N   -0.816308
    23  N   -0.754465
    24  C   -0.419992
    25  H    0.063476
    26  C   -0.157938
    27  C    1.379353
    28  C    1.403265
    29  H   -0.616843
    30  C    0.322045
    31  H   -0.538180
    32  C    0.985721
    33  O   -0.794062
    34  H   -0.578126
    35  C    1.094990
    36  F   -0.359538
    37  F   -0.281833
    38  H   -0.156001
    39  H   -0.052933
    40  H   -0.197214
    41  H   -0.124526
 Sum of Mulliken charges =  -0.00000

 Dipole moment (field-independent basis, Debye):
    X=            -12.5457    Y=             -8.9188    Z=             -0.3011  Tot=             15.3958

 Test job not archived.
 1\1\GINC-SE328\SP\RHF\Aug-CC-pVDZ\C16H15F2N3O4S1\OHZDE\08-Apr-2025\0\\
 #t hf aug-cc-pvdz iop(5/13=1,5/36=2,99/5=2) pseudo=read geom=check gue
 ss=(read,tcheck) scf=(maxcycle=1)\\title\\0,1\H,0,-4.42828,-3.27872,0.
 30988\C,0,-4.00216,-2.31146,0.05034\C,0,-2.74385,-2.2455,-0.54394\C,0,
 -4.67521,-1.11644,0.32976\H,0,-2.19142,-3.16459,-0.75552\N,0,-2.14275,
 -1.10133,-0.8778\O,0,-5.87324,-1.03157,0.95253\C,0,-4.05825,0.10451,-0
 .0375\C,0,-2.79187,0.06158,-0.6438\C,0,-6.49517,-2.25205,1.36728\O,0,-
 4.60219,1.32301,0.24959\C,0,-2.10048,1.32683,-1.02354\H,0,-6.71617,-2.

 Normal termination of Gaussian 16 at Tue Apr  8 17:59:22 2025.
