 Gaussian 16, Revision C.01,

 ----------------------------------------------------------------------
 #t hf aug-cc-pvdz symm=none int=(grid=ultrafine) guess=(read,tcheck) s
 table=(opt,rrhf)
 ----------------------------------------------------------------------
 -----
 title
 -----
 Symbolic Z-matrix:
 Charge =  0 Multiplicity = 1

 SCF Done:  E(RHF) =  -1112.29847153     A.U. after   16 cycles
 Normal termination of Gaussian 16 at Tue Apr  8 17:07:09 2025.
 Gaussian 16:  ES64L-G16RevC.01  3-Jul-2019

 ----------------------------------------------------------------------
 #t hf aug-cc-pvdz iop(5/13=1,5/36=2,99/5=2) pseudo=read geom=check gue
 ss=(read,tcheck) scf=(maxcycle=1)
 ----------------------------------------------------------------------
 -----
 title
 -----
 Structure from the checkpoint file:  "37Conf8_Cimetidine_8_mol1.chk"
 Charge =  0 Multiplicity = 1

                         Standard orientation:
 ---------------------------------------------------------------------
 Center     Atomic      Atomic             Coordinates (Angstroms)
 Number     Number       Type             X           Y           Z
 ---------------------------------------------------------------------
      1          7           0        5.770249   -0.796023   -1.027450
      2          6           0        5.038030    0.078217   -0.732890
      3          7           0        4.241310    1.088498   -0.435340
      4          6           0        3.034110    0.801689    0.034540
      5          7           0        2.520629   -0.468231    0.042710
      6          7           0        2.286321    1.835409    0.503120
      7          6           0        1.723479   -1.042141    1.121380
      8          1           0        3.172599   -1.129292   -0.385330
      9          6           0        0.832291    1.931290    0.423990
     10          1           0        2.809771    2.705599    0.474250
     11          6           0        0.741268   -2.093570    0.605810
     12          1           0        1.192559   -0.238410    1.644750
     13          1           0        2.388959   -1.517541    1.867080
     14         16           0       -0.614961   -1.435810   -0.414780
     15          1           0        1.267428   -2.822451   -0.029240
     16          1           0        0.315828   -2.656270    1.451080
     17          6           0       -1.715551   -0.790989    0.913290
     18          6           0       -2.723020    0.138222    0.335690
     19          1           0       -2.187981   -1.644009    1.422090
     20          1           0       -1.105311   -0.239419    1.641160
     21          7           0       -2.519550    1.507912    0.336020
     22          6           0       -3.919891   -0.177058   -0.285320
     23          6           0       -3.574239    2.023172   -0.264450
     24          7           0       -4.447990    1.045123   -0.658040
     25          6           0       -4.590801   -1.475717   -0.562860
     26          1           0       -3.761739    3.079422   -0.436890
     27          1           0       -5.331200    1.184683   -1.137430
     28          1           0       -4.741461   -1.637327   -1.641920
     29          1           0       -3.967712   -2.301028   -0.196540
     30          1           0       -5.574501   -1.549117   -0.071860
     31          1           0        0.424670    1.085410   -0.143440
     32          1           0        0.547351    2.853240   -0.100600
     33          1           0        0.359281    1.951970    1.417120
 ---------------------------------------------------------------------

 SCF Done:  E(RHF) =  -1112.52706518     A.U. after    2 cycles

 The electronic state is 1-A.
 Alpha  occ. eigenvalues --  -93.53647 -15.69910 -15.66528 -15.66149 -15.62719
 Alpha  occ. eigenvalues --  -15.61793 -15.59283 -11.40330 -11.32533 -11.30447
 Alpha  occ. eigenvalues --  -11.29245 -11.28815 -11.28723 -11.28556 -11.27822
 Alpha  occ. eigenvalues --  -11.27343 -11.26505  -8.83360  -6.17544  -6.17304
 Alpha  occ. eigenvalues --   -6.17041  -1.32025  -1.30759  -1.19406  -1.19020
 Alpha  occ. eigenvalues --   -1.15260  -1.11818  -1.08761  -1.05559  -1.00507
 Alpha  occ. eigenvalues --   -0.96208  -0.94402  -0.90501  -0.83726  -0.83237
 Alpha  occ. eigenvalues --   -0.81869  -0.78101  -0.76220  -0.73797  -0.70712
 Alpha  occ. eigenvalues --   -0.66235  -0.65650  -0.64955  -0.63421  -0.62778
 Alpha  occ. eigenvalues --   -0.62510  -0.59723  -0.59492  -0.58116  -0.57154
 Alpha  occ. eigenvalues --   -0.56611  -0.56527  -0.56412  -0.55735  -0.54440
 Alpha  occ. eigenvalues --   -0.52091  -0.50478  -0.50193  -0.46683  -0.44653
 Alpha  occ. eigenvalues --   -0.44392  -0.40537  -0.40185  -0.38294  -0.34966
 Alpha  occ. eigenvalues --   -0.33758  -0.32021
 Alpha virt. eigenvalues --    0.01658   0.02435   0.02824   0.03965   0.04082
 Alpha virt. eigenvalues --    0.04515   0.05539   0.05815   0.06262   0.06583
 Alpha virt. eigenvalues --    0.07334   0.07895   0.08755   0.09035   0.09244

 Mulliken charges:
               1
     1  N   -0.146660
     2  C   -0.581724
     3  N   -0.266442
     4  C    0.851347
     5  N   -0.567411
     6  N   -0.308950
     7  C    1.045190
     8  H    0.006756
     9  C    0.994432
    10  H   -0.039626
    11  C    0.179546
    12  H   -0.371127
    13  H   -0.183603
    14  S    0.387491
    15  H   -0.138563
    16  H   -0.087426
    17  C    0.285896
    18  C    0.250765
    19  H   -0.144390
    20  H   -0.191720
    21  N   -0.654445
    22  C   -0.179779
    23  C    0.746044
    24  N   -0.571654
    25  C    0.435522
    26  H   -0.289389
    27  H   -0.088764
    28  H    0.101340
    29  H    0.006618
    30  H    0.081901
    31  H   -0.265474
    32  H   -0.168526
    33  H   -0.127175
 Sum of Mulliken charges =  -0.00000

 Dipole moment (field-independent basis, Debye):
    X=            -11.8537    Y=              0.8506    Z=              2.5648  Tot=             12.1578

 Test job not archived.
 1\1\GINC-SE078\SP\RHF\Aug-CC-pVDZ\C10H16N6S1\OHZDE\08-Apr-2025\0\\#t h
 f aug-cc-pvdz iop(5/13=1,5/36=2,99/5=2) pseudo=read geom=check guess=(
 read,tcheck) scf=(maxcycle=1)\\title\\0,1\N,0,5.77025,-0.79602,-1.0274
 5\C,0,5.03803,0.07822,-0.73289\N,0,4.24131,1.0885,-0.43534\C,0,3.03411
 ,0.80169,0.03454\N,0,2.52063,-0.46823,0.04271\N,0,2.28632,1.83541,0.50
 312\C,0,1.72348,-1.04214,1.12138\H,0,3.1726,-1.12929,-0.38533\C,0,0.83
 229,1.93129,0.42399\H,0,2.80977,2.7056,0.47425\C,0,0.74127,-2.09357,0.
 60581\H,0,1.19256,-0.23841,1.64475\H,0,2.38896,-1.51754,1.86708\S,0,-0

 Normal termination of Gaussian 16 at Tue Apr  8 17:07:57 2025.
