 Gaussian 16, Revision C.01,

 ----------------------------------------------------------------------
 #t hf aug-cc-pvdz symm=none int=(grid=ultrafine) guess=(read,tcheck) s
 table=(opt,rrhf)
 ----------------------------------------------------------------------
 -----
 title
 -----
 Symbolic Z-matrix:
 Charge =  0 Multiplicity = 1

 SCF Done:  E(RHF) =  -917.594300472     A.U. after   11 cycles
 Normal termination of Gaussian 16 at Tue Apr  8 16:35:36 2025.
 Gaussian 16:  ES64L-G16RevC.01  3-Jul-2019

 ----------------------------------------------------------------------
 #t hf aug-cc-pvdz iop(5/13=1,5/36=2,99/5=2) pseudo=read geom=check gue
 ss=(read,tcheck) scf=(maxcycle=1)
 ----------------------------------------------------------------------
 -----
 title
 -----
 Structure from the checkpoint file:  "37Conf8_18crown6_3_mol2.chk"
 Charge =  0 Multiplicity = 1

                         Standard orientation:
 ---------------------------------------------------------------------
 Center     Atomic      Atomic             Coordinates (Angstroms)
 Number     Number       Type             X           Y           Z
 ---------------------------------------------------------------------
      1          1           0        1.026364    3.550782    1.237661
      2          6           0        0.427489    2.756838    0.743911
      3          1           0        0.642033    1.805311    1.258711
      4          8           0        0.779006    2.682857   -0.638439
      5          6           0       -1.044376    3.101099    0.877901
      6          6           0        2.164418    2.455562   -0.877439
      7          1           0       -1.288098    3.953407    0.213271
      8          1           0       -1.229789    3.411194    1.918231
      9          8           0       -1.935899    2.016663    0.638621
     10          1           0        2.340111    2.771801   -1.917609
     11          1           0        2.779210    3.093705   -0.212329
     12          6           0        2.604860    1.009526   -0.743669
     13          6           0       -2.176193    1.749883   -0.743789
     14          1           0        1.890384    0.346910   -1.260299
     15          1           0        3.593075    0.890253   -1.235659
     16          8           0        2.714584    0.667435    0.638681
     17          1           0       -1.244922    1.461144   -1.259399
     18          1           0       -2.565584    2.665370   -1.236799
     19          6           0       -3.209224    0.646348   -0.877839
     20          6           0        3.209244   -0.646477    0.877721
     21          1           0       -3.570521    0.640632   -1.918159
     22          1           0       -4.069378    0.860541   -0.213159
     23          8           0       -2.714614   -0.667544   -0.638619
     24          1           0        4.069368   -0.860570    0.212971
     25          1           0        3.570611   -0.640881    1.918031
     26          6           0        2.176233   -1.750012    0.743631
     27          6           0       -2.604641   -1.009375    0.743771
     28          1           0        2.565744   -2.665579    1.236401
     29          1           0        1.245042   -1.461403    1.259461
     30          8           0        1.935689   -2.016552   -0.638789
     31          1           0       -3.592745   -0.889912    1.235951
     32          1           0       -1.890004   -0.346719    1.260131
     33          6           0       -2.164288   -2.455421    0.877741
     34          6           0        1.044235   -3.101049   -0.878069
     35          1           0       -2.779250   -3.093645    0.212861
     36          1           0       -2.339811   -2.771460    1.917991
     37          8           0       -0.778936   -2.682866    0.638531
     38          1           0        1.229539   -3.411013   -1.918469
     39          1           0        1.288137   -3.953396   -0.213579
     40          6           0       -0.427640   -2.756917   -0.743869
     41          1           0       -0.642363   -1.805461   -1.258709
     42          1           0       -1.026504   -3.550971   -1.237469
 ---------------------------------------------------------------------

 SCF Done:  E(RHF) =  -917.880389557     A.U. after    2 cycles

 The electronic state is 1-A.
 Alpha  occ. eigenvalues --  -20.56576 -20.56576 -20.56576 -20.56576 -20.56575
 Alpha  occ. eigenvalues --  -20.56575 -11.28377 -11.28377 -11.28376 -11.28376
 Alpha  occ. eigenvalues --  -11.28375 -11.28375 -11.27807 -11.27807 -11.27806
 Alpha  occ. eigenvalues --  -11.27805 -11.27803 -11.27803  -1.33968  -1.33280
 Alpha  occ. eigenvalues --   -1.33279  -1.31661  -1.31660  -1.30736  -1.04634
 Alpha  occ. eigenvalues --   -1.02531  -1.02530  -0.97444  -0.97442  -0.92821
 Alpha  occ. eigenvalues --   -0.87386  -0.83167  -0.83166  -0.81085  -0.80612
 Alpha  occ. eigenvalues --   -0.80609  -0.70630  -0.68793  -0.68791  -0.68747
 Alpha  occ. eigenvalues --   -0.68746  -0.67044  -0.67042  -0.65509  -0.63925
 Alpha  occ. eigenvalues --   -0.63528  -0.63526  -0.62745  -0.61242  -0.58842
 Alpha  occ. eigenvalues --   -0.58838  -0.58531  -0.57287  -0.57281  -0.54351
 Alpha  occ. eigenvalues --   -0.52612  -0.52610  -0.52243  -0.52239  -0.50868
 Alpha  occ. eigenvalues --   -0.49214  -0.49213  -0.48341  -0.48339  -0.48252
 Alpha  occ. eigenvalues --   -0.48058  -0.43370  -0.42793  -0.42266  -0.42259
 Alpha  occ. eigenvalues --   -0.42015  -0.42009
 Alpha virt. eigenvalues --    0.03407   0.04078   0.04079   0.04144   0.04941
 Alpha virt. eigenvalues --    0.04941   0.05432   0.05433   0.05649   0.06828
 Alpha virt. eigenvalues --    0.06977   0.07034   0.07035   0.08029   0.08031

 Mulliken charges:
               1
     1  H   -0.131519
     2  C    0.690924
     3  H   -0.203098
     4  O   -0.649771
     5  C    0.596376
     6  C    0.595921
     7  H   -0.065274
     8  H   -0.237585
     9  O   -0.650471
    10  H   -0.237661
    11  H   -0.065609
    12  C    0.691455
    13  C    0.691371
    14  H   -0.202053
    15  H   -0.131503
    16  O   -0.650250
    17  H   -0.202288
    18  H   -0.131760
    19  C    0.595589
    20  C    0.595401
    21  H   -0.237582
    22  H   -0.065203
    23  O   -0.650241
    24  H   -0.065135
    25  H   -0.237504
    26  C    0.691401
    27  C    0.691414
    28  H   -0.131724
    29  H   -0.202299
    30  O   -0.650436
    31  H   -0.131508
    32  H   -0.202120
    33  C    0.596031
    34  C    0.596316
    35  H   -0.065638
    36  H   -0.237697
    37  O   -0.649802
    38  H   -0.237526
    39  H   -0.065347
    40  C    0.691037
    41  H   -0.203127
    42  H   -0.131507
 Sum of Mulliken charges =  -0.00000

 Dipole moment (field-independent basis, Debye):
    X=              0.0004    Y=              0.0001    Z=              0.0000  Tot=              0.0004

 Test job not archived.
 1\1\GINC-SE072\SP\RHF\Aug-CC-pVDZ\C12H24O6\OHZDE\08-Apr-2025\0\\#t hf
 aug-cc-pvdz iop(5/13=1,5/36=2,99/5=2) pseudo=read geom=check guess=(re
 ad,tcheck) scf=(maxcycle=1)\\title\\0,1\H,0,1.02858,3.55014,1.23766\C,
 0,0.42921,2.75657,0.74391\H,0,0.64316,1.80491,1.25871\O,0,0.78068,2.68
 237,-0.63844\C,0,-1.04244,3.10175,0.8779\C,0,2.16595,2.45421,-0.87744\
 H,0,-1.28563,3.95421,0.21327\H,0,-1.22766,3.41196,1.91823\O,0,-1.93464
 ,2.01787,0.63862\H,0,2.34184,2.77034,-1.91761\H,0,2.78114,3.09197,-0.2
 1233\C,0,2.60549,1.0079,-0.74367\C,0,-2.1751,1.75124,-0.74379\H,0,1.89

 Normal termination of Gaussian 16 at Tue Apr  8 16:37:02 2025.
