 Gaussian 16, Revision C.01,

 ----------------------------------------------------------------------
 #t hf aug-cc-pvdz symm=none int=(grid=ultrafine) guess=(read,tcheck) s
 table=(opt,rrhf)
 ----------------------------------------------------------------------
 -----
 title
 -----
 Symbolic Z-matrix:
 Charge =  0 Multiplicity = 1

 SCF Done:  E(RHF) =  -917.588429628     A.U. after   12 cycles
 Normal termination of Gaussian 16 at Tue Apr  8 16:56:26 2025.
 Gaussian 16:  ES64L-G16RevC.01  3-Jul-2019

 ----------------------------------------------------------------------
 #t hf aug-cc-pvdz iop(5/13=1,5/36=2,99/5=2) pseudo=read geom=check gue
 ss=(read,tcheck) scf=(maxcycle=1)
 ----------------------------------------------------------------------
 -----
 title
 -----
 Structure from the checkpoint file:  "37Conf8_18crown6_8_mol1.chk"
 Charge =  0 Multiplicity = 1

                         Standard orientation:
 ---------------------------------------------------------------------
 Center     Atomic      Atomic             Coordinates (Angstroms)
 Number     Number       Type             X           Y           Z
 ---------------------------------------------------------------------
      1          1           0       -1.118510   -1.321201    1.240790
      2          6           0       -1.175889   -2.021031    0.384530
      3          1           0       -1.300859   -3.041961    0.795360
      4          8           0        0.000000   -1.926790   -0.405780
      5          6           0       -2.362670   -1.631921   -0.481860
      6          6           0        1.175891   -2.021030    0.384530
      7          1           0       -2.124720   -0.693811   -1.009490
      8          1           0       -2.569759   -2.407261   -1.244170
      9          8           0       -3.483820   -1.469801    0.385220
     10          1           0        1.300861   -3.041950    0.795360
     11          1           0        1.118520   -1.321200    1.240790
     12          6           0        2.362670   -1.631920   -0.481860
     13          6           0       -4.564380   -0.737931   -0.191420
     14          1           0        2.124730   -0.693810   -1.009490
     15          1           0        2.569771   -2.407260   -1.244170
     16          8           0        3.483820   -1.469800    0.385220
     17          1           0       -5.499020   -1.190971    0.183330
     18          1           0       -4.557610   -0.836801   -1.291820
     19          6           0       -4.564390    0.737929    0.191410
     20          6           0        4.564390   -0.737930   -0.191420
     21          1           0       -5.499030    1.190959   -0.183350
     22          1           0       -4.557630    0.836799    1.291810
     23          8           0       -3.483820    1.469799   -0.385230
     24          1           0        4.557620   -0.836800   -1.291820
     25          1           0        5.499030   -1.190959    0.183330
     26          6           0        4.564390    0.737930    0.191410
     27          6           0       -2.362670    1.631919    0.481860
     28          1           0        4.557620    0.836800    1.291810
     29          1           0        5.499020    1.190971   -0.183340
     30          8           0        3.483810    1.469800   -0.385230
     31          1           0       -2.569780    2.407239    1.244180
     32          1           0       -2.124730    0.693799    1.009480
     33          6           0       -1.175890    2.021039   -0.384520
     34          6           0        2.362670    1.631920    0.481860
     35          1           0       -1.118520    1.321229   -1.240790
     36          1           0       -1.300860    3.041969   -0.795330
     37          8           0       -0.000000    1.926780    0.405790
     38          1           0        2.569770    2.407240    1.244180
     39          1           0        2.124720    0.693800    1.009480
     40          6           0        1.175890    2.021040   -0.384520
     41          1           0        1.300860    3.041970   -0.795330
     42          1           0        1.118510    1.321230   -1.240790
 ---------------------------------------------------------------------

 SCF Done:  E(RHF) =  -917.874785694     A.U. after    2 cycles

 The electronic state is 1-A.
 Alpha  occ. eigenvalues --  -20.57570 -20.57570 -20.57332 -20.57332 -20.57332
 Alpha  occ. eigenvalues --  -20.57331 -11.29221 -11.29221 -11.29169 -11.29169
 Alpha  occ. eigenvalues --  -11.28751 -11.28749 -11.28727 -11.28725 -11.28610
 Alpha  occ. eigenvalues --  -11.28609 -11.28604 -11.28603  -1.34645  -1.34081
 Alpha  occ. eigenvalues --   -1.34057  -1.33210  -1.32282  -1.31917  -1.05784
 Alpha  occ. eigenvalues --   -1.03274  -1.03264  -0.97627  -0.97163  -0.92502
 Alpha  occ. eigenvalues --   -0.86297  -0.83936  -0.83148  -0.83015  -0.82481
 Alpha  occ. eigenvalues --   -0.82089  -0.71858  -0.70379  -0.69378  -0.69282
 Alpha  occ. eigenvalues --   -0.68790  -0.68619  -0.67445  -0.65582  -0.64515
 Alpha  occ. eigenvalues --   -0.64364  -0.63725  -0.63505  -0.63031  -0.60495
 Alpha  occ. eigenvalues --   -0.60323  -0.59710  -0.59568  -0.57061  -0.55250
 Alpha  occ. eigenvalues --   -0.54625  -0.52987  -0.51317  -0.51305  -0.50611
 Alpha  occ. eigenvalues --   -0.49373  -0.49246  -0.48372  -0.48356  -0.48343
 Alpha  occ. eigenvalues --   -0.48014  -0.46901  -0.45904  -0.44229  -0.43464
 Alpha  occ. eigenvalues --   -0.41313  -0.41156
 Alpha virt. eigenvalues --    0.03495   0.03824   0.03956   0.04460   0.04671
 Alpha virt. eigenvalues --    0.04837   0.05265   0.05573   0.06158   0.06320
 Alpha virt. eigenvalues --    0.06561   0.06879   0.07387   0.08082   0.08224

 Mulliken charges:
               1
     1  H   -0.185111
     2  C    0.344989
     3  H   -0.111605
     4  O   -0.594267
     5  C    1.199887
     6  C    0.345022
     7  H   -0.328038
     8  H   -0.224961
     9  O   -0.740555
    10  H   -0.111628
    11  H   -0.185110
    12  C    1.199888
    13  C    0.577636
    14  H   -0.328047
    15  H   -0.224958
    16  O   -0.740560
    17  H   -0.230460
    18  H   -0.004653
    19  C    0.577647
    20  C    0.577650
    21  H   -0.230453
    22  H   -0.004654
    23  O   -0.740568
    24  H   -0.004653
    25  H   -0.230464
    26  C    0.577665
    27  C    1.199913
    28  H   -0.004651
    29  H   -0.230478
    30  O   -0.740565
    31  H   -0.224971
    32  H   -0.328050
    33  C    0.345010
    34  C    1.199917
    35  H   -0.185125
    36  H   -0.111614
    37  O   -0.594263
    38  H   -0.224976
    39  H   -0.328046
    40  C    0.345007
    41  H   -0.111618
    42  H   -0.185127
 Sum of Mulliken charges =  -0.00000

 Dipole moment (field-independent basis, Debye):
    X=              0.0001    Y=              0.0000    Z=              0.0000  Tot=              0.0001

 Test job not archived.
 1\1\GINC-SE459\SP\RHF\Aug-CC-pVDZ\C12H24O6\OHZDE\08-Apr-2025\0\\#t hf
 aug-cc-pvdz iop(5/13=1,5/36=2,99/5=2) pseudo=read geom=check guess=(re
 ad,tcheck) scf=(maxcycle=1)\\title\\0,1\H,0,1.11851,-1.3212,-1.24079\C
 ,0,1.17589,-2.02103,-0.38453\H,0,1.30086,-3.04196,-0.79536\O,0,0.,-1.9
 2679,0.40578\C,0,2.36267,-1.63192,0.48186\C,0,-1.17589,-2.02103,-0.384
 53\H,0,2.12472,-0.69381,1.00949\H,0,2.56976,-2.40726,1.24417\O,0,3.483
 82,-1.4698,-0.38522\H,0,-1.30086,-3.04195,-0.79536\H,0,-1.11852,-1.321
 2,-1.24079\C,0,-2.36267,-1.63192,0.48186\C,0,4.56438,-0.73793,0.19142\

 Normal termination of Gaussian 16 at Tue Apr  8 16:57:45 2025.
