 Gaussian 16, Revision C.01,

 ----------------------------------------------------------------------
 #t hf aug-cc-pvdz symm=none int=(grid=ultrafine) guess=(read,tcheck) s
 table=(opt,rrhf)
 ----------------------------------------------------------------------
 -----
 title
 -----
 Symbolic Z-matrix:
 Charge =  0 Multiplicity = 1

 SCF Done:  E(RHF) =  -1153.32618191     A.U. after   16 cycles
 Normal termination of Gaussian 16 at Tue Apr  8 17:37:01 2025.
 Gaussian 16:  ES64L-G16RevC.01  3-Jul-2019

 ----------------------------------------------------------------------
 #t hf aug-cc-pvdz iop(5/13=1,5/36=2,99/5=2) pseudo=read geom=check gue
 ss=(read,tcheck) scf=(maxcycle=1)
 ----------------------------------------------------------------------
 -----
 title
 -----
 Structure from the checkpoint file:  "37Conf8_Pyridoxalphosphate_3_mol1.chk"
 Charge =  0 Multiplicity = 1

                         Standard orientation:
 ---------------------------------------------------------------------
 Center     Atomic      Atomic             Coordinates (Angstroms)
 Number     Number       Type             X           Y           Z
 ---------------------------------------------------------------------
      1          1           0       -2.274988    2.356441    0.150862
      2          8           0       -2.928669    1.618101    0.394442
      3          6           0       -2.311809    0.478831    0.063882
      4          6           0       -1.011159    0.465560   -0.500138
      5          6           0       -2.988490   -0.751299    0.292842
      6          6           0       -0.338339    1.738470   -0.715298
      7          6           0       -0.434780   -0.790210   -0.823018
      8          7           0       -2.424490   -1.914419   -0.026908
      9          6           0       -4.357450   -0.746398    0.897232
     10          8           0       -0.853438    2.834160   -0.439398
     11          1           0        0.681341    1.722000   -1.147478
     12          6           0       -1.192070   -1.926959   -0.570148
     13          6           0        0.941520   -0.959771   -1.406168
     14          1           0       -5.059720   -0.171638    0.274162
     15          1           0       -4.714000   -1.776958    0.999322
     16          1           0       -4.350080   -0.257218    1.883272
     17          1           0       -0.787841   -2.913720   -0.816328
     18          8           0        1.944200   -1.264121   -0.387658
     19          1           0        0.954620   -1.843071   -2.057298
     20          1           0        1.274780   -0.096531   -1.995628
     21         15           0        2.758060   -0.175661    0.439832
     22          8           0        3.149121    0.873028   -0.721888
     23          8           0        1.682181    0.699809    1.279462
     24          8           0        3.835420   -0.754452    1.258322
     25          1           0        3.771531    1.547488   -0.395728
     26          1           0        1.629831    0.367499    2.194342
 ---------------------------------------------------------------------

 SCF Done:  E(RHF) =  -1153.64480065     A.U. after    2 cycles

 The electronic state is 1-A.
 Alpha  occ. eigenvalues --  -81.46753 -20.64306 -20.63745 -20.62803 -20.61027
 Alpha  occ. eigenvalues --  -20.60722 -20.54307 -15.65918 -11.38601 -11.35038
 Alpha  occ. eigenvalues --  -11.34769 -11.30850 -11.29509 -11.29079 -11.28727
 Alpha  occ. eigenvalues --  -11.24331  -7.94536  -5.09202  -5.09156  -5.09074
 Alpha  occ. eigenvalues --   -1.41270  -1.40035  -1.36644  -1.36586  -1.36526
 Alpha  occ. eigenvalues --   -1.27302  -1.24950  -1.12544  -1.06601  -1.01409
 Alpha  occ. eigenvalues --   -0.94061  -0.93546  -0.86966  -0.85946  -0.83460
 Alpha  occ. eigenvalues --   -0.78793  -0.75655  -0.74741  -0.72233  -0.71070
 Alpha  occ. eigenvalues --   -0.70492  -0.68739  -0.67971  -0.66415  -0.65210
 Alpha  occ. eigenvalues --   -0.64014  -0.63485  -0.62541  -0.61236  -0.59742
 Alpha  occ. eigenvalues --   -0.58686  -0.58007  -0.56571  -0.55770  -0.55235
 Alpha  occ. eigenvalues --   -0.54767  -0.52689  -0.52307  -0.50675  -0.50247
 Alpha  occ. eigenvalues --   -0.48568  -0.42948  -0.40331  -0.33557
 Alpha virt. eigenvalues --    0.02297   0.02785   0.03441   0.03711   0.04350
 Alpha virt. eigenvalues --    0.04702   0.05743   0.05960   0.06601   0.07713
 Alpha virt. eigenvalues --    0.07984   0.08628   0.09577   0.09629   0.09916

 Mulliken charges:
               1
     1  H    0.280762
     2  O   -0.683296
     3  C   -0.200684
     4  C    0.015808
     5  C   -0.617980
     6  C    1.135355
     7  C    0.463536
     8  N   -0.597386
     9  C    0.879941
    10  O   -0.755516
    11  H   -0.411549
    12  C    0.635871
    13  C    0.882991
    14  H    0.113046
    15  H   -0.109001
    16  H    0.111685
    17  H   -0.440414
    18  O   -0.948961
    19  H   -0.236047
    20  H   -0.049183
    21  P    2.476800
    22  O   -0.734523
    23  O   -0.788903
    24  O   -0.837304
    25  H    0.188316
    26  H    0.226638
 Sum of Mulliken charges =  -0.00000

 Dipole moment (field-independent basis, Debye):
    X=             -0.3140    Y=              0.9015    Z=             -1.9162  Tot=              2.1408

 Test job not archived.
 1\1\GINC-SE089\SP\RHF\Aug-CC-pVDZ\C8H10N1O6P1\OHZDE\08-Apr-2025\0\\#t
 hf aug-cc-pvdz iop(5/13=1,5/36=2,99/5=2) pseudo=read geom=check guess=
 (read,tcheck) scf=(maxcycle=1)\\title\\0,1\H,0,-2.27499,2.35644,0.1508
 6\O,0,-2.92867,1.6181,0.39444\C,0,-2.31181,0.47883,0.06388\C,0,-1.0111
 6,0.46556,-0.50014\C,0,-2.98849,-0.7513,0.29284\C,0,-0.33834,1.73847,-
 0.7153\C,0,-0.43478,-0.79021,-0.82302\N,0,-2.42449,-1.91442,-0.02691\C
 ,0,-4.35745,-0.7464,0.89723\O,0,-0.85344,2.83416,-0.4394\H,0,0.68134,1
 .722,-1.14748\C,0,-1.19207,-1.92696,-0.57015\C,0,0.94152,-0.95977,-1.4

 Normal termination of Gaussian 16 at Tue Apr  8 17:37:33 2025.
