 Gaussian 16, Revision C.01,

 ----------------------------------------------------------------------
 #t hf aug-cc-pvdz symm=none int=(grid=ultrafine) guess=(read,tcheck) s
 table=(opt,rrhf)
 ----------------------------------------------------------------------
 -----
 title
 -----
 Symbolic Z-matrix:
 Charge =  0 Multiplicity = 1

 SCF Done:  E(RHF) =  -917.596349192     A.U. after   12 cycles
 Normal termination of Gaussian 16 at Tue Apr  8 16:36:58 2025.
 Gaussian 16:  ES64L-G16RevC.01  3-Jul-2019

 ----------------------------------------------------------------------
 #t hf aug-cc-pvdz iop(5/13=1,5/36=2,99/5=2) pseudo=read geom=check gue
 ss=(read,tcheck) scf=(maxcycle=1)
 ----------------------------------------------------------------------
 -----
 title
 -----
 Structure from the checkpoint file:  "37Conf8_18crown6_4_mol1.chk"
 Charge =  0 Multiplicity = 1

                         Standard orientation:
 ---------------------------------------------------------------------
 Center     Atomic      Atomic             Coordinates (Angstroms)
 Number     Number       Type             X           Y           Z
 ---------------------------------------------------------------------
      1          1           0       -0.614810    2.755790    1.989520
      2          6           0       -0.215240    2.741910    0.964600
      3          1           0       -0.250969    3.776400    0.574490
      4          8           0        1.125190    2.266950    1.053260
      5          6           0       -1.068480    1.822580    0.096860
      6          6           0        1.957820    2.707840   -0.011960
      7          1           0       -0.652910    1.756050   -0.928220
      8          1           0       -1.072140    0.804230    0.517510
      9          8           0       -2.382060    2.381040    0.056120
     10          1           0        1.432760    2.653760   -0.983430
     11          1           0        2.266591    3.760090    0.151800
     12          6           0        3.183030    1.825319   -0.069620
     13          6           0       -3.253460    1.776700   -0.887660
     14          1           0        3.959560    2.304649   -0.700570
     15          1           0        3.597330    1.706579    0.950640
     16          8           0        2.809120    0.565220   -0.604400
     17          1           0       -2.748880    1.667320   -1.868330
     18          1           0       -4.094380    2.477391   -1.008720
     19          6           0       -3.812490    0.428821   -0.463630
     20          6           0        3.812490   -0.428821   -0.463630
     21          1           0       -4.694340    0.185621   -1.094690
     22          1           0       -4.154770    0.487711    0.588580
     23          8           0       -2.809120   -0.565220   -0.604400
     24          1           0        4.154770   -0.487711    0.588580
     25          1           0        4.694340   -0.185621   -1.094690
     26          6           0        3.253460   -1.776701   -0.887660
     27          6           0       -3.183030   -1.825320   -0.069620
     28          1           0        2.748880   -1.667320   -1.868330
     29          1           0        4.094380   -2.477391   -1.008720
     30          8           0        2.382060   -2.381040    0.056120
     31          1           0       -3.597330   -1.706580    0.950640
     32          1           0       -3.959560   -2.304649   -0.700560
     33          6           0       -1.957820   -2.707840   -0.011960
     34          6           0        1.068480   -1.822580    0.096860
     35          1           0       -2.266591   -3.760090    0.151800
     36          1           0       -1.432760   -2.653760   -0.983430
     37          8           0       -1.125190   -2.266950    1.053260
     38          1           0        0.652910   -1.756050   -0.928220
     39          1           0        1.072140   -0.804230    0.517500
     40          6           0        0.215240   -2.741910    0.964600
     41          1           0        0.250969   -3.776400    0.574500
     42          1           0        0.614810   -2.755780    1.989520
 ---------------------------------------------------------------------

 SCF Done:  E(RHF) =  -917.883413960     A.U. after    2 cycles

 The electronic state is 1-A.
 Alpha  occ. eigenvalues --  -20.57177 -20.57177 -20.56632 -20.56632 -20.56579
 Alpha  occ. eigenvalues --  -20.56579 -11.28968 -11.28968 -11.28888 -11.28888
 Alpha  occ. eigenvalues --  -11.28778 -11.28778 -11.28702 -11.28702 -11.27789
 Alpha  occ. eigenvalues --  -11.27788 -11.27145 -11.27145  -1.34472  -1.34231
 Alpha  occ. eigenvalues --   -1.33093  -1.32158  -1.31981  -1.31269  -1.05231
 Alpha  occ. eigenvalues --   -1.03450  -1.02184  -0.97700  -0.96583  -0.92532
 Alpha  occ. eigenvalues --   -0.86493  -0.84050  -0.82895  -0.82476  -0.81072
 Alpha  occ. eigenvalues --   -0.80825  -0.70666  -0.69951  -0.69265  -0.69152
 Alpha  occ. eigenvalues --   -0.68313  -0.67709  -0.67213  -0.65567  -0.64950
 Alpha  occ. eigenvalues --   -0.63406  -0.63037  -0.63008  -0.62163  -0.60796
 Alpha  occ. eigenvalues --   -0.59405  -0.58345  -0.58140  -0.55153  -0.54667
 Alpha  occ. eigenvalues --   -0.54211  -0.53151  -0.52418  -0.52069  -0.50928
 Alpha  occ. eigenvalues --   -0.48830  -0.48654  -0.48596  -0.48164  -0.47383
 Alpha  occ. eigenvalues --   -0.46938  -0.44533  -0.44381  -0.42916  -0.42666
 Alpha  occ. eigenvalues --   -0.41815  -0.41762
 Alpha virt. eigenvalues --    0.03297   0.03709   0.04127   0.04326   0.04612
 Alpha virt. eigenvalues --    0.05042   0.05447   0.05691   0.05750   0.06218
 Alpha virt. eigenvalues --    0.06679   0.07297   0.07364   0.07764   0.08324

 Mulliken charges:
               1
     1  H   -0.228227
     2  C    0.578944
     3  H   -0.001681
     4  O   -0.746264
     5  C    0.875516
     6  C    0.753964
     7  H   -0.198843
     8  H   -0.398257
     9  O   -0.715127
    10  H   -0.149706
    11  H   -0.153276
    12  C    0.430259
    13  C    0.810917
    14  H   -0.130024
    15  H   -0.111406
    16  O   -0.589695
    17  H   -0.085467
    18  H   -0.211551
    19  C    0.541412
    20  C    0.541413
    21  H   -0.129599
    22  H   -0.141888
    23  O   -0.589694
    24  H   -0.141888
    25  H   -0.129599
    26  C    0.810915
    27  C    0.430275
    28  H   -0.085466
    29  H   -0.211551
    30  O   -0.715127
    31  H   -0.111408
    32  H   -0.130040
    33  C    0.753963
    34  C    0.875530
    35  H   -0.153276
    36  H   -0.149706
    37  O   -0.746264
    38  H   -0.198843
    39  H   -0.398279
    40  C    0.578960
    41  H   -0.001694
    42  H   -0.228223
 Sum of Mulliken charges =  -0.00000

 Dipole moment (field-independent basis, Debye):
    X=             -0.0000    Y=             -0.0000    Z=             -2.6027  Tot=              2.6027

 Test job not archived.
 1\1\GINC-SE073\SP\RHF\Aug-CC-pVDZ\C12H24O6\OHZDE\08-Apr-2025\0\\#t hf
 aug-cc-pvdz iop(5/13=1,5/36=2,99/5=2) pseudo=read geom=check guess=(re
 ad,tcheck) scf=(maxcycle=1)\\title\\0,1\H,0,0.61481,-2.75579,1.98952\C
 ,0,0.21524,-2.74191,0.9646\H,0,0.25097,-3.7764,0.57449\O,0,-1.12519,-2
 .26695,1.05326\C,0,1.06848,-1.82258,0.09686\C,0,-1.95782,-2.70784,-0.0
 1196\H,0,0.65291,-1.75605,-0.92822\H,0,1.07214,-0.80423,0.51751\O,0,2.
 38206,-2.38104,0.05612\H,0,-1.43276,-2.65376,-0.98343\H,0,-2.26659,-3.
 76009,0.1518\C,0,-3.18303,-1.82532,-0.06962\C,0,3.25346,-1.7767,-0.887

 Normal termination of Gaussian 16 at Tue Apr  8 16:38:19 2025.
