 Gaussian 16, Revision C.01,

 ----------------------------------------------------------------------
 #t hf aug-cc-pvdz symm=none int=(grid=ultrafine) guess=(read,tcheck) s
 table=(opt,rrhf)
 ----------------------------------------------------------------------
 -----
 title
 -----
 Symbolic Z-matrix:
 Charge =  0 Multiplicity = 1

 SCF Done:  E(RHF) =  -1667.17576348     A.U. after   13 cycles
 Normal termination of Gaussian 16 at Tue Apr  8 17:20:05 2025.
 Gaussian 16:  ES64L-G16RevC.01  3-Jul-2019

 ----------------------------------------------------------------------
 #t hf aug-cc-pvdz iop(5/13=1,5/36=2,99/5=2) pseudo=read geom=check gue
 ss=(read,tcheck) scf=(maxcycle=1)
 ----------------------------------------------------------------------
 -----
 title
 -----
 Structure from the checkpoint file:  "37Conf8_N_iprit_7_mol1.chk"
 Charge =  0 Multiplicity = 1

                         Standard orientation:
 ---------------------------------------------------------------------
 Center     Atomic      Atomic             Coordinates (Angstroms)
 Number     Number       Type             X           Y           Z
 ---------------------------------------------------------------------
      1          1           0        0.635642   -1.963529    1.859140
      2          6           0        0.804342   -1.638179    0.811350
      3          6           0        2.300212   -1.324468    0.720400
      4          7           0       -0.131878   -0.596199    0.482180
      5          1           0        0.586562   -2.507879    0.173910
      6         17           0        2.799562   -0.820028   -0.936940
      7          1           0        2.892922   -2.212628    0.978800
      8          1           0        2.588281   -0.505408    1.392210
      9          6           0       -0.671089   -0.535639   -0.860860
     10          6           0       -0.170709    0.570431    1.327580
     11          6           0       -2.122729   -0.085310   -0.925200
     12          1           0       -0.105869    0.141331   -1.533730
     13          1           0       -0.593028   -1.544049   -1.292380
     14          6           0        0.722181    1.763891    0.955650
     15          1           0       -1.208059    0.933370    1.430580
     16          1           0        0.136411    0.249631    2.338890
     17         17           0       -3.212298   -1.139400    0.050100
     18          1           0       -2.476599   -0.126120   -1.962430
     19          1           0       -2.255209    0.936940   -0.552280
     20         17           0        0.000280    2.806331   -0.335170
     21          1           0        1.698101    1.446641    0.570520
     22          1           0        0.862501    2.423401    1.822190
 ---------------------------------------------------------------------

 SCF Done:  E(RHF) =  -1667.31720327     A.U. after    2 cycles

 The electronic state is 1-A.
 Alpha  occ. eigenvalues -- -103.65676-103.65260-103.64236 -15.62230 -11.31461
 Alpha  occ. eigenvalues --  -11.31065 -11.30028 -11.29258 -11.29047 -11.28020
 Alpha  occ. eigenvalues --  -10.68965 -10.68564 -10.67519  -8.34684  -8.34411
 Alpha  occ. eigenvalues --   -8.34402  -8.34282  -8.34014  -8.33995  -8.33240
 Alpha  occ. eigenvalues --   -8.32963  -8.32956  -1.22771  -1.16993  -1.16282
 Alpha  occ. eigenvalues --   -1.14746  -1.02386  -1.02030  -0.94768  -0.87151
 Alpha  occ. eigenvalues --   -0.85238  -0.77888  -0.69992  -0.67659  -0.66009
 Alpha  occ. eigenvalues --   -0.63656  -0.61797  -0.60781  -0.60324  -0.58085
 Alpha  occ. eigenvalues --   -0.56912  -0.55595  -0.52805  -0.51722  -0.51365
 Alpha  occ. eigenvalues --   -0.50658  -0.46328  -0.45486  -0.45289  -0.44855
 Alpha  occ. eigenvalues --   -0.44013  -0.43843  -0.34904
 Alpha virt. eigenvalues --    0.02760   0.03801   0.04330   0.04738   0.05918
 Alpha virt. eigenvalues --    0.06262   0.07072   0.07188   0.07570   0.08406
 Alpha virt. eigenvalues --    0.08879   0.09897   0.10242   0.10720   0.11319

 Mulliken charges:
               1
     1  H   -0.189551
     2  C    0.061319
     3  C    0.306459
     4  N    0.300264
     5  H   -0.250485
     6  Cl  -0.179367
     7  H   -0.005124
     8  H   -0.045775
     9  C    0.487549
    10  C    0.407939
    11  C    0.120135
    12  H   -0.073193
    13  H   -0.218601
    14  C    0.096678
    15  H   -0.196969
    16  H   -0.222369
    17  Cl  -0.163195
    18  H   -0.014830
    19  H   -0.024753
    20  Cl  -0.147676
    21  H   -0.071731
    22  H    0.023275
 Sum of Mulliken charges =  -0.00000

 Dipole moment (field-independent basis, Debye):
    X=              1.9146    Y=             -0.7919    Z=              2.2484  Tot=              3.0575

 Test job not archived.
 1\1\GINC-SE214\SP\RHF\Aug-CC-pVDZ\C6H12Cl3N1\OHZDE\08-Apr-2025\0\\#t h
 f aug-cc-pvdz iop(5/13=1,5/36=2,99/5=2) pseudo=read geom=check guess=(
 read,tcheck) scf=(maxcycle=1)\\title\\0,1\H,0,0.63564,-1.96353,1.85914
 \C,0,0.80434,-1.63818,0.81135\C,0,2.30021,-1.32447,0.7204\N,0,-0.13188
 ,-0.5962,0.48218\H,0,0.58656,-2.50788,0.17391\Cl,0,2.79956,-0.82003,-0
 .93694\H,0,2.89292,-2.21263,0.9788\H,0,2.58828,-0.50541,1.39221\C,0,-0
 .67109,-0.53564,-0.86086\C,0,-0.17071,0.57043,1.32758\C,0,-2.12273,-0.
 08531,-0.9252\H,0,-0.10587,0.14133,-1.53373\H,0,-0.59303,-1.54405,-1.2

 Normal termination of Gaussian 16 at Tue Apr  8 17:20:22 2025.
