 Gaussian 16, Revision C.01,

 ----------------------------------------------------------------------
 #t hf aug-cc-pvdz symm=none int=(grid=ultrafine) guess=(read,tcheck) s
 table=(opt,rrhf)
 ----------------------------------------------------------------------
 -----
 title
 -----
 Symbolic Z-matrix:
 Charge =  0 Multiplicity = 1

 SCF Done:  E(RHF) =  -535.047539811     A.U. after   12 cycles
 Normal termination of Gaussian 16 at Tue Apr  8 17:48:48 2025.
 Gaussian 16:  ES64L-G16RevC.01  3-Jul-2019

 ----------------------------------------------------------------------
 #t hf aug-cc-pvdz iop(5/13=1,5/36=2,99/5=2) pseudo=read geom=check gue
 ss=(read,tcheck) scf=(maxcycle=1)
 ----------------------------------------------------------------------
 -----
 title
 -----
 Structure from the checkpoint file:  "37Conf8_RAMBO_6_mol1.chk"
 Charge =  0 Multiplicity = 1

                         Standard orientation:
 ---------------------------------------------------------------------
 Center     Atomic      Atomic             Coordinates (Angstroms)
 Number     Number       Type             X           Y           Z
 ---------------------------------------------------------------------
      1          1           0        1.075001   -1.788708    1.071911
      2          7           0        0.191051   -1.302019    0.919181
      3          7           0        0.278261   -0.637619   -0.339139
      4          1           0        0.058121   -0.648259    1.704461
      5          6           0       -1.061979   -0.406629   -0.957679
      6          6           0        0.843430    0.740361   -0.266579
      7          1           0       -0.902279   -0.467609   -2.045009
      8          6           0       -2.176239   -1.349250   -0.499589
      9          6           0       -1.523010    1.042450   -0.543929
     10          1           0        1.048870    1.035352   -1.311629
     11          6           0        2.151450    0.897162    0.498431
     12          6           0       -0.327880    1.593301    0.252851
     13          1           0       -2.888449   -1.479410   -1.330429
     14          1           0       -1.788209   -2.335850   -0.219179
     15          6           0       -2.863739   -0.615260    0.661421
     16          1           0       -1.674660    1.667970   -1.436149
     17          6           0       -2.848680    0.859280    0.225001
     18          8           0        3.306120    0.441183   -0.192429
     19          1           0        2.316129    1.972952    0.662901
     20          1           0        2.081750    0.418762    1.496871
     21          6           0        3.449141   -0.972797   -0.203409
     22          1           0        2.615001   -1.465848   -0.732129
     23          1           0        4.391641   -1.191217   -0.721979
     24          1           0        3.515881   -1.373557    0.828171
     25          1           0       -0.172621    2.671831    0.109741
     26          1           0       -0.467290    1.430351    1.337591
     27          1           0       -2.276359   -0.755140    1.581891
     28          1           0       -3.878299   -0.986971    0.864971
     29          1           0       -3.697820    1.051279   -0.449789
     30          1           0       -2.945500    1.560370    1.067841
 ---------------------------------------------------------------------

 SCF Done:  E(RHF) =  -535.205930776     A.U. after    2 cycles

 The electronic state is 1-A.
 Alpha  occ. eigenvalues --  -20.56863 -15.63709 -15.63469 -11.28857 -11.27846
 Alpha  occ. eigenvalues --  -11.26280 -11.25402 -11.23475 -11.23151 -11.22637
 Alpha  occ. eigenvalues --  -11.22215 -11.21918  -1.32728  -1.24843  -1.11444
 Alpha  occ. eigenvalues --   -1.06491  -1.00218  -0.98119  -0.92469  -0.91325
 Alpha  occ. eigenvalues --   -0.86293  -0.78327  -0.77140  -0.73799  -0.70062
 Alpha  occ. eigenvalues --   -0.67254  -0.65950  -0.65612  -0.63891  -0.62941
 Alpha  occ. eigenvalues --   -0.61559  -0.58941  -0.57271  -0.55365  -0.54324
 Alpha  occ. eigenvalues --   -0.52898  -0.50414  -0.48703  -0.48023  -0.47186
 Alpha  occ. eigenvalues --   -0.46593  -0.45947  -0.45437  -0.45068  -0.42649
 Alpha  occ. eigenvalues --   -0.39437  -0.36007
 Alpha virt. eigenvalues --    0.03276   0.03465   0.03899   0.04011   0.05676
 Alpha virt. eigenvalues --    0.05815   0.06135   0.06273   0.06382   0.07293
 Alpha virt. eigenvalues --    0.07714   0.08374   0.08562   0.08688   0.09293

 Mulliken charges:
               1
     1  H    0.026195
     2  N   -0.226031
     3  N   -0.859348
     4  H    0.139028
     5  C    0.324605
     6  C    0.120377
     7  H   -0.306451
     8  C    0.675117
     9  C   -0.434086
    10  H   -0.258416
    11  C    0.877235
    12  C    0.503810
    13  H   -0.123695
    14  H   -0.011787
    15  C    0.311345
    16  H   -0.173755
    17  C    0.692186
    18  O   -0.684267
    19  H   -0.155313
    20  H   -0.035438
    21  C    0.857025
    22  H   -0.046808
    23  H   -0.286717
    24  H   -0.091273
    25  H   -0.131862
    26  H   -0.108523
    27  H   -0.183661
    28  H   -0.141343
    29  H   -0.122786
    30  H   -0.145364
 Sum of Mulliken charges =  -0.00000

 Dipole moment (field-independent basis, Debye):
    X=             -0.8943    Y=              0.4199    Z=              1.0935  Tot=              1.4737

 Test job not archived.
 1\1\GINC-SE456\SP\RHF\Aug-CC-pVDZ\C9H18N2O1\OHZDE\08-Apr-2025\0\\#t hf
  aug-cc-pvdz iop(5/13=1,5/36=2,99/5=2) pseudo=read geom=check guess=(r
 ead,tcheck) scf=(maxcycle=1)\\title\\0,1\H,0,1.075,-1.78871,1.07191\N,
 0,0.19105,-1.30202,0.91918\N,0,0.27826,-0.63762,-0.33914\H,0,0.05812,-
 0.64826,1.70446\C,0,-1.06198,-0.40663,-0.95768\C,0,0.84343,0.74036,-0.
 26658\H,0,-0.90228,-0.46761,-2.04501\C,0,-2.17624,-1.34925,-0.49959\C,
 0,-1.52301,1.04245,-0.54393\H,0,1.04887,1.03535,-1.31163\C,0,2.15145,0
 .89716,0.49843\C,0,-0.32788,1.5933,0.25285\H,0,-2.88845,-1.47941,-1.33

 Normal termination of Gaussian 16 at Tue Apr  8 17:49:19 2025.
