 Gaussian 16, Revision C.01,

 ----------------------------------------------------------------------
 #t hf aug-cc-pvdz symm=none int=(grid=ultrafine) guess=(read,tcheck) s
 table=(opt,rrhf)
 ----------------------------------------------------------------------
 -----
 title
 -----
 Symbolic Z-matrix:
 Charge =  0 Multiplicity = 1

 SCF Done:  E(RHF) =  -1667.17699833     A.U. after   13 cycles
 Normal termination of Gaussian 16 at Tue Apr  8 17:18:43 2025.
 Gaussian 16:  ES64L-G16RevC.01  3-Jul-2019

 ----------------------------------------------------------------------
 #t hf aug-cc-pvdz iop(5/13=1,5/36=2,99/5=2) pseudo=read geom=check gue
 ss=(read,tcheck) scf=(maxcycle=1)
 ----------------------------------------------------------------------
 -----
 title
 -----
 Structure from the checkpoint file:  "37Conf8_N_iprit_6_mol1.chk"
 Charge =  0 Multiplicity = 1

                         Standard orientation:
 ---------------------------------------------------------------------
 Center     Atomic      Atomic             Coordinates (Angstroms)
 Number     Number       Type             X           Y           Z
 ---------------------------------------------------------------------
      1          1           0        1.934860    0.225992    1.632640
      2          6           0        1.705910   -0.447628    0.792780
      3          6           0        2.401010    0.079712   -0.470110
      4          7           0        0.265550   -0.607789    0.708700
      5          1           0        2.152451   -1.426038    1.037750
      6         17           0        4.190710    0.033952   -0.259750
      7          1           0        2.171270   -0.537288   -1.348040
      8          1           0        2.140940    1.122472   -0.685660
      9          6           0       -0.191629   -1.656999   -0.190170
     10          6           0       -0.559910    0.580301    0.872740
     11          6           0       -1.510329   -2.304939    0.215860
     12          1           0       -0.264269   -1.356169   -1.255720
     13          1           0        0.571561   -2.453059   -0.148450
     14          6           0       -0.771990    1.428361   -0.386350
     15          1           0       -1.551950    0.284821    1.245050
     16          1           0       -0.100330    1.204671    1.653490
     17         17           0       -2.971139   -1.424110   -0.384040
     18          1           0       -1.584239   -3.310949   -0.213350
     19          1           0       -1.597709   -2.364779    1.307570
     20         17           0       -1.871041    2.806451   -0.017920
     21          1           0       -1.255340    0.850321   -1.182980
     22          1           0        0.160529    1.864701   -0.762630
 ---------------------------------------------------------------------

 SCF Done:  E(RHF) =  -1667.31881786     A.U. after    2 cycles

 The electronic state is 1-A.
 Alpha  occ. eigenvalues -- -103.65889-103.65831-103.65116 -15.63862 -11.31946
 Alpha  occ. eigenvalues --  -11.31560 -11.30757 -11.29996 -11.29367 -11.28680
 Alpha  occ. eigenvalues --  -10.69190 -10.69103 -10.68389  -8.34907  -8.34824
 Alpha  occ. eigenvalues --   -8.34636  -8.34618  -8.34538  -8.34530  -8.34112
 Alpha  occ. eigenvalues --   -8.33826  -8.33818  -1.23349  -1.17506  -1.16708
 Alpha  occ. eigenvalues --   -1.15894  -1.03004  -1.02004  -0.94571  -0.87781
 Alpha  occ. eigenvalues --   -0.86133  -0.79230  -0.70731  -0.69082  -0.66493
 Alpha  occ. eigenvalues --   -0.63751  -0.62973  -0.60953  -0.59742  -0.57239
 Alpha  occ. eigenvalues --   -0.56871  -0.56347  -0.54709  -0.52432  -0.52156
 Alpha  occ. eigenvalues --   -0.51140  -0.46518  -0.45841  -0.45541  -0.45422
 Alpha  occ. eigenvalues --   -0.45059  -0.44519  -0.36451
 Alpha virt. eigenvalues --    0.02817   0.03564   0.04111   0.05057   0.06094
 Alpha virt. eigenvalues --    0.06248   0.06720   0.07204   0.07920   0.08771
 Alpha virt. eigenvalues --    0.09191   0.09585   0.09905   0.10318   0.11086

 Mulliken charges:
               1
     1  H   -0.226848
     2  C    0.351166
     3  C    0.026426
     4  N   -0.274016
     5  H   -0.196880
     6  Cl  -0.140198
     7  H    0.050270
     8  H    0.015139
     9  C    0.520307
    10  C    0.709106
    11  C    0.177159
    12  H   -0.164262
    13  H   -0.232623
    14  C   -0.041587
    15  H   -0.177685
    16  H   -0.129152
    17  Cl  -0.142614
    18  H   -0.004587
    19  H   -0.018541
    20  Cl  -0.147329
    21  H    0.034150
    22  H    0.012599
 Sum of Mulliken charges =  -0.00000

 Dipole moment (field-independent basis, Debye):
    X=              0.9027    Y=             -2.8046    Z=             -0.0282  Tot=              2.9465

 Test job not archived.
 1\1\GINC-SE453\SP\RHF\Aug-CC-pVDZ\C6H12Cl3N1\OHZDE\08-Apr-2025\0\\#t h
 f aug-cc-pvdz iop(5/13=1,5/36=2,99/5=2) pseudo=read geom=check guess=(
 read,tcheck) scf=(maxcycle=1)\\title\\0,1\H,0,1.93486,0.22599,1.63264\
 C,0,1.70591,-0.44763,0.79278\C,0,2.40101,0.07971,-0.47011\N,0,0.26555,
 -0.60779,0.7087\H,0,2.15245,-1.42604,1.03775\Cl,0,4.19071,0.03395,-0.2
 5975\H,0,2.17127,-0.53729,-1.34804\H,0,2.14094,1.12247,-0.68566\C,0,-0
 .19163,-1.657,-0.19017\C,0,-0.55991,0.5803,0.87274\C,0,-1.51033,-2.304
 94,0.21586\H,0,-0.26427,-1.35617,-1.25572\H,0,0.57156,-2.45306,-0.1484

 Normal termination of Gaussian 16 at Tue Apr  8 17:18:56 2025.
