 Gaussian 16, Revision C.01,

 ----------------------------------------------------------------------
 #t hf aug-cc-pvdz symm=none int=(grid=ultrafine) guess=(read,tcheck) s
 table=(opt,rrhf)
 ----------------------------------------------------------------------
 -----
 title
 -----
 Symbolic Z-matrix:
 Charge =  0 Multiplicity = 1

 SCF Done:  E(RHF) =  -1112.29963069     A.U. after   16 cycles
 Normal termination of Gaussian 16 at Tue Apr  8 17:13:45 2025.
 Gaussian 16:  ES64L-G16RevC.01  3-Jul-2019

 ----------------------------------------------------------------------
 #t hf aug-cc-pvdz iop(5/13=1,5/36=2,99/5=2) pseudo=read geom=check gue
 ss=(read,tcheck) scf=(maxcycle=1)
 ----------------------------------------------------------------------
 -----
 title
 -----
 Structure from the checkpoint file:  "37Conf8_Cimetidine_5_mol1.chk"
 Charge =  0 Multiplicity = 1

                         Standard orientation:
 ---------------------------------------------------------------------
 Center     Atomic      Atomic             Coordinates (Angstroms)
 Number     Number       Type             X           Y           Z
 ---------------------------------------------------------------------
      1          7           0       -3.638477   -1.243157   -0.889089
      2          6           0       -2.689728   -0.592725   -1.156229
      3          7           0       -1.569239    0.034527   -1.429139
      4          6           0       -1.223601    1.064687   -0.658859
      5          7           0       -0.005382    1.635559   -0.890519
      6          7           0       -2.030642    1.551386    0.314131
      7          6           0        0.876747    2.065131    0.202481
      8          1           0        0.503429    1.066030   -1.575949
      9          6           0       -1.948634    2.861496    0.937001
     10          1           0       -2.898411    1.030954    0.424431
     11          6           0        2.344578    1.873873   -0.189639
     12          1           0        0.731866    3.134191    0.426201
     13          1           0        0.662558    1.485800    1.113741
     14         16           0        2.788430    0.258764   -0.898479
     15          1           0        2.628766    2.587424   -0.978749
     16          1           0        2.976277    2.081024    0.686211
     17          6           0        2.545212   -0.899006    0.519921
     18          6           0        1.140723   -1.237289    0.877821
     19          1           0        3.107194   -1.788285    0.198321
     20          1           0        3.060392   -0.477446    1.394071
     21          7           0        0.535962   -0.698360    2.003281
     22          6           0        0.253824   -2.056480    0.197391
     23          6           0       -0.696077   -1.177872    2.004321
     24          7           0       -0.907506   -2.010382    0.941331
     25          6           0        0.367316   -2.807370   -1.080129
     26          1           0       -1.463347   -0.968933    2.744391
     27          1           0       -1.809685   -2.378234    0.642131
     28          1           0       -0.196055   -2.302111   -1.880499
     29          1           0        1.416866   -2.862328   -1.395949
     30          1           0       -0.014683   -3.835191   -0.988029
     31          1           0       -1.576715    3.605987    0.219751
     32          1           0       -2.957925    3.161104    1.244851
     33          1           0       -1.300594    2.866117    1.826351
 ---------------------------------------------------------------------

 SCF Done:  E(RHF) =  -1112.52729515     A.U. after    2 cycles

 The electronic state is 1-A.
 Alpha  occ. eigenvalues --  -93.53660 -15.68014 -15.67905 -15.66323 -15.62560
 Alpha  occ. eigenvalues --  -15.61583 -15.60898 -11.41298 -11.31062 -11.30732
 Alpha  occ. eigenvalues --  -11.30443 -11.29529 -11.28729 -11.27946 -11.27720
 Alpha  occ. eigenvalues --  -11.25711 -11.24274  -8.83384  -6.17571  -6.17327
 Alpha  occ. eigenvalues --   -6.17062  -1.31936  -1.30470  -1.20831  -1.19783
 Alpha  occ. eigenvalues --   -1.13693  -1.13356  -1.07913  -1.04571  -0.99877
 Alpha  occ. eigenvalues --   -0.97338  -0.93536  -0.90318  -0.85016  -0.81877
 Alpha  occ. eigenvalues --   -0.81406  -0.78437  -0.74761  -0.72156  -0.71173
 Alpha  occ. eigenvalues --   -0.67360  -0.66530  -0.64886  -0.63858  -0.62256
 Alpha  occ. eigenvalues --   -0.61795  -0.59606  -0.58182  -0.57489  -0.57368
 Alpha  occ. eigenvalues --   -0.56175  -0.55773  -0.55546  -0.54715  -0.54429
 Alpha  occ. eigenvalues --   -0.53658  -0.51665  -0.50403  -0.47648  -0.44158
 Alpha  occ. eigenvalues --   -0.43615  -0.41590  -0.39683  -0.38696  -0.35504
 Alpha  occ. eigenvalues --   -0.35026  -0.30195
 Alpha virt. eigenvalues --    0.02017   0.02966   0.03639   0.03992   0.05010
 Alpha virt. eigenvalues --    0.05374   0.06010   0.06345   0.06593   0.07162
 Alpha virt. eigenvalues --    0.07973   0.08162   0.08506   0.09057   0.09162

 Mulliken charges:
               1
     1  N   -0.236020
     2  C   -0.486851
     3  N   -0.150416
     4  C    0.587206
     5  N   -0.533429
     6  N   -0.260036
     7  C    0.891387
     8  H    0.081025
     9  C    1.129168
    10  H   -0.065373
    11  C    0.105367
    12  H   -0.267920
    13  H   -0.341463
    14  S    0.513931
    15  H   -0.065723
    16  H   -0.039938
    17  C    0.523559
    18  C    0.202426
    19  H   -0.058613
    20  H   -0.161979
    21  N   -0.882835
    22  C   -0.530791
    23  C    0.683491
    24  N   -0.260591
    25  C    0.555550
    26  H   -0.446044
    27  H   -0.082777
    28  H    0.083455
    29  H    0.021648
    30  H   -0.024468
    31  H   -0.119955
    32  H   -0.284394
    33  H   -0.078597
 Sum of Mulliken charges =  -0.00000

 Dipole moment (field-independent basis, Debye):
    X=              1.6859    Y=              3.7971    Z=              2.4628  Tot=              4.8297

 Test job not archived.
 1\1\GINC-SE159\SP\RHF\Aug-CC-pVDZ\C10H16N6S1\OHZDE\08-Apr-2025\0\\#t h
 f aug-cc-pvdz iop(5/13=1,5/36=2,99/5=2) pseudo=read geom=check guess=(
 read,tcheck) scf=(maxcycle=1)\\title\\0,1\N,0,-3.63848,-1.24315,-0.889
 09\C,0,-2.68973,-0.59272,-1.15623\N,0,-1.56924,0.03453,-1.42914\C,0,-1
 .2236,1.06469,-0.65886\N,0,-0.00538,1.63556,-0.89052\N,0,-2.03064,1.55
 139,0.31413\C,0,0.87675,2.06513,0.20248\H,0,0.50343,1.06603,-1.57595\C
 ,0,-1.94863,2.8615,0.937\H,0,-2.89841,1.03096,0.42443\C,0,2.34458,1.87
 387,-0.18964\H,0,0.73187,3.13419,0.4262\H,0,0.66256,1.4858,1.11374\S,0

 Normal termination of Gaussian 16 at Tue Apr  8 17:14:43 2025.
