 Gaussian 16, Revision C.01,

 ----------------------------------------------------------------------
 #t hf aug-cc-pvdz symm=none int=(grid=ultrafine) guess=(read,tcheck) s
 table=(opt,rrhf)
 ----------------------------------------------------------------------
 -----
 title
 -----
 Symbolic Z-matrix:
 Charge =  0 Multiplicity = 1

 SCF Done:  E(RHF) =  -936.305321952     A.U. after   16 cycles
 Normal termination of Gaussian 16 at Tue Apr  8 17:11:54 2025.
 Gaussian 16:  ES64L-G16RevC.01  3-Jul-2019

 ----------------------------------------------------------------------
 #t hf aug-cc-pvdz iop(5/13=1,5/36=2,99/5=2) pseudo=read geom=check gue
 ss=(read,tcheck) scf=(maxcycle=1)
 ----------------------------------------------------------------------
 -----
 title
 -----
 Structure from the checkpoint file:  "37Conf8_Atropine_6_mol2.chk"
 Charge =  0 Multiplicity = 1

                         Standard orientation:
 ---------------------------------------------------------------------
 Center     Atomic      Atomic             Coordinates (Angstroms)
 Number     Number       Type             X           Y           Z
 ---------------------------------------------------------------------
      1          1           0       -3.159960   -2.254900    1.149651
      2          8           0       -3.899000   -1.730460    0.775351
      3          6           0       -3.558890   -1.559230   -0.589469
      4          6           0       -2.200710   -0.862030   -0.822809
      5          1           0       -3.540070   -2.531560   -1.120109
      6          1           0       -4.350450   -0.944579   -1.042129
      7          6           0       -2.148160    0.589330   -0.381839
      8          6           0       -1.068990   -1.628680   -0.147019
      9          1           0       -1.998120   -0.885130   -1.906349
     10          6           0       -1.937250    1.601340   -1.327199
     11          6           0       -2.278610    0.944880    0.969401
     12          8           0        0.123200   -1.240930   -0.628669
     13          8           0       -1.215930   -2.461350    0.738341
     14          1           0       -1.821780    1.334100   -2.380289
     15          6           0       -1.860879    2.939520   -0.938739
     16          1           0       -2.452730    0.168300    1.713921
     17          6           0       -2.203839    2.283220    1.357971
     18          6           0        1.322790   -1.777860    0.038541
     19          1           0       -1.692739    3.713320   -1.689759
     20          6           0       -1.992449    3.284470    0.407541
     21          1           0       -2.309219    2.544510    2.412391
     22          1           0        1.104560   -2.830330    0.264941
     23          6           0        1.590300   -1.011040    1.339041
     24          6           0        2.468960   -1.659941   -0.966019
     25          1           0       -1.928589    4.329380    0.715311
     26          1           0        2.193220   -1.661161    1.991411
     27          1           0        0.637790   -0.825410    1.856331
     28          6           0        2.368310    0.293079    1.120941
     29          1           0        3.228160   -2.411791   -0.702779
     30          1           0        2.092350   -1.903121   -1.971119
     31          6           0        3.147590   -0.282831   -0.945829
     32          1           0        2.594990    0.740529    2.100051
     33          7           0        3.629850   -0.060351    0.433771
     34          6           0        1.647720    1.288460    0.169941
     35          1           0        4.002440   -0.294601   -1.638159
     36          6           0        2.167300    0.890929   -1.234339
     37          6           0        4.637490    0.990309    0.520381
     38          1           0        0.556020    1.229530    0.250941
     39          1           0        1.931491    2.320919    0.416251
     40          1           0        1.356600    0.595320   -1.911519
     41          1           0        2.702400    1.725119   -1.708799
     42          1           0        5.533460    0.678359   -0.035439
     43          1           0        4.315430    1.975899    0.123221
     44          1           0        4.925540    1.128109    1.572491
 ---------------------------------------------------------------------

 SCF Done:  E(RHF) =  -936.577908520     A.U. after    2 cycles

 The electronic state is 1-A.
 Alpha  occ. eigenvalues --  -20.61865 -20.57366 -20.56084 -15.60589 -11.40711
 Alpha  occ. eigenvalues --  -11.30573 -11.29482 -11.27100 -11.26274 -11.26189
 Alpha  occ. eigenvalues --  -11.25957 -11.25430 -11.25334 -11.25234 -11.25177
 Alpha  occ. eigenvalues --  -11.25076 -11.24793 -11.23618 -11.23249 -11.22379
 Alpha  occ. eigenvalues --  -11.21993  -1.42144  -1.33174  -1.30888  -1.21803
 Alpha  occ. eigenvalues --   -1.15396  -1.08733  -1.06041  -1.02129  -1.01577
 Alpha  occ. eigenvalues --   -1.01349  -0.98709  -0.92827  -0.89039  -0.88145
 Alpha  occ. eigenvalues --   -0.84630  -0.83543  -0.81220  -0.79043  -0.77553
 Alpha  occ. eigenvalues --   -0.72926  -0.72690  -0.71356  -0.68782  -0.67983
 Alpha  occ. eigenvalues --   -0.67120  -0.66713  -0.64460  -0.63526  -0.63113
 Alpha  occ. eigenvalues --   -0.61766  -0.61150  -0.60494  -0.59648  -0.58887
 Alpha  occ. eigenvalues --   -0.58181  -0.56611  -0.56171  -0.55568  -0.55153
 Alpha  occ. eigenvalues --   -0.54698  -0.53234  -0.51746  -0.51370  -0.51273
 Alpha  occ. eigenvalues --   -0.50912  -0.49455  -0.49349  -0.47277  -0.46236
 Alpha  occ. eigenvalues --   -0.45825  -0.45338  -0.44939  -0.44640  -0.43816
 Alpha  occ. eigenvalues --   -0.35452  -0.34488  -0.33952
 Alpha virt. eigenvalues --    0.02632   0.03247   0.03582   0.03795   0.04620
 Alpha virt. eigenvalues --    0.04908   0.05124   0.05267   0.05725   0.06652
 Alpha virt. eigenvalues --    0.06702   0.06883   0.07322   0.07630   0.07762

 Mulliken charges:
               1
     1  H    0.236369
     2  O   -0.589590
     3  C    1.253085
     4  C   -0.179924
     5  H   -0.100722
     6  H   -0.155537
     7  C   -0.066303
     8  C    0.129158
     9  H   -0.260329
    10  C    0.937373
    11  C    0.991288
    12  O   -0.410068
    13  O   -0.601919
    14  H   -0.705904
    15  C    0.375452
    16  H   -0.724542
    17  C    0.099596
    18  C    0.013969
    19  H   -0.536477
    20  C    0.745971
    21  H   -0.544795
    22  H   -0.245237
    23  C    1.115170
    24  C    0.754874
    25  H   -0.511911
    26  H   -0.045467
    27  H   -0.150550
    28  C    0.076345
    29  H   -0.043923
    30  H   -0.052686
    31  C    0.368025
    32  H   -0.365022
    33  N   -1.133579
    34  C    1.036125
    35  H   -0.309472
    36  C    0.577957
    37  C    0.659504
    38  H   -0.549641
    39  H   -0.192131
    40  H   -0.250511
    41  H   -0.186812
    42  H   -0.202103
    43  H   -0.046126
    44  H   -0.208984
 Sum of Mulliken charges =  -0.00000

 Dipole moment (field-independent basis, Debye):
    X=              2.3677    Y=              1.9867    Z=             -2.2709  Tot=              3.8353

 Test job not archived.
 1\1\GINC-SE437\SP\RHF\Aug-CC-pVDZ\C17H23N1O3\OHZDE\08-Apr-2025\0\\#t h
 f aug-cc-pvdz iop(5/13=1,5/36=2,99/5=2) pseudo=read geom=check guess=(
 read,tcheck) scf=(maxcycle=1)\\title\\0,1\H,0,-3.15996,-2.2549,1.14965
 \O,0,-3.899,-1.73046,0.77535\C,0,-3.55889,-1.55923,-0.58947\C,0,-2.200
 71,-0.86203,-0.82281\H,0,-3.54007,-2.53156,-1.12011\H,0,-4.35045,-0.94
 458,-1.04213\C,0,-2.14816,0.58933,-0.38184\C,0,-1.06899,-1.62868,-0.14
 702\H,0,-1.99812,-0.88513,-1.90635\C,0,-1.93725,1.60134,-1.3272\C,0,-2
 .27861,0.94488,0.9694\O,0,0.1232,-1.24093,-0.62867\O,0,-1.21593,-2.461

 Normal termination of Gaussian 16 at Tue Apr  8 17:13:51 2025.
