 Gaussian 16, Revision C.01,

 ----------------------------------------------------------------------
 #t hf aug-cc-pvdz symm=none int=(grid=ultrafine) guess=(read,tcheck) s
 table=(opt,rrhf)
 ----------------------------------------------------------------------
 -----
 title
 -----
 Symbolic Z-matrix:
 Charge =  0 Multiplicity = 1

 SCF Done:  E(RHF) =  -1009.02785647     A.U. after   15 cycles
 Normal termination of Gaussian 16 at Tue Apr  8 17:11:52 2025.
 Gaussian 16:  ES64L-G16RevC.01  3-Jul-2019

 ----------------------------------------------------------------------
 #t hf aug-cc-pvdz iop(5/13=1,5/36=2,99/5=2) pseudo=read geom=check gue
 ss=(read,tcheck) scf=(maxcycle=1)
 ----------------------------------------------------------------------
 -----
 title
 -----
 Structure from the checkpoint file:  "37Conf8_Gemcitabine_6_mol1.chk"
 Charge =  0 Multiplicity = 1

                         Standard orientation:
 ---------------------------------------------------------------------
 Center     Atomic      Atomic             Coordinates (Angstroms)
 Number     Number       Type             X           Y           Z
 ---------------------------------------------------------------------
      1          1           0       -0.797880    2.822850   -0.352130
      2          8           0       -1.761620    3.009590   -0.360560
      3          6           0       -2.321900    1.929300    0.348840
      4          6           0       -2.430010    0.668150   -0.521210
      5          1           0       -3.348470    2.207820    0.642710
      6          1           0       -1.749890    1.711480    1.265410
      7          1           0       -3.198040    0.829900   -1.293190
      8          8           0       -1.197580    0.390600   -1.263600
      9          6           0       -2.719210   -0.606420    0.273410
     10          6           0       -0.481130   -0.661340   -0.676930
     11          1           0       -3.250570   -0.413580    1.216310
     12          8           0       -3.467070   -1.577070   -0.441310
     13          6           0       -1.282750   -1.101700    0.577870
     14          1           0       -0.479790   -1.533550   -1.357500
     15          7           0        0.939260   -0.366110   -0.454870
     16          1           0       -3.242850   -1.498120   -1.385380
     17          9           0       -1.198880   -2.457180    0.745010
     18          9           0       -0.804830   -0.532240    1.726250
     19          6           0        1.404440    0.873830    0.141030
     20          6           0        1.832140   -1.336150   -0.802200
     21          8           0        0.595780    1.746830    0.437640
     22          7           0        2.746610    0.995990    0.337950
     23          1           0        1.408430   -2.233990   -1.254900
     24          6           0        3.168150   -1.198560   -0.594190
     25          6           0        3.589750    0.031190    0.006070
     26          1           0        3.863060   -1.982370   -0.887920
     27          7           0        4.908120    0.257290    0.235340
     28          1           0        5.595750   -0.474190    0.120050
     29          1           0        5.162740    1.108940    0.722700
 ---------------------------------------------------------------------

 SCF Done:  E(RHF) =  -1009.33805598     A.U. after    2 cycles

 The electronic state is 1-A.
 Alpha  occ. eigenvalues --  -26.15338 -26.15225 -20.60787 -20.60673 -20.54565
 Alpha  occ. eigenvalues --  -20.53589 -15.70911 -15.67458 -15.61892 -11.44402
 Alpha  occ. eigenvalues --  -11.40776 -11.38253 -11.38020 -11.35274 -11.33199
 Alpha  occ. eigenvalues --  -11.31531 -11.28174 -11.26863  -1.71448  -1.66903
 Alpha  occ. eigenvalues --   -1.39268  -1.36234  -1.34847  -1.29902  -1.28340
 Alpha  occ. eigenvalues --   -1.25048  -1.15697  -1.08631  -1.07660  -1.03372
 Alpha  occ. eigenvalues --   -0.93889  -0.91182  -0.90979  -0.87839  -0.85500
 Alpha  occ. eigenvalues --   -0.83211  -0.81491  -0.78955  -0.77242  -0.75642
 Alpha  occ. eigenvalues --   -0.74536  -0.74106  -0.72441  -0.70789  -0.69976
 Alpha  occ. eigenvalues --   -0.69157  -0.67882  -0.66759  -0.65165  -0.64346
 Alpha  occ. eigenvalues --   -0.63623  -0.62465  -0.61840  -0.61133  -0.59962
 Alpha  occ. eigenvalues --   -0.57749  -0.56573  -0.54841  -0.52871  -0.51709
 Alpha  occ. eigenvalues --   -0.50843  -0.48641  -0.47316  -0.46913  -0.43606
 Alpha  occ. eigenvalues --   -0.42560  -0.39121  -0.35978
 Alpha virt. eigenvalues --    0.01577   0.02556   0.03813   0.04701   0.05148
 Alpha virt. eigenvalues --    0.05766   0.06448   0.06824   0.07359   0.07668
 Alpha virt. eigenvalues --    0.08128   0.09105   0.09383   0.09986   0.10556

 Mulliken charges:
               1
     1  H    0.256683
     2  O   -0.594758
     3  C    1.155612
     4  C    0.049616
     5  H   -0.092402
     6  H   -0.049414
     7  H   -0.272950
     8  O   -0.851956
     9  C    0.915733
    10  C    1.117423
    11  H   -0.120303
    12  O   -0.597727
    13  C    0.216109
    14  H   -0.209779
    15  N   -0.382238
    16  H    0.174284
    17  F   -0.350767
    18  F   -0.408914
    19  C    0.431614
    20  C    0.198002
    21  O   -0.600068
    22  N   -0.586291
    23  H   -0.506658
    24  C    1.274884
    25  C    0.588352
    26  H   -0.515086
    27  N   -0.217330
    28  H   -0.017241
    29  H   -0.004427
 Sum of Mulliken charges =  -0.00000

 Dipole moment (field-independent basis, Debye):
    X=              4.5926    Y=             -5.6599    Z=             -2.3408  Tot=              7.6555

 Test job not archived.
 1\1\GINC-SE454\SP\RHF\Aug-CC-pVDZ\C9H11F2N3O4\OHZDE\08-Apr-2025\0\\#t
 hf aug-cc-pvdz iop(5/13=1,5/36=2,99/5=2) pseudo=read geom=check guess=
 (read,tcheck) scf=(maxcycle=1)\\title\\0,1\H,0,-0.79788,2.82285,-0.352
 13\O,0,-1.76162,3.00959,-0.36056\C,0,-2.3219,1.9293,0.34884\C,0,-2.430
 01,0.66815,-0.52121\H,0,-3.34847,2.20782,0.64271\H,0,-1.74989,1.71148,
 1.26541\H,0,-3.19804,0.8299,-1.29319\O,0,-1.19758,0.3906,-1.2636\C,0,-
 2.71921,-0.60642,0.27341\C,0,-0.48113,-0.66134,-0.67693\H,0,-3.25057,-
 0.41358,1.21631\O,0,-3.46707,-1.57707,-0.44131\C,0,-1.28275,-1.1017,0.

 Normal termination of Gaussian 16 at Tue Apr  8 17:12:31 2025.
