 Gaussian 16, Revision C.01,

 ----------------------------------------------------------------------
 #t hf aug-cc-pvdz symm=none int=(grid=ultrafine) guess=(read,tcheck) s
 table=(opt,rrhf)
 ----------------------------------------------------------------------
 -----
 title
 -----
 Symbolic Z-matrix:
 Charge =  0 Multiplicity = 1

 SCF Done:  E(RHF) =  -360.955106127     A.U. after   14 cycles
 Normal termination of Gaussian 16 at Tue Apr  8 17:00:02 2025.
 Gaussian 16:  ES64L-G16RevC.01  3-Jul-2019

 ----------------------------------------------------------------------
 #t hf aug-cc-pvdz iop(5/13=1,5/36=2,99/5=2) pseudo=read geom=check gue
 ss=(read,tcheck) scf=(maxcycle=1)
 ----------------------------------------------------------------------
 -----
 title
 -----
 Structure from the checkpoint file:  "37Conf8_GABA_5_mol1.chk"
 Charge =  0 Multiplicity = 1

                         Standard orientation:
 ---------------------------------------------------------------------
 Center     Atomic      Atomic             Coordinates (Angstroms)
 Number     Number       Type             X           Y           Z
 ---------------------------------------------------------------------
      1          1           0       -2.160520    1.545148   -0.190709
      2          8           0       -1.513610    1.033228   -0.720949
      3          6           0       -1.273749   -0.106081    0.004431
      4          6           0       -0.274068   -1.019000   -0.668029
      5          8           0       -1.831248   -0.330902    1.056841
      6          6           0        1.041802   -1.150739    0.122711
      7          1           0       -0.760937   -2.004211   -0.718759
      8          1           0       -0.078628   -0.682660   -1.696659
      9          6           0        2.009451    0.015402   -0.076809
     10          1           0        0.806063   -1.258749    1.192411
     11          1           0        1.544433   -2.075668   -0.200779
     12          7           0        1.458620    1.276942    0.430351
     13          1           0        2.927821   -0.200817    0.490941
     14          1           0        2.302591    0.053982   -1.147999
     15          1           0        2.193009    1.983482    0.490651
     16          1           0        0.754069    1.644801   -0.212499
 ---------------------------------------------------------------------

 SCF Done:  E(RHF) =  -361.067486475     A.U. after    2 cycles

 The electronic state is 1-A.
 Alpha  occ. eigenvalues --  -20.62848 -20.56395 -15.60955 -11.40157 -11.26801
 Alpha  occ. eigenvalues --  -11.25916 -11.24508  -1.41791  -1.32144  -1.15308
 Alpha  occ. eigenvalues --   -1.05827  -0.95081  -0.84291  -0.78637  -0.71897
 Alpha  occ. eigenvalues --   -0.69804  -0.68230  -0.64086  -0.63244  -0.59619
 Alpha  occ. eigenvalues --   -0.58737  -0.57164  -0.52262  -0.50323  -0.49979
 Alpha  occ. eigenvalues --   -0.48086  -0.46330  -0.38961
 Alpha virt. eigenvalues --    0.03158   0.03908   0.04209   0.04957   0.06147
 Alpha virt. eigenvalues --    0.06894   0.07520   0.07824   0.09344   0.11199
 Alpha virt. eigenvalues --    0.11794   0.13343   0.13903   0.14632   0.14665

 Mulliken charges:
               1
     1  H    0.206913
     2  O   -0.591996
     3  C    0.828106
     4  C    0.039006
     5  O   -0.558079
     6  C    0.074467
     7  H    0.051540
     8  H   -0.069272
     9  C    0.677848
    10  H   -0.064031
    11  H   -0.046760
    12  N   -0.405493
    13  H   -0.151966
    14  H   -0.059020
    15  H   -0.020207
    16  H    0.088943
 Sum of Mulliken charges =   0.00000

 Dipole moment (field-independent basis, Debye):
    X=              1.7907    Y=              0.4830    Z=             -2.6021  Tot=              3.1955

 Test job not archived.
 1\1\GINC-SE225\SP\RHF\Aug-CC-pVDZ\C4H9N1O2\OHZDE\08-Apr-2025\0\\#t hf
 aug-cc-pvdz iop(5/13=1,5/36=2,99/5=2) pseudo=read geom=check guess=(re
 ad,tcheck) scf=(maxcycle=1)\\title\\0,1\H,0,2.16052,1.54515,0.19071\O,
 0,1.51361,1.03323,0.72095\C,0,1.27375,-0.10608,-0.00443\C,0,0.27407,-1
 .019,0.66803\O,0,1.83125,-0.3309,-1.05684\C,0,-1.0418,-1.15074,-0.1227
 1\H,0,0.76094,-2.00421,0.71876\H,0,0.07863,-0.68266,1.69666\C,0,-2.009
 45,0.0154,0.07681\H,0,-0.80606,-1.25875,-1.19241\H,0,-1.54443,-2.07567
 ,0.20078\N,0,-1.45862,1.27694,-0.43035\H,0,-2.92782,-0.20082,-0.49094\

 Normal termination of Gaussian 16 at Tue Apr  8 17:00:08 2025.
