 Gaussian 16, Revision C.01,

 ----------------------------------------------------------------------
 #t hf aug-cc-pvdz symm=none int=(grid=ultrafine) guess=(read,tcheck) s
 table=(opt,rrhf)
 ----------------------------------------------------------------------
 -----
 title
 -----
 Symbolic Z-matrix:
 Charge =  0 Multiplicity = 1

 SCF Done:  E(RHF) =  -983.486782501     A.U. after   14 cycles
 Normal termination of Gaussian 16 at Tue Apr  8 18:29:39 2025.
 Gaussian 16:  ES64L-G16RevC.01  3-Jul-2019

 ----------------------------------------------------------------------
 #t hf aug-cc-pvdz iop(5/13=1,5/36=2,99/5=2) pseudo=read geom=check gue
 ss=(read,tcheck) scf=(maxcycle=1)
 ----------------------------------------------------------------------
 -----
 title
 -----
 Structure from the checkpoint file:  "37Conf8_Tsogoeva_7_mol1.chk"
 Charge =  0 Multiplicity = 1

                         Standard orientation:
 ---------------------------------------------------------------------
 Center     Atomic      Atomic             Coordinates (Angstroms)
 Number     Number       Type             X           Y           Z
 ---------------------------------------------------------------------
      1          1           0        5.685970   -0.985148    1.522870
      2          8           0        6.262820   -1.061858    0.724400
      3          6           0        5.463210   -0.811339   -0.347490
      4          6           0        4.005289   -0.597339    0.033770
      5          8           0        5.889600   -0.794168   -1.477610
      6          1           0        3.563740   -1.609249    0.119080
      7          7           0        3.883659    0.021271    1.374390
      8          6           0        3.147919    0.247521   -0.919020
      9          1           0        4.417289    0.899281    1.356090
     10          6           0        2.457869    0.374611    1.436010
     11          1           0        3.759959    1.036121   -1.377930
     12          1           0        2.714889   -0.341449   -1.736880
     13          6           0        2.048439    0.847691    0.005560
     14          1           0        2.270149    1.131371    2.208140
     15          1           0        1.882829   -0.529369    1.697280
     16          1           0        2.056559    1.945541   -0.041810
     17          7           0        0.702839    0.465200   -0.348920
     18          6           0       -0.320091    1.351230   -0.482010
     19          1           0        0.422219   -0.514650   -0.455830
     20          6           0       -1.643321    0.679590   -0.904770
     21          8           0       -0.218721    2.568760   -0.327870
     22          1           0       -1.686731    0.769290   -2.001260
     23          7           0       -1.663180   -0.746140   -0.530250
     24          6           0       -2.866231    1.346329   -0.239630
     25          1           0       -2.369400   -1.203781   -1.116480
     26          6           0       -2.205430   -0.747940    0.834970
     27          1           0       -3.700801    1.409249   -0.948290
     28          1           0       -2.619891    2.360749    0.099130
     29          6           0       -3.250711    0.400219    0.930190
     30          1           0       -2.628870   -1.727621    1.086750
     31          1           0       -1.387751   -0.533510    1.542930
     32          1           0       -3.148211    0.915279    1.894680
     33          7           0       -4.643401   -0.053801    0.889710
     34          6           0       -5.182430   -0.828841   -0.093950
     35          1           0       -5.272871    0.315429    1.592940
     36          6           0       -6.672690   -1.089782    0.019550
     37          8           0       -4.516710   -1.296191   -1.023160
     38          1           0       -7.172080   -0.649242   -0.854490
     39          1           0       -6.843590   -2.173492   -0.018830
     40          1           0       -7.129660   -0.684542    0.932310
 ---------------------------------------------------------------------

 SCF Done:  E(RHF) =  -983.778333696     A.U. after    2 cycles

 The electronic state is 1-A.
 Alpha  occ. eigenvalues --  -20.62044 -20.56249 -20.54916 -20.53403 -15.66924
 Alpha  occ. eigenvalues --  -15.64937 -15.64613 -15.62007 -11.39984 -11.38409
 Alpha  occ. eigenvalues --  -11.36084 -11.30141 -11.29815 -11.28856 -11.28315
 Alpha  occ. eigenvalues --  -11.28301 -11.27472 -11.26494 -11.25094 -11.24097
 Alpha  occ. eigenvalues --   -1.41222  -1.35543  -1.33946  -1.32537  -1.23780
 Alpha  occ. eigenvalues --   -1.22951  -1.20428  -1.18331  -1.04183  -1.03191
 Alpha  occ. eigenvalues --   -1.01809  -1.00066  -0.97663  -0.88250  -0.87213
 Alpha  occ. eigenvalues --   -0.85052  -0.82373  -0.80862  -0.78137  -0.77296
 Alpha  occ. eigenvalues --   -0.75454  -0.72902  -0.69951  -0.69090  -0.67953
 Alpha  occ. eigenvalues --   -0.67351  -0.66811  -0.65895  -0.64985  -0.63909
 Alpha  occ. eigenvalues --   -0.63219  -0.61450  -0.60656  -0.60312  -0.60101
 Alpha  occ. eigenvalues --   -0.58624  -0.58104  -0.57247  -0.55633  -0.55315
 Alpha  occ. eigenvalues --   -0.53162  -0.52767  -0.52504  -0.52047  -0.51139
 Alpha  occ. eigenvalues --   -0.50964  -0.49550  -0.49341  -0.48732  -0.46118
 Alpha  occ. eigenvalues --   -0.45619  -0.44053  -0.42845  -0.41676  -0.38352
 Alpha  occ. eigenvalues --   -0.38086
 Alpha virt. eigenvalues --    0.01774   0.02635   0.03136   0.03583   0.04062
 Alpha virt. eigenvalues --    0.04706   0.04891   0.05925   0.06217   0.06347
 Alpha virt. eigenvalues --    0.06652   0.06775   0.07942   0.08059   0.08192

 Mulliken charges:
               1
     1  H    0.247022
     2  O   -0.530919
     3  C    0.709406
     4  C    0.262455
     5  O   -0.476169
     6  H   -0.093452
     7  N   -0.754851
     8  C    0.663655
     9  H    0.108843
    10  C    1.087683
    11  H   -0.076554
    12  H   -0.208813
    13  C   -0.486666
    14  H   -0.182380
    15  H   -0.180363
    16  H   -0.252016
    17  N    0.085997
    18  C    0.323806
    19  H   -0.002671
    20  C    0.396025
    21  O   -0.577018
    22  H   -0.184911
    23  N   -0.671389
    24  C    0.807991
    25  H    0.155740
    26  C    1.039990
    27  H   -0.108676
    28  H   -0.147430
    29  C   -0.215946
    30  H   -0.201814
    31  H   -0.226140
    32  H   -0.229841
    33  N    0.084674
    34  C   -0.072985
    35  H   -0.122643
    36  C    0.647588
    37  O   -0.559072
    38  H    0.033023
    39  H    0.031652
    40  H   -0.122831
 Sum of Mulliken charges =  -0.00000

 Dipole moment (field-independent basis, Debye):
    X=             -7.9748    Y=             -0.3685    Z=              5.6117  Tot=              9.7583

 Test job not archived.
 1\1\GINC-SE082\SP\RHF\Aug-CC-pVDZ\C12H20N4O4\OHZDE\08-Apr-2025\0\\#t h
 f aug-cc-pvdz iop(5/13=1,5/36=2,99/5=2) pseudo=read geom=check guess=(
 read,tcheck) scf=(maxcycle=1)\\title\\0,1\H,0,5.68597,-0.98515,1.52287
 \O,0,6.26282,-1.06186,0.7244\C,0,5.46321,-0.81134,-0.34749\C,0,4.00529
 ,-0.59734,0.03377\O,0,5.8896,-0.79417,-1.47761\H,0,3.56374,-1.60925,0.
 11908\N,0,3.88366,0.02127,1.37439\C,0,3.14792,0.24752,-0.91902\H,0,4.4
 1729,0.89928,1.35609\C,0,2.45787,0.37461,1.43601\H,0,3.75996,1.03612,-
 1.37793\H,0,2.71489,-0.34145,-1.73688\C,0,2.04844,0.84769,0.00556\H,0,

 Normal termination of Gaussian 16 at Tue Apr  8 18:30:54 2025.
