 Gaussian 16, Revision C.01,

 ----------------------------------------------------------------------
 #t hf aug-cc-pvdz symm=none int=(grid=ultrafine) guess=(read,tcheck) s
 table=(opt,rrhf)
 ----------------------------------------------------------------------
 -----
 title
 -----
 Symbolic Z-matrix:
 Charge =  0 Multiplicity = 1

 SCF Done:  E(RHF) =  -914.168559441     A.U. after   15 cycles
 Normal termination of Gaussian 16 at Tue Apr  8 18:33:29 2025.
 Gaussian 16:  ES64L-G16RevC.01  3-Jul-2019

 ----------------------------------------------------------------------
 #t hf aug-cc-pvdz iop(5/13=1,5/36=2,99/5=2) pseudo=read geom=check gue
 ss=(read,tcheck) scf=(maxcycle=1)
 ----------------------------------------------------------------------
 -----
 title
 -----
 Structure from the checkpoint file:  "37Conf8_shiepox_depox_8_mol1.chk"
 Charge =  0 Multiplicity = 1

                         Standard orientation:
 ---------------------------------------------------------------------
 Center     Atomic      Atomic             Coordinates (Angstroms)
 Number     Number       Type             X           Y           Z
 ---------------------------------------------------------------------
      1          8           0        0.483330    2.401451   -0.451869
      2          6           0        0.088360    1.256061   -0.444729
      3          6           0        1.046440    0.049021   -0.338329
      4          6           0       -1.402230    0.935161   -0.570029
      5          8           0        0.628200   -0.950069   -1.294759
      6          8           0        2.327840    0.448401   -0.674429
      7          6           0        1.175490   -0.522879    1.109731
      8          1           0       -1.901420    1.824481   -0.993509
      9          8           0       -1.924390    0.616181    0.727531
     10          6           0       -1.740320   -0.338689   -1.345439
     11          6           0       -0.697240   -1.429419   -1.075919
     12          6           0        3.262280   -0.088759    0.295961
     13          1           0        1.011250   -1.616039    1.074011
     14          1           0        0.474860   -0.074009    1.825411
     15          8           0        2.495620   -0.192759    1.499121
     16          6           0       -3.159580   -0.089729    0.489421
     17          1           0       -1.844630   -0.154179   -2.424789
     18          8           0       -3.017460   -0.703999   -0.818069
     19          1           0       -0.835810   -2.275469   -1.761899
     20          1           0       -0.825950   -1.804859   -0.045439
     21          6           0        3.771860   -1.451879   -0.165499
     22          6           0        4.360690    0.930601    0.508451
     23          6           0       -3.311530   -1.148479    1.567791
     24          6           0       -4.337560    0.876051    0.438861
     25          1           0        4.301150   -1.347939   -1.121729
     26          1           0        2.938310   -2.150109   -0.314109
     27          1           0        4.462230   -1.866079    0.581731
     28          1           0        4.930150    1.068760   -0.419509
     29          1           0        3.916660    1.887921    0.806181
     30          1           0        5.043860    0.583380    1.294501
     31          1           0       -4.226290   -1.729439    1.392711
     32          1           0       -2.451500   -1.829389    1.558031
     33          1           0       -3.379650   -0.673599    2.555671
     34          1           0       -4.156980    1.663941   -0.303739
     35          1           0       -5.250000    0.336171    0.152541
     36          1           0       -4.491290    1.340451    1.422111
 ---------------------------------------------------------------------

 SCF Done:  E(RHF) =  -914.444406699     A.U. after    2 cycles

 The electronic state is 1-A.
 Alpha  occ. eigenvalues --  -20.60705 -20.60089 -20.59701 -20.59046 -20.58971
 Alpha  occ. eigenvalues --  -20.58863 -11.37711 -11.37151 -11.35932 -11.35927
 Alpha  occ. eigenvalues --  -11.32319 -11.31885 -11.30982 -11.30978 -11.24571
 Alpha  occ. eigenvalues --  -11.24267 -11.23273 -11.22847  -1.42511  -1.41334
 Alpha  occ. eigenvalues --   -1.37034  -1.35433  -1.31031  -1.30220  -1.10054
 Alpha  occ. eigenvalues --   -1.07795  -1.00926  -0.99947  -0.96431  -0.95333
 Alpha  occ. eigenvalues --   -0.94205  -0.88428  -0.86868  -0.81489  -0.81132
 Alpha  occ. eigenvalues --   -0.77698  -0.74478  -0.73489  -0.70488  -0.69479
 Alpha  occ. eigenvalues --   -0.68492  -0.66663  -0.65775  -0.65025  -0.63361
 Alpha  occ. eigenvalues --   -0.63004  -0.61954  -0.61870  -0.58914  -0.58873
 Alpha  occ. eigenvalues --   -0.57075  -0.56764  -0.56179  -0.55814  -0.54871
 Alpha  occ. eigenvalues --   -0.54649  -0.54436  -0.53869  -0.53241  -0.53132
 Alpha  occ. eigenvalues --   -0.52930  -0.52109  -0.51154  -0.49252  -0.48240
 Alpha  occ. eigenvalues --   -0.46992  -0.44706  -0.44478  -0.41767
 Alpha virt. eigenvalues --    0.03013   0.03764   0.03918   0.04213   0.05020
 Alpha virt. eigenvalues --    0.05116   0.05401   0.05888   0.05952   0.06735
 Alpha virt. eigenvalues --    0.07215   0.07627   0.08051   0.08349   0.08982

 Mulliken charges:
               1
     1  O   -0.520115
     2  C    0.429294
     3  C    0.317874
     4  C    0.614768
     5  O   -0.762227
     6  O   -0.803382
     7  C    0.939335
     8  H   -0.228594
     9  O   -0.806209
    10  C    0.549184
    11  C    1.088063
    12  C   -1.056257
    13  H   -0.112173
    14  H   -0.234758
    15  O   -0.685931
    16  C   -1.002675
    17  H   -0.312789
    18  O   -0.785401
    19  H   -0.201844
    20  H   -0.149657
    21  C    0.694028
    22  C    0.950368
    23  C    0.850734
    24  C    0.749384
    25  H    0.052088
    26  H   -0.110530
    27  H    0.102034
    28  H    0.084731
    29  H    0.035384
    30  H    0.086249
    31  H    0.093006
    32  H   -0.071313
    33  H    0.086089
    34  H   -0.025970
    35  H    0.068840
    36  H    0.078373
 Sum of Mulliken charges =  -0.00000

 Dipole moment (field-independent basis, Debye):
    X=             -2.3769    Y=             -3.1023    Z=              0.5468  Tot=              3.9463

 Test job not archived.
 1\1\GINC-SE398\SP\RHF\Aug-CC-pVDZ\C12H18O6\OHZDE\08-Apr-2025\0\\#t hf
 aug-cc-pvdz iop(5/13=1,5/36=2,99/5=2) pseudo=read geom=check guess=(re
 ad,tcheck) scf=(maxcycle=1)\\title\\0,1\O,0,0.48333,2.40145,-0.45187\C
 ,0,0.08836,1.25606,-0.44473\C,0,1.04644,0.04902,-0.33833\C,0,-1.40223,
 0.93516,-0.57003\O,0,0.6282,-0.95007,-1.29476\O,0,2.32784,0.4484,-0.67
 443\C,0,1.17549,-0.52288,1.10973\H,0,-1.90142,1.82448,-0.99351\O,0,-1.
 92439,0.61618,0.72753\C,0,-1.74032,-0.33869,-1.34544\C,0,-0.69724,-1.4
 2942,-1.07592\C,0,3.26228,-0.08876,0.29596\H,0,1.01125,-1.61604,1.0740

 Normal termination of Gaussian 16 at Tue Apr  8 18:34:34 2025.
