 Gaussian 16, Revision C.01,

 ----------------------------------------------------------------------
 #t hf aug-cc-pvdz symm=none int=(grid=ultrafine) guess=(read,tcheck) s
 table=(opt,rrhf)
 ----------------------------------------------------------------------
 -----
 title
 -----
 Symbolic Z-matrix:
 Charge =  0 Multiplicity = 1

 SCF Done:  E(RHF) =  -798.290954795     A.U. after   14 cycles

 1\1\GINC-SE333\Stability\RHF\Aug-CC-pVDZ\C9H14O6\OHZDE\08-Apr-2025\0\\
 #t hf aug-cc-pvdz symm=none int=(grid=ultrafine) guess=(read,tcheck) s
 table=(opt,rrhf)\\title\\0,1\H,0,0.80845,2.4183,2.00885\C,0,1.72571,2.
 19518,1.44378\C,0,1.51088,2.36396,-0.04267\H,0,2.03208,1.1688,1.68625\
 H,0,2.50901,2.89623,1.74668\O,0,0.55718,1.58888,-0.66076\O,0,2.11551,3
 .15707,-0.72443\C,0,-0.15076,0.53274,0.01642\C,0,-1.6037,0.66683,-0.42
 527\C,0,0.43521,-0.80731,-0.38322\H,0,-0.09639,0.65224,1.10822\O,0,-2.
 36378,-0.30136,0.3269\H,0,-1.71479,0.48097,-1.50411\H,0,-1.9707,1.6819

 Normal termination of Gaussian 16 at Tue Apr  8 17:59:27 2025.
 Gaussian 16:  ES64L-G16RevC.01  3-Jul-2019

 ----------------------------------------------------------------------
 #t hf aug-cc-pvdz iop(5/13=1,5/36=2,99/5=2) pseudo=read geom=check gue
 ss=(read,tcheck) scf=(maxcycle=1)
 ----------------------------------------------------------------------
 -----
 title
 -----
 Structure from the checkpoint file:  "37Conf8_Triacetin_6_mol1.chk"
 Charge =  0 Multiplicity = 1

                         Standard orientation:
 ---------------------------------------------------------------------
 Center     Atomic      Atomic             Coordinates (Angstroms)
 Number     Number       Type             X           Y           Z
 ---------------------------------------------------------------------
      1          1           0        0.808451    2.418300    2.008851
      2          6           0        1.725711    2.195179    1.443781
      3          6           0        1.510881    2.363959   -0.042669
      4          1           0        2.032080    1.168799    1.686251
      5          1           0        2.509011    2.896229    1.746681
      6          8           0        0.557181    1.588880   -0.660759
      7          8           0        2.115511    3.157069   -0.724429
      8          6           0       -0.150760    0.532740    0.016421
      9          6           0       -1.603700    0.666831   -0.425269
     10          6           0        0.435209   -0.807310   -0.383219
     11          1           0       -0.096390    0.652240    1.108221
     12          8           0       -2.363780   -0.301359    0.326901
     13          1           0       -1.714790    0.480971   -1.504109
     14          1           0       -1.970699    1.681921   -0.218409
     15          8           0        1.753349   -0.899341    0.196941
     16          1           0        0.506969   -0.884780   -1.478359
     17          1           0       -0.194341   -1.629380   -0.013309
     18          6           0       -3.706040   -0.312878    0.057641
     19          6           0        2.454219   -2.025391   -0.136559
     20          6           0       -4.397671   -1.383688    0.857461
     21          8           0       -4.227860    0.441822   -0.733629
     22          6           0        3.833399   -1.987622    0.464901
     23          8           0        1.998898   -2.906691   -0.833049
     24          1           0       -4.131492   -2.370578    0.451081
     25          1           0       -5.480981   -1.246327    0.788381
     26          1           0       -4.072401   -1.361508    1.905571
     27          1           0        4.420569   -1.191122   -0.014849
     28          1           0        4.326688   -2.951072    0.305711
     29          1           0        3.783449   -1.757652    1.537601
 ---------------------------------------------------------------------

 SCF Done:  E(RHF) =  -798.542607708     A.U. after    2 cycles

 The electronic state is 1-A.
 Alpha  occ. eigenvalues --  -20.63594 -20.63385 -20.62348 -20.57781 -20.57662
 Alpha  occ. eigenvalues --  -20.56199 -11.41353 -11.41231 -11.40598 -11.33463
 Alpha  occ. eigenvalues --  -11.32249 -11.31867 -11.26796 -11.26734 -11.26706
 Alpha  occ. eigenvalues --   -1.43230  -1.42992  -1.41406  -1.34109  -1.33712
 Alpha  occ. eigenvalues --   -1.32711  -1.09530  -1.04423  -1.02387  -1.01537
 Alpha  occ. eigenvalues --   -0.95601  -0.88130  -0.81592  -0.80991  -0.78710
 Alpha  occ. eigenvalues --   -0.72912  -0.72317  -0.72024  -0.71055  -0.70198
 Alpha  occ. eigenvalues --   -0.69687  -0.68797  -0.66533  -0.66149  -0.62206
 Alpha  occ. eigenvalues --   -0.61400  -0.60655  -0.59816  -0.59227  -0.58451
 Alpha  occ. eigenvalues --   -0.57835  -0.56999  -0.55721  -0.55195  -0.54365
 Alpha  occ. eigenvalues --   -0.53486  -0.52338  -0.49771  -0.49258  -0.48564
 Alpha  occ. eigenvalues --   -0.48161  -0.47247  -0.46604
 Alpha virt. eigenvalues --    0.02342   0.03260   0.03699   0.04497   0.04918
 Alpha virt. eigenvalues --    0.05187   0.05769   0.06066   0.06788   0.06921
 Alpha virt. eigenvalues --    0.07605   0.08236   0.09081   0.09248   0.09705

 Mulliken charges:
               1
     1  H    0.069448
     2  C    0.341771
     3  C    0.527347
     4  H    0.090528
     5  H   -0.182484
     6  O   -0.693018
     7  O   -0.513651
     8  C    0.195002
     9  C    0.969059
    10  C    0.564791
    11  H   -0.135513
    12  O   -0.483049
    13  H   -0.111035
    14  H   -0.145905
    15  O   -0.492792
    16  H   -0.112274
    17  H   -0.149681
    18  C    0.236702
    19  C    0.291858
    20  C    0.237932
    21  O   -0.457743
    22  C    0.247668
    23  O   -0.465444
    24  H    0.068556
    25  H   -0.012228
    26  H    0.015532
    27  H    0.080489
    28  H   -0.020088
    29  H    0.038223
 Sum of Mulliken charges =  -0.00000

 Dipole moment (field-independent basis, Debye):
    X=             -0.1519    Y=             -2.7386    Z=              6.0390  Tot=              6.6327

 Test job not archived.
 1\1\GINC-SE333\SP\RHF\Aug-CC-pVDZ\C9H14O6\OHZDE\08-Apr-2025\0\\#t hf a
 ug-cc-pvdz iop(5/13=1,5/36=2,99/5=2) pseudo=read geom=check guess=(rea
 d,tcheck) scf=(maxcycle=1)\\title\\0,1\H,0,0.80845,2.4183,2.00885\C,0,
 1.72571,2.19518,1.44378\C,0,1.51088,2.36396,-0.04267\H,0,2.03208,1.168
 8,1.68625\H,0,2.50901,2.89623,1.74668\O,0,0.55718,1.58888,-0.66076\O,0
 ,2.11551,3.15707,-0.72443\C,0,-0.15076,0.53274,0.01642\C,0,-1.6037,0.6
 6683,-0.42527\C,0,0.43521,-0.80731,-0.38322\H,0,-0.09639,0.65224,1.108
 22\O,0,-2.36378,-0.30136,0.3269\H,0,-1.71479,0.48097,-1.50411\H,0,-1.9

 Normal termination of Gaussian 16 at Tue Apr  8 17:59:55 2025.
