 Gaussian 16, Revision C.01,

 ----------------------------------------------------------------------
 #t hf aug-cc-pvdz symm=none int=(grid=ultrafine) guess=(read,tcheck) s
 table=(opt,rrhf)
 ----------------------------------------------------------------------
 -----
 title
 -----
 Symbolic Z-matrix:
 Charge =  0 Multiplicity = 1

 SCF Done:  E(RHF) =  -1667.18579412     A.U. after   12 cycles
 Normal termination of Gaussian 16 at Tue Apr  8 17:16:44 2025.
 Gaussian 16:  ES64L-G16RevC.01  3-Jul-2019

 ----------------------------------------------------------------------
 #t hf aug-cc-pvdz iop(5/13=1,5/36=2,99/5=2) pseudo=read geom=check gue
 ss=(read,tcheck) scf=(maxcycle=1)
 ----------------------------------------------------------------------
 -----
 title
 -----
 Structure from the checkpoint file:  "37Conf8_N_iprit_2_mol2.chk"
 Charge =  0 Multiplicity = 1

                         Standard orientation:
 ---------------------------------------------------------------------
 Center     Atomic      Atomic             Coordinates (Angstroms)
 Number     Number       Type             X           Y           Z
 ---------------------------------------------------------------------
      1          1           0       -1.362562    1.527849    0.645422
      2          6           0       -0.275391    1.387276    0.561972
      3          6           0        0.255152    2.328091   -0.512518
      4          7           0        0.000011   -0.000270    0.198862
      5          1           0        0.156761    1.658652    1.545772
      6         17           0       -0.026806    4.043526   -0.048408
      7          1           0       -0.253447    2.154759   -1.468208
      8          1           0        1.336715    2.212598   -0.657598
      9          6           0       -1.064040   -0.932625    0.561482
     10          6           0        1.339413   -0.455462    0.561842
     11          6           0       -2.144844   -0.941981   -0.512238
     12          1           0       -0.642475   -1.944692    0.643252
     13          1           0       -1.514404   -0.695265    1.545942
     14          6           0        1.888822   -1.385874   -0.512188
     15          1           0        2.004759    0.415871    0.644462
     16          1           0        1.358736   -0.964726    1.546002
     17         17           0       -3.488768   -2.045131   -0.049008
     18          1           0       -1.741010   -1.293990   -1.468828
     19          1           0       -2.586225    0.052458   -0.655298
     20         17           0        3.516024   -1.998006   -0.048378
     21          1           0        1.992126   -0.859415   -1.468348
     22          1           0        1.248621   -2.265379   -0.656268
 ---------------------------------------------------------------------

 SCF Done:  E(RHF) =  -1667.32787568     A.U. after    2 cycles

 The electronic state is 1-A.
 Alpha  occ. eigenvalues -- -103.65873-103.65872-103.65872 -15.64644 -11.31712
 Alpha  occ. eigenvalues --  -11.31711 -11.31711 -11.29676 -11.29675 -11.29674
 Alpha  occ. eigenvalues --  -10.69155 -10.69155 -10.69155  -8.34878  -8.34877
 Alpha  occ. eigenvalues --   -8.34877  -8.34591  -8.34591  -8.34590  -8.34582
 Alpha  occ. eigenvalues --   -8.34582  -8.34581  -1.24031  -1.17527  -1.17526
 Alpha  occ. eigenvalues --   -1.16304  -1.02961  -1.02959  -0.94265  -0.86387
 Alpha  occ. eigenvalues --   -0.86384  -0.81466  -0.69911  -0.69907  -0.66957
 Alpha  occ. eigenvalues --   -0.63965  -0.63962  -0.62400  -0.57922  -0.57921
 Alpha  occ. eigenvalues --   -0.56968  -0.55487  -0.55485  -0.53855  -0.52065
 Alpha  occ. eigenvalues --   -0.52062  -0.46272  -0.45563  -0.45466  -0.45466
 Alpha  occ. eigenvalues --   -0.45263  -0.45262  -0.38345
 Alpha virt. eigenvalues --    0.03028   0.03545   0.04391   0.04392   0.06380
 Alpha virt. eigenvalues --    0.06381   0.06570   0.07205   0.07206   0.08929
 Alpha virt. eigenvalues --    0.08929   0.09087   0.09719   0.10381   0.10383

 Mulliken charges:
               1
     1  H   -0.242261
     2  C    0.570268
     3  C    0.141813
     4  N   -0.521845
     5  H   -0.115704
     6  Cl  -0.155968
     7  H   -0.002269
     8  H   -0.021617
     9  C    0.570247
    10  C    0.569624
    11  C    0.141640
    12  H   -0.242143
    13  H   -0.115633
    14  C    0.141838
    15  H   -0.242148
    16  H   -0.115712
    17  Cl  -0.156061
    18  H   -0.002317
    19  H   -0.021701
    20  Cl  -0.156006
    21  H   -0.002262
    22  H   -0.021783
 Sum of Mulliken charges =  -0.00000

 Dipole moment (field-independent basis, Debye):
    X=             -0.0015    Y=             -0.0008    Z=             -0.5318  Tot=              0.5318

 Test job not archived.
 1\1\GINC-SE398\SP\RHF\Aug-CC-pVDZ\C6H12Cl3N1\OHZDE\08-Apr-2025\0\\#t h
 f aug-cc-pvdz iop(5/13=1,5/36=2,99/5=2) pseudo=read geom=check guess=(
 read,tcheck) scf=(maxcycle=1)\\title\\0,1\H,0,-1.35964,1.53045,0.64542
 \C,0,-0.27274,1.3878,0.56197\C,0,0.2596,2.3276,-0.51252\N,0,0.00001,-0
 .00027,0.19886\H,0,0.15993,1.65835,1.54577\Cl,0,-0.01908,4.04357,-0.04
 841\H,0,-0.24933,2.15524,-1.46821\H,0,1.34094,2.21004,-0.6576\C,0,-1.0
 6582,-0.93059,0.56148\C,0,1.33854,-0.45802,0.56184\C,0,-2.14664,-0.937
 88,-0.51224\H,0,-0.64619,-1.94346,0.64325\H,0,-1.51573,-0.69237,1.5459

 Normal termination of Gaussian 16 at Tue Apr  8 17:16:58 2025.
