 Gaussian 16, Revision C.01,

 ----------------------------------------------------------------------
 #t hf aug-cc-pvdz symm=none int=(grid=ultrafine) guess=(read,tcheck) s
 table=(opt,rrhf)
 ----------------------------------------------------------------------
 -----
 title
 -----
 Symbolic Z-matrix:
 Charge =  0 Multiplicity = 1

 SCF Done:  E(RHF) =  -891.124605003     A.U. after   14 cycles
 Normal termination of Gaussian 16 at Tue Apr  8 17:08:02 2025.
 Gaussian 16:  ES64L-G16RevC.01  3-Jul-2019

 ----------------------------------------------------------------------
 #t hf aug-cc-pvdz iop(5/13=1,5/36=2,99/5=2) pseudo=read geom=check gue
 ss=(read,tcheck) scf=(maxcycle=1)
 ----------------------------------------------------------------------
 -----
 title
 -----
 Structure from the checkpoint file:  "37Conf8_Glufosinate_2_mol1.chk"
 Charge =  0 Multiplicity = 1

                         Standard orientation:
 ---------------------------------------------------------------------
 Center     Atomic      Atomic             Coordinates (Angstroms)
 Number     Number       Type             X           Y           Z
 ---------------------------------------------------------------------
      1          1           0       -4.299780    1.108482    0.211600
      2          8           0       -3.337570    1.187062    0.380400
      3          6           0       -2.798920   -0.015948    0.058530
      4          6           0       -1.291430   -0.044839    0.268420
      5          8           0       -3.462451   -0.950198   -0.347650
      6          6           0       -0.597950    1.022761   -0.613020
      7          7           0       -0.787921   -1.403059   -0.004360
      8          1           0       -1.112050    0.220021    1.324290
      9          6           0        0.824760    1.393180   -0.162930
     10          1           0       -0.575980    0.637351   -1.644260
     11          1           0       -1.210129    1.935691   -0.617160
     12         15           0        1.929860   -0.042150    0.143250
     13          1           0        1.283781    2.039550   -0.927330
     14          1           0        0.792861    1.964910    0.777960
     15          6           0        3.624460    0.506469   -0.164490
     16          8           0        1.659619   -1.027290   -1.102650
     17          8           0        1.693819   -0.623450    1.503050
     18          1           0        3.744390    0.863689   -1.195340
     19          1           0        4.293200   -0.347252    0.007290
     20          1           0        3.882800    1.305579    0.542540
     21          1           0        0.706979   -1.354010   -0.943390
     22          1           0       -1.578801   -1.995179   -0.278000
     23          1           0       -0.352581   -1.783879    0.839340
 ---------------------------------------------------------------------

 SCF Done:  E(RHF) =  -891.348357627     A.U. after    2 cycles

 The electronic state is 1-A.
 Alpha  occ. eigenvalues --  -81.36553 -20.64770 -20.58900 -20.57623 -20.50113
 Alpha  occ. eigenvalues --  -15.63475 -11.42160 -11.30933 -11.26642 -11.25592
 Alpha  occ. eigenvalues --  -11.24691  -7.85353  -4.99943  -4.99705  -4.99560
 Alpha  occ. eigenvalues --   -1.44235  -1.34577  -1.32052  -1.22710  -1.18643
 Alpha  occ. eigenvalues --   -1.06302  -0.98707  -0.96965  -0.87237  -0.81455
 Alpha  occ. eigenvalues --   -0.75439  -0.74480  -0.74150  -0.69749  -0.66693
 Alpha  occ. eigenvalues --   -0.66308  -0.64419  -0.62284  -0.61009  -0.60757
 Alpha  occ. eigenvalues --   -0.58224  -0.57556  -0.57016  -0.55534  -0.55009
 Alpha  occ. eigenvalues --   -0.52793  -0.52245  -0.51004  -0.49112  -0.48544
 Alpha  occ. eigenvalues --   -0.45406  -0.43589  -0.41374
 Alpha virt. eigenvalues --    0.02780   0.03456   0.04626   0.04761   0.05331
 Alpha virt. eigenvalues --    0.06302   0.06573   0.06851   0.07483   0.08175
 Alpha virt. eigenvalues --    0.08830   0.09634   0.11265   0.11814   0.12480

 Mulliken charges:
               1
     1  H    0.233989
     2  O   -0.579614
     3  C    0.785936
     4  C    0.274798
     5  O   -0.515248
     6  C    0.181064
     7  N   -0.712509
     8  H   -0.035138
     9  C    0.131974
    10  H   -0.091913
    11  H   -0.104408
    12  P    2.019755
    13  H   -0.116807
    14  H   -0.081702
    15  C    0.105193
    16  O   -0.806691
    17  O   -1.065212
    18  H   -0.041697
    19  H   -0.119680
    20  H   -0.065728
    21  H    0.349345
    22  H    0.109722
    23  H    0.144570
 Sum of Mulliken charges =   0.00000

 Dipole moment (field-independent basis, Debye):
    X=             -1.1665    Y=              3.7172    Z=             -1.3106  Tot=              4.1105

 Test job not archived.
 1\1\GINC-SE045\SP\RHF\Aug-CC-pVDZ\C5H12N1O4P1\OHZDE\08-Apr-2025\0\\#t
 hf aug-cc-pvdz iop(5/13=1,5/36=2,99/5=2) pseudo=read geom=check guess=
 (read,tcheck) scf=(maxcycle=1)\\title\\0,1\H,0,-4.29978,1.10848,0.2116
 \O,0,-3.33757,1.18706,0.3804\C,0,-2.79892,-0.01595,0.05853\C,0,-1.2914
 3,-0.04484,0.26842\O,0,-3.46245,-0.9502,-0.34765\C,0,-0.59795,1.02276,
 -0.61302\N,0,-0.78792,-1.40306,-0.00436\H,0,-1.11205,0.22002,1.32429\C
 ,0,0.82476,1.39318,-0.16293\H,0,-0.57598,0.63735,-1.64426\H,0,-1.21013
 ,1.93569,-0.61716\P,0,1.92986,-0.04215,0.14325\H,0,1.28378,2.03955,-0.

 Normal termination of Gaussian 16 at Tue Apr  8 17:08:19 2025.
