 Gaussian 16, Revision C.01,

 ----------------------------------------------------------------------
 #t hf aug-cc-pvdz symm=none int=(grid=ultrafine) guess=(read,tcheck) s
 table=(opt,rrhf)
 ----------------------------------------------------------------------
 -----
 title
 -----
 Symbolic Z-matrix:
 Charge =  0 Multiplicity = 1

 SCF Done:  E(RHF) =  -1667.17933584     A.U. after   13 cycles
 Normal termination of Gaussian 16 at Tue Apr  8 17:18:46 2025.
 Gaussian 16:  ES64L-G16RevC.01  3-Jul-2019

 ----------------------------------------------------------------------
 #t hf aug-cc-pvdz iop(5/13=1,5/36=2,99/5=2) pseudo=read geom=check gue
 ss=(read,tcheck) scf=(maxcycle=1)
 ----------------------------------------------------------------------
 -----
 title
 -----
 Structure from the checkpoint file:  "37Conf8_N_iprit_5_mol1.chk"
 Charge =  0 Multiplicity = 1

                         Standard orientation:
 ---------------------------------------------------------------------
 Center     Atomic      Atomic             Coordinates (Angstroms)
 Number     Number       Type             X           Y           Z
 ---------------------------------------------------------------------
      1          1           0       -1.369931    0.882899   -0.719439
      2          6           0       -1.243480   -0.159021   -0.394399
      3          6           0       -2.437080   -0.575271    0.470421
      4          7           0        0.036910   -0.282410    0.281681
      5          1           0       -1.224940   -0.775251   -1.306669
      6         17           0       -3.982420   -0.362043   -0.430309
      7          1           0       -2.384449   -1.633401    0.756381
      8          1           0       -2.513960    0.036359    1.378731
      9          6           0        0.473411   -1.629209    0.580711
     10          6           0        0.355509    0.735511    1.269761
     11          6           0        1.985061   -1.800178    0.632991
     12          1           0        0.070072   -2.297320   -0.194879
     13          1           0        0.095741   -2.005710    1.561891
     14          6           0        1.449939    1.699841    0.824941
     15          1           0       -0.541881    1.319680    1.534201
     16          1           0        0.699180    0.261361    2.210001
     17         17           0        2.779741   -1.406948   -0.931929
     18          1           0        2.236162   -2.841508    0.871231
     19          1           0        2.445301   -1.151368    1.389651
     20         17           0        0.888388    2.770861   -0.510969
     21          1           0        2.321349    1.160432    0.435011
     22          1           0        1.751768    2.358852    1.650131
 ---------------------------------------------------------------------

 SCF Done:  E(RHF) =  -1667.32110562     A.U. after    2 cycles

 The electronic state is 1-A.
 Alpha  occ. eigenvalues -- -103.65427-103.65200-103.64788 -15.63104 -11.31765
 Alpha  occ. eigenvalues --  -11.30877 -11.30803 -11.29735 -11.29498 -11.28298
 Alpha  occ. eigenvalues --  -10.68706 -10.68476 -10.68083  -8.34428  -8.34198
 Alpha  occ. eigenvalues --   -8.34141  -8.34141  -8.33911  -8.33903  -8.33804
 Alpha  occ. eigenvalues --   -8.33527  -8.33510  -1.23296  -1.17046  -1.16502
 Alpha  occ. eigenvalues --   -1.15254  -1.02548  -1.02302  -0.94436  -0.86685
 Alpha  occ. eigenvalues --   -0.86382  -0.78849  -0.69743  -0.68168  -0.66935
 Alpha  occ. eigenvalues --   -0.64761  -0.62089  -0.60971  -0.59305  -0.58888
 Alpha  occ. eigenvalues --   -0.56109  -0.55324  -0.54248  -0.52157  -0.51766
 Alpha  occ. eigenvalues --   -0.51025  -0.45608  -0.45320  -0.45252  -0.44781
 Alpha  occ. eigenvalues --   -0.44592  -0.44348  -0.36187
 Alpha virt. eigenvalues --    0.02301   0.03504   0.04005   0.04949   0.05965
 Alpha virt. eigenvalues --    0.06364   0.06683   0.07065   0.07494   0.08624
 Alpha virt. eigenvalues --    0.08931   0.09211   0.09937   0.10830   0.11237

 Mulliken charges:
               1
     1  H   -0.215710
     2  C    0.547183
     3  C    0.059295
     4  N   -0.291918
     5  H   -0.215439
     6  Cl  -0.158903
     7  H    0.020748
     8  H    0.024615
     9  C    0.451661
    10  C    0.450318
    11  C    0.248097
    12  H   -0.288135
    13  H   -0.121731
    14  C    0.151254
    15  H   -0.201942
    16  H   -0.145936
    17  Cl  -0.160156
    18  H   -0.001239
    19  H   -0.029182
    20  Cl  -0.152140
    21  H   -0.000795
    22  H    0.030053
 Sum of Mulliken charges =  -0.00000

 Dipole moment (field-independent basis, Debye):
    X=              1.1495    Y=             -2.1796    Z=              4.6177  Tot=              5.2340

 Test job not archived.
 1\1\GINC-SE368\SP\RHF\Aug-CC-pVDZ\C6H12Cl3N1\OHZDE\08-Apr-2025\0\\#t h
 f aug-cc-pvdz iop(5/13=1,5/36=2,99/5=2) pseudo=read geom=check guess=(
 read,tcheck) scf=(maxcycle=1)\\title\\0,1\H,0,-1.36993,0.8829,-0.71944
 \C,0,-1.24348,-0.15902,-0.3944\C,0,-2.43708,-0.57527,0.47042\N,0,0.036
 91,-0.28241,0.28168\H,0,-1.22494,-0.77525,-1.30667\Cl,0,-3.98242,-0.36
 204,-0.43031\H,0,-2.38445,-1.6334,0.75638\H,0,-2.51396,0.03636,1.37873
 \C,0,0.47341,-1.62921,0.58071\C,0,0.35551,0.73551,1.26976\C,0,1.98506,
 -1.80018,0.63299\H,0,0.07007,-2.29732,-0.19488\H,0,0.09574,-2.00571,1.

 Normal termination of Gaussian 16 at Tue Apr  8 17:19:00 2025.
