 Gaussian 16, Revision C.01,

 ----------------------------------------------------------------------
 #t hf aug-cc-pvdz symm=none int=(grid=ultrafine) guess=(read,tcheck) s
 table=(opt,rrhf)
 ----------------------------------------------------------------------
 -----
 title
 -----
 Symbolic Z-matrix:
 Charge =  0 Multiplicity = 1

 SCF Done:  E(RHF) =  -1813.69087619     A.U. after   16 cycles
 Normal termination of Gaussian 16 at Tue Apr  8 18:41:36 2025.
 Gaussian 16:  ES64L-G16RevC.01  3-Jul-2019

 ----------------------------------------------------------------------
 #t hf aug-cc-pvdz iop(5/13=1,5/36=2,99/5=2) pseudo=read geom=check gue
 ss=(read,tcheck) scf=(maxcycle=1)
 ----------------------------------------------------------------------
 -----
 title
 -----
 Structure from the checkpoint file:  "37Conf8_Takemoto_1_mol1.chk"
 Charge =  0 Multiplicity = 1

                         Standard orientation:
 ---------------------------------------------------------------------
 Center     Atomic      Atomic             Coordinates (Angstroms)
 Number     Number       Type             X           Y           Z
 ---------------------------------------------------------------------
      1          1           0       -1.224200    0.369211   -0.384010
      2          7           0       -0.599130   -0.480589   -0.422390
      3          6           0       -1.242151   -1.582549   -0.916000
      4          6           0        0.765040   -0.264679   -0.240510
      5          7           0       -2.614981   -1.466838   -0.860140
      6         16           0       -0.542731   -2.929519   -1.616310
      7          6           0        1.685109   -1.287430    0.046470
      8          6           0        1.220250    1.061560   -0.293950
      9          6           0       -3.419131   -0.808308    0.185100
     10          1           0       -3.049601   -2.291468   -1.268580
     11          1           0        1.347409   -2.320190    0.081370
     12          6           0        3.022809   -0.966630    0.268650
     13          1           0        0.519420    1.862381   -0.532050
     14          6           0        2.560460    1.363840   -0.057880
     15          1           0       -2.849011   -0.821388    1.132760
     16          6           0       -4.683511   -1.669508    0.348520
     17          6           0       -3.773440    0.658382   -0.158560
     18          6           0        3.479980    0.353560    0.220450
     19          6           0        3.991939   -2.062120    0.641260
     20          6           0        3.010591    2.796700   -0.169850
     21          1           0       -5.127611   -1.804618   -0.654950
     22          1           0       -4.380381   -2.668368    0.697910
     23          6           0       -5.740501   -1.063278    1.266570
     24          1           0       -4.149250    0.639772   -1.195280
     25          7           0       -2.550950    1.508742   -0.187470
     26          6           0       -4.879780    1.222392    0.748490
     27          1           0        4.528340    0.587190    0.396280
     28          9           0        4.094909   -2.189330    1.998060
     29          9           0        5.245959   -1.810521    0.179180
     30          9           0        3.617669   -3.271470    0.160280
     31          9           0        4.169821    3.030120    0.492370
     32          9           0        2.079131    3.660630    0.330530
     33          9           0        3.213841    3.162010   -1.468280
     34          1           0       -5.353581   -1.002428    2.298560
     35          1           0       -6.620471   -1.723147    1.299540
     36          6           0       -6.122020    0.334593    0.784360
     37          6           0       -2.142960    2.038681    1.116770
     38          6           0       -2.626400    2.572672   -1.186810
     39          1           0       -2.088560    1.228491    1.856590
     40          1           0       -2.817939    2.824422    1.502800
     41          1           0       -1.137810    2.474621    1.027330
     42          1           0       -3.417319    3.317822   -0.969240
     43          1           0       -1.666489    3.108101   -1.223400
     44          1           0       -2.814570    2.137072   -2.177060
     45          1           0       -5.135300    2.240752    0.415710
     46          1           0       -4.499020    1.315242    1.778780
     47          1           0       -6.571260    0.268713   -0.221950
     48          1           0       -6.883350    0.780703    1.442030
 ---------------------------------------------------------------------

 SCF Done:  E(RHF) =  -1814.16154350     A.U. after    2 cycles

 The electronic state is 1-A.
 Alpha  occ. eigenvalues --  -93.47422 -26.17159 -26.17065 -26.16519 -26.16168
 Alpha  occ. eigenvalues --  -26.16141 -26.15671 -15.67147 -15.66248 -15.65533
 Alpha  occ. eigenvalues --  -11.53928 -11.53054 -11.39255 -11.32481 -11.30817
 Alpha  occ. eigenvalues --  -11.29782 -11.29470 -11.29115 -11.28841 -11.28782
 Alpha  occ. eigenvalues --  -11.28370 -11.28239 -11.27575 -11.26249 -11.25808
 Alpha  occ. eigenvalues --  -11.25621 -11.25546  -8.77384  -6.11659  -6.11133
 Alpha  occ. eigenvalues --   -6.11060  -1.75767  -1.74896  -1.69225  -1.68652
 Alpha  occ. eigenvalues --   -1.68326  -1.67782  -1.29153  -1.23548  -1.21547
 Alpha  occ. eigenvalues --   -1.17504  -1.12299  -1.10562  -1.06388  -1.03111
 Alpha  occ. eigenvalues --   -1.02515  -1.00877  -1.00054  -0.98180  -0.95747
 Alpha  occ. eigenvalues --   -0.90795  -0.90588  -0.89959  -0.87534  -0.87464
 Alpha  occ. eigenvalues --   -0.87013  -0.86674  -0.86170  -0.85754  -0.82450
 Alpha  occ. eigenvalues --   -0.79765  -0.78804  -0.77679  -0.77547  -0.77363
 Alpha  occ. eigenvalues --   -0.76507  -0.75872  -0.73976  -0.72861  -0.72790
 Alpha  occ. eigenvalues --   -0.72161  -0.71900  -0.71891  -0.71259  -0.70996
 Alpha  occ. eigenvalues --   -0.69960  -0.69539  -0.67108  -0.66309  -0.65672
 Alpha  occ. eigenvalues --   -0.64952  -0.63414  -0.62799  -0.62187  -0.61500
 Alpha  occ. eigenvalues --   -0.60332  -0.59670  -0.58142  -0.56764  -0.56547
 Alpha  occ. eigenvalues --   -0.55985  -0.54664  -0.54495  -0.54256  -0.53293
 Alpha  occ. eigenvalues --   -0.51934  -0.51579  -0.51118  -0.48976  -0.48495
 Alpha  occ. eigenvalues --   -0.47467  -0.44041  -0.38939  -0.38628  -0.34780
 Alpha  occ. eigenvalues --   -0.32066  -0.31599
 Alpha virt. eigenvalues --    0.01774   0.02512   0.02757   0.03756   0.04824
 Alpha virt. eigenvalues --    0.04995   0.05065   0.05343   0.05698   0.06139
 Alpha virt. eigenvalues --    0.06972   0.07158   0.07252   0.07269   0.07537

 Mulliken charges:
               1
     1  H   -0.114399
     2  N   -0.066314
     3  C    0.022263
     4  C   -0.980740
     5  N   -0.445891
     6  S   -0.127177
     7  C    1.020803
     8  C    0.611353
     9  C   -0.026418
    10  H    0.068514
    11  H   -0.715700
    12  C    1.081321
    13  H   -0.770422
    14  C    0.764382
    15  H   -0.356217
    16  C    0.727007
    17  C   -0.244110
    18  C   -0.108150
    19  C    0.977116
    20  C    0.930829
    21  H   -0.031734
    22  H   -0.122470
    23  C    0.486287
    24  H   -0.283085
    25  N   -0.755999
    26  C    0.426013
    27  H   -0.615949
    28  F   -0.374420
    29  F   -0.362249
    30  F   -0.341406
    31  F   -0.338632
    32  F   -0.371888
    33  F   -0.365562
    34  H   -0.033678
    35  H   -0.110208
    36  C    0.443098
    37  C    1.143648
    38  C    0.927189
    39  H   -0.155094
    40  H   -0.177291
    41  H   -0.379130
    42  H   -0.058090
    43  H   -0.278673
    44  H   -0.139615
    45  H   -0.170774
    46  H   -0.056022
    47  H   -0.065925
    48  H   -0.086392
 Sum of Mulliken charges =  -0.00000

 Dipole moment (field-independent basis, Debye):
    X=             -9.1395    Y=              4.0881    Z=              2.2753  Tot=             10.2674

 Test job not archived.
 1\1\GINC-SE437\SP\RHF\Aug-CC-pVDZ\C17H21F6N3S1\OHZDE\08-Apr-2025\0\\#t
  hf aug-cc-pvdz iop(5/13=1,5/36=2,99/5=2) pseudo=read geom=check guess
 =(read,tcheck) scf=(maxcycle=1)\\title\\0,1\H,0,1.2242,0.36921,0.38401
 \N,0,0.59913,-0.48059,0.42239\C,0,1.24215,-1.58255,0.916\C,0,-0.76504,
 -0.26468,0.24051\N,0,2.61498,-1.46684,0.86014\S,0,0.54273,-2.92952,1.6
 1631\C,0,-1.68511,-1.28743,-0.04647\C,0,-1.22025,1.06156,0.29395\C,0,3
 .41913,-0.80831,-0.1851\H,0,3.0496,-2.29147,1.26858\H,0,-1.34741,-2.32
 019,-0.08137\C,0,-3.02281,-0.96663,-0.26865\H,0,-0.51942,1.86238,0.532

 Normal termination of Gaussian 16 at Tue Apr  8 18:44:21 2025.
