 Gaussian 16, Revision C.01,

 ----------------------------------------------------------------------
 #t hf aug-cc-pvdz symm=none int=(grid=ultrafine) guess=(read,tcheck) s
 table=(opt,rrhf)
 ----------------------------------------------------------------------
 -----
 title
 -----
 Symbolic Z-matrix:
 Charge =  0 Multiplicity = 1

 SCF Done:  E(RHF) =  -1542.37124881     A.U. after   17 cycles
 Normal termination of Gaussian 16 at Tue Apr  8 18:02:28 2025.
 Gaussian 16:  ES64L-G16RevC.01  3-Jul-2019

 ----------------------------------------------------------------------
 #t hf aug-cc-pvdz iop(5/13=1,5/36=2,99/5=2) pseudo=read geom=check gue
 ss=(read,tcheck) scf=(maxcycle=1)
 ----------------------------------------------------------------------
 -----
 title
 -----
 Structure from the checkpoint file:  "37Conf8_Indometacin_2_mol2.chk"
 Charge =  0 Multiplicity = 1

                         Standard orientation:
 ---------------------------------------------------------------------
 Center     Atomic      Atomic             Coordinates (Angstroms)
 Number     Number       Type             X           Y           Z
 ---------------------------------------------------------------------
      1          1           0       -5.569039   -1.284741    2.520750
      2          8           0       -5.428549   -1.245111    1.551450
      3          6           0       -4.086889   -1.423060    1.366410
      4          6           0       -3.741099   -1.451160   -0.114840
      5          8           0       -3.310919   -1.566740    2.285390
      6          6           0       -2.332249   -1.059660   -0.403220
      7          1           0       -4.454209   -0.807940   -0.652360
      8          1           0       -3.949149   -2.477600   -0.458700
      9          6           0       -1.859590    0.299360   -0.468710
     10          6           0       -1.259009   -1.896120   -0.600760
     11          6           0       -2.528890    1.530960   -0.378230
     12          6           0       -0.466260    0.253130   -0.700260
     13          7           0       -0.098549   -1.109390   -0.761900
     14          6           0       -1.215229   -3.382490   -0.559560
     15          1           0       -3.601340    1.558740   -0.189800
     16          6           0       -1.785790    2.700700   -0.549060
     17          6           0        0.265430    1.424821   -0.914650
     18          6           0        1.183151   -1.635059   -1.032320
     19          1           0       -0.970449   -3.815090   -1.538750
     20          1           0       -2.186109   -3.768360   -0.224750
     21          1           0       -0.451159   -3.742450    0.144850
     22          8           0       -2.308350    3.964930   -0.480210
     23          6           0       -0.403210    2.640160   -0.827030
     24          1           0        1.329490    1.409011   -1.142010
     25          6           0        2.345121   -0.906669   -0.450970
     26          8           0        1.325911   -2.672909   -1.665820
     27          6           0       -3.699380    4.077430   -0.208990
     28          1           0        0.132110    3.577901   -0.976440
     29          6           0        3.569591   -0.953119   -1.132230
     30          6           0        2.276641   -0.278769    0.801660
     31          1           0       -4.305070    3.599130   -0.997840
     32          1           0       -3.916441    5.151370   -0.185600
     33          1           0       -3.958040    3.629810    0.765910
     34          1           0        3.618421   -1.469779   -2.091480
     35          6           0        4.703221   -0.353189   -0.593800
     36          1           0        1.331661   -0.251739    1.345110
     37          6           0        3.409850    0.302931    1.362940
     38          1           0        5.654221   -0.370088   -1.125300
     39          6           0        4.613460    0.271081    0.654010
     40          1           0        3.367310    0.780321    2.341350
     41         17           0        6.027040    1.014012    1.339380
 ---------------------------------------------------------------------

 SCF Done:  E(RHF) =  -1542.70820377     A.U. after    2 cycles

 The electronic state is 1-A.
 Alpha  occ. eigenvalues -- -103.67971 -20.63525 -20.60074 -20.57398 -20.57210
 Alpha  occ. eigenvalues --  -15.68983 -11.41032 -11.39866 -11.33483 -11.31372
 Alpha  occ. eigenvalues --  -11.30264 -11.30050 -11.28578 -11.28186 -11.28006
 Alpha  occ. eigenvalues --  -11.27758 -11.27507 -11.27429 -11.27425 -11.25979
 Alpha  occ. eigenvalues --  -11.25589 -11.24762 -11.24659 -11.24592 -11.24347
 Alpha  occ. eigenvalues --  -10.71270  -8.37009  -8.36695  -8.36681  -1.42664
 Alpha  occ. eigenvalues --   -1.37550  -1.36790  -1.33068  -1.27515  -1.21597
 Alpha  occ. eigenvalues --   -1.15520  -1.13556  -1.10363  -1.04372  -1.04028
 Alpha  occ. eigenvalues --   -1.03027  -1.01926  -1.00357  -0.96499  -0.92067
 Alpha  occ. eigenvalues --   -0.89141  -0.86687  -0.84678  -0.83233  -0.82395
 Alpha  occ. eigenvalues --   -0.78786  -0.75681  -0.74293  -0.72573  -0.71315
 Alpha  occ. eigenvalues --   -0.70021  -0.69639  -0.68206  -0.67716  -0.67002
 Alpha  occ. eigenvalues --   -0.66519  -0.65933  -0.64425  -0.64304  -0.62811
 Alpha  occ. eigenvalues --   -0.62262  -0.61636  -0.60351  -0.60105  -0.58903
 Alpha  occ. eigenvalues --   -0.57862  -0.57243  -0.56653  -0.55997  -0.55409
 Alpha  occ. eigenvalues --   -0.54498  -0.54107  -0.53734  -0.53110  -0.52625
 Alpha  occ. eigenvalues --   -0.51665  -0.50779  -0.49420  -0.48520  -0.47994
 Alpha  occ. eigenvalues --   -0.47958  -0.46741  -0.44983  -0.39454  -0.36915
 Alpha  occ. eigenvalues --   -0.35838  -0.30713  -0.29480
 Alpha virt. eigenvalues --    0.02755   0.03412   0.03617   0.03972   0.04443
 Alpha virt. eigenvalues --    0.04727   0.05003   0.05417   0.05655   0.06179
 Alpha virt. eigenvalues --    0.06612   0.06891   0.07378   0.07667   0.07967

 Mulliken charges:
               1
     1  H    0.215954
     2  O   -0.563269
     3  C    0.730610
     4  C    0.044532
     5  O   -0.507726
     6  C    0.725307
     7  H    0.033996
     8  H    0.056366
     9  C   -0.656402
    10  C   -0.651404
    11  C    1.197684
    12  C    0.657306
    13  N   -0.742080
    14  C    0.578261
    15  H   -0.782497
    16  C   -0.283510
    17  C    0.817960
    18  C   -0.921003
    19  H    0.209281
    20  H   -0.088308
    21  H    0.232862
    22  O   -0.669350
    23  C    0.509846
    24  H   -0.500477
    25  C    1.113021
    26  O   -0.492307
    27  C    0.882241
    28  H   -0.669557
    29  C    0.341975
    30  C    0.989384
    31  H   -0.052428
    32  H   -0.337087
    33  H   -0.033775
    34  H   -0.636286
    35  C    0.832926
    36  H   -0.685099
    37  C    0.553038
    38  H   -0.432484
    39  C   -0.198139
    40  H   -0.478444
    41  Cl  -0.340918
 Sum of Mulliken charges =  -0.00000

 Dipole moment (field-independent basis, Debye):
    X=             -2.7878    Y=              0.7374    Z=              0.0984  Tot=              2.8853

 Test job not archived.
 1\1\GINC-SE186\SP\RHF\Aug-CC-pVDZ\C19H16Cl1N1O4\OHZDE\08-Apr-2025\0\\#
 t hf aug-cc-pvdz iop(5/13=1,5/36=2,99/5=2) pseudo=read geom=check gues
 s=(read,tcheck) scf=(maxcycle=1)\\title\\0,1\H,0,-5.56904,-1.28474,2.5
 2075\O,0,-5.42855,-1.24511,1.55145\C,0,-4.08689,-1.42306,1.36641\C,0,-
 3.7411,-1.45116,-0.11484\O,0,-3.31092,-1.56674,2.28539\C,0,-2.33225,-1
 .05966,-0.40322\H,0,-4.45421,-0.80794,-0.65236\H,0,-3.94915,-2.4776,-0
 .4587\C,0,-1.85959,0.29936,-0.46871\C,0,-1.25901,-1.89612,-0.60076\C,0
 ,-2.52889,1.53096,-0.37823\C,0,-0.46626,0.25313,-0.70026\N,0,-0.09855,

 Normal termination of Gaussian 16 at Tue Apr  8 18:04:35 2025.
