 Gaussian 16, Revision C.01,

 ----------------------------------------------------------------------
 #t hf aug-cc-pvdz symm=none int=(grid=ultrafine) guess=(read,tcheck) s
 table=(opt,rrhf)
 ----------------------------------------------------------------------
 -----
 title
 -----
 Symbolic Z-matrix:
 Charge =  0 Multiplicity = 1

 SCF Done:  E(RHF) =  -1673.88318717     A.U. after   16 cycles
 Normal termination of Gaussian 16 at Tue Apr  8 17:58:16 2025.
 Gaussian 16:  ES64L-G16RevC.01  3-Jul-2019

 ----------------------------------------------------------------------
 #t hf aug-cc-pvdz iop(5/13=1,5/36=2,99/5=2) pseudo=read geom=check gue
 ss=(read,tcheck) scf=(maxcycle=1)
 ----------------------------------------------------------------------
 -----
 title
 -----
 Structure from the checkpoint file:  "37Conf8_Pantoprazole_6_mol1.chk"
 Charge =  0 Multiplicity = 1

                         Standard orientation:
 ---------------------------------------------------------------------
 Center     Atomic      Atomic             Coordinates (Angstroms)
 Number     Number       Type             X           Y           Z
 ---------------------------------------------------------------------
      1          1           0       -6.935960   -0.389639   -0.543699
      2          6           0       -5.906830   -0.035829   -0.576929
      3          6           0       -5.618770    1.225661   -1.098109
      4          6           0       -4.847610   -0.825959   -0.116739
      5          1           0       -6.433460    1.861841   -1.455669
      6          7           0       -4.387740    1.732020   -1.202339
      7          8           0       -4.971421   -2.084089    0.375611
      8          6           0       -3.544570   -0.286350   -0.182949
      9          6           0       -3.363070    0.981520   -0.756039
     10          6           0       -6.286561   -2.644359    0.430481
     11          8           0       -2.433700   -0.996990    0.227231
     12          6           0       -1.990430    1.554770   -0.914989
     13          1           0       -6.730671   -2.710679   -0.575029
     14          1           0       -6.161581   -3.650649    0.843881
     15          1           0       -6.943881   -2.053359    1.087451
     16          6           0       -2.406720   -1.377170    1.624361
     17         16           0       -1.123350    1.847080    0.736731
     18          1           0       -1.340280    0.930290   -1.540309
     19          1           0       -2.054480    2.564770   -1.338639
     20          6           0        0.400770    0.950339    0.300861
     21          8           0       -0.798019    3.295380    0.829221
     22          7           0        1.607540    1.420869    0.515011
     23          7           0        0.380040   -0.358331   -0.136259
     24          6           0        2.453250    0.371419    0.182011
     25          1           0       -0.468600   -0.894030   -0.316729
     26          6           0        1.700940   -0.762871   -0.225109
     27          6           0        3.854210    0.319489    0.221791
     28          6           0        2.309719   -1.960891   -0.604179
     29          1           0        4.425830    1.173449    0.581861
     30          6           0        4.450260   -0.874941   -0.173449
     31          1           0        1.734999   -2.832901   -0.918049
     32          6           0        3.699649   -1.997921   -0.577429
     33          8           0        5.830470   -1.071482   -0.181549
     34          1           0        4.240209   -2.897571   -0.870829
     35          6           0        6.626760    0.037628   -0.326629
     36          9           0        7.825530   -0.395062   -0.790169
     37          9           0        6.859740    0.640818    0.888901
     38          1           0        6.202190    0.792048   -1.010479
     39          1           0       -1.395450   -1.757130    1.812671
     40          1           0       -3.148201   -2.158120    1.830951
     41          1           0       -2.588000   -0.495070    2.255671
 ---------------------------------------------------------------------

 SCF Done:  E(RHF) =  -1674.31451112     A.U. after    2 cycles

 The electronic state is 1-A.
 Alpha  occ. eigenvalues --  -93.68446 -26.14491 -26.13887 -20.64370 -20.63215
 Alpha  occ. eigenvalues --  -20.63095 -20.53351 -15.69708 -15.64971 -15.63646
 Alpha  occ. eigenvalues --  -11.48687 -11.36290 -11.35704 -11.33400 -11.33288
 Alpha  occ. eigenvalues --  -11.32862 -11.32292 -11.31791 -11.31169 -11.29888
 Alpha  occ. eigenvalues --  -11.29571 -11.28722 -11.27561 -11.27275 -11.26134
 Alpha  occ. eigenvalues --  -11.26101  -8.96659  -6.30955  -6.30807  -6.30478
 Alpha  occ. eigenvalues --   -1.70978  -1.66018  -1.41752  -1.40671  -1.38646
 Alpha  occ. eigenvalues --   -1.33412  -1.31287  -1.25319  -1.16295  -1.14728
 Alpha  occ. eigenvalues --   -1.09999  -1.08833  -1.04357  -1.02567  -1.01310
 Alpha  occ. eigenvalues --   -0.99652  -0.97843  -0.95442  -0.91684  -0.87527
 Alpha  occ. eigenvalues --   -0.86590  -0.85823  -0.84206  -0.83308  -0.82330
 Alpha  occ. eigenvalues --   -0.81781  -0.78445  -0.76396  -0.75477  -0.74610
 Alpha  occ. eigenvalues --   -0.73447  -0.72555  -0.71377  -0.70648  -0.70325
 Alpha  occ. eigenvalues --   -0.69981  -0.68219  -0.67345  -0.66357  -0.65456
 Alpha  occ. eigenvalues --   -0.64751  -0.64661  -0.63927  -0.63222  -0.63038
 Alpha  occ. eigenvalues --   -0.62461  -0.60815  -0.59212  -0.58548  -0.57989
 Alpha  occ. eigenvalues --   -0.57730  -0.57133  -0.56501  -0.56216  -0.55040
 Alpha  occ. eigenvalues --   -0.53868  -0.53404  -0.53027  -0.50775  -0.48147
 Alpha  occ. eigenvalues --   -0.46063  -0.44788  -0.44436  -0.43627  -0.40081
 Alpha  occ. eigenvalues --   -0.38022  -0.36010  -0.33157  -0.31461
 Alpha virt. eigenvalues --    0.01527   0.02505   0.03124   0.03587   0.04233
 Alpha virt. eigenvalues --    0.04342   0.04833   0.05004   0.05807   0.06347
 Alpha virt. eigenvalues --    0.06539   0.07211   0.07330   0.07631   0.07838

 Mulliken charges:
               1
     1  H   -0.648508
     2  C    1.504044
     3  C    0.465733
     4  C   -0.365288
     5  H   -0.408423
     6  N   -0.360639
     7  O   -0.758850
     8  C    0.331123
     9  C   -0.059548
    10  C    0.878321
    11  O   -0.735423
    12  C    0.194759
    13  H   -0.066699
    14  H   -0.306732
    15  H   -0.069199
    16  C    0.811871
    17  S    1.548889
    18  H   -0.081891
    19  H   -0.103792
    20  C   -0.355493
    21  O   -1.083896
    22  N   -0.798366
    23  N   -0.505104
    24  C   -0.393261
    25  H   -0.082007
    26  C   -0.023799
    27  C    1.481513
    28  C    1.359678
    29  H   -0.634653
    30  C    0.174411
    31  H   -0.586066
    32  C    1.044836
    33  O   -0.761227
    34  H   -0.578416
    35  C    1.224916
    36  F   -0.301505
    37  F   -0.387118
    38  H   -0.204972
    39  H   -0.230660
    40  H   -0.174124
    41  H    0.045568
 Sum of Mulliken charges =  -0.00000

 Dipole moment (field-independent basis, Debye):
    X=            -10.3391    Y=             -7.5867    Z=             -1.7912  Tot=             12.9485

 Test job not archived.
 1\1\GINC-SE453\SP\RHF\Aug-CC-pVDZ\C16H15F2N3O4S1\OHZDE\08-Apr-2025\0\\
 #t hf aug-cc-pvdz iop(5/13=1,5/36=2,99/5=2) pseudo=read geom=check gue
 ss=(read,tcheck) scf=(maxcycle=1)\\title\\0,1\H,0,-6.93596,-0.38964,-0
 .5437\C,0,-5.90683,-0.03583,-0.57693\C,0,-5.61877,1.22566,-1.09811\C,0
 ,-4.84761,-0.82596,-0.11674\H,0,-6.43346,1.86184,-1.45567\N,0,-4.38774
 ,1.73202,-1.20234\O,0,-4.97142,-2.08409,0.37561\C,0,-3.54457,-0.28635,
 -0.18295\C,0,-3.36307,0.98152,-0.75604\C,0,-6.28656,-2.64436,0.43048\O
 ,0,-2.4337,-0.99699,0.22723\C,0,-1.99043,1.55477,-0.91499\H,0,-6.73067

 Normal termination of Gaussian 16 at Tue Apr  8 17:59:50 2025.
