 Gaussian 16, Revision C.01,

 ----------------------------------------------------------------------
 #t hf aug-cc-pvdz symm=none int=(grid=ultrafine) guess=(read,tcheck) s
 table=(opt,rrhf)
 ----------------------------------------------------------------------
 -----
 title
 -----
 Symbolic Z-matrix:
 Charge =  0 Multiplicity = 1

 SCF Done:  E(RHF) =  -1667.16735860     A.U. after   12 cycles
 Normal termination of Gaussian 16 at Tue Apr  8 17:19:48 2025.
 Gaussian 16:  ES64L-G16RevC.01  3-Jul-2019

 ----------------------------------------------------------------------
 #t hf aug-cc-pvdz iop(5/13=1,5/36=2,99/5=2) pseudo=read geom=check gue
 ss=(read,tcheck) scf=(maxcycle=1)
 ----------------------------------------------------------------------
 -----
 title
 -----
 Structure from the checkpoint file:  "37Conf8_N_iprit_8_mol1.chk"
 Charge =  0 Multiplicity = 1

                         Standard orientation:
 ---------------------------------------------------------------------
 Center     Atomic      Atomic             Coordinates (Angstroms)
 Number     Number       Type             X           Y           Z
 ---------------------------------------------------------------------
      1          1           0        1.691080   -0.349603    1.645732
      2          6           0        0.961609   -1.118192    1.358952
      3          6           0        1.575188   -2.019293    0.286062
      4          7           0       -0.299900   -0.462061    1.064592
      5          1           0        0.841108   -1.796982    2.233542
      6         17           0        1.949749   -1.200124   -1.273738
      7          1           0        0.911627   -2.854222    0.030442
      8          1           0        2.520087   -2.432504    0.662162
      9          6           0       -1.239981   -1.234400    0.274962
     10          6           0       -0.335169    0.986349    1.026852
     11          6           0       -2.691241   -0.788208    0.368772
     12          1           0       -0.967721   -1.315870   -0.798748
     13          1           0       -1.220382   -2.265040    0.675882
     14          6           0        0.277622    1.715338   -0.178288
     15          1           0       -1.388228    1.298530    1.080842
     16          1           0        0.142652    1.368568    1.942852
     17         17           0       -3.119249    0.544162   -0.781138
     18          1           0       -3.354612   -1.617728    0.099452
     19          1           0       -2.943390   -0.435688    1.376562
     20         17           0        2.027402    2.102346    0.067082
     21          1           0        0.213481    1.116608   -1.093658
     22          1           0       -0.218897    2.680259   -0.338528
 ---------------------------------------------------------------------

 SCF Done:  E(RHF) =  -1667.30864794     A.U. after    2 cycles

 The electronic state is 1-A.
 Alpha  occ. eigenvalues -- -103.65679-103.64825-103.63843 -15.62548 -11.31765
 Alpha  occ. eigenvalues --  -11.31049 -11.29570 -11.29155 -11.28808 -11.28077
 Alpha  occ. eigenvalues --  -10.68976 -10.68131 -10.67150  -8.34693  -8.34422
 Alpha  occ. eigenvalues --   -8.34409  -8.33851  -8.33578  -8.33560  -8.32867
 Alpha  occ. eigenvalues --   -8.32597  -8.32581  -1.22482  -1.16943  -1.15683
 Alpha  occ. eigenvalues --   -1.14757  -1.02407  -1.01922  -0.94344  -0.87103
 Alpha  occ. eigenvalues --   -0.85203  -0.77438  -0.69517  -0.68991  -0.64964
 Alpha  occ. eigenvalues --   -0.62891  -0.61889  -0.61058  -0.59801  -0.57224
 Alpha  occ. eigenvalues --   -0.56231  -0.55892  -0.53803  -0.51945  -0.51190
 Alpha  occ. eigenvalues --   -0.50208  -0.45652  -0.45447  -0.45345  -0.44811
 Alpha  occ. eigenvalues --   -0.43913  -0.42742  -0.35050
 Alpha virt. eigenvalues --    0.02590   0.03778   0.03834   0.04823   0.06004
 Alpha virt. eigenvalues --    0.06283   0.06642   0.07231   0.07791   0.08796
 Alpha virt. eigenvalues --    0.08930   0.09589   0.10471   0.11135   0.11286

 Mulliken charges:
               1
     1  H   -0.267780
     2  C    0.387239
     3  C    0.135143
     4  N   -0.196331
     5  H   -0.116578
     6  Cl  -0.158316
     7  H    0.018673
     8  H   -0.000919
     9  C    0.581518
    10  C    0.473048
    11  C    0.179788
    12  H   -0.113714
    13  H   -0.268993
    14  C    0.142466
    15  H   -0.283084
    16  H   -0.163739
    17  Cl  -0.132893
    18  H   -0.040675
    19  H   -0.014944
    20  Cl  -0.151322
    21  H   -0.044966
    22  H    0.036377
 Sum of Mulliken charges =  -0.00000

 Dipole moment (field-independent basis, Debye):
    X=             -1.8849    Y=             -3.0940    Z=              2.7595  Tot=              4.5542

 Test job not archived.
 1\1\GINC-SE437\SP\RHF\Aug-CC-pVDZ\C6H12Cl3N1\OHZDE\08-Apr-2025\0\\#t h
 f aug-cc-pvdz iop(5/13=1,5/36=2,99/5=2) pseudo=read geom=check guess=(
 read,tcheck) scf=(maxcycle=1)\\title\\0,1\H,0,1.69108,-0.3496,1.64573\
 C,0,0.96161,-1.11819,1.35895\C,0,1.57519,-2.01929,0.28606\N,0,-0.2999,
 -0.46206,1.06459\H,0,0.84111,-1.79698,2.23354\Cl,0,1.94975,-1.20012,-1
 .27374\H,0,0.91163,-2.85422,0.03044\H,0,2.52009,-2.4325,0.66216\C,0,-1
 .23998,-1.2344,0.27496\C,0,-0.33517,0.98635,1.02685\C,0,-2.69124,-0.78
 821,0.36877\H,0,-0.96772,-1.31587,-0.79875\H,0,-1.22038,-2.26504,0.675

 Normal termination of Gaussian 16 at Tue Apr  8 17:20:04 2025.
