 Gaussian 16, Revision C.01,

 ----------------------------------------------------------------------
 #t hf aug-cc-pvdz symm=none int=(grid=ultrafine) guess=(read,tcheck) s
 table=(opt,rrhf)
 ----------------------------------------------------------------------
 -----
 title
 -----
 Symbolic Z-matrix:
 Charge =  0 Multiplicity = 1

 SCF Done:  E(RHF) =  -917.597002551     A.U. after   12 cycles
 Normal termination of Gaussian 16 at Tue Apr  8 16:50:39 2025.
 Gaussian 16:  ES64L-G16RevC.01  3-Jul-2019

 ----------------------------------------------------------------------
 #t hf aug-cc-pvdz iop(5/13=1,5/36=2,99/5=2) pseudo=read geom=check gue
 ss=(read,tcheck) scf=(maxcycle=1)
 ----------------------------------------------------------------------
 -----
 title
 -----
 Structure from the checkpoint file:  "37Conf8_18crown6_6_mol1.chk"
 Charge =  0 Multiplicity = 1

                         Standard orientation:
 ---------------------------------------------------------------------
 Center     Atomic      Atomic             Coordinates (Angstroms)
 Number     Number       Type             X           Y           Z
 ---------------------------------------------------------------------
      1          1           0        3.592939    2.004389   -0.272840
      2          6           0        2.640857    1.438558   -0.293330
      3          1           0        2.345979    1.312498   -1.353320
      4          8           0        2.782033    0.174465    0.339930
      5          6           0        1.540303    2.182732    0.443750
      6          6           0        3.669436   -0.704255   -0.338250
      7          1           0        0.660434    1.526450    0.529500
      8          1           0        1.868225    2.452123    1.466790
      9          8           0        1.236430    3.358275   -0.305840
     10          1           0        3.471813   -0.683715   -1.427930
     11          1           0        4.723741   -0.394265   -0.177670
     12          6           0        3.476145   -2.122996    0.172180
     13          6           0        0.100457    4.071010    0.170970
     14          1           0        3.504404   -2.127965    1.278660
     15          1           0        4.313559   -2.737830   -0.193840
     16          8           0        2.290925   -2.748896   -0.306700
     17          1           0        0.214011    5.103475   -0.195590
     18          1           0        0.089065    4.098703    1.277450
     19          6           0       -1.223858    3.527772   -0.340790
     20          6           0        1.120893   -2.426720    0.443910
     21          1           0       -2.019918    4.285974   -0.183150
     22          1           0       -1.140844    3.344317   -1.429990
     23          8           0       -1.542405    2.321169    0.339150
     24          1           0        1.189084   -2.850871    1.464760
     25          1           0        0.993704   -1.336902    0.535170
     26          6           0       -0.074022   -3.002608   -0.296890
     27          6           0       -2.565114    1.565779   -0.295140
     28          1           0       -0.034924   -2.678569   -1.355130
     29          1           0       -0.060958   -4.110152   -0.282290
     30          8           0       -1.239318   -2.495293    0.338380
     31          1           0       -3.530499    2.108783   -0.280410
     32          1           0       -2.304714    1.369190   -1.353420
     33          6           0       -2.664286    0.243340    0.446240
     34          6           0       -2.444068   -2.823968   -0.339980
     35          1           0       -1.656918   -0.191347    0.538330
     36          1           0       -3.066429    0.396692    1.466760
     37          8           0       -3.527805   -0.609078   -0.304730
     38          1           0       -2.701772   -3.892549   -0.181410
     39          1           0       -2.328078   -2.660843   -1.429390
     40          6           0       -3.576592   -1.949103    0.172580
     41          1           0       -4.527629   -2.367415   -0.193160
     42          1           0       -3.594079   -1.972548    1.279050
 ---------------------------------------------------------------------

 SCF Done:  E(RHF) =  -917.884364923     A.U. after    2 cycles

 The electronic state is 1-A.
 Alpha  occ. eigenvalues --  -20.57322 -20.57322 -20.57321 -20.56898 -20.56896
 Alpha  occ. eigenvalues --  -20.56896 -11.29043 -11.29043 -11.29042 -11.28925
 Alpha  occ. eigenvalues --  -11.28925 -11.28925 -11.28497 -11.28497 -11.28496
 Alpha  occ. eigenvalues --  -11.27755 -11.27753 -11.27752  -1.34523  -1.34029
 Alpha  occ. eigenvalues --   -1.34028  -1.32323  -1.32321  -1.31656  -1.05464
 Alpha  occ. eigenvalues --   -1.03115  -1.03113  -0.97300  -0.97299  -0.92069
 Alpha  occ. eigenvalues --   -0.86367  -0.83255  -0.83252  -0.82812  -0.81509
 Alpha  occ. eigenvalues --   -0.81505  -0.71146  -0.70116  -0.70113  -0.68600
 Alpha  occ. eigenvalues --   -0.68599  -0.68168  -0.66567  -0.66564  -0.65870
 Alpha  occ. eigenvalues --   -0.63173  -0.63172  -0.62195  -0.62040  -0.62038
 Alpha  occ. eigenvalues --   -0.60971  -0.58172  -0.57331  -0.57321  -0.54357
 Alpha  occ. eigenvalues --   -0.54355  -0.53911  -0.51065  -0.51060  -0.50809
 Alpha  occ. eigenvalues --   -0.49633  -0.49245  -0.49243  -0.48102  -0.47433
 Alpha  occ. eigenvalues --   -0.47429  -0.44821  -0.44455  -0.44454  -0.42248
 Alpha  occ. eigenvalues --   -0.41861  -0.41858
 Alpha virt. eigenvalues --    0.03485   0.03978   0.03979   0.04297   0.05041
 Alpha virt. eigenvalues --    0.05042   0.05406   0.05551   0.05553   0.06210
 Alpha virt. eigenvalues --    0.06981   0.07245   0.07250   0.08052   0.08056

 Mulliken charges:
               1
     1  H   -0.145139
     2  C    0.440223
     3  H   -0.165123
     4  O   -0.614756
     5  C    1.054551
     6  C    0.482192
     7  H   -0.376370
     8  H   -0.153980
     9  O   -0.704313
    10  H   -0.096199
    11  H   -0.137370
    12  C    0.654139
    13  C    0.652517
    14  H   -0.013948
    15  H   -0.225586
    16  O   -0.705254
    17  H   -0.226104
    18  H   -0.014125
    19  C    0.482583
    20  C    1.057757
    21  H   -0.137524
    22  H   -0.095375
    23  O   -0.615029
    24  H   -0.155656
    25  H   -0.369961
    26  C    0.436656
    27  C    0.433991
    28  H   -0.165926
    29  H   -0.144397
    30  O   -0.615519
    31  H   -0.144018
    32  H   -0.165742
    33  C    1.059160
    34  C    0.481232
    35  H   -0.367090
    36  H   -0.156512
    37  O   -0.705375
    38  H   -0.137685
    39  H   -0.095221
    40  C    0.653730
    41  H   -0.225712
    42  H   -0.013724
 Sum of Mulliken charges =  -0.00000

 Dipole moment (field-independent basis, Debye):
    X=              0.0004    Y=             -0.0017    Z=             -0.1181  Tot=              0.1181

 Test job not archived.
 1\1\GINC-SE078\SP\RHF\Aug-CC-pVDZ\C12H24O6\OHZDE\08-Apr-2025\0\\#t hf
 aug-cc-pvdz iop(5/13=1,5/36=2,99/5=2) pseudo=read geom=check guess=(re
 ad,tcheck) scf=(maxcycle=1)\\title\\0,1\H,0,3.59233,2.00548,-0.27284\C
 ,0,2.64042,1.43936,-0.29333\H,0,2.34558,1.31321,-1.35332\O,0,2.78198,0
 .17531,0.33993\C,0,1.53964,2.1832,0.44375\C,0,3.66965,-0.70314,-0.3382
 5\H,0,0.65997,1.52665,0.5295\H,0,1.86748,2.45269,1.46679\O,0,1.23541,3
 .35865,-0.30584\H,0,3.47202,-0.68266,-1.42793\H,0,4.72386,-0.39283,-0.
 17767\C,0,3.47679,-2.12194,0.17218\C,0,0.09922,4.07104,0.17097\H,0,3.5

 Normal termination of Gaussian 16 at Tue Apr  8 16:51:59 2025.
