 Gaussian 16, Revision C.01,

 ----------------------------------------------------------------------
 #t hf aug-cc-pvdz symm=none int=(grid=ultrafine) guess=(read,tcheck) s
 table=(opt,rrhf)
 ----------------------------------------------------------------------
 -----
 title
 -----
 Symbolic Z-matrix:
 Charge =  0 Multiplicity = 1

 SCF Done:  E(RHF) =  -787.712420752     A.U. after   16 cycles
 Normal termination of Gaussian 16 at Tue Apr  8 17:20:51 2025.
 Gaussian 16:  ES64L-G16RevC.01  3-Jul-2019

 ----------------------------------------------------------------------
 #t hf aug-cc-pvdz iop(5/13=1,5/36=2,99/5=2) pseudo=read geom=check gue
 ss=(read,tcheck) scf=(maxcycle=1)
 ----------------------------------------------------------------------
 -----
 title
 -----
 Structure from the checkpoint file:  "37Conf8_Eperisone_6_mol1.chk"
 Charge =  0 Multiplicity = 1

                         Standard orientation:
 ---------------------------------------------------------------------
 Center     Atomic      Atomic             Coordinates (Angstroms)
 Number     Number       Type             X           Y           Z
 ---------------------------------------------------------------------
      1          8           0       -0.589350    3.000960    0.112748
      2          6           0       -0.490099    1.810950   -0.169552
      3          6           0        0.841261    1.235410   -0.651212
      4          6           0       -1.663209    0.893769   -0.004122
      5          6           0        1.552321    0.605540    0.572158
      6          6           0        1.711561    2.297890   -1.314812
      7          1           0        0.627401    0.433940   -1.375802
      8          6           0       -1.632889   -0.472541   -0.327082
      9          6           0       -2.855249    1.431009    0.510908
     10          7           0        2.805391   -0.041270    0.226438
     11          1           0        1.769991    1.417190    1.284738
     12          1           0        0.857411   -0.100530    1.082898
     13          6           0        3.667011   -0.290160    1.378398
     14          6           0        2.606661   -1.258450   -0.565612
     15          1           0        3.295431   -1.146060    1.988488
     16          1           0        3.631191    0.592210    2.033218
     17          6           0        5.110021   -0.548980    0.907178
     18          1           0        1.766111   -1.865260   -0.152332
     19          1           0        2.315501   -0.963050   -1.587022
     20          6           0        3.884161   -2.114880   -0.618122
     21          1           0        5.662831    0.400660    0.857758
     22          1           0        5.621201   -1.180540    1.651058
     23          6           0        5.122351   -1.231620   -0.473352
     24          1           0        3.903941   -2.686710   -1.557242
     25          1           0        3.874021   -2.855690    0.197818
     26          1           0        6.041881   -1.820790   -0.604782
     27          1           0        5.115361   -0.468550   -1.266842
     28          1           0        1.856100    3.149990   -0.637482
     29          1           0        2.692971    1.872230   -1.561022
     30          1           0        1.241960    2.677550   -2.232702
     31          1           0       -0.723929   -0.927011   -0.722202
     32          6           0       -2.759279   -1.271271   -0.140902
     33          1           0       -2.868479    2.491829    0.765338
     34          6           0       -3.975819    0.630539    0.692628
     35          1           0       -2.715549   -2.333701   -0.393252
     36          6           0       -3.949679   -0.736041    0.369528
     37          1           0       -4.893059    1.065369    1.098068
     38          6           0       -5.181749   -1.589591    0.519788
     39          6           0       -6.066439   -1.553701   -0.735742
     40          1           0       -5.764649   -1.242131    1.387328
     41          1           0       -4.885489   -2.629311    0.729598
     42          1           0       -6.960629   -2.179991   -0.605562
     43          1           0       -6.395019   -0.527431   -0.954062
     44          1           0       -5.515049   -1.920231   -1.613572
 ---------------------------------------------------------------------

 SCF Done:  E(RHF) =  -787.943727394     A.U. after    2 cycles

 The electronic state is 1-A.
 Alpha  occ. eigenvalues --  -20.55231 -15.60943 -11.33853 -11.26558 -11.26461
 Alpha  occ. eigenvalues --  -11.26243 -11.26242 -11.25879 -11.25401 -11.25110
 Alpha  occ. eigenvalues --  -11.24946 -11.24877 -11.24728 -11.24501 -11.23728
 Alpha  occ. eigenvalues --  -11.23364 -11.22901 -11.22851 -11.21539  -1.33774
 Alpha  occ. eigenvalues --   -1.20784  -1.15552  -1.08467  -1.06782  -1.03552
 Alpha  occ. eigenvalues --   -1.01582  -1.00592  -0.99360  -0.92311  -0.89879
 Alpha  occ. eigenvalues --   -0.86396  -0.85329  -0.83688  -0.82636  -0.79642
 Alpha  occ. eigenvalues --   -0.74413  -0.72859  -0.70456  -0.67881  -0.66803
 Alpha  occ. eigenvalues --   -0.66320  -0.64753  -0.63128  -0.62634  -0.60751
 Alpha  occ. eigenvalues --   -0.60453  -0.59567  -0.58923  -0.58312  -0.57478
 Alpha  occ. eigenvalues --   -0.55955  -0.55695  -0.53981  -0.53624  -0.52999
 Alpha  occ. eigenvalues --   -0.52234  -0.51298  -0.50714  -0.50563  -0.49498
 Alpha  occ. eigenvalues --   -0.49346  -0.48791  -0.48476  -0.47516  -0.46285
 Alpha  occ. eigenvalues --   -0.44922  -0.44624  -0.41696  -0.35033  -0.34460
 Alpha  occ. eigenvalues --   -0.33655
 Alpha virt. eigenvalues --    0.02754   0.03233   0.03785   0.03953   0.04453
 Alpha virt. eigenvalues --    0.04653   0.04861   0.05750   0.06109   0.06260
 Alpha virt. eigenvalues --    0.06429   0.06808   0.06936   0.07163   0.07389

 Mulliken charges:
               1
     1  O   -0.580793
     2  C   -0.420663
     3  C   -0.460198
     4  C    1.684733
     5  C    0.421502
     6  C    1.226879
     7  H   -0.167485
     8  C    1.045867
     9  C   -0.192164
    10  N   -1.072908
    11  H   -0.297999
    12  H   -0.328082
    13  C    0.527634
    14  C    0.678189
    15  H   -0.090042
    16  H   -0.290509
    17  C    0.244040
    18  H   -0.124436
    19  H   -0.298112
    20  C    0.220533
    21  H   -0.057584
    22  H   -0.054148
    23  C    0.443290
    24  H   -0.062916
    25  H   -0.029630
    26  H   -0.125726
    27  H   -0.079719
    28  H    0.049417
    29  H    0.047755
    30  H   -0.093776
    31  H   -0.856698
    32  C   -0.556102
    33  H   -0.690148
    34  C    0.035540
    35  H   -0.653444
    36  C    1.382479
    37  H   -0.623960
    38  C    0.287303
    39  C    0.320778
    40  H   -0.082184
    41  H   -0.104838
    42  H   -0.058788
    43  H   -0.081537
    44  H   -0.081354
 Sum of Mulliken charges =  -0.00000

 Dipole moment (field-independent basis, Debye):
    X=             -0.6218    Y=             -4.3016    Z=             -0.0900  Tot=              4.3472

 Test job not archived.
 1\1\GINC-SE117\SP\RHF\Aug-CC-pVDZ\C17H25N1O1\OHZDE\08-Apr-2025\0\\#t h
 f aug-cc-pvdz iop(5/13=1,5/36=2,99/5=2) pseudo=read geom=check guess=(
 read,tcheck) scf=(maxcycle=1)\\title\\0,1\O,0,0.58935,3.00096,-0.11275
 \C,0,0.4901,1.81095,0.16955\C,0,-0.84126,1.23541,0.65121\C,0,1.66321,0
 .89377,0.00412\C,0,-1.55232,0.60554,-0.57216\C,0,-1.71156,2.29789,1.31
 481\H,0,-0.6274,0.43394,1.3758\C,0,1.63289,-0.47254,0.32708\C,0,2.8552
 5,1.43101,-0.51091\N,0,-2.80539,-0.04127,-0.22644\H,0,-1.76999,1.41719
 ,-1.28474\H,0,-0.85741,-0.10053,-1.0829\C,0,-3.66701,-0.29016,-1.3784\

 Normal termination of Gaussian 16 at Tue Apr  8 17:22:23 2025.
