 Gaussian 16, Revision C.01,

 ----------------------------------------------------------------------
 #t hf aug-cc-pvdz symm=none int=(grid=ultrafine) guess=(read,tcheck) s
 table=(opt,rrhf)
 ----------------------------------------------------------------------
 -----
 title
 -----
 Symbolic Z-matrix:
 Charge =  0 Multiplicity = 1

 SCF Done:  E(RHF) =  -983.486737892     A.U. after   14 cycles
 Normal termination of Gaussian 16 at Tue Apr  8 18:31:41 2025.
 Gaussian 16:  ES64L-G16RevC.01  3-Jul-2019

 ----------------------------------------------------------------------
 #t hf aug-cc-pvdz iop(5/13=1,5/36=2,99/5=2) pseudo=read geom=check gue
 ss=(read,tcheck) scf=(maxcycle=1)
 ----------------------------------------------------------------------
 -----
 title
 -----
 Structure from the checkpoint file:  "37Conf8_Tsogoeva_6_mol1.chk"
 Charge =  0 Multiplicity = 1

                         Standard orientation:
 ---------------------------------------------------------------------
 Center     Atomic      Atomic             Coordinates (Angstroms)
 Number     Number       Type             X           Y           Z
 ---------------------------------------------------------------------
      1          1           0        3.459249    1.944862   -1.204240
      2          8           0        4.289349    2.143613   -0.669140
      3          6           0        4.095959    1.426502    0.451550
      4          6           0        2.751529    0.675032    0.457210
      5          8           0        4.886089    1.370933    1.368470
      6          1           0        2.135969    1.152362    1.234180
      7          7           0        2.091849    0.799252   -0.867430
      8          6           0        2.938850   -0.843558    0.734440
      9          1           0        1.121319    1.091341   -0.752310
     10          6           0        2.137990   -0.539528   -1.489020
     11          1           0        3.989980   -1.127088    0.592810
     12          1           0        2.670710   -1.118888    1.762390
     13          6           0        2.057720   -1.530408   -0.314430
     14          1           0        3.101590   -0.669448   -2.007080
     15          1           0        1.331920   -0.675359   -2.218110
     16          1           0        2.430341   -2.525288   -0.603730
     17          7           0        0.693560   -1.646009    0.180150
     18          6           0       -0.307229   -2.232659   -0.521520
     19          1           0        0.437770   -1.403179    1.141480
     20          6           0       -1.655659   -2.281360    0.228880
     21          8           0       -0.196999   -2.676229   -1.665200
     22          1           0       -1.950089   -3.341490    0.246630
     23          7           0       -1.566260   -1.707250    1.597070
     24          6           0       -2.697730   -1.426150   -0.509690
     25          1           0       -1.771829   -2.400920    2.312580
     26          6           0       -2.451330   -0.534900    1.688170
     27          1           0       -3.708130   -1.842911   -0.369920
     28          1           0       -2.496650   -1.361640   -1.585430
     29          6           0       -2.599170   -0.081550    0.224310
     30          1           0       -3.454810   -0.777591    2.086110
     31          1           0       -2.016980    0.248870    2.327300
     32          1           0       -1.671701    0.421290   -0.085050
     33          7           0       -3.698111    0.818889   -0.024240
     34          6           0       -3.658971    2.177509   -0.231070
     35          1           0       -4.643781    0.442379    0.023650
     36          6           0       -2.286041    2.825660   -0.298230
     37          8           0       -4.694231    2.822889   -0.367040
     38          1           0       -1.703961    2.437230   -1.148080
     39          1           0       -2.431952    3.901670   -0.432430
     40          1           0       -1.705401    2.652450    0.620070
 ---------------------------------------------------------------------

 SCF Done:  E(RHF) =  -983.778912216     A.U. after    2 cycles

 The electronic state is 1-A.
 Alpha  occ. eigenvalues --  -20.61282 -20.55617 -20.55030 -20.54514 -15.66530
 Alpha  occ. eigenvalues --  -15.66446 -15.65839 -15.65342 -11.39530 -11.38147
 Alpha  occ. eigenvalues --  -11.37664 -11.31545 -11.31161 -11.31051 -11.30384
 Alpha  occ. eigenvalues --  -11.29843 -11.28782 -11.27001 -11.26994 -11.26737
 Alpha  occ. eigenvalues --   -1.40896  -1.35636  -1.35182  -1.32061  -1.25254
 Alpha  occ. eigenvalues --   -1.24751  -1.20993  -1.19268  -1.05696  -1.05091
 Alpha  occ. eigenvalues --   -1.02902  -1.01417  -1.00374  -0.88928  -0.88190
 Alpha  occ. eigenvalues --   -0.85436  -0.82982  -0.80765  -0.80573  -0.78498
 Alpha  occ. eigenvalues --   -0.74675  -0.74223  -0.73589  -0.72166  -0.69718
 Alpha  occ. eigenvalues --   -0.68566  -0.67081  -0.65774  -0.65632  -0.64159
 Alpha  occ. eigenvalues --   -0.63724  -0.63252  -0.62129  -0.60558  -0.60278
 Alpha  occ. eigenvalues --   -0.59098  -0.58678  -0.57625  -0.57210  -0.56858
 Alpha  occ. eigenvalues --   -0.55635  -0.55062  -0.54114  -0.53420  -0.52822
 Alpha  occ. eigenvalues --   -0.52269  -0.51950  -0.51414  -0.48539  -0.46958
 Alpha  occ. eigenvalues --   -0.46174  -0.45020  -0.42814  -0.40763  -0.40653
 Alpha  occ. eigenvalues --   -0.39867
 Alpha virt. eigenvalues --    0.01277   0.02150   0.02747   0.02953   0.04334
 Alpha virt. eigenvalues --    0.04769   0.05053   0.05401   0.05573   0.06591
 Alpha virt. eigenvalues --    0.06915   0.07061   0.07616   0.07704   0.08036

 Mulliken charges:
               1
     1  H    0.335600
     2  O   -0.498041
     3  C    0.757609
     4  C    0.003104
     5  O   -0.519919
     6  H   -0.094382
     7  N   -0.755974
     8  C    0.740963
     9  H   -0.005530
    10  C    1.236204
    11  H   -0.121104
    12  H   -0.157981
    13  C    0.050947
    14  H   -0.185929
    15  H   -0.145404
    16  H   -0.316951
    17  N   -0.124675
    18  C    0.314782
    19  H    0.038870
    20  C    0.416874
    21  O   -0.638235
    22  H   -0.046980
    23  N   -0.787118
    24  C    0.561241
    25  H    0.042278
    26  C    1.566232
    27  H   -0.075436
    28  H   -0.162098
    29  C   -0.829484
    30  H   -0.069107
    31  H   -0.147110
    32  H   -0.510656
    33  N   -0.094823
    34  C    0.518170
    35  H   -0.135552
    36  C    0.417358
    37  O   -0.592337
    38  H    0.131798
    39  H   -0.191729
    40  H    0.074526
 Sum of Mulliken charges =  -0.00000

 Dipole moment (field-independent basis, Debye):
    X=             -3.3781    Y=             -4.4391    Z=              2.6349  Tot=              6.1692

 Test job not archived.
 1\1\GINC-SE393\SP\RHF\Aug-CC-pVDZ\C12H20N4O4\OHZDE\08-Apr-2025\0\\#t h
 f aug-cc-pvdz iop(5/13=1,5/36=2,99/5=2) pseudo=read geom=check guess=(
 read,tcheck) scf=(maxcycle=1)\\title\\0,1\H,0,3.45925,1.94486,-1.20424
 \O,0,4.28935,2.14361,-0.66914\C,0,4.09596,1.4265,0.45155\C,0,2.75153,0
 .67503,0.45721\O,0,4.88609,1.37093,1.36847\H,0,2.13597,1.15236,1.23418
 \N,0,2.09185,0.79925,-0.86743\C,0,2.93885,-0.84356,0.73444\H,0,1.12132
 ,1.09134,-0.75231\C,0,2.13799,-0.53953,-1.48902\H,0,3.98998,-1.12709,0
 .59281\H,0,2.67071,-1.11889,1.76239\C,0,2.05772,-1.53041,-0.31443\H,0,

 Normal termination of Gaussian 16 at Tue Apr  8 18:33:04 2025.
