 Gaussian 16, Revision C.01,

 ----------------------------------------------------------------------
 #t hf aug-cc-pvdz symm=none int=(grid=ultrafine) guess=(read,tcheck) s
 table=(opt,rrhf)
 ----------------------------------------------------------------------
 -----
 title
 -----
 Symbolic Z-matrix:
 Charge =  0 Multiplicity = 1

 SCF Done:  E(RHF) =  -897.259083058     A.U. after   16 cycles
 Normal termination of Gaussian 16 at Tue Apr  8 18:14:05 2025.
 Gaussian 16:  ES64L-G16RevC.01  3-Jul-2019

 ----------------------------------------------------------------------
 #t hf aug-cc-pvdz iop(5/13=1,5/36=2,99/5=2) pseudo=read geom=check gue
 ss=(read,tcheck) scf=(maxcycle=1)
 ----------------------------------------------------------------------
 -----
 title
 -----
 Structure from the checkpoint file:  "37Conf8_Rolipram_2_mol2.chk"
 Charge =  0 Multiplicity = 1

                         Standard orientation:
 ---------------------------------------------------------------------
 Center     Atomic      Atomic             Coordinates (Angstroms)
 Number     Number       Type             X           Y           Z
 ---------------------------------------------------------------------
      1          1           0       -0.444535    4.178510    0.188429
      2          6           0       -0.203466    3.124030    0.060819
      3          6           0       -1.226127    2.179071   -0.012421
      4          6           0        1.139423    2.734038   -0.037141
      5          8           0       -2.559947    2.456803    0.070359
      6          6           0       -0.892049    0.810970   -0.200431
      7          1           0        1.921824    3.493707    0.024589
      8          6           0        1.482342    1.395547   -0.211601
      9          6           0       -2.925585    3.819233    0.244579
     10          8           0       -1.941790   -0.051008   -0.277661
     11          6           0        0.450120    0.444269   -0.296591
     12          6           0        2.935051    0.970145   -0.237321
     13          1           0       -2.584994    4.441233   -0.600901
     14          1           0       -4.020595    3.832125    0.287869
     15          1           0       -2.516855    4.231643    1.183039
     16          6           0       -1.651822   -1.440919   -0.543591
     17          1           0        0.698409   -0.606522   -0.429091
     18          1           0        3.546612    1.843155   -0.504001
     19          6           0        3.390300    0.425815    1.152659
     20          6           0        3.211069   -0.226875   -1.165631
     21          1           0       -0.952012   -1.484189   -1.393831
     22          6           0       -2.991263   -2.125477   -0.879121
     23          6           0       -1.087403   -2.189949    0.690729
     24          1           0        2.781361    0.845666    1.965819
     25          1           0        4.450441    0.670623    1.347249
     26          7           0        3.188858   -1.005575    1.019499
     27          1           0        2.529359   -0.293884   -2.021361
     28          1           0        4.241140   -0.207936   -1.556051
     29          6           0        3.078648   -1.459225   -0.268231
     30          1           0       -3.126803   -2.273617   -1.958611
     31          1           0       -3.795172   -1.458536   -0.532151
     32          6           0       -3.000755   -3.430057   -0.069471
     33          1           0       -0.251784   -2.834180    0.373609
     34          1           0       -0.690342   -1.486860    1.435059
     35          6           0       -2.251734   -3.045238    1.212219
     36          1           0        3.187948   -1.654545    1.799319
     37          8           0        2.907936   -2.622485   -0.611261
     38          1           0       -4.016425   -3.808665    0.111539
     39          1           0       -2.444956   -4.218668   -0.603061
     40          1           0       -2.908063   -2.438347    1.856899
     41          1           0       -1.916655   -3.910438    1.800959
 ---------------------------------------------------------------------

 SCF Done:  E(RHF) =  -897.524858284     A.U. after    2 cycles

 The electronic state is 1-A.
 Alpha  occ. eigenvalues --  -20.59584 -20.58847 -20.53489 -15.65033 -11.36325
 Alpha  occ. eigenvalues --  -11.30852 -11.30649 -11.29686 -11.29123 -11.28981
 Alpha  occ. eigenvalues --  -11.26482 -11.25328 -11.25059 -11.24646 -11.24166
 Alpha  occ. eigenvalues --  -11.24021 -11.22582 -11.22509 -11.22458 -11.22420
 Alpha  occ. eigenvalues --   -1.37265  -1.34878  -1.33842  -1.22231  -1.14171
 Alpha  occ. eigenvalues --   -1.10729  -1.06667  -1.01192  -1.00305  -0.97210
 Alpha  occ. eigenvalues --   -0.95704  -0.95018  -0.93480  -0.84943  -0.83857
 Alpha  occ. eigenvalues --   -0.79750  -0.79174  -0.77539  -0.77119  -0.72751
 Alpha  occ. eigenvalues --   -0.70533  -0.69442  -0.68411  -0.67258  -0.66487
 Alpha  occ. eigenvalues --   -0.65950  -0.63258  -0.62750  -0.61905  -0.60831
 Alpha  occ. eigenvalues --   -0.60222  -0.59556  -0.59250  -0.58282  -0.57070
 Alpha  occ. eigenvalues --   -0.56383  -0.54777  -0.53255  -0.52318  -0.52247
 Alpha  occ. eigenvalues --   -0.51291  -0.50895  -0.49211  -0.48317  -0.48121
 Alpha  occ. eigenvalues --   -0.47358  -0.46694  -0.46250  -0.45572  -0.44750
 Alpha  occ. eigenvalues --   -0.42757  -0.39394  -0.33577  -0.29974
 Alpha virt. eigenvalues --    0.02572   0.03370   0.03604   0.03934   0.04625
 Alpha virt. eigenvalues --    0.04997   0.05250   0.05447   0.05821   0.06403
 Alpha virt. eigenvalues --    0.06776   0.07270   0.07403   0.07796   0.07879

 Mulliken charges:
               1
     1  H   -0.721284
     2  C    0.799698
     3  C    0.274173
     4  C    0.189381
     5  O   -0.769501
     6  C    0.175045
     7  H   -0.686185
     8  C   -0.027731
     9  C    0.945237
    10  O   -0.679811
    11  C    1.371188
    12  C   -0.278769
    13  H   -0.047452
    14  H   -0.328190
    15  H   -0.051252
    16  C   -0.169207
    17  H   -1.452513
    18  H   -0.226760
    19  C    1.355274
    20  C    0.738134
    21  H   -0.161845
    22  C    0.640499
    23  C    0.427825
    24  H   -0.178224
    25  H   -0.214026
    26  N   -0.412222
    27  H   -0.074685
    28  H   -0.117794
    29  C    0.555182
    30  H   -0.043602
    31  H   -0.085017
    32  C    0.470390
    33  H   -0.164332
    34  H   -0.278716
    35  C    0.397089
    36  H   -0.145494
    37  O   -0.606337
    38  H   -0.105434
    39  H   -0.144588
    40  H   -0.122545
    41  H   -0.045598
 Sum of Mulliken charges =  -0.00000

 Dipole moment (field-independent basis, Debye):
    X=              1.2019    Y=              4.0385    Z=              1.9660  Tot=              4.6497

 Test job not archived.
 1\1\GINC-SE089\SP\RHF\Aug-CC-pVDZ\C16H21N1O3\OHZDE\08-Apr-2025\0\\#t h
 f aug-cc-pvdz iop(5/13=1,5/36=2,99/5=2) pseudo=read geom=check guess=(
 read,tcheck) scf=(maxcycle=1)\\title\\0,1\H,0,-0.44454,4.17851,0.18843
 \C,0,-0.20347,3.12403,0.06082\C,0,-1.22613,2.17907,-0.01242\C,0,1.1394
 2,2.73404,-0.03714\O,0,-2.55995,2.4568,0.07036\C,0,-0.89205,0.81097,-0
 .20043\H,0,1.92182,3.49371,0.02459\C,0,1.48234,1.39555,-0.2116\C,0,-2.
 92559,3.81923,0.24458\O,0,-1.94179,-0.05101,-0.27766\C,0,0.45012,0.444
 27,-0.29659\C,0,2.93505,0.97015,-0.23732\H,0,-2.585,4.44123,-0.6009\H,

 Normal termination of Gaussian 16 at Tue Apr  8 18:15:39 2025.
