 Gaussian 16, Revision C.01,

 ----------------------------------------------------------------------
 #t hf aug-cc-pvdz symm=none int=(grid=ultrafine) guess=(read,tcheck) s
 table=(opt,rrhf)
 ----------------------------------------------------------------------
 -----
 title
 -----
 Symbolic Z-matrix:
 Charge =  0 Multiplicity = 1

 SCF Done:  E(RHF) =  -1673.88173206     A.U. after   17 cycles
 Normal termination of Gaussian 16 at Tue Apr  8 18:09:34 2025.
 Gaussian 16:  ES64L-G16RevC.01  3-Jul-2019

 ----------------------------------------------------------------------
 #t hf aug-cc-pvdz iop(5/13=1,5/36=2,99/5=2) pseudo=read geom=check gue
 ss=(read,tcheck) scf=(maxcycle=1)
 ----------------------------------------------------------------------
 -----
 title
 -----
 Structure from the checkpoint file:  "37Conf8_Pantoprazole_7_mol1.chk"
 Charge =  0 Multiplicity = 1

                         Standard orientation:
 ---------------------------------------------------------------------
 Center     Atomic      Atomic             Coordinates (Angstroms)
 Number     Number       Type             X           Y           Z
 ---------------------------------------------------------------------
      1          1           0        2.342768    2.853031    2.449440
      2          6           0        2.509598    2.059251    1.720450
      3          6           0        3.158809    0.876211    2.059530
      4          6           0        2.097428    2.251270    0.398610
      5          1           0        3.507889    0.714541    3.083740
      6          7           0        3.412979   -0.107739    1.185990
      7          8           0        1.470478    3.423490    0.087210
      8          6           0        2.307079    1.203831   -0.525880
      9          6           0        2.987109    0.050381   -0.082840
     10          6           0        2.028597    4.182360   -1.004660
     11          8           0        1.935379    1.300490   -1.841840
     12          6           0        3.207310   -1.095979   -1.011620
     13          1           0        2.006488    3.623690   -1.949580
     14          1           0        1.410877    5.083790   -1.080970
     15          1           0        3.066827    4.465011   -0.770850
     16          6           0        0.508799    1.349530   -2.079500
     17         16           0        2.447671   -2.681889   -0.364250
     18          1           0        2.756930   -0.945539   -1.999400
     19          1           0        4.271380   -1.352138   -1.109580
     20          6           0        0.845640   -1.934950    0.072220
     21          8           0        2.258201   -3.567379   -1.546710
     22          7           0       -0.197690   -1.784631   -0.715440
     23          7           0        0.616570   -1.542370    1.371580
     24          6           0       -1.172440   -1.226951    0.100390
     25          1           0        1.329810   -1.487520    2.092850
     26          6           0       -0.673280   -1.047641    1.418290
     27          6           0       -2.485240   -0.849342   -0.221090
     28          6           0       -1.446540   -0.485641    2.436370
     29          1           0       -2.886200   -1.040582   -1.215300
     30          6           0       -3.239371   -0.272932    0.797020
     31          1           0       -1.065121   -0.347761    3.448450
     32          6           0       -2.737131   -0.092862    2.102960
     33          8           0       -4.554641    0.152627    0.623130
     34          1           0       -3.391771    0.363168    2.845260
     35          6           0       -4.941461    0.512347   -0.644460
     36          9           0       -5.338870   -0.586453   -1.371550
     37          9           0       -6.025261    1.315656   -0.513650
     38          1           0       -4.147741    1.030647   -1.209420
     39          1           0        0.391969    1.609030   -3.138020
     40          1           0        0.066409    0.362019   -1.885400
     41          1           0        0.026158    2.112069   -1.450470
 ---------------------------------------------------------------------

 SCF Done:  E(RHF) =  -1674.31246504     A.U. after    2 cycles

 The electronic state is 1-A.
 Alpha  occ. eigenvalues --  -93.68489 -26.15160 -26.14566 -20.63767 -20.62525
 Alpha  occ. eigenvalues --  -20.61570 -20.53539 -15.70605 -15.65658 -15.64348
 Alpha  occ. eigenvalues --  -11.49401 -11.36210 -11.35420 -11.33591 -11.33586
 Alpha  occ. eigenvalues --  -11.32417 -11.31646 -11.31315 -11.30544 -11.30486
 Alpha  occ. eigenvalues --  -11.29492 -11.29449 -11.27905 -11.27434 -11.26820
 Alpha  occ. eigenvalues --  -11.26741  -8.96716  -6.31013  -6.30846  -6.30518
 Alpha  occ. eigenvalues --   -1.71619  -1.66692  -1.41339  -1.39946  -1.37305
 Alpha  occ. eigenvalues --   -1.34034  -1.31564  -1.25605  -1.16983  -1.15362
 Alpha  occ. eigenvalues --   -1.10017  -1.08465  -1.04659  -1.03187  -1.01239
 Alpha  occ. eigenvalues --   -0.98418  -0.97508  -0.94769  -0.92159  -0.87829
 Alpha  occ. eigenvalues --   -0.86569  -0.86118  -0.85050  -0.83999  -0.82712
 Alpha  occ. eigenvalues --   -0.82375  -0.78874  -0.75460  -0.75161  -0.74135
 Alpha  occ. eigenvalues --   -0.74026  -0.72164  -0.71881  -0.70937  -0.70649
 Alpha  occ. eigenvalues --   -0.68396  -0.67754  -0.67250  -0.66494  -0.65546
 Alpha  occ. eigenvalues --   -0.64704  -0.64052  -0.63912  -0.63646  -0.63349
 Alpha  occ. eigenvalues --   -0.62257  -0.60147  -0.59902  -0.58826  -0.58713
 Alpha  occ. eigenvalues --   -0.58079  -0.57387  -0.55942  -0.55074  -0.54507
 Alpha  occ. eigenvalues --   -0.54049  -0.53599  -0.52176  -0.48767  -0.48346
 Alpha  occ. eigenvalues --   -0.46653  -0.44988  -0.44846  -0.44461  -0.40280
 Alpha  occ. eigenvalues --   -0.38588  -0.35798  -0.33843  -0.32234
 Alpha virt. eigenvalues --    0.01839   0.02419   0.03266   0.03816   0.04373
 Alpha virt. eigenvalues --    0.04529   0.04999   0.05508   0.05706   0.06235
 Alpha virt. eigenvalues --    0.06755   0.07045   0.07172   0.07655   0.07976

 Mulliken charges:
               1
     1  H   -0.581115
     2  C    1.312448
     3  C    0.630055
     4  C   -0.516050
     5  H   -0.452249
     6  N   -0.691355
     7  O   -0.788806
     8  C    0.560681
     9  C    0.324430
    10  C    0.862832
    11  O   -0.917253
    12  C    0.161595
    13  H   -0.109570
    14  H   -0.181423
    15  H   -0.085844
    16  C    1.146888
    17  S    1.508285
    18  H   -0.203536
    19  H    0.011885
    20  C   -0.106633
    21  O   -1.076031
    22  N   -0.966239
    23  N   -0.516238
    24  C   -0.247070
    25  H   -0.068636
    26  C   -0.340580
    27  C    1.373862
    28  C    1.645418
    29  H   -0.701016
    30  C    0.215244
    31  H   -0.620345
    32  C    1.116825
    33  O   -0.769980
    34  H   -0.605223
    35  C    1.115797
    36  F   -0.363337
    37  F   -0.281923
    38  H   -0.173721
    39  H   -0.153848
    40  H   -0.348268
    41  H   -0.119954
 Sum of Mulliken charges =  -0.00000

 Dipole moment (field-independent basis, Debye):
    X=              4.0869    Y=              6.9739    Z=              3.7907  Tot=              8.9279

 Test job not archived.
 1\1\GINC-SE054\SP\RHF\Aug-CC-pVDZ\C16H15F2N3O4S1\OHZDE\08-Apr-2025\0\\
 #t hf aug-cc-pvdz iop(5/13=1,5/36=2,99/5=2) pseudo=read geom=check gue
 ss=(read,tcheck) scf=(maxcycle=1)\\title\\0,1\H,0,2.34277,2.85303,2.44
 944\C,0,2.5096,2.05925,1.72045\C,0,3.15881,0.87621,2.05953\C,0,2.09743
 ,2.25127,0.39861\H,0,3.50789,0.71454,3.08374\N,0,3.41298,-0.10774,1.18
 599\O,0,1.47048,3.42349,0.08721\C,0,2.30708,1.20383,-0.52588\C,0,2.987
 11,0.05038,-0.08284\C,0,2.0286,4.18236,-1.00466\O,0,1.93538,1.30049,-1
 .84184\C,0,3.20731,-1.09598,-1.01162\H,0,2.00649,3.62369,-1.94958\H,0,

 Normal termination of Gaussian 16 at Tue Apr  8 18:11:48 2025.
