 Gaussian 16, Revision C.01,

 ----------------------------------------------------------------------
 #t hf aug-cc-pvdz symm=none int=(grid=ultrafine) guess=(read,tcheck) s
 table=(opt,rrhf)
 ----------------------------------------------------------------------
 -----
 title
 -----
 Symbolic Z-matrix:
 Charge =  0 Multiplicity = 1

 SCF Done:  E(RHF) =  -787.719901697     A.U. after   16 cycles
 Normal termination of Gaussian 16 at Tue Apr  8 17:21:41 2025.
 Gaussian 16:  ES64L-G16RevC.01  3-Jul-2019

 ----------------------------------------------------------------------
 #t hf aug-cc-pvdz iop(5/13=1,5/36=2,99/5=2) pseudo=read geom=check gue
 ss=(read,tcheck) scf=(maxcycle=1)
 ----------------------------------------------------------------------
 -----
 title
 -----
 Structure from the checkpoint file:  "37Conf8_Eperisone_2_mol1.chk"
 Charge =  0 Multiplicity = 1

                         Standard orientation:
 ---------------------------------------------------------------------
 Center     Atomic      Atomic             Coordinates (Angstroms)
 Number     Number       Type             X           Y           Z
 ---------------------------------------------------------------------
      1          8           0        0.321700    2.145730    1.574330
      2          6           0        0.138100    1.589559    0.492890
      3          6           0        1.146710    1.798560   -0.631490
      4          6           0       -1.090419    0.761509    0.271050
      5          6           0        2.598410    1.510590   -0.149880
      6          6           0        1.042030    3.261660   -1.091770
      7          1           0        0.924920    1.145380   -1.485690
      8          6           0       -1.393509    0.116559   -0.938820
      9          6           0       -1.995189    0.630729    1.339190
     10          7           0        2.992751    0.125450    0.015090
     11          1           0        3.284280    1.967661   -0.882750
     12          1           0        2.736460    2.034070    0.809700
     13          6           0        3.027761   -0.644720   -1.222280
     14          6           0        2.301061   -0.576900    1.088880
     15          1           0        3.557901   -0.048559   -1.982280
     16          1           0        2.003541   -0.842800   -1.620060
     17          6           0        3.727882   -1.986079   -1.008990
     18          1           0        2.306461    0.066800    1.981200
     19          1           0        1.228981   -0.758130    0.835080
     20          6           0        2.967192   -1.920370    1.381460
     21          1           0        3.719192   -2.558469   -1.949810
     22          1           0        4.781601   -1.797599   -0.745370
     23          6           0        3.048542   -2.773040    0.113830
     24          1           0        2.403272   -2.443130    2.169440
     25          1           0        3.982401   -1.734909    1.769320
     26          1           0        3.584812   -3.714299    0.309610
     27          1           0        2.026932   -3.049000   -0.203830
     28          1           0        1.748840    3.456260   -1.911410
     29          1           0        0.029920    3.502819   -1.447490
     30          1           0        1.278289    3.935470   -0.256110
     31          1           0       -0.715539    0.188729   -1.789400
     32          6           0       -2.560409   -0.633171   -1.072060
     33          1           0       -1.751870    1.132679    2.276690
     34          6           0       -3.155519   -0.119942    1.201760
     35          1           0       -2.775989   -1.131622   -2.020450
     36          6           0       -3.461329   -0.766572   -0.007050
     37          1           0       -3.842739   -0.215402    2.046460
     38          6           0       -4.745149   -1.537652   -0.168850
     39          6           0       -5.902469   -0.641843   -0.636310
     40          1           0       -4.596068   -2.352062   -0.895050
     41          1           0       -5.012678   -2.009442    0.789770
     42          1           0       -5.670969   -0.177533   -1.605740
     43          1           0       -6.830059   -1.221783   -0.745960
     44          1           0       -6.086919    0.167607    0.084540
 ---------------------------------------------------------------------

 SCF Done:  E(RHF) =  -787.950746292     A.U. after    2 cycles

 The electronic state is 1-A.
 Alpha  occ. eigenvalues --  -20.55080 -15.60214 -11.34007 -11.26616 -11.26415
 Alpha  occ. eigenvalues --  -11.25698 -11.25584 -11.25526 -11.25310 -11.25075
 Alpha  occ. eigenvalues --  -11.24988 -11.24880 -11.24860 -11.24431 -11.23827
 Alpha  occ. eigenvalues --  -11.23398 -11.22548 -11.22494 -11.22188  -1.33703
 Alpha  occ. eigenvalues --   -1.20033  -1.15676  -1.08057  -1.06855  -1.03799
 Alpha  occ. eigenvalues --   -1.01729  -1.00413  -0.99529  -0.92272  -0.90003
 Alpha  occ. eigenvalues --   -0.86301  -0.84235  -0.83753  -0.82451  -0.80004
 Alpha  occ. eigenvalues --   -0.75463  -0.73611  -0.70765  -0.66973  -0.66082
 Alpha  occ. eigenvalues --   -0.65096  -0.63684  -0.62436  -0.61780  -0.61446
 Alpha  occ. eigenvalues --   -0.60429  -0.59770  -0.59290  -0.58080  -0.57448
 Alpha  occ. eigenvalues --   -0.57025  -0.56030  -0.54087  -0.53804  -0.53375
 Alpha  occ. eigenvalues --   -0.52623  -0.50989  -0.50792  -0.49963  -0.49640
 Alpha  occ. eigenvalues --   -0.49225  -0.48698  -0.48235  -0.47592  -0.46156
 Alpha  occ. eigenvalues --   -0.44364  -0.44190  -0.41898  -0.35057  -0.34328
 Alpha  occ. eigenvalues --   -0.33088
 Alpha virt. eigenvalues --    0.02637   0.03233   0.03664   0.03987   0.04513
 Alpha virt. eigenvalues --    0.04717   0.04859   0.05548   0.06025   0.06223
 Alpha virt. eigenvalues --    0.06705   0.06787   0.06818   0.06991   0.07182

 Mulliken charges:
               1
     1  O   -0.688458
     2  C   -0.034930
     3  C   -0.948676
     4  C    1.492475
     5  C    1.163484
     6  C    1.108974
     7  H   -0.273612
     8  C    0.917895
     9  C   -0.259040
    10  N   -0.935810
    11  H   -0.196666
    12  H   -0.159929
    13  C    0.574388
    14  C    0.627227
    15  H   -0.262922
    16  H   -0.191589
    17  C    0.283086
    18  H   -0.304562
    19  H   -0.286205
    20  C    0.256332
    21  H   -0.066823
    22  H   -0.066658
    23  C    0.351703
    24  H   -0.060663
    25  H   -0.037603
    26  H   -0.118969
    27  H   -0.060524
    28  H   -0.085736
    29  H   -0.045994
    30  H    0.048539
    31  H   -0.870231
    32  C   -0.240326
    33  H   -0.724593
    34  C   -0.152385
    35  H   -0.681755
    36  C    1.237962
    37  H   -0.622940
    38  C    0.378350
    39  C    0.354581
    40  H   -0.097617
    41  H   -0.090187
    42  H   -0.082203
    43  H   -0.066659
    44  H   -0.080726
 Sum of Mulliken charges =   0.00000

 Dipole moment (field-independent basis, Debye):
    X=             -2.1501    Y=             -2.0947    Z=             -2.8438  Tot=              4.1349

 Test job not archived.
 1\1\GINC-SE125\SP\RHF\Aug-CC-pVDZ\C17H25N1O1\OHZDE\08-Apr-2025\0\\#t h
 f aug-cc-pvdz iop(5/13=1,5/36=2,99/5=2) pseudo=read geom=check guess=(
 read,tcheck) scf=(maxcycle=1)\\title\\0,1\O,0,0.3217,2.14573,1.57433\C
 ,0,0.1381,1.58956,0.49289\C,0,1.14671,1.79856,-0.63149\C,0,-1.09042,0.
 76151,0.27105\C,0,2.59841,1.51059,-0.14988\C,0,1.04203,3.26166,-1.0917
 7\H,0,0.92492,1.14538,-1.48569\C,0,-1.39351,0.11656,-0.93882\C,0,-1.99
 519,0.63073,1.33919\N,0,2.99275,0.12545,0.01509\H,0,3.28428,1.96766,-0
 .88275\H,0,2.73646,2.03407,0.8097\C,0,3.02776,-0.64472,-1.22228\C,0,2.

 Normal termination of Gaussian 16 at Tue Apr  8 17:23:20 2025.
