 Gaussian 16, Revision C.01,

 ----------------------------------------------------------------------
 #t hf aug-cc-pvdz symm=none int=(grid=ultrafine) guess=(read,tcheck) s
 table=(opt,rrhf)
 ----------------------------------------------------------------------
 -----
 title
 -----
 Symbolic Z-matrix:
 Charge =  0 Multiplicity = 1

 SCF Done:  E(RHF) =  -1689.88777469     A.U. after   18 cycles
 Normal termination of Gaussian 16 at Tue Apr  8 17:21:04 2025.
 Gaussian 16:  ES64L-G16RevC.01  3-Jul-2019

 ----------------------------------------------------------------------
 #t hf aug-cc-pvdz iop(5/13=1,5/36=2,99/5=2) pseudo=read geom=check gue
 ss=(read,tcheck) scf=(maxcycle=1)
 ----------------------------------------------------------------------
 -----
 title
 -----
 Structure from the checkpoint file:  "37Conf8_Fotemustin_8_mol1.chk"
 Charge =  0 Multiplicity = 1

                         Standard orientation:
 ---------------------------------------------------------------------
 Center     Atomic      Atomic             Coordinates (Angstroms)
 Number     Number       Type             X           Y           Z
 ---------------------------------------------------------------------
      1          8           0       -2.499710    1.594519    2.078732
      2          7           0       -1.809540    1.761430    1.088342
      3          7           0       -1.805050    0.698510    0.217322
      4          6           0       -2.610819   -0.495791    0.472212
      5          6           0       -1.130660    0.948280   -1.034218
      6          6           0       -4.051349   -0.279221    0.014352
      7          1           0       -2.170719   -1.341751   -0.067138
      8          1           0       -2.586709   -0.694931    1.552592
      9         17           0       -4.994829   -1.782501    0.283942
     10          1           0       -4.098860   -0.049421   -1.056778
     11          1           0       -4.532340    0.520679    0.587132
     12          7           0       -0.361099   -0.101290   -1.468768
     13          8           0       -1.290170    1.987160   -1.648798
     14          6           0        0.412511   -1.007590   -0.613468
     15          1           0        0.064770    0.088770   -2.377588
     16         15           0        2.100741   -0.278629   -0.494708
     17          6           0        0.433451   -2.428330   -1.168448
     18          1           0       -0.015029   -0.982960    0.397642
     19          8           0        1.898010    1.081391    0.338202
     20          8           0        2.767951   -1.267179    0.576692
     21          8           0        2.764601   -0.121299   -1.814348
     22          6           0        1.998020    2.384921   -0.325308
     23          6           0        4.167321   -1.069919    0.938232
     24          6           0        1.539089    3.435741    0.657872
     25          1           0        1.368010    2.381431   -1.226368
     26          1           0        3.042910    2.528501   -0.634658
     27          6           0        4.615121   -2.264019    1.749602
     28          1           0        4.755491   -0.961718    0.014192
     29          1           0        4.242381   -0.136209    1.517422
     30          1           0        1.621879    4.428761    0.192882
     31          1           0        0.489850    3.273530    0.939422
     32          1           0        2.159289    3.424941    1.564992
     33          1           0        4.534721   -3.188499    1.161792
     34          1           0        5.665041   -2.135198    2.049382
     35          1           0        4.006911   -2.370849    2.658162
     36          1           0        0.901581   -2.447220   -2.162538
     37          1           0       -0.589999   -2.820080   -1.256648
     38          1           0        1.010071   -3.087530   -0.507358
 ---------------------------------------------------------------------

 SCF Done:  E(RHF) =  -1690.24235228     A.U. after    2 cycles

 The electronic state is 1-A.
 Alpha  occ. eigenvalues -- -103.66454 -81.41598 -20.64011 -20.61301 -20.60823
 Alpha  occ. eigenvalues --  -20.57706 -20.53297 -15.82939 -15.72328 -15.68497
 Alpha  occ. eigenvalues --  -11.43813 -11.32318 -11.32046 -11.32025 -11.31935
 Alpha  occ. eigenvalues --  -11.31032 -11.26077 -11.24961 -11.23531 -10.69735
 Alpha  occ. eigenvalues --   -8.35459  -8.35170  -8.35158  -7.89954  -5.04616
 Alpha  occ. eigenvalues --   -5.04560  -5.04268  -1.49292  -1.39617  -1.37572
 Alpha  occ. eigenvalues --   -1.34378  -1.26814  -1.25899  -1.22807  -1.17956
 Alpha  occ. eigenvalues --   -1.05671  -1.04843  -1.03658  -1.02666  -0.94757
 Alpha  occ. eigenvalues --   -0.90448  -0.88856  -0.86847  -0.85886  -0.80866
 Alpha  occ. eigenvalues --   -0.78585  -0.75999  -0.73887  -0.72666  -0.71787
 Alpha  occ. eigenvalues --   -0.70031  -0.68753  -0.67503  -0.66596  -0.66000
 Alpha  occ. eigenvalues --   -0.65371  -0.63927  -0.63017  -0.62136  -0.61337
 Alpha  occ. eigenvalues --   -0.60007  -0.59191  -0.57976  -0.57681  -0.57001
 Alpha  occ. eigenvalues --   -0.56393  -0.56161  -0.56033  -0.54563  -0.54490
 Alpha  occ. eigenvalues --   -0.53160  -0.52376  -0.51860  -0.49996  -0.49714
 Alpha  occ. eigenvalues --   -0.48861  -0.48493  -0.47954  -0.46887  -0.46011
 Alpha  occ. eigenvalues --   -0.45045  -0.43235  -0.41435
 Alpha virt. eigenvalues --    0.02706   0.03412   0.03847   0.04295   0.04770
 Alpha virt. eigenvalues --    0.05181   0.05521   0.05902   0.06292   0.06623
 Alpha virt. eigenvalues --    0.07013   0.07772   0.08065   0.08130   0.08429

 Mulliken charges:
               1
     1  O   -0.505938
     2  N    0.085857
     3  N   -0.230722
     4  C    0.690264
     5  C    0.736262
     6  C    0.269754
     7  H   -0.498109
     8  H   -0.128928
     9  Cl  -0.136680
    10  H   -0.038311
    11  H    0.051400
    12  N   -0.311405
    13  O   -0.509795
    14  C   -0.012864
    15  H   -0.035214
    16  P    2.741730
    17  C    0.698978
    18  H   -0.358380
    19  O   -1.097476
    20  O   -0.992377
    21  O   -1.007583
    22  C    0.605387
    23  C    0.556988
    24  C    0.455838
    25  H   -0.170847
    26  H   -0.225447
    27  C    0.249832
    28  H   -0.148565
    29  H   -0.169373
    30  H    0.007031
    31  H   -0.237506
    32  H   -0.051614
    33  H   -0.041358
    34  H   -0.029982
    35  H   -0.031061
    36  H   -0.057247
    37  H   -0.106333
    38  H   -0.016205
 Sum of Mulliken charges =  -0.00000

 Dipole moment (field-independent basis, Debye):
    X=              3.1396    Y=             -2.5476    Z=              1.2218  Tot=              4.2238

 Test job not archived.
 1\1\GINC-SE046\SP\RHF\Aug-CC-pVDZ\C9H19Cl1N3O5P1\OHZDE\08-Apr-2025\0\\
 #t hf aug-cc-pvdz iop(5/13=1,5/36=2,99/5=2) pseudo=read geom=check gue
 ss=(read,tcheck) scf=(maxcycle=1)\\title\\0,1\O,0,-2.49971,1.59452,2.0
 7873\N,0,-1.80954,1.76143,1.08834\N,0,-1.80505,0.69851,0.21732\C,0,-2.
 61082,-0.49579,0.47221\C,0,-1.13066,0.94828,-1.03422\C,0,-4.05135,-0.2
 7922,0.01435\H,0,-2.17072,-1.34175,-0.06714\H,0,-2.58671,-0.69493,1.55
 259\Cl,0,-4.99483,-1.7825,0.28394\H,0,-4.09886,-0.04942,-1.05678\H,0,-
 4.53234,0.52068,0.58713\N,0,-0.3611,-0.10129,-1.46877\O,0,-1.29017,1.9

 Normal termination of Gaussian 16 at Tue Apr  8 17:22:20 2025.
