 Gaussian 16, Revision C.01,

 ----------------------------------------------------------------------
 #t hf aug-cc-pvdz symm=none int=(grid=ultrafine) guess=(read,tcheck) s
 table=(opt,rrhf)
 ----------------------------------------------------------------------
 -----
 title
 -----
 Symbolic Z-matrix:
 Charge =  0 Multiplicity = 1

 SCF Done:  E(RHF) =  -1587.90209467     A.U. after   16 cycles
 Normal termination of Gaussian 16 at Tue Apr  8 18:41:36 2025.
 Gaussian 16:  ES64L-G16RevC.01  3-Jul-2019

 ----------------------------------------------------------------------
 #t hf aug-cc-pvdz iop(5/13=1,5/36=2,99/5=2) pseudo=read geom=check gue
 ss=(read,tcheck) scf=(maxcycle=1)
 ----------------------------------------------------------------------
 -----
 title
 -----
 Structure from the checkpoint file:  "37Conf8_XylitolPentanit_8_mol1.chk"
 Charge =  0 Multiplicity = 1

                         Standard orientation:
 ---------------------------------------------------------------------
 Center     Atomic      Atomic             Coordinates (Angstroms)
 Number     Number       Type             X           Y           Z
 ---------------------------------------------------------------------
      1          1           0       -2.779091   -0.568478   -1.870040
      2          6           0       -2.449960   -0.272908   -0.863780
      3          6           0       -0.930470   -0.048709   -0.843300
      4          8           0       -2.970070    1.025952   -0.517560
      5          1           0       -2.784521   -1.024488   -0.140190
      6          6           0       -0.365450    0.028031    0.583830
      7          8           0       -0.161111   -0.891589   -1.715870
      8          1           0       -0.753010    0.933131   -1.308140
      9          7           0       -4.441430    1.028642   -0.357530
     10          6           0        1.071130    0.571730    0.792520
     11          8           0       -0.420371   -1.293759    1.133940
     12          1           0       -1.032920    0.696361    1.152810
     13          7           0       -0.372501   -2.381579   -1.631800
     14          8           0       -5.005780   -0.018868   -0.565480
     15          8           0       -4.850100    2.111242   -0.040890
     16          6           0        2.155790   -0.085700   -0.053380
     17          8           0        1.115810    2.016400    0.886750
     18          1           0        1.307990    0.333540    1.843440
     19          7           0       -0.856781   -1.353069    2.581280
     20          8           0        0.558249   -2.962009   -2.111040
     21          8           0       -1.412681   -2.768309   -1.166750
     22          8           0        3.395470    0.336280    0.541700
     23          1           0        2.116730    0.188920   -1.111880
     24          1           0        2.037379   -1.177170    0.031010
     25          7           0        4.567810   -0.265141   -0.119920
     26          8           0        4.341039   -1.029521   -1.028650
     27          8           0        5.597100    0.111859    0.369790
     28          7           0        1.167721    2.817350   -0.349600
     29          8           0       -0.838591   -2.478839    2.982160
     30          8           0       -1.152080   -0.306439    3.099650
     31          8           0        1.038580    2.237790   -1.407050
     32          8           0        1.332971    3.977320   -0.104370
 ---------------------------------------------------------------------

 SCF Done:  E(RHF) =  -1588.38407384     A.U. after    2 cycles

 The electronic state is 1-A.
 Alpha  occ. eigenvalues --  -20.72353 -20.72055 -20.71953 -20.71275 -20.70544
 Alpha  occ. eigenvalues --  -20.70336 -20.70327 -20.69355 -20.69256 -20.69245
 Alpha  occ. eigenvalues --  -20.68758 -20.68396 -20.68313 -20.67509 -20.67400
 Alpha  occ. eigenvalues --  -16.03828 -16.02928 -16.02825 -16.02165 -16.01275
 Alpha  occ. eigenvalues --  -11.39008 -11.38823 -11.38730 -11.36612 -11.35986
 Alpha  occ. eigenvalues --   -1.65032  -1.64174  -1.64064  -1.63360  -1.62509
 Alpha  occ. eigenvalues --   -1.47202  -1.46213  -1.45670  -1.45103  -1.44161
 Alpha  occ. eigenvalues --   -1.43455  -1.41988  -1.41249  -1.40603  -1.39925
 Alpha  occ. eigenvalues --   -1.14613  -1.10188  -1.03377  -1.00047  -0.99126
 Alpha  occ. eigenvalues --   -0.94447  -0.93048  -0.91847  -0.90388  -0.88374
 Alpha  occ. eigenvalues --   -0.86773  -0.84957  -0.84789  -0.83924  -0.82808
 Alpha  occ. eigenvalues --   -0.82222  -0.82045  -0.81808  -0.81592  -0.81390
 Alpha  occ. eigenvalues --   -0.81313  -0.80938  -0.80477  -0.79805  -0.78903
 Alpha  occ. eigenvalues --   -0.74754  -0.73031  -0.72055  -0.71006  -0.69570
 Alpha  occ. eigenvalues --   -0.67640  -0.67237  -0.65883  -0.64788  -0.63558
 Alpha  occ. eigenvalues --   -0.63049  -0.61604  -0.60336  -0.59023  -0.58456
 Alpha  occ. eigenvalues --   -0.58151  -0.57693  -0.57555  -0.57339  -0.56694
 Alpha  occ. eigenvalues --   -0.56446  -0.56367  -0.55704  -0.55636  -0.54639
 Alpha  occ. eigenvalues --   -0.54210  -0.53836  -0.53578  -0.53031  -0.52566
 Alpha  occ. eigenvalues --   -0.51874
 Alpha virt. eigenvalues --    0.02843   0.03264   0.03677   0.04070   0.04400
 Alpha virt. eigenvalues --    0.04650   0.04899   0.05254   0.05880   0.06160
 Alpha virt. eigenvalues --    0.07028   0.07213   0.07909   0.08873   0.10429

 Mulliken charges:
               1
     1  H   -0.099234
     2  C    1.355131
     3  C    0.859156
     4  O   -0.477554
     5  H   -0.087381
     6  C    0.021947
     7  O   -0.594784
     8  H   -0.174929
     9  N    0.762379
    10  C    0.630955
    11  O   -0.537863
    12  H    0.012725
    13  N    0.674329
    14  O   -0.399431
    15  O   -0.427091
    16  C    1.143322
    17  O   -0.572444
    18  H   -0.167820
    19  N    0.635103
    20  O   -0.428956
    21  O   -0.400796
    22  O   -0.603849
    23  H   -0.093300
    24  H   -0.107818
    25  N    0.860768
    26  O   -0.405399
    27  O   -0.458391
    28  N    0.665836
    29  O   -0.401787
    30  O   -0.364271
    31  O   -0.408295
    32  O   -0.410259
 Sum of Mulliken charges =  -0.00000

 Dipole moment (field-independent basis, Debye):
    X=             -1.6564    Y=             -0.5663    Z=             -0.3513  Tot=              1.7854

 Test job not archived.
 1\1\GINC-SE461\SP\RHF\Aug-CC-pVDZ\C5H7N5O15\OHZDE\08-Apr-2025\0\\#t hf
  aug-cc-pvdz iop(5/13=1,5/36=2,99/5=2) pseudo=read geom=check guess=(r
 ead,tcheck) scf=(maxcycle=1)\\title\\0,1\H,0,-2.77909,-0.56848,-1.8700
 4\C,0,-2.44996,-0.27291,-0.86378\C,0,-0.93047,-0.04871,-0.8433\O,0,-2.
 97007,1.02595,-0.51756\H,0,-2.78452,-1.02449,-0.14019\C,0,-0.36545,0.0
 2803,0.58383\O,0,-0.16111,-0.89159,-1.71587\H,0,-0.75301,0.93313,-1.30
 814\N,0,-4.44143,1.02864,-0.35753\C,0,1.07113,0.57173,0.79252\O,0,-0.4
 2037,-1.29376,1.13394\H,0,-1.03292,0.69636,1.15281\N,0,-0.3725,-2.3815

 Normal termination of Gaussian 16 at Tue Apr  8 18:42:45 2025.
