 Gaussian 16, Revision C.01,

 ----------------------------------------------------------------------
 #t hf aug-cc-pvdz symm=none int=(grid=ultrafine) guess=(read,tcheck) s
 table=(opt,rrhf)
 ----------------------------------------------------------------------
 -----
 title
 -----
 Symbolic Z-matrix:
 Charge =  0 Multiplicity = 1

 SCF Done:  E(RHF) =  -1587.91495475     A.U. after   16 cycles
 Normal termination of Gaussian 16 at Tue Apr  8 18:32:27 2025.
 Gaussian 16:  ES64L-G16RevC.01  3-Jul-2019

 ----------------------------------------------------------------------
 #t hf aug-cc-pvdz iop(5/13=1,5/36=2,99/5=2) pseudo=read geom=check gue
 ss=(read,tcheck) scf=(maxcycle=1)
 ----------------------------------------------------------------------
 -----
 title
 -----
 Structure from the checkpoint file:  "37Conf8_XylitolPentanit_3_mol2.chk"
 Charge =  0 Multiplicity = 1

                         Standard orientation:
 ---------------------------------------------------------------------
 Center     Atomic      Atomic             Coordinates (Angstroms)
 Number     Number       Type             X           Y           Z
 ---------------------------------------------------------------------
      1          1           0       -2.515061    1.948671    0.739510
      2          6           0       -2.546391    1.164591   -0.028680
      3          6           0       -1.333891    0.242931    0.112730
      4          8           0       -3.774091    0.481721    0.240490
      5          1           0       -2.564191    1.629941   -1.025620
      6          6           0       -0.035121    0.951080   -0.289520
      7          8           0       -1.218191   -0.196129    1.474620
      8          1           0       -1.465581   -0.633789   -0.537640
      9          7           0       -4.244051   -0.345938   -0.897760
     10          6           0        1.242089    0.141340    0.016300
     11          8           0        0.057620    2.190050    0.420100
     12          1           0       -0.088961    1.166000   -1.369300
     13          7           0       -1.756691   -1.572489    1.732040
     14          8           0       -3.577401   -0.310419   -1.908010
     15          8           0       -5.251021   -0.935618   -0.629070
     16          6           0        1.280759   -1.201810   -0.706250
     17          8           0        2.341229    0.936930   -0.430110
     18          1           0        1.318359   -0.010100    1.102990
     19          7           0        0.360030    3.388550   -0.450790
     20          8           0       -2.112192   -2.213729    0.772110
     21          8           0       -1.727351   -1.829159    2.898920
     22          8           0        2.439139   -1.871950   -0.192980
     23          1           0        1.368349   -1.053330   -1.793680
     24          1           0        0.377619   -1.796090   -0.498130
     25          7           0        2.687578   -3.164580   -0.862800
     26          8           0        1.892158   -3.490860   -1.713480
     27          8           0        3.670868   -3.704180   -0.437980
     28          7           0        3.389219    1.219990    0.626710
     29          8           0        0.323470    3.225180   -1.643110
     30          8           0        0.573340    4.351650    0.224630
     31          8           0        4.275969    1.875049    0.162590
     32          8           0        3.195479    0.776610    1.726610
 ---------------------------------------------------------------------

 SCF Done:  E(RHF) =  -1588.39843524     A.U. after    2 cycles

 The electronic state is 1-A.
 Alpha  occ. eigenvalues --  -20.71948 -20.71922 -20.71628 -20.71036 -20.70807
 Alpha  occ. eigenvalues --  -20.69818 -20.69800 -20.69769 -20.69542 -20.68786
 Alpha  occ. eigenvalues --  -20.68759 -20.68582 -20.68527 -20.67967 -20.67956
 Alpha  occ. eigenvalues --  -16.03343 -16.03278 -16.02271 -16.02220 -16.01756
 Alpha  occ. eigenvalues --  -11.38861 -11.38376 -11.37727 -11.36926 -11.36787
 Alpha  occ. eigenvalues --   -1.64560  -1.64475  -1.63569  -1.63450  -1.62987
 Alpha  occ. eigenvalues --   -1.46678  -1.46449  -1.45622  -1.45340  -1.44686
 Alpha  occ. eigenvalues --   -1.43651  -1.42196  -1.41242  -1.40555  -1.39496
 Alpha  occ. eigenvalues --   -1.15007  -1.09745  -1.03588  -0.99558  -0.97425
 Alpha  occ. eigenvalues --   -0.95017  -0.93400  -0.91314  -0.89454  -0.87734
 Alpha  occ. eigenvalues --   -0.87167  -0.85960  -0.85348  -0.84532  -0.84193
 Alpha  occ. eigenvalues --   -0.82743  -0.82512  -0.81787  -0.81409  -0.81194
 Alpha  occ. eigenvalues --   -0.80966  -0.80735  -0.80471  -0.80075  -0.79920
 Alpha  occ. eigenvalues --   -0.73864  -0.73491  -0.71710  -0.70688  -0.69992
 Alpha  occ. eigenvalues --   -0.69202  -0.67103  -0.65168  -0.64715  -0.62550
 Alpha  occ. eigenvalues --   -0.61654  -0.61366  -0.59578  -0.59405  -0.58675
 Alpha  occ. eigenvalues --   -0.58346  -0.57898  -0.57765  -0.57406  -0.56952
 Alpha  occ. eigenvalues --   -0.56123  -0.55973  -0.55567  -0.55148  -0.55043
 Alpha  occ. eigenvalues --   -0.54850  -0.54428  -0.53996  -0.53831  -0.53037
 Alpha  occ. eigenvalues --   -0.51818
 Alpha virt. eigenvalues --    0.02644   0.03014   0.03952   0.04298   0.04661
 Alpha virt. eigenvalues --    0.05144   0.05165   0.05440   0.05791   0.06081
 Alpha virt. eigenvalues --    0.07034   0.07520   0.08547   0.08971   0.10160

 Mulliken charges:
               1
     1  H   -0.115006
     2  C    1.228825
     3  C    0.365337
     4  O   -0.535902
     5  H   -0.011975
     6  C    0.372768
     7  O   -0.597650
     8  H   -0.082313
     9  N    0.871137
    10  C    0.710448
    11  O   -0.604384
    12  H   -0.044782
    13  N    0.652575
    14  O   -0.430782
    15  O   -0.446793
    16  C    1.221705
    17  O   -0.603226
    18  H   -0.070344
    19  N    0.737049
    20  O   -0.406736
    21  O   -0.411674
    22  O   -0.576414
    23  H   -0.048206
    24  H   -0.264568
    25  N    0.852734
    26  O   -0.414450
    27  O   -0.439515
    28  N    0.736839
    29  O   -0.396183
    30  O   -0.426280
    31  O   -0.428881
    32  O   -0.393355
 Sum of Mulliken charges =  -0.00000

 Dipole moment (field-independent basis, Debye):
    X=             -2.1519    Y=              1.8167    Z=             -1.6953  Tot=              3.2872

 Test job not archived.
 1\1\GINC-SE332\SP\RHF\Aug-CC-pVDZ\C5H7N5O15\OHZDE\08-Apr-2025\0\\#t hf
  aug-cc-pvdz iop(5/13=1,5/36=2,99/5=2) pseudo=read geom=check guess=(r
 ead,tcheck) scf=(maxcycle=1)\\title\\0,1\H,0,-2.51506,1.94867,0.73951\
 C,0,-2.54639,1.16459,-0.02868\C,0,-1.33389,0.24293,0.11273\O,0,-3.7740
 9,0.48172,0.24049\H,0,-2.56419,1.62994,-1.02562\C,0,-0.03512,0.95108,-
 0.28952\O,0,-1.21819,-0.19613,1.47462\H,0,-1.46558,-0.63379,-0.53764\N
 ,0,-4.24405,-0.34594,-0.89776\C,0,1.24209,0.14134,0.0163\O,0,0.05762,2
 .19005,0.4201\H,0,-0.08896,1.166,-1.3693\N,0,-1.75669,-1.57249,1.73204

 Normal termination of Gaussian 16 at Tue Apr  8 18:33:26 2025.
