 Gaussian 16, Revision C.01,

 ----------------------------------------------------------------------
 #t hf aug-cc-pvdz symm=none int=(grid=ultrafine) guess=(read,tcheck) s
 table=(opt,rrhf)
 ----------------------------------------------------------------------
 -----
 title
 -----
 Symbolic Z-matrix:
 Charge =  0 Multiplicity = 1

 SCF Done:  E(RHF) =  -1673.87818271     A.U. after   16 cycles
 Normal termination of Gaussian 16 at Tue Apr  8 18:00:32 2025.
 Gaussian 16:  ES64L-G16RevC.01  3-Jul-2019

 ----------------------------------------------------------------------
 #t hf aug-cc-pvdz iop(5/13=1,5/36=2,99/5=2) pseudo=read geom=check gue
 ss=(read,tcheck) scf=(maxcycle=1)
 ----------------------------------------------------------------------
 -----
 title
 -----
 Structure from the checkpoint file:  "37Conf8_Pantoprazole_8_mol1.chk"
 Charge =  0 Multiplicity = 1

                         Standard orientation:
 ---------------------------------------------------------------------
 Center     Atomic      Atomic             Coordinates (Angstroms)
 Number     Number       Type             X           Y           Z
 ---------------------------------------------------------------------
      1          1           0        7.025210    0.405521   -0.286650
      2          6           0        6.005800    0.033501   -0.394450
      3          6           0        5.732550   -1.218679   -0.937240
      4          6           0        4.939040    0.843061    0.004000
      5          1           0        6.550340   -1.872639   -1.251950
      6          7           0        4.494130   -1.691619   -1.127530
      7          8           0        5.218090    2.071241    0.539480
      8          6           0        3.635860    0.323710   -0.118460
      9          6           0        3.460080   -0.933240   -0.729760
     10          6           0        4.598600    3.196691   -0.111770
     11          8           0        2.518970    1.019550    0.315850
     12          6           0        2.089560   -1.484560   -0.960210
     13          1           0        4.900440    3.233311   -1.170020
     14          1           0        3.501730    3.158670   -0.046190
     15          1           0        4.975110    4.084201    0.408580
     16          6           0        2.494190    1.272120    1.744060
     17         16           0        1.198190   -1.914420    0.652170
     18          1           0        1.448570   -0.806800   -1.536900
     19          1           0        2.157081   -2.457140   -1.463330
     20          6           0       -0.327130   -1.000570    0.262440
     21          8           0        0.888251   -3.368060    0.629240
     22          7           0       -1.532800   -1.494860    0.419690
     23          7           0       -0.310220    0.339910   -0.065490
     24          6           0       -2.382040   -0.427390    0.160790
     25          1           0        0.535770    0.893500   -0.195890
     26          6           0       -1.633140    0.741380   -0.141260
     27          6           0       -3.783760   -0.388911    0.183600
     28          6           0       -2.246300    1.961870   -0.431100
     29          1           0       -4.353130   -1.273471    0.464570
     30          6           0       -4.384050    0.829469   -0.122150
     31          1           0       -1.674890    2.860880   -0.664710
     32          6           0       -3.636650    1.986779   -0.422310
     33          8           0       -5.764830    1.017019   -0.135160
     34          1           0       -4.180320    2.903519   -0.649580
     35          6           0       -6.551560   -0.083151   -0.374910
     36          9           0       -7.748110    0.376849   -0.816200
     37          9           0       -6.791800   -0.780681    0.787160
     38          1           0       -6.114220   -0.778751   -1.111110
     39          1           0        1.566810    1.823260    1.939170
     40          1           0        3.362110    1.869940    2.052690
     41          1           0        2.479590    0.316710    2.288350
 ---------------------------------------------------------------------

 SCF Done:  E(RHF) =  -1674.30894880     A.U. after    2 cycles

 The electronic state is 1-A.
 Alpha  occ. eigenvalues --  -93.68835 -26.14722 -26.14126 -20.64106 -20.63365
 Alpha  occ. eigenvalues --  -20.63134 -20.53734 -15.70158 -15.65505 -15.64026
 Alpha  occ. eigenvalues --  -11.48932 -11.36080 -11.35672 -11.34033 -11.33186
 Alpha  occ. eigenvalues --  -11.32698 -11.32656 -11.32535 -11.31044 -11.30271
 Alpha  occ. eigenvalues --  -11.29980 -11.29079 -11.27651 -11.27447 -11.26477
 Alpha  occ. eigenvalues --  -11.26425  -8.97048  -6.31345  -6.31197  -6.30866
 Alpha  occ. eigenvalues --   -1.71218  -1.66260  -1.41038  -1.40934  -1.38636
 Alpha  occ. eigenvalues --   -1.33816  -1.31687  -1.25600  -1.16701  -1.15078
 Alpha  occ. eigenvalues --   -1.10100  -1.08922  -1.04663  -1.02909  -1.01454
 Alpha  occ. eigenvalues --   -0.98664  -0.97767  -0.95975  -0.92383  -0.87839
 Alpha  occ. eigenvalues --   -0.86433  -0.86069  -0.85162  -0.83561  -0.82722
 Alpha  occ. eigenvalues --   -0.82090  -0.78789  -0.75881  -0.75417  -0.74667
 Alpha  occ. eigenvalues --   -0.73682  -0.72917  -0.71637  -0.70762  -0.70224
 Alpha  occ. eigenvalues --   -0.69361  -0.68694  -0.67693  -0.66532  -0.65634
 Alpha  occ. eigenvalues --   -0.64987  -0.64587  -0.64242  -0.63573  -0.63269
 Alpha  occ. eigenvalues --   -0.62482  -0.61064  -0.59676  -0.58908  -0.58355
 Alpha  occ. eigenvalues --   -0.58060  -0.56904  -0.56572  -0.55796  -0.55523
 Alpha  occ. eigenvalues --   -0.55030  -0.53676  -0.53303  -0.49349  -0.48487
 Alpha  occ. eigenvalues --   -0.46404  -0.45138  -0.44819  -0.43919  -0.40462
 Alpha  occ. eigenvalues --   -0.38819  -0.36336  -0.33512  -0.31801
 Alpha virt. eigenvalues --    0.01431   0.02628   0.02940   0.03624   0.04183
 Alpha virt. eigenvalues --    0.04425   0.04872   0.05140   0.05607   0.06000
 Alpha virt. eigenvalues --    0.06514   0.06894   0.07433   0.07450   0.07681

 Mulliken charges:
               1
     1  H   -0.517974
     2  C    1.284574
     3  C    0.624097
     4  C   -0.678438
     5  H   -0.405150
     6  N   -0.385583
     7  O   -0.824243
     8  C    0.430029
     9  C   -0.017959
    10  C    0.874312
    11  O   -0.592090
    12  C    0.297835
    13  H   -0.086632
    14  H   -0.178747
    15  H   -0.164058
    16  C    0.847394
    17  S    1.556848
    18  H   -0.116674
    19  H   -0.135910
    20  C   -0.376179
    21  O   -1.087973
    22  N   -0.796665
    23  N   -0.482928
    24  C   -0.528554
    25  H   -0.031791
    26  C   -0.188281
    27  C    1.481565
    28  C    1.542465
    29  H   -0.638754
    30  C    0.270628
    31  H   -0.591113
    32  C    1.022812
    33  O   -0.765381
    34  H   -0.582598
    35  C    1.197091
    36  F   -0.293639
    37  F   -0.382666
    38  H   -0.198442
    39  H   -0.161814
    40  H   -0.257391
    41  H    0.037978
 Sum of Mulliken charges =   0.00000

 Dipole moment (field-independent basis, Debye):
    X=              7.5511    Y=              7.9399    Z=             -2.1664  Tot=             11.1694

 Test job not archived.
 1\1\GINC-SE363\SP\RHF\Aug-CC-pVDZ\C16H15F2N3O4S1\OHZDE\08-Apr-2025\0\\
 #t hf aug-cc-pvdz iop(5/13=1,5/36=2,99/5=2) pseudo=read geom=check gue
 ss=(read,tcheck) scf=(maxcycle=1)\\title\\0,1\H,0,7.02521,0.40552,-0.2
 8665\C,0,6.0058,0.0335,-0.39445\C,0,5.73255,-1.21868,-0.93724\C,0,4.93
 904,0.84306,0.004\H,0,6.55034,-1.87264,-1.25195\N,0,4.49413,-1.69162,-
 1.12753\O,0,5.21809,2.07124,0.53948\C,0,3.63586,0.32371,-0.11846\C,0,3
 .46008,-0.93324,-0.72976\C,0,4.5986,3.19669,-0.11177\O,0,2.51897,1.019
 55,0.31585\C,0,2.08956,-1.48456,-0.96021\H,0,4.90044,3.23331,-1.17002\

 Normal termination of Gaussian 16 at Tue Apr  8 18:02:12 2025.
