 Gaussian 16, Revision C.01,

 ----------------------------------------------------------------------
 #t hf aug-cc-pvdz symm=none int=(grid=ultrafine) guess=(read,tcheck) s
 table=(opt,rrhf)
 ----------------------------------------------------------------------
 -----
 title
 -----
 Symbolic Z-matrix:
 Charge =  0 Multiplicity = 1

 SCF Done:  E(RHF) =  -914.173278131     A.U. after   14 cycles
 Normal termination of Gaussian 16 at Tue Apr  8 18:30:35 2025.
 Gaussian 16:  ES64L-G16RevC.01  3-Jul-2019

 ----------------------------------------------------------------------
 #t hf aug-cc-pvdz iop(5/13=1,5/36=2,99/5=2) pseudo=read geom=check gue
 ss=(read,tcheck) scf=(maxcycle=1)
 ----------------------------------------------------------------------
 -----
 title
 -----
 Structure from the checkpoint file:  "37Conf8_shiepox_depox_7_mol1.chk"
 Charge =  0 Multiplicity = 1

                         Standard orientation:
 ---------------------------------------------------------------------
 Center     Atomic      Atomic             Coordinates (Angstroms)
 Number     Number       Type             X           Y           Z
 ---------------------------------------------------------------------
      1          8           0        0.043481   -1.769770   -1.599030
      2          6           0       -0.006809   -0.873900   -0.784060
      3          6           0       -1.177159   -0.672631    0.196310
      4          6           0        1.083210    0.169750   -0.571960
      5          8           0       -0.734559   -0.854790    1.532110
      6          8           0       -1.634060    0.665589   -0.013470
      7          6           0       -2.419479   -1.523521   -0.061090
      8          1           0        0.778120    1.083700   -1.116640
      9          8           0        2.347860   -0.306439   -0.986590
     10          6           0        1.260980    0.466830    0.941360
     11          6           0        0.675831   -0.678780    1.762730
     12          6           0       -3.089160    0.661999   -0.126810
     13          1           0       -2.467999   -2.391481    0.605200
     14          1           0       -2.439599   -1.857601   -1.112670
     15          8           0       -3.496629   -0.646852    0.257980
     16          6           0        3.311240    0.359781   -0.160480
     17          1           0        0.795170    1.424890    1.220600
     18          8           0        2.672650    0.508581    1.129100
     19          1           0        0.784941   -0.493700    2.838970
     20          1           0        1.226551   -1.603800    1.510280
     21          6           0       -3.666540    1.656238    0.862640
     22          6           0       -3.459170    0.962588   -1.576630
     23          6           0        4.516521   -0.545699   -0.009320
     24          6           0        3.659590    1.736571   -0.724180
     25          1           0       -3.328901    2.672369    0.620410
     26          1           0       -4.763650    1.629838    0.820340
     27          1           0       -3.338050    1.394739    1.875690
     28          1           0       -3.045620    0.196929   -2.246680
     29          1           0       -3.056620    1.939469   -1.876310
     30          1           0       -4.551510    0.979078   -1.689220
     31          1           0        5.003051   -0.691938   -0.982410
     32          1           0        4.198101   -1.518699    0.383990
     33          1           0        5.238360   -0.093978    0.683210
     34          1           0        4.128830    1.634341   -1.711960
     35          1           0        2.758929    2.357601   -0.825130
     36          1           0        4.355630    2.252331   -0.049560
 ---------------------------------------------------------------------

 SCF Done:  E(RHF) =  -914.449374665     A.U. after    2 cycles

 The electronic state is 1-A.
 Alpha  occ. eigenvalues --  -20.59940 -20.59740 -20.59634 -20.59189 -20.59147
 Alpha  occ. eigenvalues --  -20.58985 -11.37731 -11.36484 -11.36441 -11.36439
 Alpha  occ. eigenvalues --  -11.32110 -11.31557 -11.30695 -11.30185 -11.24064
 Alpha  occ. eigenvalues --  -11.23902 -11.23586 -11.23530  -1.42252  -1.40952
 Alpha  occ. eigenvalues --   -1.37403  -1.35351  -1.30692  -1.30013  -1.09926
 Alpha  occ. eigenvalues --   -1.08285  -1.01234  -1.00207  -0.95969  -0.95456
 Alpha  occ. eigenvalues --   -0.94202  -0.88183  -0.86536  -0.81559  -0.80939
 Alpha  occ. eigenvalues --   -0.76271  -0.74907  -0.72328  -0.70405  -0.70151
 Alpha  occ. eigenvalues --   -0.68381  -0.67408  -0.65672  -0.64392  -0.63806
 Alpha  occ. eigenvalues --   -0.63248  -0.62413  -0.61110  -0.59735  -0.57443
 Alpha  occ. eigenvalues --   -0.56729  -0.56500  -0.55846  -0.55370  -0.54931
 Alpha  occ. eigenvalues --   -0.54686  -0.54571  -0.54113  -0.53797  -0.53307
 Alpha  occ. eigenvalues --   -0.52771  -0.52303  -0.50823  -0.49189  -0.47611
 Alpha  occ. eigenvalues --   -0.46653  -0.44937  -0.44295  -0.41845
 Alpha virt. eigenvalues --    0.03021   0.03720   0.04149   0.04350   0.04928
 Alpha virt. eigenvalues --    0.05223   0.05294   0.05741   0.06083   0.06793
 Alpha virt. eigenvalues --    0.07137   0.07389   0.07803   0.08312   0.08681

 Mulliken charges:
               1
     1  O   -0.520044
     2  C    0.453472
     3  C   -0.034708
     4  C    0.375033
     5  O   -0.755464
     6  O   -0.663720
     7  C    1.220239
     8  H   -0.091548
     9  O   -0.784319
    10  C    0.173048
    11  C    1.043364
    12  C   -0.712433
    13  H   -0.116145
    14  H   -0.082784
    15  O   -0.701967
    16  C   -0.801100
    17  H   -0.281869
    18  O   -0.791570
    19  H   -0.207614
    20  H   -0.058092
    21  C    0.715120
    22  C    0.636695
    23  C    1.048110
    24  C    0.596751
    25  H    0.072879
    26  H    0.038983
    27  H    0.025996
    28  H   -0.066838
    29  H    0.037408
    30  H    0.040953
    31  H    0.084733
    32  H    0.010294
    33  H    0.072141
    34  H    0.034841
    35  H   -0.094792
    36  H    0.084946
 Sum of Mulliken charges =  -0.00000

 Dipole moment (field-independent basis, Debye):
    X=              0.5244    Y=              2.9550    Z=              0.2696  Tot=              3.0133

 Test job not archived.
 1\1\GINC-SE335\SP\RHF\Aug-CC-pVDZ\C12H18O6\OHZDE\08-Apr-2025\0\\#t hf
 aug-cc-pvdz iop(5/13=1,5/36=2,99/5=2) pseudo=read geom=check guess=(re
 ad,tcheck) scf=(maxcycle=1)\\title\\0,1\O,0,0.04348,-1.76977,-1.59903\
 C,0,-0.00681,-0.8739,-0.78406\C,0,-1.17716,-0.67263,0.19631\C,0,1.0832
 1,0.16975,-0.57196\O,0,-0.73456,-0.85479,1.53211\O,0,-1.63406,0.66559,
 -0.01347\C,0,-2.41948,-1.52352,-0.06109\H,0,0.77812,1.0837,-1.11664\O,
 0,2.34786,-0.30644,-0.98659\C,0,1.26098,0.46683,0.94136\C,0,0.67583,-0
 .67878,1.76273\C,0,-3.08916,0.662,-0.12681\H,0,-2.468,-2.39148,0.6052\

 Normal termination of Gaussian 16 at Tue Apr  8 18:31:39 2025.
