 Gaussian 16, Revision C.01,

 ----------------------------------------------------------------------
 #t hf aug-cc-pvdz symm=none int=(grid=ultrafine) guess=(read,tcheck) s
 table=(opt,rrhf)
 ----------------------------------------------------------------------
 -----
 title
 -----
 Symbolic Z-matrix:
 Charge =  0 Multiplicity = 1

 SCF Done:  E(RHF) =  -891.126844676     A.U. after   14 cycles
 Normal termination of Gaussian 16 at Tue Apr  8 17:08:23 2025.
 Gaussian 16:  ES64L-G16RevC.01  3-Jul-2019

 ----------------------------------------------------------------------
 #t hf aug-cc-pvdz iop(5/13=1,5/36=2,99/5=2) pseudo=read geom=check gue
 ss=(read,tcheck) scf=(maxcycle=1)
 ----------------------------------------------------------------------
 -----
 title
 -----
 Structure from the checkpoint file:  "37Conf8_Glufosinate_4_mol1.chk"
 Charge =  0 Multiplicity = 1

                         Standard orientation:
 ---------------------------------------------------------------------
 Center     Atomic      Atomic             Coordinates (Angstroms)
 Number     Number       Type             X           Y           Z
 ---------------------------------------------------------------------
      1          1           0       -0.407310   -1.461930   -0.830531
      2          8           0       -1.250980   -1.811390   -0.405291
      3          6           0       -2.041690   -0.801090   -0.004921
      4          6           0       -1.554380    0.633000   -0.311541
      5          8           0       -3.082760   -1.004930    0.590229
      6          6           0       -0.671010    1.145690    0.846299
      7          7           0       -2.654060    1.578280   -0.489951
      8          1           0       -0.961720    0.613160   -1.239341
      9          6           0        0.531530    0.275350    1.242799
     10          1           0       -0.334770    2.157570    0.576259
     11          1           0       -1.319070    1.258440    1.730199
     12         15           0        1.707420   -0.037120   -0.106911
     13          1           0        0.208560   -0.713120    1.608889
     14          1           0        1.085970    0.759330    2.062029
     15          6           0        3.191040   -0.761240    0.612099
     16          8           0        2.260000    1.419480   -0.572981
     17          8           0        1.101160   -0.829660   -1.233931
     18          1           0        3.900050   -0.971660   -0.199131
     19          1           0        2.925130   -1.702810    1.110229
     20          1           0        3.652210   -0.076080    1.335099
     21          1           0        1.747300    1.756960   -1.330111
     22          1           0       -3.136620    1.367060   -1.366981
     23          1           0       -3.344900    1.383670    0.244059
 ---------------------------------------------------------------------

 SCF Done:  E(RHF) =  -891.348683012     A.U. after    2 cycles

 The electronic state is 1-A.
 Alpha  occ. eigenvalues --  -81.40589 -20.63233 -20.59687 -20.54778 -20.54745
 Alpha  occ. eigenvalues --  -15.61936 -11.38389 -11.29473 -11.27700 -11.27388
 Alpha  occ. eigenvalues --  -11.27032  -7.89422  -5.04017  -5.03771  -5.03592
 Alpha  occ. eigenvalues --   -1.39440  -1.37272  -1.30685  -1.27530  -1.17239
 Alpha  occ. eigenvalues --   -1.07164  -1.01130  -0.94967  -0.86993  -0.81230
 Alpha  occ. eigenvalues --   -0.81067  -0.73767  -0.70511  -0.68375  -0.66742
 Alpha  occ. eigenvalues --   -0.66182  -0.64648  -0.64255  -0.61219  -0.60641
 Alpha  occ. eigenvalues --   -0.60485  -0.59766  -0.58641  -0.57094  -0.54445
 Alpha  occ. eigenvalues --   -0.53663  -0.53001  -0.51898  -0.50108  -0.47596
 Alpha  occ. eigenvalues --   -0.45884  -0.45399  -0.40435
 Alpha virt. eigenvalues --    0.02285   0.03430   0.03850   0.04752   0.05375
 Alpha virt. eigenvalues --    0.05494   0.06203   0.07136   0.07871   0.08234
 Alpha virt. eigenvalues --    0.08796   0.09948   0.10763   0.11852   0.12387

 Mulliken charges:
               1
     1  H    0.276423
     2  O   -0.527575
     3  C    0.718586
     4  C    0.409326
     5  O   -0.547813
     6  C    0.102207
     7  N   -0.367569
     8  H   -0.208623
     9  C    0.014133
    10  H   -0.083645
    11  H   -0.017696
    12  P    2.040864
    13  H   -0.017865
    14  H   -0.092591
    15  C    0.098964
    16  O   -0.751051
    17  O   -1.106704
    18  H   -0.099861
    19  H   -0.041229
    20  H   -0.050816
    21  H    0.149796
    22  H    0.006040
    23  H    0.096698
 Sum of Mulliken charges =  -0.00000

 Dipole moment (field-independent basis, Debye):
    X=              5.2083    Y=              3.1883    Z=              1.0961  Tot=              6.2043

 Test job not archived.
 1\1\GINC-SE100\SP\RHF\Aug-CC-pVDZ\C5H12N1O4P1\OHZDE\08-Apr-2025\0\\#t
 hf aug-cc-pvdz iop(5/13=1,5/36=2,99/5=2) pseudo=read geom=check guess=
 (read,tcheck) scf=(maxcycle=1)\\title\\0,1\H,0,-0.40731,-1.46193,-0.83
 053\O,0,-1.25098,-1.81139,-0.40529\C,0,-2.04169,-0.80109,-0.00492\C,0,
 -1.55438,0.633,-0.31154\O,0,-3.08276,-1.00493,0.59023\C,0,-0.67101,1.1
 4569,0.8463\N,0,-2.65406,1.57828,-0.48995\H,0,-0.96172,0.61316,-1.2393
 4\C,0,0.53153,0.27535,1.2428\H,0,-0.33477,2.15757,0.57626\H,0,-1.31907
 ,1.25844,1.7302\P,0,1.70742,-0.03712,-0.10691\H,0,0.20856,-0.71312,1.6

 Normal termination of Gaussian 16 at Tue Apr  8 17:08:40 2025.
