 Gaussian 16, Revision C.01,

 ----------------------------------------------------------------------
 #t hf aug-cc-pvdz symm=none int=(grid=ultrafine) guess=(read,tcheck) s
 table=(opt,rrhf)
 ----------------------------------------------------------------------
 -----
 title
 -----
 Symbolic Z-matrix:
 Charge =  0 Multiplicity = 1

 SCF Done:  E(RHF) =  -1374.24736020     A.U. after   14 cycles
 Normal termination of Gaussian 16 at Tue Apr  8 18:27:01 2025.
 Gaussian 16:  ES64L-G16RevC.01  3-Jul-2019

 ----------------------------------------------------------------------
 #t hf aug-cc-pvdz iop(5/13=1,5/36=2,99/5=2) pseudo=read geom=check gue
 ss=(read,tcheck) scf=(maxcycle=1)
 ----------------------------------------------------------------------
 -----
 title
 -----
 Structure from the checkpoint file:  "37Conf8_VX_2_mol1.chk"
 Charge =  0 Multiplicity = 1

                         Standard orientation:
 ---------------------------------------------------------------------
 Center     Atomic      Atomic             Coordinates (Angstroms)
 Number     Number       Type             X           Y           Z
 ---------------------------------------------------------------------
      1          1           0       -2.263950    1.746360    1.487921
      2          6           0       -2.782630    1.806210    0.518671
      3          6           0       -3.890030    2.836290    0.538431
      4          8           0       -3.375850    0.512290    0.231361
      5          1           0       -2.037530    2.029210   -0.263019
      6          1           0       -4.399470    2.881290   -0.433889
      7          1           0       -3.469670    3.828750    0.755881
      8          1           0       -4.632980    2.598130    1.311881
      9         15           0       -2.408380   -0.782130    0.143911
     10          6           0       -3.657000   -2.048540   -0.165949
     11         16           0       -1.336610   -0.545880   -1.666549
     12          8           0       -1.510980   -1.025360    1.310041
     13          1           0       -4.234030   -1.805770   -1.067079
     14          1           0       -3.146651   -3.009680   -0.301219
     15          1           0       -4.326670   -2.102050    0.702971
     16          6           0        0.369450   -0.797421   -1.028189
     17          6           0        0.967880    0.493869   -0.437049
     18          1           0        0.946520   -1.169181   -1.885319
     19          1           0        0.316620   -1.582421   -0.264769
     20          7           0        2.256740    0.344609    0.188811
     21          1           0        1.030840    1.255389   -1.230159
     22          1           0        0.244370    0.873819    0.305191
     23          6           0        3.473520    0.592099   -0.577439
     24          6           0        2.322460   -0.467561    1.404711
     25          6           0        3.596340   -0.225191   -1.875989
     26          6           0        3.659730    2.088939   -0.865559
     27          1           0        4.303630    0.285249    0.079111
     28          6           0        2.921440   -1.870511    1.203841
     29          6           0        3.056780    0.275209    2.529591
     30          1           0        1.274350   -0.598051    1.722021
     31          1           0        2.822630    0.070699   -2.601229
     32          1           0        4.573040   -0.052511   -2.352959
     33          1           0        3.494390   -1.301471   -1.681379
     34          1           0        2.856970    2.471259   -1.514599
     35          1           0        4.614360    2.275959   -1.379899
     36          1           0        3.643550    2.664269    0.069761
     37          1           0        2.374149   -2.434131    0.435851
     38          1           0        3.977430   -1.813261    0.897161
     39          1           0        2.881979   -2.444851    2.141311
     40          1           0        4.114140    0.445049    2.272821
     41          1           0        2.589340    1.252139    2.713221
     42          1           0        3.033950   -0.306201    3.463261
 ---------------------------------------------------------------------

 SCF Done:  E(RHF) =  -1374.51877010     A.U. after    2 cycles

 The electronic state is 1-A.
 Alpha  occ. eigenvalues --  -93.53593 -81.39270 -20.59935 -20.52015 -15.58883
 Alpha  occ. eigenvalues --  -11.30586 -11.26773 -11.26375 -11.26240 -11.25691
 Alpha  occ. eigenvalues --  -11.25275 -11.23904 -11.22297 -11.21932 -11.21731
 Alpha  occ. eigenvalues --  -11.21469  -8.83509  -7.87858  -6.17673  -6.17453
 Alpha  occ. eigenvalues --   -6.17185  -5.02437  -5.02164  -5.02019  -1.34832
 Alpha  occ. eigenvalues --   -1.24624  -1.19287  -1.05609  -1.04610  -1.03109
 Alpha  occ. eigenvalues --   -0.99455  -0.97869  -0.92726  -0.91414  -0.90379
 Alpha  occ. eigenvalues --   -0.85841  -0.82881  -0.81293  -0.74909  -0.73019
 Alpha  occ. eigenvalues --   -0.67963  -0.66544  -0.65563  -0.64235  -0.63243
 Alpha  occ. eigenvalues --   -0.61125  -0.60699  -0.59622  -0.58898  -0.58281
 Alpha  occ. eigenvalues --   -0.58239  -0.56437  -0.55350  -0.55276  -0.54923
 Alpha  occ. eigenvalues --   -0.53939  -0.53684  -0.53177  -0.52757  -0.52412
 Alpha  occ. eigenvalues --   -0.51410  -0.50821  -0.49118  -0.48358  -0.48255
 Alpha  occ. eigenvalues --   -0.47681  -0.47224  -0.46328  -0.45904  -0.44552
 Alpha  occ. eigenvalues --   -0.41567  -0.37162  -0.31619
 Alpha virt. eigenvalues --    0.03142   0.03668   0.03712   0.04234   0.04842
 Alpha virt. eigenvalues --    0.04974   0.05538   0.05965   0.06147   0.06578
 Alpha virt. eigenvalues --    0.06866   0.07143   0.07305   0.07601   0.08118

 Mulliken charges:
               1
     1  H   -0.233446
     2  C    0.477555
     3  C    0.389851
     4  O   -0.872220
     5  H   -0.245844
     6  H   -0.011877
     7  H    0.002603
     8  H   -0.032411
     9  P    1.936760
    10  C    0.300329
    11  S    0.007282
    12  O   -1.138519
    13  H   -0.078923
    14  H   -0.120408
    15  H   -0.149991
    16  C    0.441456
    17  C    0.279284
    18  H   -0.173070
    19  H   -0.185018
    20  N   -0.155290
    21  H   -0.262477
    22  H   -0.619680
    23  C   -0.650385
    24  C   -0.950733
    25  C    0.739661
    26  C    0.782655
    27  H   -0.373385
    28  C    0.718486
    29  C    0.871743
    30  H   -0.338656
    31  H    0.005615
    32  H   -0.112226
    33  H    0.017405
    34  H   -0.048917
    35  H   -0.046403
    36  H   -0.036584
    37  H   -0.019794
    38  H   -0.003889
    39  H   -0.090140
    40  H   -0.005571
    41  H    0.029860
    42  H   -0.044687
 Sum of Mulliken charges =  -0.00000

 Dipole moment (field-independent basis, Debye):
    X=             -0.4831    Y=              0.7344    Z=             -1.4857  Tot=              1.7262

 Test job not archived.
 1\1\GINC-SE086\SP\RHF\Aug-CC-pVDZ\C11H26N1O2P1S1\OHZDE\08-Apr-2025\0\\
 #t hf aug-cc-pvdz iop(5/13=1,5/36=2,99/5=2) pseudo=read geom=check gue
 ss=(read,tcheck) scf=(maxcycle=1)\\title\\0,1\H,0,-2.26395,1.74636,1.4
 8792\C,0,-2.78263,1.80621,0.51867\C,0,-3.89003,2.83629,0.53843\O,0,-3.
 37585,0.51229,0.23136\H,0,-2.03753,2.02921,-0.26302\H,0,-4.39947,2.881
 29,-0.43389\H,0,-3.46967,3.82875,0.75588\H,0,-4.63298,2.59813,1.31188\
 P,0,-2.40838,-0.78213,0.14391\C,0,-3.657,-2.04854,-0.16595\S,0,-1.3366
 1,-0.54588,-1.66655\O,0,-1.51098,-1.02536,1.31004\H,0,-4.23403,-1.8057

 Normal termination of Gaussian 16 at Tue Apr  8 18:28:20 2025.
