 Gaussian 16, Revision C.01,

 ----------------------------------------------------------------------
 #t hf aug-cc-pvdz symm=none int=(grid=ultrafine) guess=(read,tcheck) s
 table=(opt,rrhf)
 ----------------------------------------------------------------------
 -----
 title
 -----
 Symbolic Z-matrix:
 Charge =  0 Multiplicity = 1

 SCF Done:  E(RHF) =  -1153.32109199     A.U. after   16 cycles
 Normal termination of Gaussian 16 at Tue Apr  8 17:39:40 2025.
 Gaussian 16:  ES64L-G16RevC.01  3-Jul-2019

 ----------------------------------------------------------------------
 #t hf aug-cc-pvdz iop(5/13=1,5/36=2,99/5=2) pseudo=read geom=check gue
 ss=(read,tcheck) scf=(maxcycle=1)
 ----------------------------------------------------------------------
 -----
 title
 -----
 Structure from the checkpoint file:  "37Conf8_Pyridoxalphosphate_7_mol1.chk"
 Charge =  0 Multiplicity = 1

                         Standard orientation:
 ---------------------------------------------------------------------
 Center     Atomic      Atomic             Coordinates (Angstroms)
 Number     Number       Type             X           Y           Z
 ---------------------------------------------------------------------
      1          1           0        2.810909    2.519151    0.331241
      2          8           0        3.392470    1.737352    0.365501
      3          6           0        2.688290    0.607361    0.092301
      4          6           0        1.315220    0.572641   -0.250139
      5          6           0        3.431851   -0.598148    0.181151
      6          6           0        0.596550    1.833200   -0.432689
      7          6           0        0.723241   -0.705080   -0.463809
      8          7           0        2.853981   -1.775869   -0.041339
      9          6           0        4.886661   -0.561968    0.534901
     10          8           0       -0.601071    1.987550   -0.637399
     11          1           0        1.234879    2.757381   -0.416549
     12          6           0        1.544611   -1.818399   -0.347969
     13          6           0       -0.720029   -0.913250   -0.819639
     14          1           0        5.454820    0.047483   -0.184049
     15          1           0        5.279321   -1.584257    0.540111
     16          1           0        5.041990   -0.103468    1.523351
     17          1           0        1.124012   -2.814599   -0.512679
     18          8           0       -1.532649   -0.672711    0.356631
     19          1           0       -1.039199   -0.255710   -1.640119
     20          1           0       -0.871159   -1.954930   -1.138459
     21         15           0       -3.061260   -0.175941    0.129151
     22          8           0       -3.036280    1.363179    0.593901
     23          8           0       -3.861369   -0.846232    1.342431
     24          8           0       -3.602909   -0.500111   -1.201579
     25          1           0       -2.296420    1.823439    0.136271
     26          1           0       -3.662019   -0.414652    2.192471
 ---------------------------------------------------------------------

 SCF Done:  E(RHF) =  -1153.63947217     A.U. after    2 cycles

 The electronic state is 1-A.
 Alpha  occ. eigenvalues --  -81.44159 -20.65689 -20.62050 -20.61306 -20.60698
 Alpha  occ. eigenvalues --  -20.60449 -20.51963 -15.66898 -11.40630 -11.37051
 Alpha  occ. eigenvalues --  -11.32709 -11.32071 -11.30644 -11.30272 -11.29630
 Alpha  occ. eigenvalues --  -11.25469  -7.91941  -5.06605  -5.06545  -5.06497
 Alpha  occ. eigenvalues --   -1.42089  -1.40210  -1.38515  -1.34429  -1.33339
 Alpha  occ. eigenvalues --   -1.26140  -1.24949  -1.13151  -1.08211  -1.01879
 Alpha  occ. eigenvalues --   -0.95845  -0.93287  -0.87544  -0.83561  -0.81177
 Alpha  occ. eigenvalues --   -0.80413  -0.76662  -0.74970  -0.74157  -0.72270
 Alpha  occ. eigenvalues --   -0.70162  -0.67822  -0.66850  -0.66506  -0.64346
 Alpha  occ. eigenvalues --   -0.63704  -0.62716  -0.61568  -0.59832  -0.59233
 Alpha  occ. eigenvalues --   -0.59146  -0.57839  -0.57252  -0.56500  -0.55609
 Alpha  occ. eigenvalues --   -0.53656  -0.53311  -0.50524  -0.49552  -0.48633
 Alpha  occ. eigenvalues --   -0.47759  -0.44250  -0.41278  -0.35312
 Alpha virt. eigenvalues --    0.00658   0.01803   0.03202   0.03741   0.04296
 Alpha virt. eigenvalues --    0.04986   0.05515   0.05836   0.07058   0.07420
 Alpha virt. eigenvalues --    0.07677   0.08547   0.09180   0.09444   0.10178

 Mulliken charges:
               1
     1  H    0.189790
     2  O   -0.606765
     3  C   -0.128296
     4  C    0.419647
     5  C   -0.676821
     6  C    0.317774
     7  C    0.325714
     8  N   -0.603020
     9  C    0.855993
    10  O   -0.522170
    11  H   -0.417547
    12  C    0.775581
    13  C    0.977968
    14  H    0.116214
    15  H   -0.104189
    16  H    0.116331
    17  H   -0.418020
    18  O   -1.103414
    19  H    0.024153
    20  H   -0.290442
    21  P    2.588997
    22  O   -0.706679
    23  O   -0.644444
    24  O   -0.876694
    25  H    0.232717
    26  H    0.157621
 Sum of Mulliken charges =  -0.00000

 Dipole moment (field-independent basis, Debye):
    X=              6.8451    Y=              2.8208    Z=              2.1922  Tot=              7.7212

 Test job not archived.
 1\1\GINC-SE079\SP\RHF\Aug-CC-pVDZ\C8H10N1O6P1\OHZDE\08-Apr-2025\0\\#t
 hf aug-cc-pvdz iop(5/13=1,5/36=2,99/5=2) pseudo=read geom=check guess=
 (read,tcheck) scf=(maxcycle=1)\\title\\0,1\H,0,2.81091,2.51915,0.33124
 \O,0,3.39247,1.73735,0.3655\C,0,2.68829,0.60736,0.0923\C,0,1.31522,0.5
 7264,-0.25014\C,0,3.43185,-0.59815,0.18115\C,0,0.59655,1.8332,-0.43269
 \C,0,0.72324,-0.70508,-0.46381\N,0,2.85398,-1.77587,-0.04134\C,0,4.886
 66,-0.56197,0.5349\O,0,-0.60107,1.98755,-0.6374\H,0,1.23488,2.75738,-0
 .41655\C,0,1.54461,-1.8184,-0.34797\C,0,-0.72003,-0.91325,-0.81964\H,0

 Normal termination of Gaussian 16 at Tue Apr  8 17:40:10 2025.
