 Gaussian 16, Revision C.01,

 ----------------------------------------------------------------------
 #t hf aug-cc-pvdz symm=none int=(grid=ultrafine) guess=(read,tcheck) s
 table=(opt,rrhf)
 ----------------------------------------------------------------------
 -----
 title
 -----
 Symbolic Z-matrix:
 Charge =  0 Multiplicity = 1

 SCF Done:  E(RHF) =  -891.123165873     A.U. after   14 cycles
 Normal termination of Gaussian 16 at Tue Apr  8 17:12:24 2025.
 Gaussian 16:  ES64L-G16RevC.01  3-Jul-2019

 ----------------------------------------------------------------------
 #t hf aug-cc-pvdz iop(5/13=1,5/36=2,99/5=2) pseudo=read geom=check gue
 ss=(read,tcheck) scf=(maxcycle=1)
 ----------------------------------------------------------------------
 -----
 title
 -----
 Structure from the checkpoint file:  "37Conf8_Glufosinate_8_mol1.chk"
 Charge =  0 Multiplicity = 1

                         Standard orientation:
 ---------------------------------------------------------------------
 Center     Atomic      Atomic             Coordinates (Angstroms)
 Number     Number       Type             X           Y           Z
 ---------------------------------------------------------------------
      1          1           0       -3.163287   -2.310120   -0.260010
      2          8           0       -2.788528   -1.559920   -0.770090
      3          6           0       -2.529098   -0.577320    0.135160
      4          6           0       -1.926159    0.672420   -0.506710
      5          8           0       -2.763638   -0.694600    1.322600
      6          6           0       -0.465759    0.817221   -0.052910
      7          7           0       -2.667609    1.882190   -0.147930
      8          1           0       -1.956779    0.555340   -1.600240
      9          6           0        0.410522   -0.380929   -0.422740
     10          1           0       -0.073849    1.738521   -0.506600
     11          1           0       -0.469169    0.963491    1.039540
     12         15           0        2.184392   -0.203998   -0.050910
     13          1           0        0.362982   -0.591489   -1.503860
     14          1           0        0.084182   -1.300869    0.089620
     15          6           0        2.318081    0.192272    1.709200
     16          8           0        2.590261    1.221242   -0.748640
     17          8           0        3.008772   -1.353997   -0.516240
     18          1           0        1.806081    1.133522    1.948050
     19          1           0        3.383651    0.286303    1.955690
     20          1           0        1.883872   -0.624698    2.300800
     21          1           0        3.217881    1.035113   -1.471000
     22          1           0       -3.612839    1.844249   -0.536470
     23          1           0       -2.775789    1.911490    0.870620
 ---------------------------------------------------------------------

 SCF Done:  E(RHF) =  -891.346999489     A.U. after    2 cycles

 The electronic state is 1-A.
 Alpha  occ. eigenvalues --  -81.37860 -20.64502 -20.60722 -20.58235 -20.51253
 Alpha  occ. eigenvalues --  -15.63318 -11.41375 -11.30438 -11.26379 -11.25997
 Alpha  occ. eigenvalues --  -11.25294  -7.86649  -5.01236  -5.01007  -5.00812
 Alpha  occ. eigenvalues --   -1.43542  -1.34631  -1.33860  -1.23900  -1.18454
 Alpha  occ. eigenvalues --   -1.06838  -0.99023  -0.96004  -0.88935  -0.80283
 Alpha  occ. eigenvalues --   -0.78573  -0.74014  -0.72674  -0.67983  -0.67484
 Alpha  occ. eigenvalues --   -0.66218  -0.65176  -0.63855  -0.62509  -0.61230
 Alpha  occ. eigenvalues --   -0.58870  -0.58749  -0.56502  -0.56050  -0.53588
 Alpha  occ. eigenvalues --   -0.53035  -0.51919  -0.51497  -0.50247  -0.48933
 Alpha  occ. eigenvalues --   -0.46607  -0.43380  -0.41473
 Alpha virt. eigenvalues --    0.02896   0.03673   0.04052   0.04086   0.05455
 Alpha virt. eigenvalues --    0.06006   0.06228   0.07114   0.07669   0.08493
 Alpha virt. eigenvalues --    0.09181   0.10009   0.10594   0.11232   0.12311

 Mulliken charges:
               1
     1  H    0.204541
     2  O   -0.561539
     3  C    0.708209
     4  C    0.725537
     5  O   -0.548527
     6  C    0.105905
     7  N   -0.371048
     8  H   -0.186403
     9  C    0.066287
    10  H   -0.049153
    11  H   -0.146465
    12  P    1.975620
    13  H   -0.113397
    14  H   -0.118054
    15  C    0.134811
    16  O   -0.771601
    17  O   -0.996489
    18  H   -0.095222
    19  H   -0.139314
    20  H   -0.070245
    21  H    0.171869
    22  H    0.014627
    23  H    0.060051
 Sum of Mulliken charges =  -0.00000

 Dipole moment (field-independent basis, Debye):
    X=             -2.5736    Y=              1.5463    Z=             -0.1484  Tot=              3.0061

 Test job not archived.
 1\1\GINC-SE045\SP\RHF\Aug-CC-pVDZ\C5H12N1O4P1\OHZDE\08-Apr-2025\0\\#t
 hf aug-cc-pvdz iop(5/13=1,5/36=2,99/5=2) pseudo=read geom=check guess=
 (read,tcheck) scf=(maxcycle=1)\\title\\0,1\H,0,-3.16329,-2.31012,-0.26
 001\O,0,-2.78853,-1.55992,-0.77009\C,0,-2.5291,-0.57732,0.13516\C,0,-1
 .92616,0.67242,-0.50671\O,0,-2.76364,-0.6946,1.3226\C,0,-0.46576,0.817
 22,-0.05291\N,0,-2.66761,1.88219,-0.14793\H,0,-1.95678,0.55534,-1.6002
 4\C,0,0.41052,-0.38093,-0.42274\H,0,-0.07385,1.73852,-0.5066\H,0,-0.46
 917,0.96349,1.03954\P,0,2.18439,-0.204,-0.05091\H,0,0.36298,-0.59149,-

 Normal termination of Gaussian 16 at Tue Apr  8 17:12:40 2025.
