 Gaussian 16, Revision C.01,

 ----------------------------------------------------------------------
 #t hf aug-cc-pvdz symm=none int=(grid=ultrafine) guess=(read,tcheck) s
 table=(opt,rrhf)
 ----------------------------------------------------------------------
 -----
 title
 -----
 Symbolic Z-matrix:
 Charge =  0 Multiplicity = 1

 SCF Done:  E(RHF) =  -1009.03505716     A.U. after   15 cycles
 Normal termination of Gaussian 16 at Tue Apr  8 17:10:56 2025.
 Gaussian 16:  ES64L-G16RevC.01  3-Jul-2019

 ----------------------------------------------------------------------
 #t hf aug-cc-pvdz iop(5/13=1,5/36=2,99/5=2) pseudo=read geom=check gue
 ss=(read,tcheck) scf=(maxcycle=1)
 ----------------------------------------------------------------------
 -----
 title
 -----
 Structure from the checkpoint file:  "37Conf8_Gemcitabine_4_mol1.chk"
 Charge =  0 Multiplicity = 1

                         Standard orientation:
 ---------------------------------------------------------------------
 Center     Atomic      Atomic             Coordinates (Angstroms)
 Number     Number       Type             X           Y           Z
 ---------------------------------------------------------------------
      1          1           0       -4.677129   -0.782797   -0.108840
      2          8           0       -4.543939   -1.577777    0.441450
      3          6           0       -3.156299   -1.887267    0.435800
      4          6           0       -2.315189   -0.631017    0.596520
      5          1           0       -2.850930   -2.409077   -0.493610
      6          1           0       -2.973500   -2.566707    1.280560
      7          1           0       -2.659189   -0.069067    1.487110
      8          8           0       -0.928529   -0.973978    0.714880
      9          6           0       -2.352549    0.303153   -0.618660
     10          6           0       -0.199369    0.250082    0.563750
     11          1           0       -2.284589   -0.306547   -1.540770
     12          8           0       -3.524149    1.092323   -0.593900
     13          6           0       -1.010159    1.062322   -0.493650
     14          1           0       -0.171029    0.837482    1.497540
     15          7           0        1.167911   -0.036508    0.234650
     16          1           0       -3.496778    1.727273   -1.331340
     17          9           0       -1.190718    2.352892   -0.086420
     18          9           0       -0.369759    1.120672   -1.714140
     19          6           0        2.209091    0.596631    1.038720
     20          6           0        1.475181   -0.907279   -0.764900
     21          8           0        1.871772    1.362991    1.931440
     22          7           0        3.496021    0.277421    0.724400
     23          1           0        0.631771   -1.357378   -1.286570
     24          6           0        2.767991   -1.205349   -1.061070
     25          6           0        3.771041   -0.560599   -0.263600
     26          1           0        3.012911   -1.902769   -1.859360
     27          7           0        5.083811   -0.795750   -0.519880
     28          1           0        5.372531   -1.510820   -1.172890
     29          1           0        5.766351   -0.390350    0.110560
 ---------------------------------------------------------------------

 SCF Done:  E(RHF) =  -1009.34555796     A.U. after    2 cycles

 The electronic state is 1-A.
 Alpha  occ. eigenvalues --  -26.16128 -26.15764 -20.62517 -20.62106 -20.58549
 Alpha  occ. eigenvalues --  -20.53137 -15.69862 -15.66978 -15.61332 -11.45072
 Alpha  occ. eigenvalues --  -11.39883 -11.37509 -11.37158 -11.34496 -11.34296
 Alpha  occ. eigenvalues --  -11.32679 -11.30961 -11.26153  -1.71989  -1.67506
 Alpha  occ. eigenvalues --   -1.40164  -1.37198  -1.35652  -1.33152  -1.27759
 Alpha  occ. eigenvalues --   -1.24545  -1.15283  -1.09180  -1.07867  -1.03570
 Alpha  occ. eigenvalues --   -0.94900  -0.92706  -0.89910  -0.87637  -0.86064
 Alpha  occ. eigenvalues --   -0.83620  -0.81826  -0.79533  -0.77674  -0.75864
 Alpha  occ. eigenvalues --   -0.75465  -0.75029  -0.73029  -0.71600  -0.70844
 Alpha  occ. eigenvalues --   -0.69843  -0.69149  -0.67834  -0.64974  -0.64735
 Alpha  occ. eigenvalues --   -0.63560  -0.62793  -0.62050  -0.61534  -0.60511
 Alpha  occ. eigenvalues --   -0.59867  -0.57691  -0.55901  -0.54124  -0.51972
 Alpha  occ. eigenvalues --   -0.50484  -0.50038  -0.47764  -0.47247  -0.45776
 Alpha  occ. eigenvalues --   -0.42614  -0.38663  -0.35306
 Alpha virt. eigenvalues --    0.01789   0.02676   0.03544   0.04402   0.04956
 Alpha virt. eigenvalues --    0.05731   0.06419   0.06704   0.07189   0.07802
 Alpha virt. eigenvalues --    0.08138   0.08528   0.08931   0.10467   0.10593

 Mulliken charges:
               1
     1  H    0.214257
     2  O   -0.585825
     3  C    1.097764
     4  C   -0.124901
     5  H   -0.025822
     6  H   -0.069679
     7  H   -0.123206
     8  O   -0.807544
     9  C    0.452870
    10  C    1.162944
    11  H   -0.085684
    12  O   -0.623901
    13  C    0.337718
    14  H   -0.255122
    15  N   -0.427826
    16  H    0.179549
    17  F   -0.358448
    18  F   -0.412119
    19  C    0.667783
    20  C    0.325090
    21  O   -0.519008
    22  N   -0.580243
    23  H   -0.489665
    24  C    1.324417
    25  C    0.501164
    26  H   -0.539192
    27  N   -0.213093
    28  H   -0.017662
    29  H   -0.004615
 Sum of Mulliken charges =  -0.00000

 Dipole moment (field-independent basis, Debye):
    X=              1.2999    Y=             -4.2442    Z=             -6.1813  Tot=              7.6099

 Test job not archived.
 1\1\GINC-SE337\SP\RHF\Aug-CC-pVDZ\C9H11F2N3O4\OHZDE\08-Apr-2025\0\\#t
 hf aug-cc-pvdz iop(5/13=1,5/36=2,99/5=2) pseudo=read geom=check guess=
 (read,tcheck) scf=(maxcycle=1)\\title\\0,1\H,0,-4.67713,-0.7828,-0.108
 84\O,0,-4.54394,-1.57778,0.44145\C,0,-3.1563,-1.88727,0.4358\C,0,-2.31
 519,-0.63102,0.59652\H,0,-2.85093,-2.40908,-0.49361\H,0,-2.9735,-2.566
 71,1.28056\H,0,-2.65919,-0.06907,1.48711\O,0,-0.92853,-0.97398,0.71488
 \C,0,-2.35255,0.30315,-0.61866\C,0,-0.19937,0.25008,0.56375\H,0,-2.284
 59,-0.30655,-1.54077\O,0,-3.52415,1.09232,-0.5939\C,0,-1.01016,1.06232

 Normal termination of Gaussian 16 at Tue Apr  8 17:11:35 2025.
