 Gaussian 16, Revision C.01,

 ----------------------------------------------------------------------
 #t hf aug-cc-pvdz symm=none int=(grid=ultrafine) guess=(read,tcheck) s
 table=(opt,rrhf)
 ----------------------------------------------------------------------
 -----
 title
 -----
 Symbolic Z-matrix:
 Charge =  0 Multiplicity = 1

 SCF Done:  E(RHF) =  -1542.36740831     A.U. after   17 cycles
 Normal termination of Gaussian 16 at Tue Apr  8 18:00:53 2025.
 Gaussian 16:  ES64L-G16RevC.01  3-Jul-2019

 ----------------------------------------------------------------------
 #t hf aug-cc-pvdz iop(5/13=1,5/36=2,99/5=2) pseudo=read geom=check gue
 ss=(read,tcheck) scf=(maxcycle=1)
 ----------------------------------------------------------------------
 -----
 title
 -----
 Structure from the checkpoint file:  "37Conf8_Indometacin_2_mol1.chk"
 Charge =  0 Multiplicity = 1

                         Standard orientation:
 ---------------------------------------------------------------------
 Center     Atomic      Atomic             Coordinates (Angstroms)
 Number     Number       Type             X           Y           Z
 ---------------------------------------------------------------------
      1          1           0       -0.859051    4.266821   -1.435110
      2          8           0       -0.695911    3.783461   -0.598410
      3          6           0       -1.930151    3.438870   -0.127110
      4          6           0       -1.828391    2.631200    1.155450
      5          8           0       -2.957581    3.739300   -0.696300
      6          6           0       -1.376081    1.230210    0.879010
      7          1           0       -2.825641    2.632200    1.615130
      8          1           0       -1.126211    3.139670    1.832120
      9          6           0       -2.230581    0.168500    0.403820
     10          6           0       -0.109001    0.721261    1.049390
     11          6           0       -3.577661    0.133540    0.038850
     12          6           0       -1.441580   -1.006170    0.340360
     13          7           0       -0.123041   -0.649829    0.698250
     14          6           0        1.069319    1.403581    1.656560
     15          1           0       -4.202011    1.027710    0.047840
     16          6           0       -4.124730   -1.086340   -0.375660
     17          6           0       -1.979390   -2.219900   -0.073620
     18          6           0        0.949480   -1.562089    0.684510
     19          1           0        1.756699    1.825661    0.909250
     20          1           0        0.719909    2.234041    2.284510
     21          1           0        1.654319    0.722391    2.288950
     22          8           0       -5.452110   -1.054120   -0.712720
     23          6           0       -3.330970   -2.249940   -0.430380
     24          1           0       -1.377060   -3.125120   -0.097000
     25          6           0        2.291220   -1.040439    0.298980
     26          8           0        0.767040   -2.755849    0.893690
     27          6           0       -6.049470   -2.265610   -1.157190
     28          1           0       -3.764360   -3.197590   -0.744650
     29          6           0        3.430220   -1.634639    0.860620
     30          6           0        2.445009   -0.076599   -0.707680
     31          1           0       -5.561330   -2.647800   -2.069850
     32          1           0       -7.093920   -2.019750   -1.380640
     33          1           0       -6.017490   -3.044640   -0.376550
     34          1           0        3.301030   -2.411379    1.615370
     35          6           0        4.703720   -1.244849    0.460190
     36          1           0        1.562989    0.368721   -1.171010
     37          6           0        3.714339    0.302451   -1.137850
     38          1           0        5.593210   -1.688639    0.906470
     39          6           0        4.835969   -0.276209   -0.539720
     40          1           0        3.840409    1.038221   -1.931600
     41         17           0        6.423569    0.207351   -1.055430
 ---------------------------------------------------------------------

 SCF Done:  E(RHF) =  -1542.70430190     A.U. after    2 cycles

 The electronic state is 1-A.
 Alpha  occ. eigenvalues -- -103.68363 -20.63428 -20.59398 -20.57413 -20.57261
 Alpha  occ. eigenvalues --  -15.69256 -11.41005 -11.40023 -11.33854 -11.31073
 Alpha  occ. eigenvalues --  -11.30780 -11.29504 -11.28716 -11.28382 -11.28235
 Alpha  occ. eigenvalues --  -11.28104 -11.27981 -11.27885 -11.27446 -11.26137
 Alpha  occ. eigenvalues --  -11.25623 -11.25311 -11.25083 -11.24196 -11.23811
 Alpha  occ. eigenvalues --  -10.71661  -8.37401  -8.37086  -8.37072  -1.42618
 Alpha  occ. eigenvalues --   -1.37597  -1.36115  -1.33011  -1.27649  -1.22008
 Alpha  occ. eigenvalues --   -1.16006  -1.13238  -1.10444  -1.04940  -1.04528
 Alpha  occ. eigenvalues --   -1.02935  -1.02018  -1.00753  -0.94628  -0.93568
 Alpha  occ. eigenvalues --   -0.88772  -0.87135  -0.85021  -0.83195  -0.82047
 Alpha  occ. eigenvalues --   -0.78820  -0.77298  -0.73501  -0.72514  -0.71176
 Alpha  occ. eigenvalues --   -0.70098  -0.69333  -0.68198  -0.67651  -0.67153
 Alpha  occ. eigenvalues --   -0.65935  -0.65831  -0.64572  -0.64440  -0.62955
 Alpha  occ. eigenvalues --   -0.61841  -0.61501  -0.60338  -0.60116  -0.59211
 Alpha  occ. eigenvalues --   -0.58785  -0.57605  -0.57395  -0.56299  -0.55750
 Alpha  occ. eigenvalues --   -0.54925  -0.54513  -0.53904  -0.53357  -0.51961
 Alpha  occ. eigenvalues --   -0.51282  -0.50780  -0.49282  -0.48825  -0.48379
 Alpha  occ. eigenvalues --   -0.48162  -0.46623  -0.44764  -0.39094  -0.37437
 Alpha  occ. eigenvalues --   -0.36170  -0.29985  -0.29870
 Alpha virt. eigenvalues --    0.02615   0.03264   0.03567   0.03666   0.04714
 Alpha virt. eigenvalues --    0.04910   0.05052   0.05410   0.05682   0.05873
 Alpha virt. eigenvalues --    0.06647   0.06906   0.06925   0.07541   0.08079

 Mulliken charges:
               1
     1  H    0.225260
     2  O   -0.619582
     3  C    0.898031
     4  C    0.345849
     5  O   -0.533319
     6  C    0.110138
     7  H    0.010451
     8  H    0.020268
     9  C   -0.367563
    10  C   -0.766491
    11  C    0.798547
    12  C    0.213436
    13  N   -0.786649
    14  C    1.079578
    15  H   -0.652434
    16  C   -0.077988
    17  C    0.788153
    18  C   -0.806198
    19  H    0.201899
    20  H   -0.054197
    21  H    0.074028
    22  O   -0.701191
    23  C    0.970660
    24  H   -0.669767
    25  C    1.250212
    26  O   -0.496275
    27  C    0.822667
    28  H   -0.742839
    29  C    0.268679
    30  C    0.913744
    31  H   -0.055758
    32  H   -0.341594
    33  H   -0.062923
    34  H   -0.645866
    35  C    0.934195
    36  H   -0.688847
    37  C    0.603949
    38  H   -0.432307
    39  C   -0.232581
    40  H   -0.460825
    41  Cl  -0.334549
 Sum of Mulliken charges =  -0.00000

 Dipole moment (field-independent basis, Debye):
    X=              2.3307    Y=              0.8694    Z=              0.5801  Tot=              2.5543

 Test job not archived.
 1\1\GINC-SE078\SP\RHF\Aug-CC-pVDZ\C19H16Cl1N1O4\OHZDE\08-Apr-2025\0\\#
 t hf aug-cc-pvdz iop(5/13=1,5/36=2,99/5=2) pseudo=read geom=check gues
 s=(read,tcheck) scf=(maxcycle=1)\\title\\0,1\H,0,-0.85905,4.26682,-1.4
 3511\O,0,-0.69591,3.78346,-0.59841\C,0,-1.93015,3.43887,-0.12711\C,0,-
 1.82839,2.6312,1.15545\O,0,-2.95758,3.7393,-0.6963\C,0,-1.37608,1.2302
 1,0.87901\H,0,-2.82564,2.6322,1.61513\H,0,-1.12621,3.13967,1.83212\C,0
 ,-2.23058,0.1685,0.40382\C,0,-0.109,0.72126,1.04939\C,0,-3.57766,0.133
 54,0.03885\C,0,-1.44158,-1.00617,0.34036\N,0,-0.12304,-0.64983,0.69825

 Normal termination of Gaussian 16 at Tue Apr  8 18:02:51 2025.
