 Gaussian 16, Revision C.01,

 ----------------------------------------------------------------------
 #t hf aug-cc-pvdz symm=none int=(grid=ultrafine) guess=(read,tcheck) s
 table=(opt,rrhf)
 ----------------------------------------------------------------------
 -----
 title
 -----
 Symbolic Z-matrix:
 Charge =  0 Multiplicity = 1

 SCF Done:  E(RHF) =  -787.713797900     A.U. after   16 cycles
 Normal termination of Gaussian 16 at Tue Apr  8 17:23:38 2025.
 Gaussian 16:  ES64L-G16RevC.01  3-Jul-2019

 ----------------------------------------------------------------------
 #t hf aug-cc-pvdz iop(5/13=1,5/36=2,99/5=2) pseudo=read geom=check gue
 ss=(read,tcheck) scf=(maxcycle=1)
 ----------------------------------------------------------------------
 -----
 title
 -----
 Structure from the checkpoint file:  "37Conf8_Eperisone_5_mol1.chk"
 Charge =  0 Multiplicity = 1

                         Standard orientation:
 ---------------------------------------------------------------------
 Center     Atomic      Atomic             Coordinates (Angstroms)
 Number     Number       Type             X           Y           Z
 ---------------------------------------------------------------------
      1          8           0       -0.009370    2.180170    1.074299
      2          6           0       -0.231560    0.996140    0.830559
      3          6           0        0.869880   -0.037070    1.043259
      4          6           0       -1.578280    0.579670    0.319949
      5          6           0        1.379580   -0.664940   -0.305061
      6          6           0        0.501790   -1.091920    2.096669
      7          1           0        1.697510    0.564460    1.449089
      8          6           0       -2.612270    1.531120    0.343519
      9          6           0       -1.858080   -0.692640   -0.203471
     10          7           0        2.797800   -0.515580   -0.577781
     11          1           0        0.838830   -0.221470   -1.155561
     12          1           0        1.149750   -1.744730   -0.305711
     13          6           0        3.664530   -1.164130    0.400689
     14          6           0        3.199610    0.863130   -0.851501
     15          1           0        3.299230   -2.193110    0.550409
     16          1           0        3.624030   -0.656590    1.393699
     17          6           0        5.114550   -1.177340   -0.080951
     18          1           0        2.501370    1.278620   -1.594901
     19          1           0        3.119370    1.505960    0.055169
     20          6           0        4.633940    0.917700   -1.373371
     21          1           0        5.750150   -1.647140    0.685719
     22          1           0        5.180170   -1.797120   -0.990351
     23          6           0        5.592720    0.242460   -0.390811
     24          1           0        4.920630    1.967190   -1.541931
     25          1           0        4.678440    0.402190   -2.346961
     26          1           0        6.617730    0.229320   -0.791891
     27          1           0        5.624780    0.827530    0.545679
     28          1           0       -0.324450   -1.737480    1.770459
     29          1           0        1.370280   -1.734140    2.302419
     30          1           0        0.202010   -0.618810    3.043079
     31          1           0       -2.383290    2.522570    0.737029
     32          6           0       -3.880790    1.216330   -0.127151
     33          1           0       -1.079050   -1.452180   -0.257801
     34          6           0       -3.128800   -0.999330   -0.686221
     35          1           0       -4.672410    1.969540   -0.097471
     36          6           0       -4.163710   -0.055230   -0.651751
     37          1           0       -3.322990   -1.990950   -1.102641
     38          6           0       -5.551870   -0.408430   -1.118051
     39          6           0       -6.425230   -0.949800    0.024029
     40          1           0       -5.490020   -1.160580   -1.920101
     41          1           0       -6.030470    0.483340   -1.552591
     42          1           0       -7.433900   -1.199180   -0.335381
     43          1           0       -5.981730   -1.856760    0.459609
     44          1           0       -6.521670   -0.207100    0.829019
 ---------------------------------------------------------------------

 SCF Done:  E(RHF) =  -787.945014729     A.U. after    2 cycles

 The electronic state is 1-A.
 Alpha  occ. eigenvalues --  -20.55293 -15.60797 -11.33919 -11.26849 -11.26440
 Alpha  occ. eigenvalues --  -11.26221 -11.25782 -11.25410 -11.25263 -11.25146
 Alpha  occ. eigenvalues --  -11.24944 -11.24864 -11.24712 -11.24495 -11.23749
 Alpha  occ. eigenvalues --  -11.23734 -11.22726 -11.22671 -11.22452  -1.33692
 Alpha  occ. eigenvalues --   -1.20473  -1.15559  -1.08360  -1.06664  -1.03896
 Alpha  occ. eigenvalues --   -1.01578  -1.00679  -0.99223  -0.93148  -0.89651
 Alpha  occ. eigenvalues --   -0.86652  -0.84401  -0.83809  -0.82378  -0.80553
 Alpha  occ. eigenvalues --   -0.76126  -0.74403  -0.68513  -0.67552  -0.65977
 Alpha  occ. eigenvalues --   -0.64779  -0.63698  -0.63304  -0.61849  -0.61459
 Alpha  occ. eigenvalues --   -0.60037  -0.59765  -0.59381  -0.58607  -0.57638
 Alpha  occ. eigenvalues --   -0.57247  -0.55830  -0.54841  -0.54293  -0.53794
 Alpha  occ. eigenvalues --   -0.53019  -0.51345  -0.50944  -0.49885  -0.49484
 Alpha  occ. eigenvalues --   -0.48804  -0.48611  -0.48299  -0.47988  -0.46373
 Alpha  occ. eigenvalues --   -0.44548  -0.44428  -0.41972  -0.34791  -0.34135
 Alpha  occ. eigenvalues --   -0.33770
 Alpha virt. eigenvalues --    0.02830   0.03319   0.03788   0.03949   0.04445
 Alpha virt. eigenvalues --    0.04679   0.04875   0.05617   0.06084   0.06249
 Alpha virt. eigenvalues --    0.06689   0.06797   0.07036   0.07171   0.07400

 Mulliken charges:
               1
     1  O   -0.577222
     2  C   -0.807613
     3  C    0.706764
     4  C    1.348494
     5  C    0.670461
     6  C    0.833494
     7  H   -0.538778
     8  C   -0.328311
     9  C    0.883185
    10  N   -0.821180
    11  H   -0.422017
    12  H   -0.289088
    13  C    0.622879
    14  C    0.471818
    15  H   -0.329030
    16  H   -0.038005
    17  C    0.315334
    18  H   -0.251244
    19  H   -0.018503
    20  C    0.308775
    21  H   -0.067373
    22  H   -0.021775
    23  C    0.384814
    24  H   -0.070787
    25  H   -0.038775
    26  H   -0.133118
    27  H   -0.050705
    28  H   -0.031809
    29  H   -0.088122
    30  H   -0.123907
    31  H   -0.642079
    32  C   -0.108960
    33  H   -0.896944
    34  C   -0.239000
    35  H   -0.602596
    36  C    1.256233
    37  H   -0.655653
    38  C    0.435415
    39  C    0.379120
    40  H   -0.108287
    41  H   -0.090436
    42  H   -0.057373
    43  H   -0.085708
    44  H   -0.082389
 Sum of Mulliken charges =  -0.00000

 Dipole moment (field-independent basis, Debye):
    X=             -1.5245    Y=             -3.0218    Z=             -0.5366  Tot=              3.4268

 Test job not archived.
 1\1\GINC-SE089\SP\RHF\Aug-CC-pVDZ\C17H25N1O1\OHZDE\08-Apr-2025\0\\#t h
 f aug-cc-pvdz iop(5/13=1,5/36=2,99/5=2) pseudo=read geom=check guess=(
 read,tcheck) scf=(maxcycle=1)\\title\\0,1\O,0,-0.00937,2.18017,1.0743\
 C,0,-0.23156,0.99614,0.83056\C,0,0.86988,-0.03707,1.04326\C,0,-1.57828
 ,0.57967,0.31995\C,0,1.37958,-0.66494,-0.30506\C,0,0.50179,-1.09192,2.
 09667\H,0,1.69751,0.56446,1.44909\C,0,-2.61227,1.53112,0.34352\C,0,-1.
 85808,-0.69264,-0.20347\N,0,2.7978,-0.51558,-0.57778\H,0,0.83883,-0.22
 147,-1.15556\H,0,1.14975,-1.74473,-0.30571\C,0,3.66453,-1.16413,0.4006

 Normal termination of Gaussian 16 at Tue Apr  8 17:25:09 2025.
