 Gaussian 16, Revision C.01,

 ----------------------------------------------------------------------
 #t hf aug-cc-pvdz symm=none int=(grid=ultrafine) guess=(read,tcheck) s
 table=(opt,rrhf)
 ----------------------------------------------------------------------
 -----
 title
 -----
 Symbolic Z-matrix:
 Charge =  0 Multiplicity = 1

 SCF Done:  E(RHF) =  -535.051684767     A.U. after   13 cycles
 Normal termination of Gaussian 16 at Tue Apr  8 17:42:00 2025.
 Gaussian 16:  ES64L-G16RevC.01  3-Jul-2019

 ----------------------------------------------------------------------
 #t hf aug-cc-pvdz iop(5/13=1,5/36=2,99/5=2) pseudo=read geom=check gue
 ss=(read,tcheck) scf=(maxcycle=1)
 ----------------------------------------------------------------------
 -----
 title
 -----
 Structure from the checkpoint file:  "37Conf8_RAMBO_2_mol1.chk"
 Charge =  0 Multiplicity = 1

                         Standard orientation:
 ---------------------------------------------------------------------
 Center     Atomic      Atomic             Coordinates (Angstroms)
 Number     Number       Type             X           Y           Z
 ---------------------------------------------------------------------
      1          1           0       -0.863118    2.360390   -0.058370
      2          7           0       -0.187719    1.652850    0.233890
      3          7           0        0.091891    0.846400   -0.916360
      4          1           0       -0.641209    1.103220    0.974550
      5          6           0        1.496301    0.334019   -0.954310
      6          6           0       -0.723280   -0.389330   -1.005400
      7          1           0        1.794961    0.349179   -2.014340
      8          6           0        2.498941    1.091709   -0.081500
      9          6           0        1.477440   -1.142901   -0.405460
     10          1           0       -0.627450   -0.734270   -2.052950
     11          6           0       -2.210119   -0.194069   -0.761360
     12          6           0       -0.006100   -1.405690   -0.101040
     13          1           0        3.491361    1.039299   -0.558050
     14          1           0        2.222741    2.146559    0.034440
     15          6           0        2.519501    0.321519    1.246050
     16          1           0        1.823080   -1.846461   -1.177800
     17          6           0        2.427000   -1.149421    0.810770
     18          8           0       -2.504439   -0.156939    0.633460
     19          1           0       -2.546369    0.743471   -1.248590
     20          1           0       -2.767990   -1.029449   -1.229250
     21          6           0       -3.884039    0.054391    0.872470
     22          1           0       -4.498830   -0.749378    0.423860
     23          1           0       -4.224989    1.023402    0.459640
     24          1           0       -4.031579    0.054342    1.959860
     25          1           0       -0.310530   -2.444810   -0.292920
     26          1           0       -0.239300   -1.189250    0.953450
     27          1           0        1.639071    0.605279    1.843400
     28          1           0        3.410831    0.531829    1.854790
     29          1           0        3.423760   -1.505611    0.504600
     30          1           0        2.078000   -1.818351    1.612010
 ---------------------------------------------------------------------

 SCF Done:  E(RHF) =  -535.210313494     A.U. after    2 cycles

 The electronic state is 1-A.
 Alpha  occ. eigenvalues --  -20.57898 -15.62645 -15.61841 -11.29264 -11.29213
 Alpha  occ. eigenvalues --  -11.26098 -11.24551 -11.22283 -11.22178 -11.21821
 Alpha  occ. eigenvalues --  -11.21363 -11.21080  -1.34018  -1.23535  -1.10541
 Alpha  occ. eigenvalues --   -1.06017  -0.99439  -0.97786  -0.92030  -0.90180
 Alpha  occ. eigenvalues --   -0.87347  -0.77577  -0.76194  -0.72928  -0.69421
 Alpha  occ. eigenvalues --   -0.67736  -0.66003  -0.65369  -0.63281  -0.62292
 Alpha  occ. eigenvalues --   -0.61227  -0.58531  -0.56695  -0.55142  -0.54415
 Alpha  occ. eigenvalues --   -0.52502  -0.50082  -0.48891  -0.47583  -0.46509
 Alpha  occ. eigenvalues --   -0.45619  -0.45127  -0.44704  -0.44268  -0.43478
 Alpha  occ. eigenvalues --   -0.38446  -0.34700
 Alpha virt. eigenvalues --    0.02968   0.03618   0.03962   0.04306   0.05615
 Alpha virt. eigenvalues --    0.05719   0.05984   0.06255   0.06700   0.07454
 Alpha virt. eigenvalues --    0.07569   0.07872   0.08330   0.08598   0.09733

 Mulliken charges:
               1
     1  H    0.025826
     2  N   -0.181737
     3  N   -0.915417
     4  H    0.195135
     5  C    0.425642
     6  C   -0.078213
     7  H   -0.254377
     8  C    0.670595
     9  C   -0.417315
    10  H   -0.278523
    11  C    1.010971
    12  C    0.462426
    13  H   -0.121289
    14  H   -0.013879
    15  C    0.268546
    16  H   -0.177242
    17  C    0.750194
    18  O   -0.689253
    19  H   -0.090869
    20  H   -0.113433
    21  C    0.738121
    22  H   -0.072856
    23  H   -0.063648
    24  H   -0.258907
    25  H   -0.112989
    26  H   -0.138542
    27  H   -0.154150
    28  H   -0.148149
    29  H   -0.126188
    30  H   -0.140480
 Sum of Mulliken charges =  -0.00000

 Dipole moment (field-independent basis, Debye):
    X=             -2.2923    Y=             -0.9837    Z=             -0.4279  Tot=              2.5308

 Test job not archived.
 1\1\GINC-SE456\SP\RHF\Aug-CC-pVDZ\C9H18N2O1\OHZDE\08-Apr-2025\0\\#t hf
  aug-cc-pvdz iop(5/13=1,5/36=2,99/5=2) pseudo=read geom=check guess=(r
 ead,tcheck) scf=(maxcycle=1)\\title\\0,1\H,0,-0.86312,2.36039,-0.05837
 \N,0,-0.18772,1.65285,0.23389\N,0,0.09189,0.8464,-0.91636\H,0,-0.64121
 ,1.10322,0.97455\C,0,1.4963,0.33402,-0.95431\C,0,-0.72328,-0.38933,-1.
 0054\H,0,1.79496,0.34918,-2.01434\C,0,2.49894,1.09171,-0.0815\C,0,1.47
 744,-1.1429,-0.40546\H,0,-0.62745,-0.73427,-2.05295\C,0,-2.21012,-0.19
 407,-0.76136\C,0,-0.0061,-1.40569,-0.10104\H,0,3.49136,1.0393,-0.55805

 Normal termination of Gaussian 16 at Tue Apr  8 17:42:31 2025.
