 Gaussian 16, Revision C.01,

 ----------------------------------------------------------------------
 #t hf aug-cc-pvdz symm=none int=(grid=ultrafine) guess=(read,tcheck) s
 table=(opt,rrhf)
 ----------------------------------------------------------------------
 -----
 title
 -----
 Symbolic Z-matrix:
 Charge =  0 Multiplicity = 1

 SCF Done:  E(RHF) =  -1673.89510137     A.U. after   17 cycles
 Normal termination of Gaussian 16 at Tue Apr  8 18:03:56 2025.
 Gaussian 16:  ES64L-G16RevC.01  3-Jul-2019

 ----------------------------------------------------------------------
 #t hf aug-cc-pvdz iop(5/13=1,5/36=2,99/5=2) pseudo=read geom=check gue
 ss=(read,tcheck) scf=(maxcycle=1)
 ----------------------------------------------------------------------
 -----
 title
 -----
 Structure from the checkpoint file:  "37Conf8_Pantoprazole_3_mol1.chk"
 Charge =  0 Multiplicity = 1

                         Standard orientation:
 ---------------------------------------------------------------------
 Center     Atomic      Atomic             Coordinates (Angstroms)
 Number     Number       Type             X           Y           Z
 ---------------------------------------------------------------------
      1          1           0       -4.939500    2.739069    0.728331
      2          6           0       -4.440330    1.863889    0.315001
      3          6           0       -5.154289    0.678929    0.123051
      4          6           0       -3.083220    1.885119   -0.018659
      5          1           0       -6.218249    0.643018    0.374901
      6          7           0       -4.624079   -0.445441   -0.357349
      7          8           0       -2.255430    2.948840    0.145621
      8          6           0       -2.505889    0.707399   -0.548569
      9          6           0       -3.317629   -0.429691   -0.690489
     10          6           0       -2.818030    4.139569    0.699571
     11          8           0       -1.172479    0.619750   -0.842459
     12          6           0       -2.766379   -1.716551   -1.205169
     13          1           0       -3.617230    4.540639    0.055931
     14          1           0       -1.993980    4.858960    0.753771
     15          1           0       -3.216420    3.957589    1.710401
     16          6           0       -0.681029    1.457810   -1.903229
     17         16           0       -2.054548   -2.798740    0.172401
     18          1           0       -1.936839   -1.611560   -1.916309
     19          1           0       -3.580738   -2.322801   -1.618789
     20          6           0       -0.430889   -2.024530    0.177891
     21          8           0       -2.651108   -2.395401    1.490921
     22          7           0        0.482721   -2.060940   -0.767109
     23          7           0       -0.077459   -1.314810    1.290391
     24          6           0        1.511461   -1.276779   -0.263429
     25          1           0       -0.712919   -1.157220    2.069461
     26          6           0        1.174451   -0.789840    1.034511
     27          6           0        2.739131   -0.936959   -0.842069
     28          6           0        2.027511    0.039111    1.759551
     29          1           0        3.033261   -1.303479   -1.824889
     30          6           0        3.581021   -0.105079   -0.111409
     31          1           0        1.762851    0.423691    2.744861
     32          6           0        3.238881    0.390171    1.163971
     33          8           0        4.777881    0.247421   -0.741069
     34          1           0        3.910251    1.078771    1.675101
     35          6           0        5.878391    0.435002    0.054361
     36          9           0        6.972341    0.223482   -0.718729
     37          9           0        5.952850    1.740822    0.497531
     38          1           0        5.899571   -0.227098    0.936361
     39          1           0       -1.240859    1.266560   -2.832999
     40          1           0        0.367941    1.171190   -2.040139
     41          1           0       -0.749260    2.521810   -1.638569
 ---------------------------------------------------------------------

 SCF Done:  E(RHF) =  -1674.32544294     A.U. after    2 cycles

 The electronic state is 1-A.
 Alpha  occ. eigenvalues --  -93.68308 -26.14673 -26.14114 -20.63109 -20.63001
 Alpha  occ. eigenvalues --  -20.60220 -20.53976 -15.69370 -15.63641 -15.63432
 Alpha  occ. eigenvalues --  -11.48901 -11.35721 -11.34727 -11.32755 -11.32171
 Alpha  occ. eigenvalues --  -11.31938 -11.30788 -11.29798 -11.29781 -11.29717
 Alpha  occ. eigenvalues --  -11.29351 -11.28819 -11.27121 -11.26334 -11.26247
 Alpha  occ. eigenvalues --  -11.25786  -8.96623  -6.30896  -6.30759  -6.30435
 Alpha  occ. eigenvalues --   -1.71093  -1.66161  -1.40670  -1.40277  -1.36588
 Alpha  occ. eigenvalues --   -1.33785  -1.31082  -1.23876  -1.16171  -1.14631
 Alpha  occ. eigenvalues --   -1.08795  -1.07555  -1.04125  -1.02904  -1.00047
 Alpha  occ. eigenvalues --   -0.98293  -0.97681  -0.94318  -0.91319  -0.87042
 Alpha  occ. eigenvalues --   -0.85863  -0.85288  -0.83615  -0.83416  -0.82959
 Alpha  occ. eigenvalues --   -0.79906  -0.78880  -0.75297  -0.74459  -0.73928
 Alpha  occ. eigenvalues --   -0.73604  -0.71453  -0.71028  -0.70332  -0.69447
 Alpha  occ. eigenvalues --   -0.69266  -0.67716  -0.66582  -0.65576  -0.65092
 Alpha  occ. eigenvalues --   -0.63640  -0.63513  -0.63099  -0.62808  -0.62529
 Alpha  occ. eigenvalues --   -0.61554  -0.60607  -0.58412  -0.58017  -0.57823
 Alpha  occ. eigenvalues --   -0.57695  -0.56686  -0.55573  -0.54988  -0.54442
 Alpha  occ. eigenvalues --   -0.53229  -0.52263  -0.51334  -0.48607  -0.47939
 Alpha  occ. eigenvalues --   -0.46901  -0.44733  -0.44202  -0.42662  -0.40584
 Alpha  occ. eigenvalues --   -0.36801  -0.34384  -0.32661  -0.31591
 Alpha virt. eigenvalues --    0.02138   0.03124   0.03467   0.03895   0.04453
 Alpha virt. eigenvalues --    0.04896   0.05127   0.05236   0.05820   0.06202
 Alpha virt. eigenvalues --    0.06853   0.07056   0.07818   0.08058   0.08302

 Mulliken charges:
               1
     1  H   -0.675310
     2  C    1.527759
     3  C    0.520090
     4  C   -0.489573
     5  H   -0.438530
     6  N   -0.606688
     7  O   -0.702890
     8  C    0.627622
     9  C   -0.096521
    10  C    0.883518
    11  O   -0.457304
    12  C    0.203970
    13  H   -0.082107
    14  H   -0.317403
    15  H   -0.088340
    16  C    1.041134
    17  S    1.328307
    18  H   -0.043142
    19  H   -0.169847
    20  C   -0.000133
    21  O   -1.149479
    22  N   -1.029734
    23  N   -0.573160
    24  C   -0.152617
    25  H   -0.055836
    26  C   -0.175899
    27  C    1.461152
    28  C    1.122215
    29  H   -0.550352
    30  C    0.541819
    31  H   -0.624644
    32  C    0.856688
    33  O   -0.811020
    34  H   -0.601165
    35  C    1.115066
    36  F   -0.288380
    37  F   -0.363895
    38  H   -0.172597
    39  H   -0.050713
    40  H   -0.283154
    41  H   -0.178906
 Sum of Mulliken charges =   0.00000

 Dipole moment (field-independent basis, Debye):
    X=             -3.4665    Y=              4.2775    Z=              0.8787  Tot=              5.5755

 Test job not archived.
 1\1\GINC-SE328\SP\RHF\Aug-CC-pVDZ\C16H15F2N3O4S1\OHZDE\08-Apr-2025\0\\
 #t hf aug-cc-pvdz iop(5/13=1,5/36=2,99/5=2) pseudo=read geom=check gue
 ss=(read,tcheck) scf=(maxcycle=1)\\title\\0,1\H,0,-4.9395,2.73907,0.72
 833\C,0,-4.44033,1.86389,0.315\C,0,-5.15429,0.67893,0.12305\C,0,-3.083
 22,1.88512,-0.01866\H,0,-6.21825,0.64302,0.3749\N,0,-4.62408,-0.44544,
 -0.35735\O,0,-2.25543,2.94884,0.14562\C,0,-2.50589,0.7074,-0.54857\C,0
 ,-3.31763,-0.42969,-0.69049\C,0,-2.81803,4.13957,0.69957\O,0,-1.17248,
 0.61975,-0.84246\C,0,-2.76638,-1.71655,-1.20517\H,0,-3.61723,4.54064,0

 Normal termination of Gaussian 16 at Tue Apr  8 18:05:49 2025.
