 Gaussian 16, Revision C.01,

 ----------------------------------------------------------------------
 #t hf aug-cc-pvdz symm=none int=(grid=ultrafine) guess=(read,tcheck) s
 table=(opt,rrhf)
 ----------------------------------------------------------------------
 -----
 title
 -----
 Symbolic Z-matrix:
 Charge =  0 Multiplicity = 1

 SCF Done:  E(RHF) =  -891.119136367     A.U. after   14 cycles
 Normal termination of Gaussian 16 at Tue Apr  8 17:08:42 2025.
 Gaussian 16:  ES64L-G16RevC.01  3-Jul-2019

 ----------------------------------------------------------------------
 #t hf aug-cc-pvdz iop(5/13=1,5/36=2,99/5=2) pseudo=read geom=check gue
 ss=(read,tcheck) scf=(maxcycle=1)
 ----------------------------------------------------------------------
 -----
 title
 -----
 Structure from the checkpoint file:  "37Conf8_Glufosinate_5_mol1.chk"
 Charge =  0 Multiplicity = 1

                         Standard orientation:
 ---------------------------------------------------------------------
 Center     Atomic      Atomic             Coordinates (Angstroms)
 Number     Number       Type             X           Y           Z
 ---------------------------------------------------------------------
      1          1           0        3.610031    0.526922   -0.621670
      2          8           0        3.623122   -0.459998   -0.427120
      3          6           0        2.367372   -0.696328   -0.010720
      4          6           0        1.463151    0.551811   -0.085000
      5          8           0        1.988342   -1.791938    0.354750
      6          6           0        0.490751    0.646291    1.104570
      7          7           0        2.315210    1.740722   -0.270100
      8          1           0        0.857291    0.430861   -0.999560
      9          6           0       -0.640238   -0.393480    1.067110
     10          1           0        0.069951    1.665941    1.108070
     11          1           0        1.053351    0.532231    2.046070
     12         15           0       -1.881319   -0.061430   -0.224900
     13          1           0       -0.209028   -1.388090    0.878350
     14          1           0       -1.165468   -0.442980    2.033670
     15          6           0       -3.079399    1.106339    0.463100
     16          8           0       -2.802748   -1.405771   -0.275180
     17          8           0       -1.285059    0.345750   -1.533740
     18          1           0       -3.825179    1.331069   -0.310170
     19          1           0       -2.564040    2.035709    0.739690
     20          1           0       -3.578889    0.685659    1.345370
     21          1           0       -2.412918   -2.056351   -0.888050
     22          1           0        1.864170    2.426931   -0.874930
     23          1           0        2.514960    2.196362    0.623320
 ---------------------------------------------------------------------

 SCF Done:  E(RHF) =  -891.342902318     A.U. after    2 cycles

 The electronic state is 1-A.
 Alpha  occ. eigenvalues --  -81.38285 -20.61225 -20.60629 -20.55139 -20.51934
 Alpha  occ. eigenvalues --  -15.65194 -11.39093 -11.29820 -11.27153 -11.25868
 Alpha  occ. eigenvalues --  -11.25660  -7.87084  -5.01681  -5.01433  -5.01252
 Alpha  occ. eigenvalues --   -1.40389  -1.35120  -1.31461  -1.24685  -1.19121
 Alpha  occ. eigenvalues --   -1.06708  -0.99492  -0.95206  -0.87102  -0.80615
 Alpha  occ. eigenvalues --   -0.78902  -0.74706  -0.69175  -0.68270  -0.67781
 Alpha  occ. eigenvalues --   -0.65535  -0.63983  -0.62651  -0.62629  -0.60287
 Alpha  occ. eigenvalues --   -0.59305  -0.58483  -0.57480  -0.55536  -0.54840
 Alpha  occ. eigenvalues --   -0.53950  -0.51858  -0.51464  -0.48276  -0.47398
 Alpha  occ. eigenvalues --   -0.46466  -0.43397  -0.42176
 Alpha virt. eigenvalues --    0.02229   0.03362   0.04056   0.04431   0.05596
 Alpha virt. eigenvalues --    0.05613   0.06304   0.06922   0.07590   0.08368
 Alpha virt. eigenvalues --    0.08927   0.09562   0.11252   0.11549   0.12308

 Mulliken charges:
               1
     1  H    0.317451
     2  O   -0.529279
     3  C    0.549961
     4  C    0.365825
     5  O   -0.498815
     6  C    0.297870
     7  N   -0.664223
     8  H   -0.027231
     9  C    0.166768
    10  H   -0.121861
    11  H   -0.065564
    12  P    2.093474
    13  H   -0.134150
    14  H   -0.116495
    15  C    0.082817
    16  O   -0.734928
    17  O   -1.071914
    18  H   -0.091936
    19  H   -0.113719
    20  H   -0.040733
    21  H    0.142337
    22  H    0.101291
    23  H    0.093055
 Sum of Mulliken charges =   0.00000

 Dipole moment (field-independent basis, Debye):
    X=             -2.4227    Y=              4.7271    Z=              2.9119  Tot=              6.0575

 Test job not archived.
 1\1\GINC-SE337\SP\RHF\Aug-CC-pVDZ\C5H12N1O4P1\OHZDE\08-Apr-2025\0\\#t
 hf aug-cc-pvdz iop(5/13=1,5/36=2,99/5=2) pseudo=read geom=check guess=
 (read,tcheck) scf=(maxcycle=1)\\title\\0,1\H,0,-3.61003,-0.52692,-0.62
 167\O,0,-3.62312,0.46,-0.42712\C,0,-2.36737,0.69633,-0.01072\C,0,-1.46
 315,-0.55181,-0.085\O,0,-1.98834,1.79194,0.35475\C,0,-0.49075,-0.64629
 ,1.10457\N,0,-2.31521,-1.74072,-0.2701\H,0,-0.85729,-0.43086,-0.99956\
 C,0,0.64024,0.39348,1.06711\H,0,-0.06995,-1.66594,1.10807\H,0,-1.05335
 ,-0.53223,2.04607\P,0,1.88132,0.06143,-0.2249\H,0,0.20903,1.38809,0.87

 Normal termination of Gaussian 16 at Tue Apr  8 17:08:57 2025.
