 Gaussian 16, Revision C.01,

 ----------------------------------------------------------------------
 #t hf aug-cc-pvdz symm=none int=(grid=ultrafine) guess=(read,tcheck) s
 table=(opt,rrhf)
 ----------------------------------------------------------------------
 -----
 title
 -----
 Symbolic Z-matrix:
 Charge =  0 Multiplicity = 1

 SCF Done:  E(RHF) =  -1542.35955732     A.U. after   17 cycles
 Normal termination of Gaussian 16 at Tue Apr  8 17:51:57 2025.
 Gaussian 16:  ES64L-G16RevC.01  3-Jul-2019

 ----------------------------------------------------------------------
 #t hf aug-cc-pvdz iop(5/13=1,5/36=2,99/5=2) pseudo=read geom=check gue
 ss=(read,tcheck) scf=(maxcycle=1)
 ----------------------------------------------------------------------
 -----
 title
 -----
 Structure from the checkpoint file:  "37Conf8_Indometacin_7_mol1.chk"
 Charge =  0 Multiplicity = 1

                         Standard orientation:
 ---------------------------------------------------------------------
 Center     Atomic      Atomic             Coordinates (Angstroms)
 Number     Number       Type             X           Y           Z
 ---------------------------------------------------------------------
      1          1           0       -6.172101   -0.812960   -1.269200
      2          8           0       -6.132341   -1.103710   -0.338530
      3          6           0       -4.822751   -1.233041    0.043330
      4          6           0       -3.805141   -0.971811   -1.075350
      5          8           0       -4.550501   -1.566081    1.167670
      6          6           0       -2.412351   -0.763351   -0.590880
      7          1           0       -3.863971   -1.840411   -1.754370
      8          1           0       -4.130901   -0.100271   -1.668290
      9          6           0       -1.824891    0.517789   -0.291090
     10          6           0       -1.483791   -1.736721   -0.310970
     11          6           0       -2.333610    1.817739   -0.327270
     12          6           0       -0.496201    0.282149    0.147310
     13          7           0       -0.287411   -1.116531    0.111590
     14          6           0       -1.619461   -3.210211   -0.450790
     15          1           0       -3.355650    2.032009   -0.642980
     16          6           0       -1.517780    2.874799    0.088570
     17          6           0        0.301860    1.328609    0.600300
     18          6           0        0.861289   -1.818561    0.533600
     19          1           0       -2.529301   -3.441751   -1.019860
     20          1           0       -0.758531   -3.657361   -0.966780
     21          1           0       -1.692321   -3.699541    0.529970
     22          8           0       -2.081300    4.121799    0.020410
     23          6           0       -0.212990    2.627869    0.558460
     24          1           0        1.305900    1.164969    0.986120
     25          6           0        2.181109   -1.177621    0.270560
     26          8           0        0.781229   -2.929311    1.041390
     27          6           0       -1.301360    5.222279    0.471780
     28          1           0        0.413300    3.446549    0.907410
     29          6           0        2.428479   -0.432491   -0.891610
     30          6           0        3.233179   -1.432311    1.161290
     31          1           0       -0.379210    5.337319   -0.123030
     32          1           0       -1.930660    6.109739    0.339350
     33          1           0       -1.034810    5.120099    1.537350
     34          1           0        1.618599   -0.240131   -1.595940
     35          6           0        3.703079    0.059429   -1.158410
     36          1           0        3.037509   -2.038411    2.046620
     37          6           0        4.505539   -0.923971    0.919810
     38          1           0        3.905669    0.626909   -2.066160
     39          6           0        4.730749   -0.180881   -0.242640
     40          1           0        5.323639   -1.103392    1.616740
     41         17           0        6.319309    0.448978   -0.558920
 ---------------------------------------------------------------------

 SCF Done:  E(RHF) =  -1542.69651625     A.U. after    2 cycles

 The electronic state is 1-A.
 Alpha  occ. eigenvalues -- -103.68298 -20.63032 -20.60185 -20.57336 -20.56410
 Alpha  occ. eigenvalues --  -15.69287 -11.40409 -11.40066 -11.33799 -11.31578
 Alpha  occ. eigenvalues --  -11.30723 -11.30171 -11.28958 -11.28577 -11.28424
 Alpha  occ. eigenvalues --  -11.28290 -11.28092 -11.27821 -11.27745 -11.26277
 Alpha  occ. eigenvalues --  -11.26001 -11.24923 -11.24872 -11.24724 -11.24606
 Alpha  occ. eigenvalues --  -10.71596  -8.37336  -8.37021  -8.37007  -1.41617
 Alpha  occ. eigenvalues --   -1.37735  -1.36873  -1.32933  -1.27750  -1.21926
 Alpha  occ. eigenvalues --   -1.15844  -1.13825  -1.10634  -1.04657  -1.04234
 Alpha  occ. eigenvalues --   -1.03041  -1.02442  -1.00695  -0.94827  -0.93778
 Alpha  occ. eigenvalues --   -0.88840  -0.87017  -0.84896  -0.83678  -0.82560
 Alpha  occ. eigenvalues --   -0.79716  -0.76454  -0.74876  -0.72828  -0.71481
 Alpha  occ. eigenvalues --   -0.69905  -0.68483  -0.68094  -0.67417  -0.67205
 Alpha  occ. eigenvalues --   -0.66626  -0.66120  -0.64557  -0.64406  -0.62822
 Alpha  occ. eigenvalues --   -0.62347  -0.61995  -0.61092  -0.60252  -0.58655
 Alpha  occ. eigenvalues --   -0.57903  -0.57473  -0.56943  -0.56242  -0.55718
 Alpha  occ. eigenvalues --   -0.55054  -0.54615  -0.53777  -0.53384  -0.52492
 Alpha  occ. eigenvalues --   -0.51827  -0.50040  -0.49675  -0.48698  -0.48314
 Alpha  occ. eigenvalues --   -0.47145  -0.46913  -0.45297  -0.39789  -0.37281
 Alpha  occ. eigenvalues --   -0.36144  -0.30564  -0.30004
 Alpha virt. eigenvalues --    0.02324   0.02829   0.03386   0.03739   0.04289
 Alpha virt. eigenvalues --    0.04707   0.05060   0.05388   0.05479   0.06068
 Alpha virt. eigenvalues --    0.06314   0.06749   0.07067   0.07270   0.07930

 Mulliken charges:
               1
     1  H    0.202648
     2  O   -0.553480
     3  C    0.831060
     4  C   -0.117936
     5  O   -0.460148
     6  C    0.398108
     7  H    0.084851
     8  H   -0.086833
     9  C   -0.303841
    10  C   -0.591639
    11  C    0.955698
    12  C    0.063986
    13  N   -0.699972
    14  C    0.661753
    15  H   -0.662626
    16  C   -0.101136
    17  C    1.365467
    18  C   -0.856918
    19  H   -0.083719
    20  H    0.167067
    21  H    0.238038
    22  O   -0.721036
    23  C    0.664603
    24  H   -0.552048
    25  C    1.050933
    26  O   -0.477975
    27  C    0.865580
    28  H   -0.775675
    29  C    0.989737
    30  C    0.364236
    31  H   -0.068219
    32  H   -0.335481
    33  H   -0.058656
    34  H   -0.685662
    35  C    0.559815
    36  H   -0.635396
    37  C    0.844685
    38  H   -0.480451
    39  C   -0.223999
    40  H   -0.431586
    41  Cl  -0.343834
 Sum of Mulliken charges =  -0.00000

 Dipole moment (field-independent basis, Debye):
    X=              1.8301    Y=              2.9918    Z=             -4.6226  Tot=              5.8024

 Test job not archived.
 1\1\GINC-SE086\SP\RHF\Aug-CC-pVDZ\C19H16Cl1N1O4\OHZDE\08-Apr-2025\0\\#
 t hf aug-cc-pvdz iop(5/13=1,5/36=2,99/5=2) pseudo=read geom=check gues
 s=(read,tcheck) scf=(maxcycle=1)\\title\\0,1\H,0,-6.1721,-0.81296,-1.2
 692\O,0,-6.13234,-1.10371,-0.33853\C,0,-4.82275,-1.23304,0.04333\C,0,-
 3.80514,-0.97181,-1.07535\O,0,-4.5505,-1.56608,1.16767\C,0,-2.41235,-0
 .76335,-0.59088\H,0,-3.86397,-1.84041,-1.75437\H,0,-4.1309,-0.10027,-1
 .66829\C,0,-1.82489,0.51779,-0.29109\C,0,-1.48379,-1.73672,-0.31097\C,
 0,-2.33361,1.81774,-0.32727\C,0,-0.4962,0.28215,0.14731\N,0,-0.28741,-

 Normal termination of Gaussian 16 at Tue Apr  8 17:53:56 2025.
