 Gaussian 16, Revision C.01,

 ----------------------------------------------------------------------
 #t hf aug-cc-pvdz symm=none int=(grid=ultrafine) guess=(read,tcheck) s
 table=(opt,rrhf)
 ----------------------------------------------------------------------
 -----
 title
 -----
 Symbolic Z-matrix:
 Charge =  0 Multiplicity = 1

 SCF Done:  E(RHF) =  -76.0377272418     A.U. after   10 cycles
 Normal termination of Gaussian 16 at Tue Apr  8 18:17:42 2025.
 Gaussian 16:  ES64L-G16RevC.01  3-Jul-2019

 ----------------------------------------------------------------------
 #t hf aug-cc-pvdz iop(5/13=1,5/36=2,99/5=2) pseudo=read geom=check gue
 ss=(read,tcheck) scf=(maxcycle=1)
 ----------------------------------------------------------------------
 -----
 title
 -----
 Structure from the checkpoint file:  "3B-69_01a_water_dimerAC_mol2.chk"
 Charge =  0 Multiplicity = 1

                         Standard orientation:
 ---------------------------------------------------------------------
 Center     Atomic      Atomic             Coordinates (Angstroms)
 Number     Number       Type             X           Y           Z
 ---------------------------------------------------------------------
      1          8           0        0.000000    0.115338    0.000000
      2          1           0        0.800724   -0.461248   -0.000000
      3          1           0       -0.800724   -0.461457    0.000000
 ---------------------------------------------------------------------

 SCF Done:  E(RHF) =  -76.0638353506     A.U. after    2 cycles

 The electronic state is 1-A'.
 Alpha  occ. eigenvalues --  -20.58425  -1.29869  -0.72559  -0.58883  -0.52641
 Alpha virt. eigenvalues --    0.03521   0.05768   0.17269   0.19515   0.21879
 Alpha virt. eigenvalues --    0.22851   0.28377   0.32196   0.38196   0.40580
 Alpha virt. eigenvalues --    0.43409   0.53022   0.64096   0.64856   0.81169

 Mulliken charges:
               1
     1  O   -0.324043
     2  H    0.161953
     3  H    0.162090
 Sum of Mulliken charges =   0.00000

 Dipole moment (field-independent basis, Debye):
    X=              0.0000    Y=             -2.0289    Z=              0.0000  Tot=              2.0289

 Test job not archived.
 1\1\GINC-SE365\SP\RHF\Aug-CC-pVDZ\H2O1\OHZDE\08-Apr-2025\0\\#t hf aug-
 cc-pvdz iop(5/13=1,5/36=2,99/5=2) pseudo=read geom=check guess=(read,t
 check) scf=(maxcycle=1)\\title\\0,1\O,0,-0.084889,0.056804,0.055205\H,
 0,0.710375,0.517729,0.413971\H,0,-0.890958,0.498588,0.414274\\Version=
 ES64L-G16RevC.01\State=1-A'\HF=-76.0638354\RMSD=2.821e-03\Dipole=-0.00
 74638,0.6247591,0.4968088\Quadrupole=1.4985805,-0.6432761,-0.8553044,0
 .0256451,-0.0059545,0.4577474\PG=CS [SG(H2O1)]\\@

 Normal termination of Gaussian 16 at Tue Apr  8 18:17:42 2025.
