 Gaussian 16, Revision C.01,

 ----------------------------------------------------------------------
 #t hf aug-cc-pvdz symm=none int=(grid=ultrafine) guess=(read,tcheck) s
 table=(opt,rrhf)
 ----------------------------------------------------------------------
 -----
 title
 -----
 Symbolic Z-matrix:
 Charge =  0 Multiplicity = 1

 SCF Done:  E(RHF) =  -731.115515815     A.U. after   15 cycles
 Normal termination of Gaussian 16 at Tue Apr  8 18:35:02 2025.
 Gaussian 16:  ES64L-G16RevC.01  3-Jul-2019

 ----------------------------------------------------------------------
 #t hf aug-cc-pvdz iop(5/13=1,5/36=2,99/5=2) pseudo=read geom=check gue
 ss=(read,tcheck) scf=(maxcycle=1)
 ----------------------------------------------------------------------
 -----
 title
 -----
 Structure from the checkpoint file:  "3B-69_05a_nitromethane_trimer_mol1.chk"
 Charge =  0 Multiplicity = 1

                         Standard orientation:
 ---------------------------------------------------------------------
 Center     Atomic      Atomic             Coordinates (Angstroms)
 Number     Number       Type             X           Y           Z
 ---------------------------------------------------------------------
      1          6           0       -2.101345   -1.221284    1.354025
      2          7           0       -2.345154   -1.408190   -0.105438
      3          8           0       -3.374065   -0.946821   -0.590184
      4          8           0       -1.491787   -1.990626   -0.756568
      5          1           0       -1.572794   -2.097606    1.705886
      6          1           0       -1.473233   -0.337924    1.452542
      7          1           0       -3.053051   -1.069209    1.845236
      8          6           0        0.674315    2.890482    0.014250
      9          7           0       -0.603213    2.123488   -0.049378
     10          8           0       -0.597014    1.020862   -0.588524
     11          8           0       -1.593263    2.620221    0.464911
     12          1           0        0.422414    3.940268   -0.060642
     13          1           0        1.115414    2.677533    0.986175
     14          1           0        1.321632    2.547551   -0.781701
     15          6           0        1.629464   -1.492197   -0.065347
     16          7           0        2.914271   -0.737494   -0.001290
     17          8           0        3.860781   -1.243808    0.593910
     18          8           0        2.971281    0.341493   -0.570476
     19          1           0        0.828750   -0.764322   -0.052387
     20          1           0        1.633397   -2.030818   -1.011088
     21          1           0        1.594064   -2.182673    0.766608
 ---------------------------------------------------------------------

 SCF Done:  E(RHF) =  -731.344700728     A.U. after    2 cycles

 The electronic state is 1-A.
 Alpha  occ. eigenvalues --  -20.64058 -20.63665 -20.62463 -20.62452 -20.62065
 Alpha  occ. eigenvalues --  -20.62028 -15.93456 -15.92019 -15.91790 -11.32893
 Alpha  occ. eigenvalues --  -11.32340 -11.31417  -1.56926  -1.55462  -1.55014
 Alpha  occ. eigenvalues --   -1.38252  -1.36803  -1.36356  -1.10668  -1.09534
 Alpha  occ. eigenvalues --   -1.09240  -0.88129  -0.86803  -0.86313  -0.77791
 Alpha  occ. eigenvalues --   -0.76863  -0.76475  -0.76017  -0.75824  -0.74880
 Alpha  occ. eigenvalues --   -0.74511  -0.74338  -0.73742  -0.64239  -0.63498
 Alpha  occ. eigenvalues --   -0.62484  -0.61568  -0.60528  -0.59967  -0.53149
 Alpha  occ. eigenvalues --   -0.53110  -0.51892  -0.51726  -0.51365  -0.51180
 Alpha  occ. eigenvalues --   -0.49411  -0.48016  -0.47374
 Alpha virt. eigenvalues --    0.02136   0.03096   0.03953   0.04377   0.05337
 Alpha virt. eigenvalues --    0.06009   0.06478   0.07025   0.07271   0.08055
 Alpha virt. eigenvalues --    0.08487   0.09300   0.10543   0.11533   0.12286

 Mulliken charges:
               1
     1  C    0.997376
     2  N    0.546858
     3  O   -0.622621
     4  O   -0.607592
     5  H   -0.104657
     6  H   -0.043905
     7  H   -0.137140
     8  C    0.967299
     9  N    0.379493
    10  O   -0.497381
    11  O   -0.571881
    12  H   -0.118002
    13  H   -0.055903
    14  H   -0.083564
    15  C    1.118969
    16  N    0.391124
    17  O   -0.576548
    18  O   -0.562059
    19  H   -0.342433
    20  H   -0.010294
    21  H   -0.067139
 Sum of Mulliken charges =  -0.00000

 Dipole moment (field-independent basis, Debye):
    X=              0.3159    Y=              1.0595    Z=              3.9379  Tot=              4.0901

 Test job not archived.
 1\1\GINC-SE338\SP\RHF\Aug-CC-pVDZ\C3H9N3O6\OHZDE\08-Apr-2025\0\\#t hf
 aug-cc-pvdz iop(5/13=1,5/36=2,99/5=2) pseudo=read geom=check guess=(re
 ad,tcheck) scf=(maxcycle=1)\\title\\0,1\C,0,5.876316,12.85165,11.67900
 5\N,0,7.053622,11.936059,11.686151\O,0,7.845061,12.008533,12.621496\O,
 0,7.159396,11.135353,10.770117\H,0,5.662227,13.091026,10.645575\H,0,5.
 048894,12.295747,12.115925\H,0,6.111871,13.719841,12.279769\C,0,3.2838
 16,8.97785,13.841995\N,0,4.461122,9.893441,13.834849\O,0,5.252561,9.82
 0967,12.899504\O,0,4.566896,10.694147,14.750883\H,0,3.069727,8.738474,

 Normal termination of Gaussian 16 at Tue Apr  8 18:35:13 2025.
