 Gaussian 16, Revision C.01,

 ----------------------------------------------------------------------
 #t hf aug-cc-pvdz symm=none int=(grid=ultrafine) guess=(read,tcheck) s
 table=(opt,rrhf)
 ----------------------------------------------------------------------
 -----
 title
 -----
 Symbolic Z-matrix:
 Charge =  0 Multiplicity = 1

 SCF Done:  E(RHF) =  -378.471232544     A.U. after   13 cycles
 Normal termination of Gaussian 16 at Tue Apr  8 19:01:49 2025.
 Gaussian 16:  ES64L-G16RevC.01  3-Jul-2019

 ----------------------------------------------------------------------
 #t hf aug-cc-pvdz iop(5/13=1,5/36=2,99/5=2) pseudo=read geom=check gue
 ss=(read,tcheck) scf=(maxcycle=1)
 ----------------------------------------------------------------------
 -----
 title
 -----
 Structure from the checkpoint file:  "3B-69_18a_succinic_anhydride_dimerBC_mol3.chk"
 Charge =  0 Multiplicity = 1

                         Standard orientation:
 ---------------------------------------------------------------------
 Center     Atomic      Atomic             Coordinates (Angstroms)
 Number     Number       Type             X           Y           Z
 ---------------------------------------------------------------------
      1          8           0       -0.001720   -0.990953   -0.023203
      2          8           0        2.224252   -0.720638    0.013409
      3          8           0       -2.223681   -0.721965    0.016766
      4          6           0        1.144903   -0.206704   -0.002537
      5          6           0        0.763701    1.248900    0.001025
      6          6           0       -0.763504    1.253525   -0.005349
      7          6           0       -1.145193   -0.203176   -0.004110
      8          1           0        1.185844    1.721876    0.886243
      9          1           0        1.217106    1.731640   -0.861703
     10          1           0       -1.196507    1.726531   -0.885663
     11          1           0       -1.196697    1.733130    0.871180
 ---------------------------------------------------------------------

 SCF Done:  E(RHF) =  -378.590010411     A.U. after    2 cycles

 The electronic state is 1-A.
 Alpha  occ. eigenvalues --  -20.66147 -20.59315 -20.59280 -11.42886 -11.42860
 Alpha  occ. eigenvalues --  -11.29914 -11.29825  -1.47244  -1.39955  -1.35199
 Alpha  occ. eigenvalues --   -1.12493  -0.98234  -0.88988  -0.81440  -0.73286
 Alpha  occ. eigenvalues --   -0.72563  -0.70221  -0.64490  -0.64008  -0.63900
 Alpha  occ. eigenvalues --   -0.61842  -0.59287  -0.53344  -0.50985  -0.50798
 Alpha  occ. eigenvalues --   -0.47981
 Alpha virt. eigenvalues --    0.02195   0.03797   0.04374   0.06445   0.06841
 Alpha virt. eigenvalues --    0.09588   0.09653   0.10306   0.10881   0.12603
 Alpha virt. eigenvalues --    0.13761   0.13789   0.13824   0.14577   0.14839

 Mulliken charges:
               1
     1  O   -0.624780
     2  O   -0.444848
     3  O   -0.448076
     4  C    0.597318
     5  C    0.116744
     6  C    0.106324
     7  C    0.603126
     8  H    0.025743
     9  H    0.015844
    10  H    0.027251
    11  H    0.025354
 Sum of Mulliken charges =   0.00000

 Dipole moment (field-independent basis, Debye):
    X=              0.0134    Y=              5.6392    Z=             -0.0498  Tot=              5.6395

 Test job not archived.
 1\1\GINC-SE247\SP\RHF\Aug-CC-pVDZ\C4H4O3\OHZDE\08-Apr-2025\0\\#t hf au
 g-cc-pvdz iop(5/13=1,5/36=2,99/5=2) pseudo=read geom=check guess=(read
 ,tcheck) scf=(maxcycle=1)\\title\\0,1\O,0,8.046799,4.76221,7.411095\O,
 0,8.910411,5.314924,9.405598\O,0,7.664829,3.962487,5.355468\C,0,9.0215
 67,4.681444,8.397767\C,0,10.110376,3.74008,7.959089\C,0,9.683116,3.267
 078,6.571236\C,0,8.382065,3.980201,6.313577\H,0,11.058144,4.275993,7.9
 51684\H,0,10.20297,2.944644,8.695039\H,0,9.510611,2.193563,6.508114\H,
 0,10.392349,3.531872,5.788386\\Version=ES64L-G16RevC.01\State=1-A\HF=-

 Normal termination of Gaussian 16 at Tue Apr  8 19:01:53 2025.
