 Gaussian 16, Revision C.01,

 ----------------------------------------------------------------------
 #t hf aug-cc-pvdz symm=none int=(grid=ultrafine) guess=(read,tcheck) s
 table=(opt,rrhf)
 ----------------------------------------------------------------------
 -----
 title
 -----
 Symbolic Z-matrix:
 Charge =  0 Multiplicity = 1

 SCF Done:  E(RHF) =  -461.456973698     A.U. after   13 cycles
 Normal termination of Gaussian 16 at Tue Apr  8 19:05:10 2025.
 Gaussian 16:  ES64L-G16RevC.01  3-Jul-2019

 ----------------------------------------------------------------------
 #t hf aug-cc-pvdz iop(5/13=1,5/36=2,99/5=2) pseudo=read geom=check gue
 ss=(read,tcheck) scf=(maxcycle=1)
 ----------------------------------------------------------------------
 -----
 title
 -----
 Structure from the checkpoint file:  "3B-69_19c_benzene_dimerAB_mol1.chk"
 Charge =  0 Multiplicity = 1

                         Standard orientation:
 ---------------------------------------------------------------------
 Center     Atomic      Atomic             Coordinates (Angstroms)
 Number     Number       Type             X           Y           Z
 ---------------------------------------------------------------------
      1          6           0       -0.538467    1.283011   -3.369664
      2          6           0       -1.004560    0.350108   -2.447291
      3          6           0        0.463518    0.932903   -4.270734
      4          1           0       -0.963518    2.277951   -3.389628
      5          1           0       -1.785818    0.610346   -1.745395
      6          1           0        0.806634    1.655610   -4.996547
      7          6           0        0.538467   -1.283011   -3.329736
      8          6           0        1.004560   -0.350108   -4.252109
      9          6           0       -0.463518   -0.932903   -2.428666
     10          1           0        0.963518   -2.277951   -3.309772
     11          1           0        1.785818   -0.610346   -4.954005
     12          1           0       -0.806634   -1.655610   -1.702853
     13          6           0       -0.538467    1.283011    3.329736
     14          6           0       -1.004560    0.350108    4.252109
     15          6           0        0.463518    0.932903    2.428666
     16          1           0       -0.963518    2.277951    3.309772
     17          1           0       -1.785818    0.610346    4.954005
     18          1           0        0.806634    1.655610    1.702853
     19          6           0        0.538467   -1.283011    3.369664
     20          6           0        1.004560   -0.350108    2.447291
     21          6           0       -0.463518   -0.932903    4.270734
     22          1           0        0.963518   -2.277951    3.389628
     23          1           0        1.785818   -0.610346    1.745395
     24          1           0       -0.806634   -1.655610    4.996547
 ---------------------------------------------------------------------

 SCF Done:  E(RHF) =  -461.595851397     A.U. after    2 cycles

 The electronic state is 1-AG.
 Alpha  occ. eigenvalues --  -11.24465 -11.24465 -11.24420 -11.24420 -11.24388
 Alpha  occ. eigenvalues --  -11.24388 -11.24299 -11.24299 -11.24275 -11.24275
 Alpha  occ. eigenvalues --  -11.24219 -11.24219  -1.14162  -1.14158  -1.00972
 Alpha  occ. eigenvalues --   -1.00969  -1.00939  -1.00937  -0.82600  -0.82598
 Alpha  occ. eigenvalues --   -0.82555  -0.82553  -0.71422  -0.71405  -0.64555
 Alpha  occ. eigenvalues --   -0.64542  -0.62526  -0.62524  -0.59277  -0.59270
 Alpha  occ. eigenvalues --   -0.59189  -0.59183  -0.50566  -0.50506  -0.49835
 Alpha  occ. eigenvalues --   -0.49822  -0.49726  -0.49723  -0.34042  -0.33995
 Alpha  occ. eigenvalues --   -0.33948  -0.33838
 Alpha virt. eigenvalues --    0.03249   0.03749   0.03793   0.04625   0.04771
 Alpha virt. eigenvalues --    0.05116   0.06091   0.06187   0.06231   0.06412
 Alpha virt. eigenvalues --    0.07821   0.08271   0.10373   0.10657   0.10741

 Mulliken charges:
               1
     1  C    0.413598
     2  C    0.477807
     3  C    0.504414
     4  H   -0.448839
     5  H   -0.502717
     6  H   -0.452329
     7  C    0.416632
     8  C    0.483352
     9  C    0.510147
    10  H   -0.449474
    11  H   -0.444564
    12  H   -0.508027
    13  C    0.416632
    14  C    0.483352
    15  C    0.510147
    16  H   -0.449474
    17  H   -0.444564
    18  H   -0.508027
    19  C    0.413598
    20  C    0.477807
    21  C    0.504414
    22  H   -0.448839
    23  H   -0.502717
    24  H   -0.452329
 Sum of Mulliken charges =   0.00000

 Dipole moment (field-independent basis, Debye):
    X=             -0.0000    Y=              0.0000    Z=              0.0000  Tot=              0.0000

 Test job not archived.
 1\1\GINC-SE330\SP\RHF\Aug-CC-pVDZ\C12H12\OHZDE\08-Apr-2025\0\\#t hf au
 g-cc-pvdz iop(5/13=1,5/36=2,99/5=2) pseudo=read geom=check guess=(read
 ,tcheck) scf=(maxcycle=1)\\title\\0,1\C,0,-0.538467,20.025411,6.679436
 \C,0,-1.00456,19.092508,7.601809\C,0,0.463518,19.675303,5.778366\H,0,-
 0.963518,21.020351,6.659472\H,0,-1.785818,19.352746,8.303705\H,0,0.806
 634,20.39801,5.052553\C,0,0.538467,17.459389,6.719364\C,0,1.00456,18.3
 92292,5.796991\C,0,-0.463518,17.809497,7.620434\H,0,0.963518,16.464449
 ,6.739328\H,0,1.785818,18.132054,5.095095\H,0,-0.806634,17.08679,8.346

 Normal termination of Gaussian 16 at Tue Apr  8 19:05:21 2025.
