 Gaussian 16, Revision C.01,

 ----------------------------------------------------------------------
 #t hf aug-cc-pvdz symm=none int=(grid=ultrafine) guess=(read,tcheck) s
 table=(opt,rrhf)
 ----------------------------------------------------------------------
 -----
 title
 -----
 Symbolic Z-matrix:
 Charge =  0 Multiplicity = 1

 SCF Done:  E(RHF) =  -455.691802801     A.U. after   13 cycles
 Normal termination of Gaussian 16 at Tue Apr  8 18:36:28 2025.
 Gaussian 16:  ES64L-G16RevC.01  3-Jul-2019

 ----------------------------------------------------------------------
 #t hf aug-cc-pvdz iop(5/13=1,5/36=2,99/5=2) pseudo=read geom=check gue
 ss=(read,tcheck) scf=(maxcycle=1)
 ----------------------------------------------------------------------
 -----
 title
 -----
 Structure from the checkpoint file:  "3B-69_06c_acetic_acid_dimerAC_mol1.chk"
 Charge =  0 Multiplicity = 1

                         Standard orientation:
 ---------------------------------------------------------------------
 Center     Atomic      Atomic             Coordinates (Angstroms)
 Number     Number       Type             X           Y           Z
 ---------------------------------------------------------------------
      1          8           0       -2.664331   -0.921687   -0.462706
      2          6           0       -2.017341   -0.023455    0.259933
      3          8           0       -1.424585   -0.328421    1.290088
      4          6           0       -2.122058    1.367985   -0.280337
      5          1           0       -2.585885   -1.843514   -0.073366
      6          1           0       -3.097863    1.767859    0.001841
      7          1           0       -2.077374    1.362037   -1.366668
      8          1           0       -1.351558    2.002945    0.144120
      9          8           0        1.953832   -1.311224   -0.339887
     10          6           0        1.979349    0.006207   -0.233345
     11          8           0        1.079169    0.708260   -0.683213
     12          6           0        3.169979    0.523905    0.510529
     13          1           0        1.141122   -1.631946   -0.833995
     14          1           0        2.986536    0.389313    1.578214
     15          1           0        4.058258   -0.051067    0.260494
     16          1           0        3.314502    1.581101    0.314422
 ---------------------------------------------------------------------

 SCF Done:  E(RHF) =  -455.841020217     A.U. after    2 cycles

 The electronic state is 1-A.
 Alpha  occ. eigenvalues --  -20.63138 -20.62901 -20.55465 -20.54768 -11.40139
 Alpha  occ. eigenvalues --  -11.39414 -11.25403 -11.24147  -1.42569  -1.42202
 Alpha  occ. eigenvalues --   -1.31192  -1.30575  -1.02359  -1.01278  -0.84424
 Alpha  occ. eigenvalues --   -0.83903  -0.71374  -0.70723  -0.69128  -0.68289
 Alpha  occ. eigenvalues --   -0.66422  -0.65633  -0.58637  -0.57866  -0.57777
 Alpha  occ. eigenvalues --   -0.56764  -0.56568  -0.55770  -0.49159  -0.48207
 Alpha  occ. eigenvalues --   -0.46726  -0.45976
 Alpha virt. eigenvalues --    0.02981   0.04170   0.04680   0.05617   0.05974
 Alpha virt. eigenvalues --    0.06449   0.06834   0.08393   0.09708   0.11824
 Alpha virt. eigenvalues --    0.11855   0.13118   0.13376   0.14340   0.14866

 Mulliken charges:
               1
     1  O   -0.478923
     2  C    0.417022
     3  O   -0.530574
     4  C    0.336263
     5  H    0.202889
     6  H    0.034808
     7  H    0.013416
     8  H   -0.008022
     9  O   -0.476839
    10  C    0.408775
    11  O   -0.467804
    12  C    0.287199
    13  H    0.211196
    14  H    0.064303
    15  H    0.000393
    16  H   -0.014103
 Sum of Mulliken charges =  -0.00000

 Dipole moment (field-independent basis, Debye):
    X=              0.6558    Y=             -0.9274    Z=             -1.0969  Tot=              1.5790

 Test job not archived.
 1\1\GINC-SE079\SP\RHF\Aug-CC-pVDZ\C4H8O4\OHZDE\08-Apr-2025\0\\#t hf au
 g-cc-pvdz iop(5/13=1,5/36=2,99/5=2) pseudo=read geom=check guess=(read
 ,tcheck) scf=(maxcycle=1)\\title\\0,1\O,0,5.327155,17.887053,2.402174\
 C,0,4.525997,17.40189,3.33512\O,0,4.142801,16.236406,3.315351\C,0,4.11
 924,18.413124,4.360262\H,0,5.576489,17.191358,1.722951\H,0,3.329155,19
 .031693,3.930313\H,0,4.950397,19.071689,4.600299\H,0,3.732132,17.92444
 4,5.248152\O,0,7.1432,14.682947,5.218189\C,0,6.342041,15.16811,6.15113
 5\O,0,5.958845,16.333594,6.131367\C,0,5.935284,14.156876,7.176277\H,0,

 Normal termination of Gaussian 16 at Tue Apr  8 18:36:33 2025.
