 Gaussian 16, Revision C.01,

 ----------------------------------------------------------------------
 #t hf aug-cc-pvdz symm=none int=(grid=ultrafine) guess=(read,tcheck) s
 table=(opt,rrhf)
 ----------------------------------------------------------------------
 -----
 title
 -----
 Symbolic Z-matrix:
 Charge =  0 Multiplicity = 1

 SCF Done:  E(RHF) =  -227.768350392     A.U. after   14 cycles
 Normal termination of Gaussian 16 at Tue Apr  8 18:26:46 2025.
 Gaussian 16:  ES64L-G16RevC.01  3-Jul-2019

 ----------------------------------------------------------------------
 #t hf aug-cc-pvdz iop(5/13=1,5/36=2,99/5=2) pseudo=read geom=check gue
 ss=(read,tcheck) scf=(maxcycle=1)
 ----------------------------------------------------------------------
 -----
 title
 -----
 Structure from the checkpoint file:  "3B-69_02b_formaldehyde_dimerAC_mol1.chk"
 Charge =  0 Multiplicity = 1

                         Standard orientation:
 ---------------------------------------------------------------------
 Center     Atomic      Atomic             Coordinates (Angstroms)
 Number     Number       Type             X           Y           Z
 ---------------------------------------------------------------------
      1          8           0       -1.243954   -0.565405   -0.026527
      2          6           0       -2.172530    0.212653   -0.007834
      3          1           0       -2.357692    0.902486   -0.844190
      4          1           0       -2.866365    0.271450    0.840772
      5          8           0        2.139617   -0.430967   -0.044486
      6          6           0        1.467423    0.571059    0.065400
      7          1           0        1.155284    1.149968   -0.816121
      8          1           0        1.134107    0.944796    1.042241
 ---------------------------------------------------------------------

 SCF Done:  E(RHF) =  -227.844229214     A.U. after    2 cycles

 The electronic state is 1-A.
 Alpha  occ. eigenvalues --  -20.60494 -20.57506 -11.36781 -11.34176  -1.38059
 Alpha  occ. eigenvalues --   -1.35031  -0.88453  -0.85784  -0.71626  -0.68822
 Alpha  occ. eigenvalues --   -0.67769  -0.64883  -0.56498  -0.52998  -0.47005
 Alpha  occ. eigenvalues --   -0.44185
 Alpha virt. eigenvalues --    0.02523   0.04152   0.04326   0.06146   0.06628
 Alpha virt. eigenvalues --    0.09056   0.10627   0.11127   0.14556   0.15051
 Alpha virt. eigenvalues --    0.15260   0.16609   0.17366   0.18927   0.21699

 Mulliken charges:
               1
     1  O   -0.368572
     2  C    0.637437
     3  H   -0.128598
     4  H   -0.133102
     5  O   -0.409601
     6  C    0.695556
     7  H   -0.148541
     8  H   -0.144578
 Sum of Mulliken charges =  -0.00000

 Dipole moment (field-independent basis, Debye):
    X=             -4.3286    Y=              4.3533    Z=              0.3184  Tot=              6.1473

 Test job not archived.
 1\1\GINC-SE039\SP\RHF\Aug-CC-pVDZ\C2H4O2\OHZDE\08-Apr-2025\0\\#t hf au
 g-cc-pvdz iop(5/13=1,5/36=2,99/5=2) pseudo=read geom=check guess=(read
 ,tcheck) scf=(maxcycle=1)\\title\\0,1\O,0,9.239955,15.408112,2.838485\
 C,0,8.89538,15.312746,1.680837\H,0,8.218033,14.511974,1.349761\H,0,9.2
 44063,16.01186,0.909698\O,0,11.037562,13.610505,5.075485\C,0,10.942196
 ,13.26593,3.917837\H,0,10.141424,12.588583,3.586761\H,0,11.64131,13.61
 4613,3.146698\\Version=ES64L-G16RevC.01\State=1-A\HF=-227.8442292\RMSD
 =2.176e-03\Dipole=-0.5081146,-0.3412017,-2.3398264\Quadrupole=0.555001

 Normal termination of Gaussian 16 at Tue Apr  8 18:26:48 2025.
