 Gaussian 16, Revision C.01,

 ----------------------------------------------------------------------
 #t hf aug-cc-pvdz symm=none int=(grid=ultrafine) guess=(read,tcheck) s
 table=(opt,rrhf)
 ----------------------------------------------------------------------
 -----
 title
 -----
 Symbolic Z-matrix:
 Charge =  0 Multiplicity = 1

 SCF Done:  E(RHF) =  -638.992257152     A.U. after   15 cycles
 Normal termination of Gaussian 16 at Tue Apr  8 18:58:31 2025.
 Gaussian 16:  ES64L-G16RevC.01  3-Jul-2019

 ----------------------------------------------------------------------
 #t hf aug-cc-pvdz iop(5/13=1,5/36=2,99/5=2) pseudo=read geom=check gue
 ss=(read,tcheck) scf=(maxcycle=1)
 ----------------------------------------------------------------------
 -----
 title
 -----
 Structure from the checkpoint file:  "3B-69_11b_isoxazole_dimerAC_mol1.chk"
 Charge =  0 Multiplicity = 1

                         Standard orientation:
 ---------------------------------------------------------------------
 Center     Atomic      Atomic             Coordinates (Angstroms)
 Number     Number       Type             X           Y           Z
 ---------------------------------------------------------------------
      1          8           0       -0.536875    1.051364    1.005283
      2          7           0       -1.842995    0.672123    0.665819
      3          6           0       -2.515922    1.797028    0.525032
      4          8           0       -3.793304    1.830113    0.170689
      5          6           0       -1.701247    2.932747    0.790665
      6          6           0       -0.496944    2.394167    1.076208
      7          1           0       -4.099084    0.916298   -0.124207
      8          1           0       -1.978512    3.970652    0.752687
      9          1           0        0.459016    2.810499    1.334047
     10          8           0        0.536875   -1.051364   -1.005283
     11          7           0        1.842995   -0.672123   -0.665819
     12          6           0        2.515922   -1.797028   -0.525032
     13          8           0        3.793304   -1.830113   -0.170689
     14          6           0        1.701247   -2.932747   -0.790665
     15          6           0        0.496944   -2.394167   -1.076208
     16          1           0        4.099084   -0.916298    0.124207
     17          1           0        1.978512   -3.970652   -0.752687
     18          1           0       -0.459016   -2.810499   -1.334047
 ---------------------------------------------------------------------

 SCF Done:  E(RHF) =  -639.187895198     A.U. after    2 cycles

 The electronic state is 1-AG.
 Alpha  occ. eigenvalues --  -20.65049 -20.65049 -20.63142 -20.63141 -15.66732
 Alpha  occ. eigenvalues --  -15.66732 -11.35406 -11.35406 -11.32788 -11.32787
 Alpha  occ. eigenvalues --  -11.24708 -11.24708  -1.44213  -1.44139  -1.39240
 Alpha  occ. eigenvalues --   -1.39169  -1.12304  -1.12286  -1.06448  -1.06388
 Alpha  occ. eigenvalues --   -0.85827  -0.85784  -0.83255  -0.83216  -0.75123
 Alpha  occ. eigenvalues --   -0.74856  -0.68984  -0.68876  -0.67365  -0.67085
 Alpha  occ. eigenvalues --   -0.64089  -0.64065  -0.61265  -0.61264  -0.60276
 Alpha  occ. eigenvalues --   -0.59753  -0.55734  -0.55547  -0.46956  -0.46837
 Alpha  occ. eigenvalues --   -0.40142  -0.40072  -0.36679  -0.36643
 Alpha virt. eigenvalues --    0.03187   0.03285   0.03710   0.04707   0.05465
 Alpha virt. eigenvalues --    0.06407   0.08468   0.10284   0.10902   0.10943
 Alpha virt. eigenvalues --    0.11171   0.11251   0.12236   0.12389   0.13070

 Mulliken charges:
               1
     1  O   -0.494241
     2  N   -0.132280
     3  C    0.179202
     4  O   -0.499396
     5  C    0.874902
     6  C    0.478774
     7  H    0.192903
     8  H   -0.287757
     9  H   -0.312108
    10  O   -0.494241
    11  N   -0.132280
    12  C    0.179202
    13  O   -0.499396
    14  C    0.874902
    15  C    0.478774
    16  H    0.192903
    17  H   -0.287757
    18  H   -0.312108
 Sum of Mulliken charges =  -0.00000

 Dipole moment (field-independent basis, Debye):
    X=              0.0000    Y=              0.0000    Z=              0.0000  Tot=              0.0000

 Test job not archived.
 1\1\GINC-SE208\SP\RHF\Aug-CC-pVDZ\C6H6N2O4\OHZDE\08-Apr-2025\0\\#t hf
 aug-cc-pvdz iop(5/13=1,5/36=2,99/5=2) pseudo=read geom=check guess=(re
 ad,tcheck) scf=(maxcycle=1)\\title\\0,1\O,0,5.635182,5.056864,8.090723
 \N,0,4.329062,4.677623,7.751259\C,0,3.656135,5.802528,7.610472\O,0,2.3
 78753,5.835613,7.256129\C,0,4.47081,6.938247,7.876105\C,0,5.675113,6.3
 99667,8.161648\H,0,2.072973,4.921798,6.961233\H,0,4.193545,7.976152,7.
 838127\H,0,6.631073,6.815999,8.419487\O,0,6.708932,2.954136,6.080158\N
 ,0,8.015052,3.333377,6.419622\C,0,8.687979,2.208472,6.560409\O,0,9.965

 Normal termination of Gaussian 16 at Tue Apr  8 18:58:37 2025.
