 Gaussian 16, Revision C.01,

 ----------------------------------------------------------------------
 #t hf aug-cc-pvdz symm=none int=(grid=ultrafine) guess=(read,tcheck) s
 table=(opt,rrhf)
 ----------------------------------------------------------------------
 -----
 title
 -----
 Symbolic Z-matrix:
 Charge =  0 Multiplicity = 1

 SCF Done:  E(RHF) =  -449.655408448     A.U. after   14 cycles
 Normal termination of Gaussian 16 at Tue Apr  8 18:58:19 2025.
 Gaussian 16:  ES64L-G16RevC.01  3-Jul-2019

 ----------------------------------------------------------------------
 #t hf aug-cc-pvdz iop(5/13=1,5/36=2,99/5=2) pseudo=read geom=check gue
 ss=(read,tcheck) scf=(maxcycle=1)
 ----------------------------------------------------------------------
 -----
 title
 -----
 Structure from the checkpoint file:  "3B-69_12a_pyrazole_dimerAB_mol1.chk"
 Charge =  0 Multiplicity = 1

                         Standard orientation:
 ---------------------------------------------------------------------
 Center     Atomic      Atomic             Coordinates (Angstroms)
 Number     Number       Type             X           Y           Z
 ---------------------------------------------------------------------
      1          6           0        3.453485   -0.780752   -0.017945
      2          6           0        3.612833    0.612388    0.050365
      3          6           0        2.326333    1.115055    0.021044
      4          1           0        0.456687    0.043768   -0.051818
      5          1           0        1.965007    2.126447    0.055076
      6          1           0        4.530530    1.167190    0.113163
      7          1           0        4.203613   -1.552861   -0.017281
      8          7           0        1.491004    0.059904   -0.065775
      9          7           0        2.162337   -1.111755   -0.084729
     10          6           0       -2.249853   -1.119131    0.084615
     11          6           0       -3.575522   -0.672276   -0.025477
     12          6           0       -3.480002    0.704203   -0.068973
     13          1           0       -1.701614    1.925925   -0.074445
     14          1           0       -4.228869    1.469417   -0.165490
     15          1           0       -4.470922   -1.263598   -0.070787
     16          1           0       -1.888996   -2.131018    0.142058
     17          7           0       -2.168608    1.010342    0.015712
     18          7           0       -1.397458   -0.093091    0.107327
 ---------------------------------------------------------------------

 SCF Done:  E(RHF) =  -449.787010374     A.U. after    2 cycles

 The electronic state is 1-A.
 Alpha  occ. eigenvalues --  -15.72797 -15.67321 -15.67254 -15.63022 -11.30856
 Alpha  occ. eigenvalues --  -11.28484 -11.26731 -11.24790 -11.24344 -11.21259
 Alpha  occ. eigenvalues --   -1.35609  -1.30909  -1.09601  -1.06259  -1.04951
 Alpha  occ. eigenvalues --   -1.01789  -0.83971  -0.81909  -0.79969  -0.77838
 Alpha  occ. eigenvalues --   -0.76057  -0.72146  -0.63540  -0.62401  -0.61263
 Alpha  occ. eigenvalues --   -0.59983  -0.58326  -0.57838  -0.57415  -0.54984
 Alpha  occ. eigenvalues --   -0.47557  -0.42814  -0.38469  -0.36538  -0.34137
 Alpha  occ. eigenvalues --   -0.32381
 Alpha virt. eigenvalues --    0.01914   0.03101   0.04180   0.04802   0.05519
 Alpha virt. eigenvalues --    0.06775   0.07613   0.07963   0.09471   0.10367
 Alpha virt. eigenvalues --    0.11951   0.12173   0.12281   0.12714   0.13021

 Mulliken charges:
               1
     1  C    0.408411
     2  C    0.531002
     3  C    0.435451
     4  H    0.205975
     5  H   -0.444326
     6  H   -0.321427
     7  H   -0.298365
     8  N   -0.070844
     9  N   -0.365579
    10  C    0.306999
    11  C    0.512636
    12  C    0.552860
    13  H    0.011514
    14  H   -0.319092
    15  H   -0.311759
    16  H   -0.359298
    17  N   -0.140398
    18  N   -0.333760
 Sum of Mulliken charges =  -0.00000

 Dipole moment (field-independent basis, Debye):
    X=             -4.1934    Y=              3.5155    Z=             -0.1424  Tot=              5.4740

 Test job not archived.
 1\1\GINC-SE456\SP\RHF\Aug-CC-pVDZ\C6H8N4\OHZDE\08-Apr-2025\0\\#t hf au
 g-cc-pvdz iop(5/13=1,5/36=2,99/5=2) pseudo=read geom=check guess=(read
 ,tcheck) scf=(maxcycle=1)\\title\\0,1\C,0,10.627016,5.579002,5.969045\
 C,0,11.476074,4.843862,6.811403\C,0,10.688278,3.817185,7.295063\H,0,8.
 629312,3.364017,6.843575\H,0,10.917516,3.011175,7.967689\H,0,12.510061
 ,5.034319,7.031661\H,0,10.840612,6.458651,5.386431\N,0,9.461334,3.9727
 73,6.757422\N,0,9.404905,5.04376,5.93667\C,0,5.922353,2.348921,6.26197
 7\C,0,5.048807,1.377253,6.773813\C,0,5.801878,0.678241,7.695754\H,0,7.

 Normal termination of Gaussian 16 at Tue Apr  8 18:58:26 2025.
