 Gaussian 16, Revision C.01,

 ----------------------------------------------------------------------
 #t hf aug-cc-pvdz symm=none int=(grid=ultrafine) guess=(read,tcheck) s
 table=(opt,rrhf)
 ----------------------------------------------------------------------
 -----
 title
 -----
 Symbolic Z-matrix:
 Charge =  0 Multiplicity = 1

 SCF Done:  E(RHF) =  -641.505142985     A.U. after   13 cycles
 Normal termination of Gaussian 16 at Tue Apr  8 19:04:25 2025.
 Gaussian 16:  ES64L-G16RevC.01  3-Jul-2019

 ----------------------------------------------------------------------
 #t hf aug-cc-pvdz iop(5/13=1,5/36=2,99/5=2) pseudo=read geom=check gue
 ss=(read,tcheck) scf=(maxcycle=1)
 ----------------------------------------------------------------------
 -----
 title
 -----
 Structure from the checkpoint file:  "3B-69_17c_oxazolidinone_dimerBC_mol1.chk"
 Charge =  0 Multiplicity = 1

                         Standard orientation:
 ---------------------------------------------------------------------
 Center     Atomic      Atomic             Coordinates (Angstroms)
 Number     Number       Type             X           Y           Z
 ---------------------------------------------------------------------
      1          7           0       -4.980029   -0.239623   -0.136263
      2          8           0       -2.905702    0.380027    0.325776
      3          8           0       -4.340908    1.976652   -0.345138
      4          6           0       -4.323972   -1.511400    0.138912
      5          6           0       -2.984831   -1.020658    0.715157
      6          6           0       -4.132338    0.798180   -0.080941
      7          1           0       -5.933039   -0.137923   -0.493588
      8          1           0       -4.205952   -2.099952   -0.769614
      9          1           0       -4.884693   -2.099025    0.863647
     10          1           0       -2.956099   -1.059618    1.803007
     11          1           0       -2.120964   -1.530646    0.304847
     12          7           0        3.467558    0.977009   -0.033579
     13          8           0        4.336070   -1.042646   -0.292351
     14          8           0        2.361376   -0.626857   -1.285760
     15          6           0        4.762214    1.103006    0.623336
     16          6           0        5.204269   -0.369805    0.663322
     17          6           0        3.289811   -0.229678   -0.591241
     18          1           0        2.821630    1.750855   -0.207337
     19          1           0        5.437566    1.734351    0.047973
     20          1           0        4.661361    1.521947    1.622971
     21          1           0        5.039856   -0.831523    1.635715
     22          1           0        6.230028   -0.525443    0.349789
 ---------------------------------------------------------------------

 SCF Done:  E(RHF) =  -641.708250314     A.U. after    2 cycles

 The electronic state is 1-A.
 Alpha  occ. eigenvalues --  -20.61825 -20.61163 -20.52954 -20.52461 -15.66728
 Alpha  occ. eigenvalues --  -15.66294 -11.41360 -11.40841 -11.32524 -11.31762
 Alpha  occ. eigenvalues --  -11.30899 -11.30336  -1.42621  -1.42006  -1.30741
 Alpha  occ. eigenvalues --   -1.30210  -1.21780  -1.21294  -1.03346  -1.02712
 Alpha  occ. eigenvalues --   -0.89721  -0.89103  -0.83829  -0.83323  -0.73021
 Alpha  occ. eigenvalues --   -0.72423  -0.72397  -0.71759  -0.67635  -0.67072
 Alpha  occ. eigenvalues --   -0.61803  -0.61416  -0.61301  -0.60821  -0.60379
 Alpha  occ. eigenvalues --   -0.59761  -0.59027  -0.58399  -0.54498  -0.53841
 Alpha  occ. eigenvalues --   -0.47236  -0.46609  -0.46112  -0.45607  -0.41188
 Alpha  occ. eigenvalues --   -0.40731
 Alpha virt. eigenvalues --    0.02448   0.02863   0.03747   0.04022   0.04468
 Alpha virt. eigenvalues --    0.04924   0.05417   0.06329   0.06632   0.07953
 Alpha virt. eigenvalues --    0.09162   0.09791   0.10496   0.11190   0.11583

 Mulliken charges:
               1
     1  N   -0.356375
     2  O   -0.620486
     3  O   -0.475973
     4  C    0.661512
     5  C    0.850445
     6  C    0.676418
     7  H   -0.073630
     8  H   -0.180184
     9  H   -0.133324
    10  H   -0.177155
    11  H   -0.170922
    12  N   -0.348372
    13  O   -0.618390
    14  O   -0.472741
    15  C    0.650582
    16  C    0.838538
    17  C    0.674465
    18  H   -0.071237
    19  H   -0.179048
    20  H   -0.128954
    21  H   -0.180502
    22  H   -0.164666
 Sum of Mulliken charges =  -0.00000

 Dipole moment (field-independent basis, Debye):
    X=              2.7463    Y=             -2.4293    Z=              4.4286  Tot=              5.7494

 Test job not archived.
 1\1\GINC-SE150\SP\RHF\Aug-CC-pVDZ\C6H10N2O4\OHZDE\08-Apr-2025\0\\#t hf
  aug-cc-pvdz iop(5/13=1,5/36=2,99/5=2) pseudo=read geom=check guess=(r
 ead,tcheck) scf=(maxcycle=1)\\title\\0,1\N,0,4.978186,2.001945,-0.7011
 42\O,0,5.987525,3.496894,0.582074\O,0,5.312076,4.165741,-1.456447\C,0,
 5.371517,1.210221,0.457311\C,0,5.811882,2.322413,1.424416\C,0,5.397678
 ,3.273264,-0.62083\H,0,4.57524,1.62123,-1.560759\H,0,6.175714,0.51925,
 0.209184\H,0,4.532513,0.640085,0.85224\H,0,5.049665,2.56187,2.164312\H
 ,0,6.755431,2.121702,1.91852\N,0,10.523419,6.507555,3.968155\O,0,11.53

 Normal termination of Gaussian 16 at Tue Apr  8 19:04:38 2025.
