 Gaussian 16, Revision C.01,

 ----------------------------------------------------------------------
 #t hf aug-cc-pvdz symm=none int=(grid=ultrafine) guess=(read,tcheck) s
 table=(opt,rrhf)
 ----------------------------------------------------------------------
 -----
 title
 -----
 Symbolic Z-matrix:
 Charge =  0 Multiplicity = 1

 SCF Done:  E(RHF) =  -412.441682340     A.U. after   15 cycles
 Normal termination of Gaussian 16 at Tue Apr  8 19:05:16 2025.
 Gaussian 16:  ES64L-G16RevC.01  3-Jul-2019

 ----------------------------------------------------------------------
 #t hf aug-cc-pvdz iop(5/13=1,5/36=2,99/5=2) pseudo=read geom=check gue
 ss=(read,tcheck) scf=(maxcycle=1)
 ----------------------------------------------------------------------
 -----
 title
 -----
 Structure from the checkpoint file:  "3B-69_22a_uracil_dimerAB_mol2.chk"
 Charge =  0 Multiplicity = 1

                         Standard orientation:
 ---------------------------------------------------------------------
 Center     Atomic      Atomic             Coordinates (Angstroms)
 Number     Number       Type             X           Y           Z
 ---------------------------------------------------------------------
      1          6           0        1.201441   -0.390547   -0.000926
      2          6           0       -1.253179   -0.322328   -0.003186
      3          6           0       -1.182967    1.105508   -0.007655
      4          6           0        0.021025    1.693991   -0.005422
      5          1           0        0.140991    2.643624    0.015638
      6          1           0        1.926311    1.348552    0.052937
      7          1           0       -0.089327   -1.847687    0.017959
      8          1           0       -1.981859    1.583582    0.012078
      9          7           0        1.177160    0.980543    0.000295
     10          7           0       -0.046157   -0.972137   -0.007638
     11          8           0        2.224329   -1.047036   -0.000709
     12          8           0       -2.303212   -0.991297    0.007698
 ---------------------------------------------------------------------

 SCF Done:  E(RHF) =  -412.563338914     A.U. after    2 cycles

 The electronic state is 1-A.
 Alpha  occ. eigenvalues --  -20.56650 -20.55165 -15.69687 -15.68248 -11.43700
 Alpha  occ. eigenvalues --  -11.39033 -11.34363 -11.25324  -1.41398  -1.35517
 Alpha  occ. eigenvalues --   -1.30588  -1.24208  -1.10829  -0.97103  -0.93110
 Alpha  occ. eigenvalues --   -0.86646  -0.78830  -0.76672  -0.70515  -0.68377
 Alpha  occ. eigenvalues --   -0.68293  -0.64157  -0.62742  -0.57965  -0.53908
 Alpha  occ. eigenvalues --   -0.50285  -0.46528  -0.44508  -0.37981
 Alpha virt. eigenvalues --    0.01637   0.03836   0.04840   0.06104   0.06323
 Alpha virt. eigenvalues --    0.07519   0.09774   0.10209   0.11593   0.12135
 Alpha virt. eigenvalues --    0.12722   0.12924   0.13957   0.14918   0.15059

 Mulliken charges:
               1
     1  C    0.709368
     2  C    0.094690
     3  C    1.217226
     4  C    1.036570
     5  H   -0.574445
     6  H   -0.394488
     7  H   -0.289542
     8  H   -0.663980
     9  N   -0.017548
    10  N   -0.087312
    11  O   -0.467596
    12  O   -0.562943
 Sum of Mulliken charges =  -0.00000

 Dipole moment (field-independent basis, Debye):
    X=              1.6263    Y=              5.3409    Z=              0.1267  Tot=              5.5845

 Test job not archived.
 1\1\GINC-SE132\SP\RHF\Aug-CC-pVDZ\C4H4N2O2\OHZDE\08-Apr-2025\0\\#t hf
 aug-cc-pvdz iop(5/13=1,5/36=2,99/5=2) pseudo=read geom=check guess=(re
 ad,tcheck) scf=(maxcycle=1)\\title\\0,1\C,0,-1.957828,2.590668,6.30143
 3\C,0,-1.67237,0.153091,6.382383\C,0,-0.264624,0.353582,6.529763\C,0,0
 .211588,1.606034,6.552094\H,0,1.143843,1.811846,6.624074\H,0,-0.293856
 ,3.47023,6.403272\H,0,-3.284651,1.172007,6.172433\H,0,0.282003,-0.3985
 07,6.582047\N,0,-0.597309,2.69178,6.440156\N,0,-2.423802,1.29552,6.285
 531\O,0,-2.699031,3.549066,6.204644\O,0,-2.240633,-0.953695,6.334334\\

 Normal termination of Gaussian 16 at Tue Apr  8 19:05:24 2025.
