 Gaussian 16, Revision C.01,

 ----------------------------------------------------------------------
 #t hf aug-cc-pvdz symm=none int=(grid=ultrafine) guess=(read,tcheck) s
 table=(opt,rrhf)
 ----------------------------------------------------------------------
 -----
 title
 -----
 Symbolic Z-matrix:
 Charge =  0 Multiplicity = 1

 SCF Done:  E(RHF) =  -227.770007737     A.U. after   12 cycles
 Normal termination of Gaussian 16 at Tue Apr  8 18:25:46 2025.
 Gaussian 16:  ES64L-G16RevC.01  3-Jul-2019

 ----------------------------------------------------------------------
 #t hf aug-cc-pvdz iop(5/13=1,5/36=2,99/5=2) pseudo=read geom=check gue
 ss=(read,tcheck) scf=(maxcycle=1)
 ----------------------------------------------------------------------
 -----
 title
 -----
 Structure from the checkpoint file:  "3B-69_02a_formaldehyde_dimerAC_mol1.chk"
 Charge =  0 Multiplicity = 1

                         Standard orientation:
 ---------------------------------------------------------------------
 Center     Atomic      Atomic             Coordinates (Angstroms)
 Number     Number       Type             X           Y           Z
 ---------------------------------------------------------------------
      1          8           0        5.122797   -0.149771   -0.081006
      2          6           0        3.963072    0.154703    0.093092
      3          1           0        3.627359    1.198863    0.011404
      4          1           0        3.194581   -0.591421    0.333333
      5          8           0       -3.825047   -0.191958   -0.112911
      6          6           0       -4.984771    0.112516    0.061187
      7          1           0       -5.320485    1.156676   -0.020502
      8          1           0       -5.753263   -0.633608    0.301428
 ---------------------------------------------------------------------

 SCF Done:  E(RHF) =  -227.846468752     A.U. after    2 cycles

 The electronic state is 1-A.
 Alpha  occ. eigenvalues --  -20.59759 -20.58979 -11.36027 -11.35241  -1.37215
 Alpha  occ. eigenvalues --   -1.36438  -0.87667  -0.86879  -0.70823  -0.70044
 Alpha  occ. eigenvalues --   -0.66964  -0.66177  -0.55407  -0.54630  -0.46251
 Alpha  occ. eigenvalues --   -0.45469
 Alpha virt. eigenvalues --    0.02921   0.03829   0.04801   0.05590   0.06228
 Alpha virt. eigenvalues --    0.06959   0.08398   0.09917   0.14023   0.14784
 Alpha virt. eigenvalues --    0.15141   0.15633   0.16033   0.16697   0.21938

 Mulliken charges:
               1
     1  O   -0.399662
     2  C    0.638056
     3  H   -0.117055
     4  H   -0.121341
     5  O   -0.393623
     6  C    0.632973
     7  H   -0.119197
     8  H   -0.120151
 Sum of Mulliken charges =  -0.00000

 Dipole moment (field-independent basis, Debye):
    X=             -5.9648    Y=              1.5441    Z=              0.8846  Tot=              6.2246

 Test job not archived.
 1\1\GINC-SE328\SP\RHF\Aug-CC-pVDZ\C2H4O2\OHZDE\08-Apr-2025\0\\#t hf au
 g-cc-pvdz iop(5/13=1,5/36=2,99/5=2) pseudo=read geom=check guess=(read
 ,tcheck) scf=(maxcycle=1)\\title\\0,1\O,0,2.074088,0.498855,1.635515\C
 ,0,2.169454,0.15428,2.793163\H,0,2.970226,-0.523067,3.124239\H,0,1.470
 34,0.502963,3.564302\O,0,2.074088,0.498855,10.583515\C,0,2.169454,0.15
 428,11.741163\H,0,2.970226,-0.523067,12.072239\H,0,1.47034,0.502963,12
 .512302\\Version=ES64L-G16RevC.01\State=1-A\HF=-227.8464688\RMSD=2.075
 e-03\Dipole=0.1898356,-0.6881591,2.3426026\Quadrupole=0.3628094,0.1275

 Normal termination of Gaussian 16 at Tue Apr  8 18:25:47 2025.
