 Gaussian 16, Revision C.01,

 ----------------------------------------------------------------------
 #t hf aug-cc-pvdz symm=none int=(grid=ultrafine) guess=(read,tcheck) s
 table=(opt,rrhf)
 ----------------------------------------------------------------------
 -----
 title
 -----
 Symbolic Z-matrix:
 Charge =  0 Multiplicity = 1

 SCF Done:  E(RHF) =  -208.007811184     A.U. after   13 cycles
 Normal termination of Gaussian 16 at Tue Apr  8 18:51:50 2025.
 Gaussian 16:  ES64L-G16RevC.01  3-Jul-2019

 ----------------------------------------------------------------------
 #t hf aug-cc-pvdz iop(5/13=1,5/36=2,99/5=2) pseudo=read geom=check gue
 ss=(read,tcheck) scf=(maxcycle=1)
 ----------------------------------------------------------------------
 -----
 title
 -----
 Structure from the checkpoint file:  "3B-69_09a_acetamide_dimerAC_mol2.chk"
 Charge =  0 Multiplicity = 1

                         Standard orientation:
 ---------------------------------------------------------------------
 Center     Atomic      Atomic             Coordinates (Angstroms)
 Number     Number       Type             X           Y           Z
 ---------------------------------------------------------------------
      1          6           0        1.362276   -0.309459    0.005165
      2          6           0       -0.084671    0.123591   -0.019339
      3          8           0       -0.387412    1.335382   -0.002264
      4          7           0       -1.004199   -0.840681   -0.016305
      5          1           0       -1.989322   -0.623565    0.147716
      6          1           0       -0.718706   -1.822146   -0.036101
      7          1           0        1.649762   -0.456892    1.048112
      8          1           0        1.527317   -1.245912   -0.523573
      9          1           0        1.994005    0.465431   -0.418874
 ---------------------------------------------------------------------

 SCF Done:  E(RHF) =  -208.074845396     A.U. after    2 cycles

 The electronic state is 1-A.
 Alpha  occ. eigenvalues --  -20.52520 -15.66123 -11.36686 -11.25002  -1.32523
 Alpha  occ. eigenvalues --   -1.18551  -1.00090  -0.80624  -0.72697  -0.66917
 Alpha  occ. eigenvalues --   -0.62047  -0.58275  -0.56792  -0.52818  -0.43585
 Alpha  occ. eigenvalues --   -0.41774
 Alpha virt. eigenvalues --    0.02554   0.04141   0.05089   0.05670   0.07703
 Alpha virt. eigenvalues --    0.10079   0.12442   0.12953   0.14337   0.14957
 Alpha virt. eigenvalues --    0.16480   0.16739   0.17082   0.18024   0.19911

 Mulliken charges:
               1
     1  C    0.324751
     2  C    0.458763
     3  O   -0.592712
     4  N   -0.174734
     5  H   -0.002402
     6  H    0.036027
     7  H    0.053904
     8  H   -0.082938
     9  H   -0.020658
 Sum of Mulliken charges =  -0.00000

 Dipole moment (field-independent basis, Debye):
    X=              0.4343    Y=             -4.8213    Z=              0.2358  Tot=              4.8466

 Test job not archived.
 1\1\GINC-SE340\SP\RHF\Aug-CC-pVDZ\C2H5N1O1\OHZDE\08-Apr-2025\0\\#t hf
 aug-cc-pvdz iop(5/13=1,5/36=2,99/5=2) pseudo=read geom=check guess=(re
 ad,tcheck) scf=(maxcycle=1)\\title\\0,1\C,0,-1.004918,11.251778,13.363
 89\C,0,-1.828837,9.986003,13.391436\O,0,-2.955857,9.947587,12.854098\N
 ,0,-1.315604,8.944986,14.045834\H,0,-1.888595,8.125309,14.25636\H,0,-0
 .387165,9.0116,14.468606\H,0,-1.234988,11.820456,14.267104\H,0,0.06493
 ,11.054024,13.355768\H,0,-1.271188,11.855156,12.501115\\Version=ES64L-
 G16RevC.01\State=1-A\HF=-208.0748454\RMSD=3.237e-03\Dipole=1.6145657,-

 Normal termination of Gaussian 16 at Tue Apr  8 18:51:52 2025.
