 Gaussian 16, Revision C.01,

 ----------------------------------------------------------------------
 #t hf aug-cc-pvdz symm=none int=(grid=ultrafine) guess=(read,tcheck) s
 table=(opt,rrhf)
 ----------------------------------------------------------------------
 -----
 title
 -----
 Symbolic Z-matrix:
 Charge =  0 Multiplicity = 1

 SCF Done:  E(RHF) =  -416.016824856     A.U. after   13 cycles
 Normal termination of Gaussian 16 at Tue Apr  8 18:53:37 2025.
 Gaussian 16:  ES64L-G16RevC.01  3-Jul-2019

 ----------------------------------------------------------------------
 #t hf aug-cc-pvdz iop(5/13=1,5/36=2,99/5=2) pseudo=read geom=check gue
 ss=(read,tcheck) scf=(maxcycle=1)
 ----------------------------------------------------------------------
 -----
 title
 -----
 Structure from the checkpoint file:  "3B-69_09c_acetamide_dimerAB_mol1.chk"
 Charge =  0 Multiplicity = 1

                         Standard orientation:
 ---------------------------------------------------------------------
 Center     Atomic      Atomic             Coordinates (Angstroms)
 Number     Number       Type             X           Y           Z
 ---------------------------------------------------------------------
      1          6           0        4.928019   -0.944485    0.179359
      2          6           0        3.802551    0.030658   -0.074023
      3          8           0        2.673228   -0.375773   -0.420183
      4          7           0        4.087023    1.326680    0.047480
      5          1           0        3.431543    2.039065   -0.280185
      6          1           0        5.021577    1.621907    0.338381
      7          1           0        5.478950   -1.069657   -0.754948
      8          1           0        5.625917   -0.590112    0.935074
      9          1           0        4.529341   -1.910428    0.474921
     10          6           0       -2.976090   -1.000010    0.284599
     11          6           0       -4.101557   -0.024866    0.031218
     12          8           0       -5.230881   -0.431298   -0.314943
     13          7           0       -3.817085    1.271156    0.152721
     14          1           0       -4.472566    1.983541   -0.174945
     15          1           0       -2.882532    1.566382    0.443622
     16          1           0       -2.425159   -1.125182   -0.649707
     17          1           0       -2.278191   -0.645636    1.040314
     18          1           0       -3.374768   -1.965953    0.580162
 ---------------------------------------------------------------------

 SCF Done:  E(RHF) =  -416.150922494     A.U. after    2 cycles

 The electronic state is 1-A.
 Alpha  occ. eigenvalues --  -20.53203 -20.51724 -15.66763 -15.65342 -11.37339
 Alpha  occ. eigenvalues --  -11.35843 -11.25520 -11.23903  -1.33202  -1.31729
 Alpha  occ. eigenvalues --   -1.19197  -1.17758  -1.00641  -0.99062  -0.81248
 Alpha  occ. eigenvalues --   -0.79792  -0.73327  -0.71882  -0.67558  -0.66032
 Alpha  occ. eigenvalues --   -0.62623  -0.61076  -0.58927  -0.57419  -0.57321
 Alpha  occ. eigenvalues --   -0.55745  -0.53422  -0.51886  -0.44261  -0.42763
 Alpha  occ. eigenvalues --   -0.42456  -0.41020
 Alpha virt. eigenvalues --    0.02005   0.03067   0.03857   0.04737   0.04871
 Alpha virt. eigenvalues --    0.05658   0.06247   0.06915   0.07777   0.08765
 Alpha virt. eigenvalues --    0.10233   0.11142   0.11889   0.13208   0.13484

 Mulliken charges:
               1
     1  C    0.328592
     2  C    0.444043
     3  O   -0.589250
     4  N   -0.170953
     5  H   -0.002755
     6  H    0.035969
     7  H    0.056038
     8  H   -0.083350
     9  H   -0.018555
    10  C    0.332140
    11  C    0.458677
    12  O   -0.597819
    13  N   -0.175020
    14  H   -0.006392
    15  H    0.040928
    16  H    0.058037
    17  H   -0.083090
    18  H   -0.027239
 Sum of Mulliken charges =  -0.00000

 Dipole moment (field-independent basis, Debye):
    X=              8.5233    Y=              4.5007    Z=              1.9689  Tot=              9.8377

 Test job not archived.
 1\1\GINC-SE143\SP\RHF\Aug-CC-pVDZ\C4H10N2O2\OHZDE\08-Apr-2025\0\\#t hf
  aug-cc-pvdz iop(5/13=1,5/36=2,99/5=2) pseudo=read geom=check guess=(r
 ead,tcheck) scf=(maxcycle=1)\\title\\0,1\C,0,7.996134,3.456191,13.3638
 9\C,0,9.504286,3.375543,13.391436\O,0,10.101066,2.418723,12.854098\N,0
 ,10.149217,4.340524,14.045834\H,0,11.145574,4.254138,14.25636\H,0,9.62
 7308,5.111269,14.468606\H,0,7.618679,2.972605,14.267104\H,0,7.632469,4
 .481583,13.355768\H,0,7.606727,2.923905,12.501115\C,0,13.742134,0.1387
 36,9.066557\C,0,15.250286,0.058089,9.094103\O,0,15.847066,-0.898732,8.

 Normal termination of Gaussian 16 at Tue Apr  8 18:53:43 2025.
