 Gaussian 16, Revision C.01,

 ----------------------------------------------------------------------
 #t hf aug-cc-pvdz symm=none int=(grid=ultrafine) guess=(read,tcheck) s
 table=(opt,rrhf)
 ----------------------------------------------------------------------
 -----
 title
 -----
 Symbolic Z-matrix:
 Charge =  0 Multiplicity = 1

 SCF Done:  E(RHF) =  -674.549592043     A.U. after   14 cycles

 1\1\GINC-SE330\Stability\RHF\Aug-CC-pVDZ\C9H12N6\OHZDE\08-Apr-2025\0\\
 #t hf aug-cc-pvdz symm=none int=(grid=ultrafine) guess=(read,tcheck) s
 table=(opt,rrhf)\\title\\0,1\N,0,1.225156,1.790098,0.793667\C,0,0.3145
 68,1.191681,1.590327\N,0,0.098973,1.892803,2.692789\C,0,0.918281,2.995
 57,2.592821\C,0,1.622758,2.943251,1.422717\H,0,1.619151,1.410346,-0.09
 3212\H,0,-0.165462,0.258212,1.353791\H,0,0.967252,3.744556,3.360834\H,
 0,2.357781,3.610084,1.012244\N,0,1.588037,3.575902,7.757855\C,0,2.4986
 25,4.174319,6.961195\N,0,2.71422,3.473197,5.858733\C,0,1.894912,2.3704

 Normal termination of Gaussian 16 at Tue Apr  8 19:01:11 2025.
 Gaussian 16:  ES64L-G16RevC.01  3-Jul-2019

 ----------------------------------------------------------------------
 #t hf aug-cc-pvdz iop(5/13=1,5/36=2,99/5=2) pseudo=read geom=check gue
 ss=(read,tcheck) scf=(maxcycle=1)
 ----------------------------------------------------------------------
 -----
 title
 -----
 Structure from the checkpoint file:  "3B-69_10a_imidazole_trimer_mol1.chk"
 Charge =  0 Multiplicity = 1

                         Standard orientation:
 ---------------------------------------------------------------------
 Center     Atomic      Atomic             Coordinates (Angstroms)
 Number     Number       Type             X           Y           Z
 ---------------------------------------------------------------------
      1          7           0       -4.130794   -0.274913   -0.310035
      2          6           0       -3.140647   -1.189700   -0.241379
      3          7           0       -2.059767   -0.692223    0.339732
      4          6           0       -2.379053    0.609900    0.655779
      5          6           0       -3.657746    0.881958    0.256910
      6          1           0       -5.053383   -0.392661   -0.780102
      7          1           0       -3.226042   -2.193056   -0.620492
      8          1           0       -1.679448    1.272574    1.129740
      9          1           0       -4.239776    1.782194    0.321943
     10          7           0        2.518431    2.427922    0.240585
     11          6           0        1.528283    3.342709    0.171929
     12          7           0        0.447403    2.845232   -0.409183
     13          6           0        0.766688    1.543109   -0.725229
     14          6           0        2.045382    1.271051   -0.326360
     15          1           0        3.441018    2.545669    0.710652
     16          1           0        1.613677    4.346065    0.551042
     17          1           0        0.067084    0.880435   -1.199190
     18          1           0        2.627412    0.370815   -0.391393
     19          7           0        0.567009   -1.829760    0.194554
     20          6           0        1.487882   -1.968428    1.171644
     21          7           0        2.649926   -2.380274    0.688409
     22          6           0        2.458297   -2.508390   -0.669610
     23          6           0        1.173548   -2.168477   -0.989057
     24          1           0       -0.399541   -1.454987    0.300973
     25          1           0        1.294428   -1.761117    2.209593
     26          1           0        3.244604   -2.817118   -1.332656
     27          1           0        0.668711   -2.133093   -1.936316
 ---------------------------------------------------------------------

 SCF Done:  E(RHF) =  -674.748081437     A.U. after    2 cycles

 The electronic state is 1-A.
 Alpha  occ. eigenvalues --  -15.71127 -15.68228 -15.64827 -15.63568 -15.60255
 Alpha  occ. eigenvalues --  -15.58839 -11.33205 -11.29885 -11.28477 -11.28267
 Alpha  occ. eigenvalues --  -11.26865 -11.25589 -11.24789 -11.24001 -11.23315
 Alpha  occ. eigenvalues --   -1.33231  -1.30160  -1.28396  -1.15428  -1.12054
 Alpha  occ. eigenvalues --   -1.10240  -1.02166  -0.99240  -0.98050  -0.83987
 Alpha  occ. eigenvalues --   -0.81876  -0.80749  -0.79159  -0.78749  -0.77744
 Alpha  occ. eigenvalues --   -0.77283  -0.74880  -0.73581  -0.62884  -0.62266
 Alpha  occ. eigenvalues --   -0.61921  -0.59935  -0.59604  -0.59373  -0.58698
 Alpha  occ. eigenvalues --   -0.58562  -0.58187  -0.56765  -0.56233  -0.55393
 Alpha  occ. eigenvalues --   -0.46067  -0.42162  -0.42026  -0.40677  -0.38651
 Alpha  occ. eigenvalues --   -0.36860  -0.33891  -0.31323  -0.29924
 Alpha virt. eigenvalues --    0.01723   0.02969   0.03448   0.04306   0.04825
 Alpha virt. eigenvalues --    0.05061   0.06193   0.06554   0.07419   0.07697
 Alpha virt. eigenvalues --    0.08312   0.08960   0.10189   0.11034   0.11160

 Mulliken charges:
               1
     1  N   -0.505458
     2  C    0.590900
     3  N   -0.616359
     4  C    0.713896
     5  C    0.609468
     6  H   -0.013411
     7  H   -0.269360
     8  H   -0.300881
     9  H   -0.254161
    10  N   -0.464024
    11  C    0.694041
    12  N   -0.765944
    13  C    0.738863
    14  C    0.643558
    15  H   -0.023449
    16  H   -0.255841
    17  H   -0.325391
    18  H   -0.333617
    19  N   -0.113930
    20  C    0.658764
    21  N   -0.766732
    22  C    0.539855
    23  C    0.880201
    24  H    0.001289
    25  H   -0.344187
    26  H   -0.305663
    27  H   -0.412426
 Sum of Mulliken charges =  -0.00000

 Dipole moment (field-independent basis, Debye):
    X=             -5.3494    Y=              1.6734    Z=             -0.5165  Tot=              5.6288

 Test job not archived.
 1\1\GINC-SE330\SP\RHF\Aug-CC-pVDZ\C9H12N6\OHZDE\08-Apr-2025\0\\#t hf a
 ug-cc-pvdz iop(5/13=1,5/36=2,99/5=2) pseudo=read geom=check guess=(rea
 d,tcheck) scf=(maxcycle=1)\\title\\0,1\N,0,1.225156,1.790098,0.793667\
 C,0,0.314568,1.191681,1.590327\N,0,0.098973,1.892803,2.692789\C,0,0.91
 8281,2.99557,2.592821\C,0,1.622758,2.943251,1.422717\H,0,1.619151,1.41
 0346,-0.093212\H,0,-0.165462,0.258212,1.353791\H,0,0.967252,3.744556,3
 .360834\H,0,2.357781,3.610084,1.012244\N,0,1.588037,3.575902,7.757855\
 C,0,2.498625,4.174319,6.961195\N,0,2.71422,3.473197,5.858733\C,0,1.894

 Normal termination of Gaussian 16 at Tue Apr  8 19:01:35 2025.
