 Gaussian 16, Revision C.01,

 ----------------------------------------------------------------------
 #t hf aug-cc-pvdz symm=none int=(grid=ultrafine) guess=(read,tcheck) s
 table=(opt,rrhf)
 ----------------------------------------------------------------------
 -----
 title
 -----
 Symbolic Z-matrix:
 Charge =  0 Multiplicity = 1

 SCF Done:  E(RHF) =  -305.495687714     A.U. after   13 cycles
 Normal termination of Gaussian 16 at Tue Apr  8 19:05:09 2025.
 Gaussian 16:  ES64L-G16RevC.01  3-Jul-2019

 ----------------------------------------------------------------------
 #t hf aug-cc-pvdz iop(5/13=1,5/36=2,99/5=2) pseudo=read geom=check gue
 ss=(read,tcheck) scf=(maxcycle=1)
 ----------------------------------------------------------------------
 -----
 title
 -----
 Structure from the checkpoint file:  "3B-69_23a_cyclobutylfuran_dimerAB_mol2.chk"
 Charge =  0 Multiplicity = 1

                         Standard orientation:
 ---------------------------------------------------------------------
 Center     Atomic      Atomic             Coordinates (Angstroms)
 Number     Number       Type             X           Y           Z
 ---------------------------------------------------------------------
      1          8           0       -1.898647    0.002312    0.002418
      2          6           0       -1.093110   -1.125507   -0.006850
      3          1           0       -1.615590   -2.064148   -0.011558
      4          6           0        0.192434   -0.712753   -0.005676
      5          6           0        1.715332   -0.793386    0.010151
      6          1           0        2.145004   -1.227655    0.911806
      7          1           0        2.171744   -1.268290   -0.857217
      8          6           0        1.710707    0.793505   -0.008614
      9          1           0        2.155164    1.266086    0.864788
     10          1           0        2.132679    1.241760   -0.905885
     11          6           0        0.194544    0.706303   -0.001604
     12          6           0       -1.086480    1.125904    0.008556
     13          1           0       -1.600386    2.069355    0.002939
 ---------------------------------------------------------------------

 SCF Done:  E(RHF) =  -305.589249478     A.U. after    2 cycles

 The electronic state is 1-A.
 Alpha  occ. eigenvalues --  -20.62292 -11.29511 -11.29424 -11.25926 -11.25792
 Alpha  occ. eigenvalues --  -11.23072 -11.22940  -1.39236  -1.14566  -0.99531
 Alpha  occ. eigenvalues --   -0.98083  -0.87719  -0.78487  -0.74558  -0.71678
 Alpha  occ. eigenvalues --   -0.65270  -0.61525  -0.60713  -0.58451  -0.53064
 Alpha  occ. eigenvalues --   -0.51918  -0.50730  -0.45522  -0.38483  -0.31564
 Alpha virt. eigenvalues --    0.03489   0.04276   0.04314   0.04948   0.05665
 Alpha virt. eigenvalues --    0.07110   0.09316   0.09908   0.10198   0.11540
 Alpha virt. eigenvalues --    0.12777   0.13514   0.14759   0.14843   0.15401

 Mulliken charges:
               1
     1  O   -0.660656
     2  C    1.224433
     3  H   -0.374549
     4  C   -0.821719
     5  C    0.442177
     6  H   -0.059266
     7  H   -0.081027
     8  C    0.427683
     9  H   -0.070057
    10  H   -0.053134
    11  C   -0.821700
    12  C    1.220409
    13  H   -0.372595
 Sum of Mulliken charges =   0.00000

 Dipole moment (field-independent basis, Debye):
    X=              1.8989    Y=              0.0075    Z=             -0.0018  Tot=              1.8989

 Test job not archived.
 1\1\GINC-SE364\SP\RHF\Aug-CC-pVDZ\C6H6O1\OHZDE\08-Apr-2025\0\\#t hf au
 g-cc-pvdz iop(5/13=1,5/36=2,99/5=2) pseudo=read geom=check guess=(read
 ,tcheck) scf=(maxcycle=1)\\title\\0,1\O,0,-0.126301,16.441388,12.92452
 6\C,0,-0.701266,17.4636,12.185981\H,0,-1.568703,17.187494,11.615566\C,
 0,0.02543,18.581936,12.396288\C,0,0.473934,20.034432,12.273536\H,0,0.8
 24753,20.32698,11.284835\H,0,-0.238268,20.779526,12.625356\C,0,1.63389
 8,19.669284,13.293216\H,0,2.642979,19.773757,12.900092\H,0,1.574915,20
 .176469,14.254138\C,0,1.077037,18.256376,13.291762\C,0,0.973511,16.948

 Normal termination of Gaussian 16 at Tue Apr  8 19:05:14 2025.
