 Gaussian 16, Revision C.01,

 ----------------------------------------------------------------------
 #t hf aug-cc-pvdz symm=none int=(grid=ultrafine) guess=(read,tcheck) s
 table=(opt,rrhf)
 ----------------------------------------------------------------------
 -----
 title
 -----
 Symbolic Z-matrix:
 Charge =  0 Multiplicity = 1

 SCF Done:  E(RHF) =  -781.246605677     A.U. after   14 cycles
 Normal termination of Gaussian 16 at Tue Apr  8 19:05:31 2025.
 Gaussian 16:  ES64L-G16RevC.01  3-Jul-2019

 ----------------------------------------------------------------------
 #t hf aug-cc-pvdz iop(5/13=1,5/36=2,99/5=2) pseudo=read geom=check gue
 ss=(read,tcheck) scf=(maxcycle=1)
 ----------------------------------------------------------------------
 -----
 title
 -----
 Structure from the checkpoint file:  "3B-69_16a_triazolidinedione_dimerBC_mol1.chk"
 Charge =  0 Multiplicity = 1

                         Standard orientation:
 ---------------------------------------------------------------------
 Center     Atomic      Atomic             Coordinates (Angstroms)
 Number     Number       Type             X           Y           Z
 ---------------------------------------------------------------------
      1          7           0        1.621392   -0.381788    1.175747
      2          7           0        0.787507    0.750604    1.185037
      3          6           0        1.111459    1.522871    0.104203
      4          7           0        1.984563    0.766964   -0.649327
      5          6           0        2.296675   -0.409650   -0.001549
      6          8           0        0.703956    2.646450   -0.174948
      7          8           0        3.041983   -1.300217   -0.414909
      8          1           0        1.263147   -1.257158    1.577781
      9          1           0        0.602562    1.185932    2.088591
     10          1           0        2.426703    1.088559   -1.524377
     11          7           0       -1.665645   -1.397826    0.790391
     12          7           0       -2.499530   -0.265433    0.799681
     13          6           0       -2.175578    0.506833   -0.281153
     14          7           0       -1.302474   -0.249074   -1.034683
     15          6           0       -0.990362   -1.425687   -0.386906
     16          8           0       -2.583081    1.630412   -0.560305
     17          8           0       -0.245053   -2.316255   -0.800265
     18          1           0       -2.023890   -2.273195    1.192425
     19          1           0       -2.684475    0.169894    1.703235
     20          1           0       -0.860334    0.072522   -1.909734
 ---------------------------------------------------------------------

 SCF Done:  E(RHF) =  -781.482324551     A.U. after    2 cycles

 The electronic state is 1-A.
 Alpha  occ. eigenvalues --  -20.57004 -20.56592 -20.56403 -20.55547 -15.73433
 Alpha  occ. eigenvalues --  -15.73044 -15.72862 -15.72241 -15.71059 -15.70731
 Alpha  occ. eigenvalues --  -11.44015 -11.43567 -11.43553 -11.42876  -1.44250
 Alpha  occ. eigenvalues --   -1.43556  -1.37042  -1.36392  -1.32668  -1.31975
 Alpha  occ. eigenvalues --   -1.22840  -1.22352  -1.12954  -1.12302  -0.91566
 Alpha  occ. eigenvalues --   -0.91056  -0.88519  -0.88001  -0.78174  -0.77535
 Alpha  occ. eigenvalues --   -0.76172  -0.74562  -0.71619  -0.71206  -0.69913
 Alpha  occ. eigenvalues --   -0.68032  -0.66871  -0.66340  -0.65799  -0.65082
 Alpha  occ. eigenvalues --   -0.59883  -0.58043  -0.55433  -0.54493  -0.50981
 Alpha  occ. eigenvalues --   -0.50407  -0.47746  -0.47089  -0.46439  -0.45222
 Alpha  occ. eigenvalues --   -0.40918  -0.40189
 Alpha virt. eigenvalues --    0.00747   0.02603   0.03538   0.03673   0.05762
 Alpha virt. eigenvalues --    0.06077   0.07687   0.09111   0.09520   0.10195
 Alpha virt. eigenvalues --    0.11102   0.12123   0.12449   0.12847   0.12940

 Mulliken charges:
               1
     1  N   -0.099356
     2  N   -0.204710
     3  C    0.877002
     4  N   -0.436660
     5  C    0.792566
     6  O   -0.497344
     7  O   -0.492392
     8  H    0.042486
     9  H    0.038526
    10  H   -0.027176
    11  N   -0.320118
    12  N   -0.126839
    13  C    0.817457
    14  N   -0.217517
    15  C    0.824109
    16  O   -0.488373
    17  O   -0.525215
    18  H    0.053710
    19  H    0.026126
    20  H   -0.036281
 Sum of Mulliken charges =  -0.00000

 Dipole moment (field-independent basis, Debye):
    X=             -2.3618    Y=             -1.5272    Z=              5.2066  Tot=              5.9177

 Test job not archived.
 1\1\GINC-SE342\SP\RHF\Aug-CC-pVDZ\C4H6N6O4\OHZDE\08-Apr-2025\0\\#t hf
 aug-cc-pvdz iop(5/13=1,5/36=2,99/5=2) pseudo=read geom=check guess=(re
 ad,tcheck) scf=(maxcycle=1)\\title\\0,1\N,0,4.758199,16.90365,2.170497
 \N,0,5.216569,15.90098,1.297392\C,0,4.80265,16.21938,0.033733\N,0,4.27
 9392,17.492314,0.119488\C,0,4.256265,17.923919,1.428927\O,0,4.89088,15
 .54291,-0.98657\O,0,3.856001,19.016772,1.835033\H,0,5.310494,17.110082
 ,3.01228\H,0,5.163831,14.936932,1.625956\H,0,3.862617,18.004684,-0.673
 229\N,0,8.220199,16.90365,2.170497\N,0,8.678569,15.90098,1.297392\C,0,

 Normal termination of Gaussian 16 at Tue Apr  8 19:05:52 2025.
