 Gaussian 16, Revision C.01,

 ----------------------------------------------------------------------
 #t hf aug-cc-pvdz symm=none int=(grid=ultrafine) guess=(read,tcheck) s
 table=(opt,rrhf)
 ----------------------------------------------------------------------
 -----
 title
 -----
 Symbolic Z-matrix:
 Charge =  0 Multiplicity = 1

 SCF Done:  E(RHF) =  -557.464225147     A.U. after   12 cycles
 Normal termination of Gaussian 16 at Tue Apr  8 19:00:56 2025.
 Gaussian 16:  ES64L-G16RevC.01  3-Jul-2019

 ----------------------------------------------------------------------
 #t hf aug-cc-pvdz iop(5/13=1,5/36=2,99/5=2) pseudo=read geom=check gue
 ss=(read,tcheck) scf=(maxcycle=1)
 ----------------------------------------------------------------------
 -----
 title
 -----
 Structure from the checkpoint file:  "3B-69_13a_triazine_dimerAB_mol1.chk"
 Charge =  0 Multiplicity = 1

                         Standard orientation:
 ---------------------------------------------------------------------
 Center     Atomic      Atomic             Coordinates (Angstroms)
 Number     Number       Type             X           Y           Z
 ---------------------------------------------------------------------
      1          6           0        1.300030    0.000000    1.820250
      2          7           0        0.683876   -1.184508    1.820250
      3          1           0        2.382134    0.000000    1.820250
      4          6           0       -0.650015    1.125859    1.820250
      5          7           0        0.683876    1.184508    1.820250
      6          1           0       -1.191067    2.062988    1.820250
      7          6           0       -0.650015   -1.125859    1.820250
      8          7           0       -1.367752    0.000000    1.820250
      9          1           0       -1.191067   -2.062988    1.820250
     10          6           0        0.650015   -1.125859   -1.820250
     11          7           0        1.367752    0.000000   -1.820250
     12          1           0        1.191067   -2.062988   -1.820250
     13          6           0       -1.300030    0.000000   -1.820250
     14          7           0       -0.683876   -1.184508   -1.820250
     15          1           0       -2.382134    0.000000   -1.820250
     16          6           0        0.650015    1.125859   -1.820250
     17          7           0       -0.683876    1.184508   -1.820250
     18          1           0        1.191067    2.062988   -1.820250
 ---------------------------------------------------------------------

 SCF Done:  E(RHF) =  -557.621634185     A.U. after    2 cycles

 The electronic state is 1-AG.
 Alpha  occ. eigenvalues --  -15.65276 -15.65276 -15.65276 -15.65276 -15.65271
 Alpha  occ. eigenvalues --  -15.65271 -11.35567 -11.35567 -11.35567 -11.35567
 Alpha  occ. eigenvalues --  -11.35548 -11.35548  -1.33424  -1.33166  -1.18482
 Alpha  occ. eigenvalues --   -1.18482  -1.18357  -1.18357  -0.92863  -0.92863
 Alpha  occ. eigenvalues --   -0.92743  -0.92743  -0.76711  -0.76479  -0.74707
 Alpha  occ. eigenvalues --   -0.74652  -0.62484  -0.62169  -0.62169  -0.62033
 Alpha  occ. eigenvalues --   -0.62033  -0.59942  -0.56626  -0.56475  -0.44738
 Alpha  occ. eigenvalues --   -0.44738  -0.43377  -0.43377  -0.43245  -0.43245
 Alpha  occ. eigenvalues --   -0.42703  -0.42703
 Alpha virt. eigenvalues --    0.03470   0.03478   0.03478   0.04319   0.05827
 Alpha virt. eigenvalues --    0.05827   0.06942   0.06942   0.07867   0.09151
 Alpha virt. eigenvalues --    0.09151   0.10093   0.10093   0.10815   0.11553

 Mulliken charges:
               1
     1  C    0.718958
     2  N   -0.457563
     3  H   -0.261396
     4  C    0.718960
     5  N   -0.457563
     6  H   -0.261398
     7  C    0.718960
     8  N   -0.457563
     9  H   -0.261398
    10  C    0.718960
    11  N   -0.457563
    12  H   -0.261398
    13  C    0.718958
    14  N   -0.457563
    15  H   -0.261396
    16  C    0.718960
    17  N   -0.457563
    18  H   -0.261398
 Sum of Mulliken charges =  -0.00000

 Dipole moment (field-independent basis, Debye):
    X=              0.0000    Y=             -0.0000    Z=              0.0000  Tot=              0.0000

 Test job not archived.
 1\1\GINC-SE338\SP\RHF\Aug-CC-pVDZ\C6H6N6\OHZDE\08-Apr-2025\0\\#t hf au
 g-cc-pvdz iop(5/13=1,5/36=2,99/5=2) pseudo=read geom=check guess=(read
 ,tcheck) scf=(maxcycle=1)\\title\\0,1\C,0,-3.52347,8.354547,9.10125\N,
 0,-4.139624,7.170039,9.10125\H,0,-2.441366,8.354547,9.10125\C,0,-5.473
 515,9.480406,9.10125\N,0,-4.139624,9.539055,9.10125\H,0,-6.014567,10.4
 17535,9.10125\C,0,-5.473515,7.228688,9.10125\N,0,-6.191252,8.354547,9.
 10125\H,0,-6.014567,6.291559,9.10125\C,0,-4.173485,7.228688,5.46075\N,
 0,-3.455748,8.354547,5.46075\H,0,-3.632433,6.291559,5.46075\C,0,-6.123

 Normal termination of Gaussian 16 at Tue Apr  8 19:01:02 2025.
