 Gaussian 16, Revision C.01,

 ----------------------------------------------------------------------
 #t hf aug-cc-pvdz symm=none int=(grid=ultrafine) guess=(read,tcheck) s
 table=(opt,rrhf)
 ----------------------------------------------------------------------
 -----
 title
 -----
 Symbolic Z-matrix:
 Charge =  0 Multiplicity = 1

 SCF Done:  E(RHF) =  -152.079570858     A.U. after   11 cycles
 Normal termination of Gaussian 16 at Tue Apr  8 18:20:44 2025.
 Gaussian 16:  ES64L-G16RevC.01  3-Jul-2019

 ----------------------------------------------------------------------
 #t hf aug-cc-pvdz iop(5/13=1,5/36=2,99/5=2) pseudo=read geom=check gue
 ss=(read,tcheck) scf=(maxcycle=1)
 ----------------------------------------------------------------------
 -----
 title
 -----
 Structure from the checkpoint file:  "3B-69_01b_water_dimerAB_mol1.chk"
 Charge =  0 Multiplicity = 1

                         Standard orientation:
 ---------------------------------------------------------------------
 Center     Atomic      Atomic             Coordinates (Angstroms)
 Number     Number       Type             X           Y           Z
 ---------------------------------------------------------------------
      1          8           0       -1.321829   -0.035474   -0.086412
      2          1           0       -1.626564    0.892730    0.052094
      3          1           0       -1.650936   -0.587702    0.662310
      4          8           0        1.458520   -0.042666   -0.086711
      5          1           0        0.473517   -0.046101   -0.104409
      6          1           0        1.710451    0.366197    0.774995
 ---------------------------------------------------------------------

 SCF Done:  E(RHF) =  -152.130951774     A.U. after    2 cycles

 The electronic state is 1-A.
 Alpha  occ. eigenvalues --  -20.61581 -20.54686  -1.33485  -1.26718  -0.75805
 Alpha  occ. eigenvalues --   -0.70246  -0.62080  -0.58110  -0.53851  -0.49316
 Alpha virt. eigenvalues --    0.02302   0.05162   0.05689   0.08629   0.15503
 Alpha virt. eigenvalues --    0.19640   0.20419   0.21139   0.22171   0.23685
 Alpha virt. eigenvalues --    0.25908   0.27945   0.28211   0.32804   0.34330

 Mulliken charges:
               1
     1  O   -0.411190
     2  H    0.196071
     3  H    0.197294
     4  O   -0.339662
     5  H    0.210871
     6  H    0.146616
 Sum of Mulliken charges =  -0.00000

 Dipole moment (field-independent basis, Debye):
    X=             -3.1136    Y=              1.3399    Z=              2.9772  Tot=              4.5115

 Test job not archived.
 1\1\GINC-SE437\SP\RHF\Aug-CC-pVDZ\H4O2\OHZDE\08-Apr-2025\0\\#t hf aug-
 cc-pvdz iop(5/13=1,5/36=2,99/5=2) pseudo=read geom=check guess=(read,t
 check) scf=(maxcycle=1)\\title\\0,1\O,0,-0.084889,0.056804,0.055205\H,
 0,0.710375,0.517729,0.413971\H,0,-0.890958,0.498588,0.414274\O,0,-0.01
 7366,-2.585019,0.919269\H,0,-0.039968,-1.654902,0.595342\H,0,0.035574,
 -2.525985,1.902574\\Version=ES64L-G16RevC.01\State=1-A\HF=-152.1309518
 \RMSD=2.293e-03\Dipole=0.0038185,1.5648645,0.837656\Quadrupole=0.51022
 31,-0.5722182,0.061995,-0.0846392,0.126591,-0.0016428\PG=C01 [X(H4O2)]

 Normal termination of Gaussian 16 at Tue Apr  8 18:20:45 2025.
