 Gaussian 16, Revision C.01,

 ----------------------------------------------------------------------
 #t hf aug-cc-pvdz symm=none int=(grid=ultrafine) guess=(read,tcheck) s
 table=(opt,rrhf)
 ----------------------------------------------------------------------
 -----
 title
 -----
 Symbolic Z-matrix:
 Charge =  0 Multiplicity = 1

 SCF Done:  E(RHF) =  -455.689572165     A.U. after   13 cycles
 Normal termination of Gaussian 16 at Tue Apr  8 18:34:18 2025.
 Gaussian 16:  ES64L-G16RevC.01  3-Jul-2019

 ----------------------------------------------------------------------
 #t hf aug-cc-pvdz iop(5/13=1,5/36=2,99/5=2) pseudo=read geom=check gue
 ss=(read,tcheck) scf=(maxcycle=1)
 ----------------------------------------------------------------------
 -----
 title
 -----
 Structure from the checkpoint file:  "3B-69_06a_acetic_acid_dimerAB_mol1.chk"
 Charge =  0 Multiplicity = 1

                         Standard orientation:
 ---------------------------------------------------------------------
 Center     Atomic      Atomic             Coordinates (Angstroms)
 Number     Number       Type             X           Y           Z
 ---------------------------------------------------------------------
      1          8           0       -3.892235   -0.595942   -0.452684
      2          1           0       -4.609822    0.015855   -0.798339
      3          8           0       -2.950817    1.301573    0.237623
      4          6           0       -2.910846    0.080436    0.119677
      5          6           0       -1.786361   -0.781117    0.600582
      6          1           0       -0.990336   -0.163396    1.002838
      7          1           0       -2.152577   -1.459290    1.371528
      8          1           0       -1.413268   -1.395324   -0.216803
      9          8           0        1.863619   -0.498367   -0.700202
     10          1           0        1.146032    0.113430   -1.045857
     11          8           0        2.805037    1.399147   -0.009895
     12          6           0        2.845008    0.178011   -0.127841
     13          6           0        3.969493   -0.683542    0.353064
     14          1           0        4.765518   -0.065821    0.755320
     15          1           0        3.603277   -1.361716    1.124010
     16          1           0        4.342586   -1.297750   -0.464321
 ---------------------------------------------------------------------

 SCF Done:  E(RHF) =  -455.839151314     A.U. after    2 cycles

 The electronic state is 1-A.
 Alpha  occ. eigenvalues --  -20.63775 -20.63739 -20.56083 -20.55946 -11.40628
 Alpha  occ. eigenvalues --  -11.40516 -11.26139 -11.25953  -1.43177  -1.43157
 Alpha  occ. eigenvalues --   -1.31714  -1.31615  -1.03082  -1.02897  -0.85070
 Alpha  occ. eigenvalues --   -0.84895  -0.71751  -0.71683  -0.69751  -0.69612
 Alpha  occ. eigenvalues --   -0.67087  -0.66960  -0.59091  -0.58965  -0.58539
 Alpha  occ. eigenvalues --   -0.58308  -0.57636  -0.57378  -0.49488  -0.49359
 Alpha  occ. eigenvalues --   -0.47284  -0.47137
 Alpha virt. eigenvalues --    0.02722   0.03679   0.04430   0.05062   0.06019
 Alpha virt. eigenvalues --    0.06187   0.06736   0.08552   0.09740   0.11250
 Alpha virt. eigenvalues --    0.11607   0.12356   0.12814   0.13659   0.14016

 Mulliken charges:
               1
     1  O   -0.493040
     2  H    0.218630
     3  O   -0.501141
     4  C    0.423502
     5  C    0.323639
     6  H   -0.017874
     7  H    0.039299
     8  H    0.009950
     9  O   -0.478829
    10  H    0.221664
    11  O   -0.496809
    12  C    0.392715
    13  C    0.315148
    14  H   -0.012869
    15  H    0.035913
    16  H    0.020102
 Sum of Mulliken charges =  -0.00000

 Dipole moment (field-independent basis, Debye):
    X=             -0.0584    Y=             -4.6588    Z=             -0.6572  Tot=              4.7053

 Test job not archived.
 1\1\GINC-SE403\SP\RHF\Aug-CC-pVDZ\C4H8O4\OHZDE\08-Apr-2025\0\\#t hf au
 g-cc-pvdz iop(5/13=1,5/36=2,99/5=2) pseudo=read geom=check guess=(read
 ,tcheck) scf=(maxcycle=1)\\title\\0,1\O,0,4.919921,3.501003,0.030827\H
 ,0,4.228836,3.730734,-0.660786\O,0,3.244878,2.37471,0.97372\C,0,4.4111
 08,2.75681,0.998036\C,0,5.385992,2.434653,2.086074\H,0,4.892304,1.8762
 53,2.874431\H,0,6.206877,1.84636,1.675647\H,0,5.815635,3.352282,2.4834
 8\O,0,4.919921,3.501003,5.792827\H,0,4.228836,3.730734,5.101214\O,0,3.
 244878,2.37471,6.73572\C,0,4.411108,2.75681,6.760036\C,0,5.385992,2.43

 Normal termination of Gaussian 16 at Tue Apr  8 18:34:23 2025.
