 Gaussian 16, Revision C.01,

 ----------------------------------------------------------------------
 #t hf aug-cc-pvdz symm=none int=(grid=ultrafine) guess=(read,tcheck) s
 table=(opt,rrhf)
 ----------------------------------------------------------------------
 -----
 title
 -----
 Symbolic Z-matrix:
 Charge =  0 Multiplicity = 1

 SCF Done:  E(RHF) =  -781.253760092     A.U. after   13 cycles
 Normal termination of Gaussian 16 at Tue Apr  8 19:03:29 2025.
 Gaussian 16:  ES64L-G16RevC.01  3-Jul-2019

 ----------------------------------------------------------------------
 #t hf aug-cc-pvdz iop(5/13=1,5/36=2,99/5=2) pseudo=read geom=check gue
 ss=(read,tcheck) scf=(maxcycle=1)
 ----------------------------------------------------------------------
 -----
 title
 -----
 Structure from the checkpoint file:  "3B-69_16a_triazolidinedione_dimerAC_mol1.chk"
 Charge =  0 Multiplicity = 1

                         Standard orientation:
 ---------------------------------------------------------------------
 Center     Atomic      Atomic             Coordinates (Angstroms)
 Number     Number       Type             X           Y           Z
 ---------------------------------------------------------------------
      1          7           0        3.294806   -0.679029    1.109653
      2          7           0        2.781014    0.630017    1.123013
      3          6           0        3.196522    1.258761   -0.017853
      4          7           0        3.779789    0.280191   -0.794844
      5          6           0        3.836486   -0.916577   -0.112217
      6          8           0        3.066251    2.440309   -0.323449
      7          8           0        4.291714   -1.981695   -0.533824
      8          1           0        2.761414   -1.419388    1.582521
      9          1           0        2.791796    1.125960    2.014106
     10          1           0        4.212051    0.449592   -1.716297
     11          7           0       -3.621205   -0.967354    0.944019
     12          7           0       -4.134997    0.341692    0.957379
     13          6           0       -3.719489    0.970437   -0.183487
     14          7           0       -3.136223   -0.008133   -0.960477
     15          6           0       -3.079525   -1.204902   -0.277851
     16          8           0       -3.849761    2.151984   -0.489083
     17          8           0       -2.624297   -2.270019   -0.699458
     18          1           0       -4.154597   -1.707712    1.416887
     19          1           0       -4.124215    0.837636    1.848473
     20          1           0       -2.703960    0.161268   -1.881931
 ---------------------------------------------------------------------

 SCF Done:  E(RHF) =  -781.491415723     A.U. after    2 cycles

 The electronic state is 1-A.
 Alpha  occ. eigenvalues --  -20.56567 -20.56417 -20.56394 -20.55997 -15.72872
 Alpha  occ. eigenvalues --  -15.72821 -15.72591 -15.72472 -15.70918 -15.70642
 Alpha  occ. eigenvalues --  -11.43640 -11.43568 -11.43436 -11.43182  -1.43838
 Alpha  occ. eigenvalues --   -1.43537  -1.36857  -1.36568  -1.32433  -1.32119
 Alpha  occ. eigenvalues --   -1.22572  -1.22284  -1.12593  -1.12277  -0.91216
 Alpha  occ. eigenvalues --   -0.90924  -0.88274  -0.87982  -0.77833  -0.77525
 Alpha  occ. eigenvalues --   -0.75152  -0.74841  -0.71342  -0.71065  -0.69051
 Alpha  occ. eigenvalues --   -0.68748  -0.66661  -0.66396  -0.65753  -0.65426
 Alpha  occ. eigenvalues --   -0.59039  -0.58739  -0.54879  -0.54573  -0.50812
 Alpha  occ. eigenvalues --   -0.50524  -0.47612  -0.47309  -0.45895  -0.45614
 Alpha  occ. eigenvalues --   -0.40522  -0.40202
 Alpha virt. eigenvalues --    0.01315   0.02510   0.03450   0.03636   0.04300
 Alpha virt. eigenvalues --    0.04865   0.06456   0.08885   0.09431   0.09879
 Alpha virt. eigenvalues --    0.10591   0.10950   0.11257   0.12195   0.12563

 Mulliken charges:
               1
     1  N   -0.181431
     2  N   -0.185696
     3  C    0.766480
     4  N   -0.369645
     5  C    0.780999
     6  O   -0.463387
     7  O   -0.478088
     8  H    0.069566
     9  H    0.060777
    10  H    0.000013
    11  N   -0.189095
    12  N   -0.161456
    13  C    0.785130
    14  N   -0.384419
    15  C    0.762536
    16  O   -0.461586
    17  O   -0.474778
    18  H    0.067328
    19  H    0.052865
    20  H    0.003887
 Sum of Mulliken charges =  -0.00000

 Dipole moment (field-independent basis, Debye):
    X=             -2.2404    Y=             -0.7661    Z=              5.6792  Tot=              6.1530

 Test job not archived.
 1\1\GINC-SE403\SP\RHF\Aug-CC-pVDZ\C4H6N6O4\OHZDE\08-Apr-2025\0\\#t hf
 aug-cc-pvdz iop(5/13=1,5/36=2,99/5=2) pseudo=read geom=check guess=(re
 ad,tcheck) scf=(maxcycle=1)\\title\\0,1\N,0,1.296199,16.90365,2.170497
 \N,0,1.754569,15.90098,1.297392\C,0,1.34065,16.21938,0.033733\N,0,0.81
 7392,17.492314,0.119488\C,0,0.794265,17.923919,1.428927\O,0,1.42888,15
 .54291,-0.98657\O,0,0.394001,19.016772,1.835033\H,0,1.848494,17.110082
 ,3.01228\H,0,1.701831,14.936932,1.625956\H,0,0.400617,18.004684,-0.673
 229\N,0,8.220199,16.90365,2.170497\N,0,8.678569,15.90098,1.297392\C,0,

 Normal termination of Gaussian 16 at Tue Apr  8 19:03:45 2025.
