 Gaussian 16, Revision C.01,

 ----------------------------------------------------------------------
 #t hf aug-cc-pvdz symm=none int=(grid=ultrafine) guess=(read,tcheck) s
 table=(opt,rrhf)
 ----------------------------------------------------------------------
 -----
 title
 -----
 Symbolic Z-matrix:
 Charge =  0 Multiplicity = 1

 SCF Done:  E(RHF) =  -299.743681657     A.U. after   14 cycles
 Normal termination of Gaussian 16 at Tue Apr  8 19:00:46 2025.
 Gaussian 16:  ES64L-G16RevC.01  3-Jul-2019

 ----------------------------------------------------------------------
 #t hf aug-cc-pvdz iop(5/13=1,5/36=2,99/5=2) pseudo=read geom=check gue
 ss=(read,tcheck) scf=(maxcycle=1)
 ----------------------------------------------------------------------
 -----
 title
 -----
 Structure from the checkpoint file:  "3B-69_14a_cyanoacetamide_dimerAC_mol3.chk"
 Charge =  0 Multiplicity = 1

                         Standard orientation:
 ---------------------------------------------------------------------
 Center     Atomic      Atomic             Coordinates (Angstroms)
 Number     Number       Type             X           Y           Z
 ---------------------------------------------------------------------
      1          6           0       -1.582478   -0.251012   -0.012987
      2          6           0       -0.279952   -0.866846    0.141214
      3          6           0        0.859133    0.153142    0.019186
      4          1           0       -0.184762   -1.675056   -0.582871
      5          1           0       -0.232632   -1.321462    1.134225
      6          1           0        2.881135    0.245901   -0.104343
      7          1           0        2.212777   -1.384224   -0.099706
      8          7           0       -2.615951    0.238652   -0.128840
      9          7           0        2.074360   -0.380695   -0.145108
     10          8           0        0.641800    1.364679    0.085731
 ---------------------------------------------------------------------

 SCF Done:  E(RHF) =  -299.835322452     A.U. after    2 cycles

 The electronic state is 1-A.
 Alpha  occ. eigenvalues --  -20.55955 -15.68568 -15.64148 -11.40186 -11.31943
 Alpha  occ. eigenvalues --  -11.29181  -1.36569  -1.21623  -1.19789  -1.06970
 Alpha  occ. eigenvalues --   -0.84830  -0.77065  -0.71813  -0.69206  -0.66928
 Alpha  occ. eigenvalues --   -0.62896  -0.57843  -0.54738  -0.47921  -0.46479
 Alpha  occ. eigenvalues --   -0.45898  -0.44490
 Alpha virt. eigenvalues --    0.01341   0.03496   0.04085   0.05249   0.09078
 Alpha virt. eigenvalues --    0.09458   0.11237   0.11600   0.12314   0.12579
 Alpha virt. eigenvalues --    0.14189   0.14370   0.14724   0.15657   0.16998

 Mulliken charges:
               1
     1  C   -0.184697
     2  C    0.221363
     3  C    0.560685
     4  H    0.052353
     5  H    0.133832
     6  H    0.033461
     7  H    0.016787
     8  N   -0.178611
     9  N   -0.148361
    10  O   -0.506812
 Sum of Mulliken charges =  -0.00000

 Dipole moment (field-independent basis, Debye):
    X=              5.3995    Y=             -5.6457    Z=              0.4199  Tot=              7.8234

 Test job not archived.
 1\1\GINC-SE117\SP\RHF\Aug-CC-pVDZ\C3H4N2O1\OHZDE\08-Apr-2025\0\\#t hf
 aug-cc-pvdz iop(5/13=1,5/36=2,99/5=2) pseudo=read geom=check guess=(re
 ad,tcheck) scf=(maxcycle=1)\\title\\0,1\C,0,5.578016,24.531209,4.18029
 6\C,0,5.959025,25.683875,4.971369\C,0,5.523547,27.00179,4.318499\H,0,7
 .033398,25.650121,5.14786\H,0,5.473121,25.603895,5.947323\H,0,5.745653
 ,29.007129,4.522561\H,0,6.694405,28.03801,5.647154\N,0,5.270009,23.616
 585,3.555913\N,0,6.093512,28.097115,4.83246\O,0,4.699107,27.019141,3.4
 02268\\Version=ES64L-G16RevC.01\State=1-A\HF=-299.8353225\RMSD=4.047e-

 Normal termination of Gaussian 16 at Tue Apr  8 19:00:49 2025.
