 Gaussian 16, Revision C.01,

 ----------------------------------------------------------------------
 #t hf aug-cc-pvdz symm=none int=(grid=ultrafine) guess=(read,tcheck) s
 table=(opt,rrhf)
 ----------------------------------------------------------------------
 -----
 title
 -----
 Symbolic Z-matrix:
 Charge =  0 Multiplicity = 1

 SCF Done:  E(RHF) =  -449.647011705     A.U. after   15 cycles
 Normal termination of Gaussian 16 at Tue Apr  8 19:01:10 2025.
 Gaussian 16:  ES64L-G16RevC.01  3-Jul-2019

 ----------------------------------------------------------------------
 #t hf aug-cc-pvdz iop(5/13=1,5/36=2,99/5=2) pseudo=read geom=check gue
 ss=(read,tcheck) scf=(maxcycle=1)
 ----------------------------------------------------------------------
 -----
 title
 -----
 Structure from the checkpoint file:  "3B-69_12b_pyrazole_dimerAC_mol1.chk"
 Charge =  0 Multiplicity = 1

                         Standard orientation:
 ---------------------------------------------------------------------
 Center     Atomic      Atomic             Coordinates (Angstroms)
 Number     Number       Type             X           Y           Z
 ---------------------------------------------------------------------
      1          6           0        1.882527   -0.189176    0.955265
      2          6           0        1.647131    0.941052    0.156471
      3          6           0        2.595762    0.867166   -0.845155
      4          1           0        4.087056   -0.652044   -1.186601
      5          1           0        2.789299    1.515001   -1.680309
      6          1           0        0.895593    1.696691    0.291068
      7          1           0        1.364962   -0.517406    1.840271
      8          7           0        3.327893   -0.241919   -0.615869
      9          7           0        2.902418   -0.906783    0.479923
     10          6           0       -2.684671   -0.971797   -0.752262
     11          6           0       -1.697038   -0.968318    0.244617
     12          6           0       -1.843240    0.248486    0.880009
     13          1           0       -3.204840    1.853886    0.406689
     14          1           0       -1.301783    0.700077    1.691525
     15          1           0       -0.979906   -1.736115    0.467477
     16          1           0       -2.902590   -1.739770   -1.473485
     17          7           0       -2.862245    0.890145    0.271283
     18          7           0       -3.389583    0.160728   -0.733952
 ---------------------------------------------------------------------

 SCF Done:  E(RHF) =  -449.778586091     A.U. after    2 cycles

 The electronic state is 1-A.
 Alpha  occ. eigenvalues --  -15.71062 -15.70730 -15.65396 -15.64960 -11.29073
 Alpha  occ. eigenvalues --  -11.28727 -11.26694 -11.26187 -11.23347 -11.22853
 Alpha  occ. eigenvalues --   -1.33599  -1.33315  -1.07748  -1.07353  -1.04185
 Alpha  occ. eigenvalues --   -1.03825  -0.82296  -0.81912  -0.80239  -0.79755
 Alpha  occ. eigenvalues --   -0.74340  -0.73989  -0.61812  -0.61450  -0.60635
 Alpha  occ. eigenvalues --   -0.60162  -0.59641  -0.59145  -0.57119  -0.56681
 Alpha  occ. eigenvalues --   -0.45227  -0.44856  -0.37029  -0.36336  -0.34736
 Alpha  occ. eigenvalues --   -0.33834
 Alpha virt. eigenvalues --    0.02639   0.03007   0.04124   0.04666   0.05025
 Alpha virt. eigenvalues --    0.06272   0.07062   0.07149   0.09286   0.11148
 Alpha virt. eigenvalues --    0.11390   0.12213   0.12347   0.13259   0.13497

 Mulliken charges:
               1
     1  C    0.663153
     2  C    0.619691
     3  C    0.589642
     4  H    0.012782
     5  H   -0.322930
     6  H   -0.438340
     7  H   -0.341443
     8  N   -0.234230
     9  N   -0.555453
    10  C    0.511798
    11  C    0.537169
    12  C    0.821232
    13  H   -0.000521
    14  H   -0.399564
    15  H   -0.414327
    16  H   -0.262341
    17  N   -0.262540
    18  N   -0.523777
 Sum of Mulliken charges =  -0.00000

 Dipole moment (field-independent basis, Debye):
    X=              1.7447    Y=              2.2841    Z=             -0.3633  Tot=              2.8971

 Test job not archived.
 1\1\GINC-SE009\SP\RHF\Aug-CC-pVDZ\C6H8N4\OHZDE\08-Apr-2025\0\\#t hf au
 g-cc-pvdz iop(5/13=1,5/36=2,99/5=2) pseudo=read geom=check guess=(read
 ,tcheck) scf=(maxcycle=1)\\title\\0,1\C,0,2.437016,5.579002,5.969045\C
 ,0,3.286074,4.843862,6.811403\C,0,2.498278,3.817185,7.295063\H,0,0.439
 312,3.364017,6.843575\H,0,2.727516,3.011175,7.967689\H,0,4.320061,5.03
 4319,7.031661\H,0,2.650612,6.458651,5.386431\N,0,1.271334,3.972773,6.7
 57422\N,0,1.214905,5.04376,5.93667\C,0,5.922353,3.945079,2.875477\C,0,
 5.048807,4.916747,3.387313\C,0,5.801878,5.615759,4.309254\H,0,7.837666

 Normal termination of Gaussian 16 at Tue Apr  8 19:01:19 2025.
