 Gaussian 16, Revision C.01,

 ----------------------------------------------------------------------
 #t hf aug-cc-pvdz symm=none int=(grid=ultrafine) guess=(read,tcheck) s
 table=(opt,rrhf)
 ----------------------------------------------------------------------
 -----
 title
 -----
 Symbolic Z-matrix:
 Charge =  0 Multiplicity = 1

 SCF Done:  E(RHF) =  -591.809419347     A.U. after   15 cycles
 Normal termination of Gaussian 16 at Tue Apr  8 19:03:02 2025.
 Gaussian 16:  ES64L-G16RevC.01  3-Jul-2019

 ----------------------------------------------------------------------
 #t hf aug-cc-pvdz iop(5/13=1,5/36=2,99/5=2) pseudo=read geom=check gue
 ss=(read,tcheck) scf=(maxcycle=1)
 ----------------------------------------------------------------------
 -----
 title
 -----
 Structure from the checkpoint file:  "3B-69_15c_cyanoguanidine_dimerAB_mol1.chk"
 Charge =  0 Multiplicity = 1

                         Standard orientation:
 ---------------------------------------------------------------------
 Center     Atomic      Atomic             Coordinates (Angstroms)
 Number     Number       Type             X           Y           Z
 ---------------------------------------------------------------------
      1          7           0        4.629953    1.296552    0.612305
      2          6           0        3.920316    0.582947    0.017664
      3          7           0        3.194156   -0.189632   -0.723480
      4          6           0        2.163859   -0.873060   -0.199138
      5          7           0        1.788535   -0.783297    1.081662
      6          7           0        1.469631   -1.660570   -1.019105
      7          1           0        1.073517   -1.411789    1.428486
      8          1           0        2.286757   -0.212514    1.753912
      9          1           0        0.685793   -2.185018   -0.646496
     10          1           0        1.776071   -1.769137   -1.985707
     11          7           0       -4.191680   -1.746623    0.428116
     12          6           0       -3.843146   -0.662194    0.165529
     13          7           0       -3.557089    0.562335   -0.138086
     14          6           0       -2.288489    1.001046   -0.096725
     15          7           0       -1.243986    0.224088    0.211047
     16          7           0       -2.070735    2.277857   -0.407863
     17          1           0       -0.332942    0.651278    0.329572
     18          1           0       -1.350027   -0.749432    0.469796
     19          1           0       -1.120639    2.631570   -0.385788
     20          1           0       -2.865262    2.887650   -0.599933
 ---------------------------------------------------------------------

 SCF Done:  E(RHF) =  -591.987708693     A.U. after    2 cycles

 The electronic state is 1-A.
 Alpha  occ. eigenvalues --  -15.71801 -15.71082 -15.70772 -15.70128 -15.64220
 Alpha  occ. eigenvalues --  -15.63333 -15.60781 -15.60208 -11.44863 -11.43964
 Alpha  occ. eigenvalues --  -11.30401 -11.29946  -1.35232  -1.34203  -1.22143
 Alpha  occ. eigenvalues --   -1.21336  -1.21128  -1.20143  -1.13700  -1.13101
 Alpha  occ. eigenvalues --   -0.91985  -0.91120  -0.84220  -0.83359  -0.79901
 Alpha  occ. eigenvalues --   -0.78896  -0.71973  -0.71516  -0.70959  -0.70536
 Alpha  occ. eigenvalues --   -0.65557  -0.64465  -0.55144  -0.54460  -0.52353
 Alpha  occ. eigenvalues --   -0.52055  -0.51871  -0.51322  -0.48320  -0.46952
 Alpha  occ. eigenvalues --   -0.40087  -0.39483  -0.36365  -0.35679
 Alpha virt. eigenvalues --    0.00569   0.01381   0.01983   0.03930   0.04786
 Alpha virt. eigenvalues --    0.05563   0.06716   0.07063   0.08545   0.09163
 Alpha virt. eigenvalues --    0.09692   0.10310   0.10893   0.11585   0.11882

 Mulliken charges:
               1
     1  N   -0.192462
     2  C   -0.427605
     3  N   -0.332669
     4  C    1.214875
     5  N   -0.205882
     6  N   -0.156643
     7  H    0.003846
     8  H    0.034356
     9  H   -0.000133
    10  H    0.024256
    11  N   -0.177739
    12  C   -0.509982
    13  N   -0.295090
    14  C    1.244535
    15  N   -0.113467
    16  N   -0.197070
    17  H    0.067658
    18  H   -0.005243
    19  H   -0.000642
    20  H    0.025104
 Sum of Mulliken charges =  -0.00000

 Dipole moment (field-independent basis, Debye):
    X=              0.2144    Y=              0.2126    Z=             -0.3256  Tot=              0.4440

 Test job not archived.
 1\1\GINC-SE333\SP\RHF\Aug-CC-pVDZ\C4H8N8\OHZDE\08-Apr-2025\0\\#t hf au
 g-cc-pvdz iop(5/13=1,5/36=2,99/5=2) pseudo=read geom=check guess=(read
 ,tcheck) scf=(maxcycle=1)\\title\\0,1\N,0,3.187601,-0.047335,-1.496641
 \C,0,2.374574,0.453351,-0.822315\N,0,1.447054,1.06357,-0.158373\C,0,1.
 185537,0.733156,1.116757\N,0,1.867065,-0.194691,1.797929\N,0,0.206646,
 1.393807,1.733021\H,0,1.540497,-0.46649,2.717722\H,0,2.611069,-0.73846
 5,1.377566\H,0,-0.007785,1.163282,2.696952\H,0,-0.346843,2.07056,1.207
 981\N,0,1.420831,2.164565,7.397293\C,0,2.233857,2.665251,6.722967\N,0,

 Normal termination of Gaussian 16 at Tue Apr  8 19:03:15 2025.
