 Gaussian 16, Revision C.01,

 ----------------------------------------------------------------------
 #t hf aug-cc-pvdz symm=none int=(grid=ultrafine) guess=(read,tcheck) s
 table=(opt,rrhf)
 ----------------------------------------------------------------------
 -----
 title
 -----
 Symbolic Z-matrix:
 Charge =  0 Multiplicity = 1

 SCF Done:  E(RHF) =  -678.773949728     A.U. after   14 cycles
 Normal termination of Gaussian 16 at Tue Apr  8 18:48:02 2025.
 Gaussian 16:  ES64L-G16RevC.01  3-Jul-2019

 ----------------------------------------------------------------------
 #t hf aug-cc-pvdz iop(5/13=1,5/36=2,99/5=2) pseudo=read geom=check gue
 ss=(read,tcheck) scf=(maxcycle=1)
 ----------------------------------------------------------------------
 -----
 title
 -----
 Structure from the checkpoint file:  "3B-69_08a_vinylene_carbonate_dimerAB_mol1.chk"
 Charge =  0 Multiplicity = 1

                         Standard orientation:
 ---------------------------------------------------------------------
 Center     Atomic      Atomic             Coordinates (Angstroms)
 Number     Number       Type             X           Y           Z
 ---------------------------------------------------------------------
      1          6           0        4.169557    0.422391   -0.291456
      2          6           0        3.274517    1.363131   -0.039649
      3          6           0        2.256208   -0.595047    0.167347
      4          1           0        5.211809    0.428384   -0.545913
      5          1           0        3.294693    2.434702   -0.023820
      6          8           0        3.550898   -0.821200   -0.157167
      7          8           0        2.062969    0.742163    0.269468
      8          8           0        1.414072   -1.432392    0.328312
      9          6           0       -1.359037    0.452470    0.012553
     10          6           0       -1.597401   -0.841077   -0.126780
     11          6           0       -3.557910    0.189852   -0.038172
     12          1           0       -0.468829    1.048015    0.075241
     13          1           0       -0.981178   -1.714549   -0.205762
     14          8           0       -2.581982    1.122805    0.061016
     15          8           0       -2.979984   -1.027612   -0.178467
     16          8           0       -4.737487    0.397876    0.001489
 ---------------------------------------------------------------------

 SCF Done:  E(RHF) =  -678.994354272     A.U. after    2 cycles

 The electronic state is 1-A.
 Alpha  occ. eigenvalues --  -20.69452 -20.69213 -20.65451 -20.65293 -20.59884
 Alpha  occ. eigenvalues --  -20.55923 -11.49354 -11.45310 -11.36609 -11.36432
 Alpha  occ. eigenvalues --  -11.32435 -11.32260  -1.54246  -1.50296  -1.41207
 Alpha  occ. eigenvalues --   -1.39350  -1.37261  -1.35303  -1.09501  -1.05425
 Alpha  occ. eigenvalues --   -0.93518  -0.91209  -0.89522  -0.87225  -0.79452
 Alpha  occ. eigenvalues --   -0.76796  -0.75372  -0.72852  -0.72143  -0.70040
 Alpha  occ. eigenvalues --   -0.67967  -0.65895  -0.65512  -0.64635  -0.63313
 Alpha  occ. eigenvalues --   -0.61646  -0.60750  -0.59412  -0.57007  -0.53675
 Alpha  occ. eigenvalues --   -0.52969  -0.49586  -0.41170  -0.37123
 Alpha virt. eigenvalues --    0.01531   0.02894   0.04593   0.05630   0.06942
 Alpha virt. eigenvalues --    0.07392   0.07811   0.09395   0.09743   0.10068
 Alpha virt. eigenvalues --    0.10795   0.11006   0.11872   0.12082   0.12931

 Mulliken charges:
               1
     1  C    0.653094
     2  C    0.669188
     3  C    0.532141
     4  H   -0.243246
     5  H   -0.285951
     6  O   -0.537387
     7  O   -0.446353
     8  O   -0.360200
     9  C    0.766073
    10  C    0.773111
    11  C    0.536297
    12  H   -0.305049
    13  H   -0.274023
    14  O   -0.546586
    15  O   -0.540485
    16  O   -0.390624
 Sum of Mulliken charges =  -0.00000

 Dipole moment (field-independent basis, Debye):
    X=             10.2863    Y=              2.7472    Z=             -0.8740  Tot=             10.6826

 Test job not archived.
 1\1\GINC-SE452\SP\RHF\Aug-CC-pVDZ\C6H4O6\OHZDE\08-Apr-2025\0\\#t hf au
 g-cc-pvdz iop(5/13=1,5/36=2,99/5=2) pseudo=read geom=check guess=(read
 ,tcheck) scf=(maxcycle=1)\\title\\0,1\C,0,0.845927,15.309211,1.553806\
 C,0,1.46459,14.71303,2.55945\C,0,0.932131,13.146144,1.084452\H,0,0.584
 258,16.325703,1.331665\H,0,1.890128,15.047782,3.484534\O,0,0.509604,14
 .34051,0.607341\O,0,1.545281,13.348493,2.275671\O,0,0.782676,12.082704
 ,0.552468\C,0,1.292572,10.034211,3.17663\C,0,0.673909,9.43803,2.170986
 \C,0,1.206368,7.871144,3.645984\H,0,1.554241,11.050703,3.398771\H,0,0.

 Normal termination of Gaussian 16 at Tue Apr  8 18:48:11 2025.
