 Gaussian 16, Revision C.01,

 ----------------------------------------------------------------------
 #t hf aug-cc-pvdz symm=none int=(grid=ultrafine) guess=(read,tcheck) s
 table=(opt,rrhf)
 ----------------------------------------------------------------------
 -----
 title
 -----
 Symbolic Z-matrix:
 Charge =  0 Multiplicity = 1

 SCF Done:  E(RHF) =  -319.497358662     A.U. after   15 cycles
 Normal termination of Gaussian 16 at Tue Apr  8 18:55:56 2025.
 Gaussian 16:  ES64L-G16RevC.01  3-Jul-2019

 ----------------------------------------------------------------------
 #t hf aug-cc-pvdz iop(5/13=1,5/36=2,99/5=2) pseudo=read geom=check gue
 ss=(read,tcheck) scf=(maxcycle=1)
 ----------------------------------------------------------------------
 -----
 title
 -----
 Structure from the checkpoint file:  "3B-69_11a_isoxazole_dimerAB_mol2.chk"
 Charge =  0 Multiplicity = 1

                         Standard orientation:
 ---------------------------------------------------------------------
 Center     Atomic      Atomic             Coordinates (Angstroms)
 Number     Number       Type             X           Y           Z
 ---------------------------------------------------------------------
      1          8           0       -1.317652   -0.785294    0.008999
      2          7           0        0.047024   -1.104179   -0.022249
      3          6           0        0.683464    0.050348   -0.013694
      4          8           0        2.006365    0.141008   -0.005101
      5          6           0       -0.221216    1.148355   -0.006982
      6          6           0       -1.433478    0.554978    0.009593
      7          1           0        2.418690   -0.763688    0.159324
      8          1           0        0.010646    2.197983    0.002264
      9          1           0       -2.440831    0.927158    0.029464
 ---------------------------------------------------------------------

 SCF Done:  E(RHF) =  -319.595406934     A.U. after    2 cycles

 The electronic state is 1-A.
 Alpha  occ. eigenvalues --  -20.66200 -20.63815 -15.67650 -11.36317 -11.33748
 Alpha  occ. eigenvalues --  -11.25656  -1.45261  -1.39943  -1.13279  -1.07395
 Alpha  occ. eigenvalues --   -0.86640  -0.84173  -0.75938  -0.69817  -0.68266
 Alpha  occ. eigenvalues --   -0.64898  -0.62101  -0.61012  -0.56635  -0.47799
 Alpha  occ. eigenvalues --   -0.41054  -0.37640
 Alpha virt. eigenvalues --    0.03098   0.03734   0.04944   0.09061   0.09865
 Alpha virt. eigenvalues --    0.10714   0.10806   0.12189   0.12869   0.13123
 Alpha virt. eigenvalues --    0.14782   0.15690   0.15797   0.16092   0.18418

 Mulliken charges:
               1
     1  O   -0.585452
     2  N   -0.161942
     3  C    0.280468
     4  O   -0.495305
     5  C    0.810916
     6  C    0.473114
     7  H    0.199945
     8  H   -0.267063
     9  H   -0.254680
 Sum of Mulliken charges =   0.00000

 Dipole moment (field-independent basis, Debye):
    X=              0.1349    Y=              2.0976    Z=              0.3270  Tot=              2.1272

 Test job not archived.
 1\1\GINC-SE456\SP\RHF\Aug-CC-pVDZ\C3H3N1O2\OHZDE\08-Apr-2025\0\\#t hf
 aug-cc-pvdz iop(5/13=1,5/36=2,99/5=2) pseudo=read geom=check guess=(re
 ad,tcheck) scf=(maxcycle=1)\\title\\0,1\O,0,0.492354,17.073364,2.53743
 8\N,0,1.798473,16.694123,2.876901\C,0,2.4714,17.819028,3.017689\O,0,3.
 748782,17.852113,3.372032\C,0,1.656726,18.954747,2.752056\C,0,0.452423
 ,18.416167,2.466513\H,0,4.054562,16.938298,3.666928\H,0,1.933991,19.99
 2652,2.790034\H,0,-0.503537,18.832499,2.208674\\Version=ES64L-G16RevC.
 01\State=1-A\HF=-319.5954069\RMSD=6.707e-03\Dipole=0.0617,0.8269865,0.

 Normal termination of Gaussian 16 at Tue Apr  8 18:55:59 2025.
