 Gaussian 16, Revision C.01,

 ----------------------------------------------------------------------
 #t hf aug-cc-pvdz symm=none int=(grid=ultrafine) guess=(read,tcheck) s
 table=(opt,rrhf)
 ----------------------------------------------------------------------
 -----
 title
 -----
 Symbolic Z-matrix:
 Charge =  0 Multiplicity = 1

 SCF Done:  E(RHF) =  -781.262211965     A.U. after   13 cycles
 Normal termination of Gaussian 16 at Tue Apr  8 19:04:45 2025.
 Gaussian 16:  ES64L-G16RevC.01  3-Jul-2019

 ----------------------------------------------------------------------
 #t hf aug-cc-pvdz iop(5/13=1,5/36=2,99/5=2) pseudo=read geom=check gue
 ss=(read,tcheck) scf=(maxcycle=1)
 ----------------------------------------------------------------------
 -----
 title
 -----
 Structure from the checkpoint file:  "3B-69_16b_triazolidinedione_dimerBC_mol1.chk"
 Charge =  0 Multiplicity = 1

                         Standard orientation:
 ---------------------------------------------------------------------
 Center     Atomic      Atomic             Coordinates (Angstroms)
 Number     Number       Type             X           Y           Z
 ---------------------------------------------------------------------
      1          7           0       -2.233563   -0.935528   -0.406323
      2          7           0       -2.050773    0.399733   -0.808107
      3          6           0       -3.004824    1.160913   -0.191717
      4          7           0       -3.867066    0.268206    0.409222
      5          6           0       -3.404617   -1.023871    0.274589
      6          8           0       -3.110375    2.383688   -0.182060
      7          8           0       -3.950208   -2.046615    0.693859
      8          1           0       -1.965945   -1.684030   -1.057757
      9          1           0       -1.091316    0.738473   -0.877525
     10          1           0       -4.685831    0.540990    0.974763
     11          7           0        2.367888    1.042504    0.393164
     12          7           0        3.749173    0.952871    0.641727
     13          6           0        4.206547   -0.203862    0.073993
     14          7           0        3.083128   -0.892533   -0.332425
     15          6           0        1.947416   -0.136643   -0.131837
     16          8           0        5.367329   -0.586251   -0.039039
     17          8           0        0.788256   -0.471562   -0.384106
     18          1           0        1.778255    1.534554    1.076143
     19          1           0        4.293540    1.811776    0.563827
     20          1           0        3.102644   -1.801839   -0.819669
 ---------------------------------------------------------------------

 SCF Done:  E(RHF) =  -781.499243905     A.U. after    2 cycles

 The electronic state is 1-A.
 Alpha  occ. eigenvalues --  -20.58723 -20.57743 -20.55151 -20.54693 -15.74423
 Alpha  occ. eigenvalues --  -15.74047 -15.72484 -15.70578 -15.70393 -15.69370
 Alpha  occ. eigenvalues --  -11.45664 -11.44879 -11.41995 -11.41747  -1.45383
 Alpha  occ. eigenvalues --   -1.41945  -1.38652  -1.35318  -1.34104  -1.30628
 Alpha  occ. eigenvalues --   -1.24085  -1.20788  -1.14048  -1.10426  -0.92624
 Alpha  occ. eigenvalues --   -0.89978  -0.89066  -0.86524  -0.79383  -0.76624
 Alpha  occ. eigenvalues --   -0.75799  -0.73231  -0.72734  -0.70635  -0.69998
 Alpha  occ. eigenvalues --   -0.68187  -0.67349  -0.67101  -0.65097  -0.64173
 Alpha  occ. eigenvalues --   -0.60779  -0.57462  -0.56355  -0.53012  -0.52547
 Alpha  occ. eigenvalues --   -0.49325  -0.49254  -0.47666  -0.46031  -0.44529
 Alpha  occ. eigenvalues --   -0.41975  -0.38299
 Alpha virt. eigenvalues --    0.01566   0.02535   0.03276   0.04485   0.04700
 Alpha virt. eigenvalues --    0.05384   0.07601   0.08482   0.09878   0.10021
 Alpha virt. eigenvalues --    0.10918   0.11356   0.11930   0.12600   0.12889

 Mulliken charges:
               1
     1  N   -0.089224
     2  N   -0.224888
     3  C    0.766980
     4  N   -0.388689
     5  C    0.764501
     6  O   -0.481041
     7  O   -0.493883
     8  H    0.066954
     9  H    0.092371
    10  H   -0.007936
    11  N   -0.190973
    12  N   -0.176222
    13  C    0.856485
    14  N   -0.424736
    15  C    0.727624
    16  O   -0.474582
    17  O   -0.459645
    18  H    0.070177
    19  H    0.066016
    20  H    0.000710
 Sum of Mulliken charges =  -0.00000

 Dipole moment (field-independent basis, Debye):
    X=              3.7609    Y=              1.9604    Z=             -0.2268  Tot=              4.2473

 Test job not archived.
 1\1\GINC-SE184\SP\RHF\Aug-CC-pVDZ\C4H6N6O4\OHZDE\08-Apr-2025\0\\#t hf
 aug-cc-pvdz iop(5/13=1,5/36=2,99/5=2) pseudo=read geom=check guess=(re
 ad,tcheck) scf=(maxcycle=1)\\title\\0,1\N,0,1.196054,2.12235,8.781654\
 N,0,0.737684,3.125021,9.654759\C,0,1.151603,2.80662,10.918419\N,0,1.67
 4861,1.533686,10.832663\C,0,1.697988,1.102081,9.523224\O,0,1.063373,3.
 48309,11.938721\O,0,2.098252,0.009228,9.117118\H,0,0.643759,1.915918,7
 .939872\H,0,0.790422,4.089068,9.326195\H,0,2.091636,1.021316,11.62538\
 N,0,2.542325,6.87885,7.646573\N,0,3.000696,7.881521,6.773467\C,0,2.586

 Normal termination of Gaussian 16 at Tue Apr  8 19:05:01 2025.
