 Gaussian 16, Revision C.01,

 ----------------------------------------------------------------------
 #t hf aug-cc-pvdz symm=none int=(grid=ultrafine) guess=(read,tcheck) s
 table=(opt,rrhf)
 ----------------------------------------------------------------------
 -----
 title
 -----
 Symbolic Z-matrix:
 Charge =  0 Multiplicity = 1

 SCF Done:  E(RHF) =  -449.701487603     A.U. after   14 cycles
 Normal termination of Gaussian 16 at Tue Apr  8 18:56:44 2025.
 Gaussian 16:  ES64L-G16RevC.01  3-Jul-2019

 ----------------------------------------------------------------------
 #t hf aug-cc-pvdz iop(5/13=1,5/36=2,99/5=2) pseudo=read geom=check gue
 ss=(read,tcheck) scf=(maxcycle=1)
 ----------------------------------------------------------------------
 -----
 title
 -----
 Structure from the checkpoint file:  "3B-69_10c_imidazole_dimerAC_mol1.chk"
 Charge =  0 Multiplicity = 1

                         Standard orientation:
 ---------------------------------------------------------------------
 Center     Atomic      Atomic             Coordinates (Angstroms)
 Number     Number       Type             X           Y           Z
 ---------------------------------------------------------------------
      1          7           0        3.441796   -0.638641   -0.184330
      2          6           0        2.172638   -0.850052   -0.592355
      3          7           0        1.373228    0.139160   -0.223736
      4          6           0        2.176998    1.026545    0.457334
      5          6           0        3.459812    0.555990    0.491011
      6          1           0        4.244278   -1.295655   -0.286085
      7          1           0        1.858152   -1.720032   -1.141877
      8          1           0        1.793012    1.930548    0.891563
      9          1           0        4.347836    0.961930    0.938269
     10          7           0       -1.489341    0.012912   -0.154599
     11          6           0       -2.390180    0.940082   -0.542910
     12          7           0       -3.621123    0.595301   -0.197388
     13          6           0       -3.496092   -0.615497    0.447350
     14          6           0       -2.181076   -0.986508    0.482751
     15          1           0       -0.453126    0.078435   -0.243843
     16          1           0       -2.130129    1.846169   -1.061678
     17          1           0       -4.341068   -1.136555    0.856903
     18          1           0       -1.703479   -1.849319    0.908040
 ---------------------------------------------------------------------

 SCF Done:  E(RHF) =  -449.834719413     A.U. after    2 cycles

 The electronic state is 1-A.
 Alpha  occ. eigenvalues --  -15.71935 -15.64479 -15.64316 -15.58224 -11.33960
 Alpha  occ. eigenvalues --  -11.29562 -11.28054 -11.27748 -11.24217 -11.22723
 Alpha  occ. eigenvalues --   -1.34071  -1.27859  -1.16222  -1.09713  -1.03124
 Alpha  occ. eigenvalues --   -0.97493  -0.84793  -0.82801  -0.79205  -0.78090
 Alpha  occ. eigenvalues --   -0.76808  -0.73150  -0.63755  -0.63192  -0.62679
 Alpha  occ. eigenvalues --   -0.60301  -0.58246  -0.57707  -0.56567  -0.54824
 Alpha  occ. eigenvalues --   -0.46633  -0.42798  -0.40075  -0.36221  -0.34890
 Alpha  occ. eigenvalues --   -0.29548
 Alpha virt. eigenvalues --    0.01303   0.02741   0.03950   0.04446   0.05592
 Alpha virt. eigenvalues --    0.05939   0.06910   0.08302   0.09419   0.10243
 Alpha virt. eigenvalues --    0.11007   0.11407   0.11998   0.12823   0.12935

 Mulliken charges:
               1
     1  N   -0.490898
     2  C    0.601163
     3  N   -0.596535
     4  C    0.507504
     5  C    0.677031
     6  H   -0.011876
     7  H   -0.220612
     8  H   -0.266972
     9  H   -0.249810
    10  N   -0.278015
    11  C    0.591102
    12  N   -0.689404
    13  C    0.454517
    14  C    0.720017
    15  H    0.052882
    16  H   -0.249896
    17  H   -0.236558
    18  H   -0.313641
 Sum of Mulliken charges =  -0.00000

 Dipole moment (field-independent basis, Debye):
    X=              9.4399    Y=             -2.3462    Z=              0.1143  Tot=              9.7277

 Test job not archived.
 1\1\GINC-SE045\SP\RHF\Aug-CC-pVDZ\C6H8N4\OHZDE\08-Apr-2025\0\\#t hf au
 g-cc-pvdz iop(5/13=1,5/36=2,99/5=2) pseudo=read geom=check guess=(read
 ,tcheck) scf=(maxcycle=1)\\title\\0,1\N,0,1.225156,1.790098,0.793667\C
 ,0,0.314568,1.191681,1.590327\N,0,0.098973,1.892803,2.692789\C,0,0.918
 281,2.99557,2.592821\C,0,1.622758,2.943251,1.422717\H,0,1.619151,1.410
 346,-0.093212\H,0,-0.165462,0.258212,1.353791\H,0,0.967252,3.744556,3.
 360834\H,0,2.357781,3.610084,1.012244\N,0,-1.152747,0.892902,5.069428\
 C,0,-2.063336,1.491319,5.866087\N,0,-2.27893,0.790197,6.96855\C,0,-1.4

 Normal termination of Gaussian 16 at Tue Apr  8 18:56:53 2025.
