 Gaussian 16, Revision C.01,

 ----------------------------------------------------------------------
 #t hf aug-cc-pvdz symm=none int=(grid=ultrafine) guess=(read,tcheck) s
 table=(opt,rrhf)
 ----------------------------------------------------------------------
 -----
 title
 -----
 Symbolic Z-matrix:
 Charge =  0 Multiplicity = 1

 SCF Done:  E(RHF) =  -887.762886801     A.U. after   15 cycles
 Normal termination of Gaussian 16 at Tue Apr  8 19:12:52 2025.
 Gaussian 16:  ES64L-G16RevC.01  3-Jul-2019

 ----------------------------------------------------------------------
 #t hf aug-cc-pvdz iop(5/13=1,5/36=2,99/5=2) pseudo=read geom=check gue
 ss=(read,tcheck) scf=(maxcycle=1)
 ----------------------------------------------------------------------
 -----
 title
 -----
 Structure from the checkpoint file:  "3B-69_15a_cyanoguanidine_trimer_mol1.chk"
 Charge =  0 Multiplicity = 1

                         Standard orientation:
 ---------------------------------------------------------------------
 Center     Atomic      Atomic             Coordinates (Angstroms)
 Number     Number       Type             X           Y           Z
 ---------------------------------------------------------------------
      1          7           0       -5.708468   -1.790213   -0.867811
      2          6           0       -4.817632   -1.680903   -0.118894
      3          7           0       -3.899361   -1.576887    0.786335
      4          6           0       -2.613644   -1.398246    0.442038
      5          7           0       -2.193883   -1.275123   -0.822089
      6          7           0       -1.720945   -1.314530    1.427201
      7          1           0       -1.198214   -1.254196   -1.008494
      8          1           0       -2.824197   -1.344752   -1.611894
      9          1           0       -0.744144   -1.177505    1.191893
     10          1           0       -2.025927   -1.451914    2.390593
     11          7           0        2.571446    2.413476    0.074558
     12          6           0        1.533935    2.951977    0.075022
     13          7           0        0.436901    3.637493    0.083112
     14          6           0       -0.752022    3.031345   -0.067123
     15          7           0       -0.899971    1.707728   -0.191712
     16          7           0       -1.838259    3.802413   -0.063485
     17          1           0       -1.816017    1.335135   -0.412111
     18          1           0       -0.110359    1.073796   -0.215778
     19          1           0       -2.747527    3.367123   -0.173205
     20          1           0       -1.731531    4.815413   -0.013975
     21          7           0        0.747616   -0.927100   -0.223794
     22          6           0        1.785128   -1.465601   -0.224259
     23          7           0        2.882161   -2.151117   -0.232349
     24          6           0        4.071084   -1.544970   -0.082114
     25          7           0        4.219034   -0.221353    0.042476
     26          7           0        5.157321   -2.316037   -0.085752
     27          1           0        5.135080    0.151241    0.262875
     28          1           0        3.429422    0.412579    0.066542
     29          1           0        6.066590   -1.880747    0.023969
     30          1           0        5.050593   -3.329038   -0.135262
 ---------------------------------------------------------------------

 SCF Done:  E(RHF) =  -888.029008405     A.U. after    2 cycles

 The electronic state is 1-A.
 Alpha  occ. eigenvalues --  -15.70569 -15.69015 -15.68845 -15.67755 -15.66625
 Alpha  occ. eigenvalues --  -15.65937 -15.64935 -15.63075 -15.62630 -15.60518
 Alpha  occ. eigenvalues --  -15.60376 -15.57725 -11.44506 -11.42612 -11.40638
 Alpha  occ. eigenvalues --  -11.34682 -11.30975 -11.27577  -1.34390  -1.32623
 Alpha  occ. eigenvalues --   -1.30747  -1.23549  -1.20917  -1.19529  -1.18517
 Alpha  occ. eigenvalues --   -1.18034  -1.16406  -1.16148  -1.13253  -1.10514
 Alpha  occ. eigenvalues --   -0.91760  -0.89817  -0.87700  -0.83203  -0.81661
 Alpha  occ. eigenvalues --   -0.79820  -0.78227  -0.76798  -0.75153  -0.71546
 Alpha  occ. eigenvalues --   -0.70059  -0.69683  -0.68900  -0.67660  -0.66989
 Alpha  occ. eigenvalues --   -0.64806  -0.63030  -0.61244  -0.57479  -0.55757
 Alpha  occ. eigenvalues --   -0.54617  -0.53969  -0.52885  -0.51834  -0.51194
 Alpha  occ. eigenvalues --   -0.49483  -0.48663  -0.46041  -0.44880  -0.43156
 Alpha  occ. eigenvalues --   -0.42813  -0.39685  -0.38535  -0.36993  -0.35640
 Alpha  occ. eigenvalues --   -0.33061
 Alpha virt. eigenvalues --    0.00690   0.02339   0.02821   0.03371   0.03891
 Alpha virt. eigenvalues --    0.04856   0.06103   0.06621   0.07058   0.07562
 Alpha virt. eigenvalues --    0.08310   0.09400   0.09623   0.10134   0.10497

 Mulliken charges:
               1
     1  N   -0.148373
     2  C   -0.660875
     3  N   -0.288517
     4  C    1.273449
     5  N   -0.165914
     6  N   -0.131976
     7  H    0.039769
     8  H    0.027525
     9  H    0.066933
    10  H    0.006415
    11  N   -0.096157
    12  C   -0.642652
    13  N   -0.301858
    14  C    1.198703
    15  N   -0.005400
    16  N   -0.200696
    17  H    0.059207
    18  H    0.025206
    19  H   -0.001725
    20  H    0.014198
    21  N   -0.102407
    22  C   -0.523714
    23  N   -0.334471
    24  C    1.042652
    25  N   -0.033862
    26  N   -0.183437
    27  H   -0.006374
    28  H    0.068515
    29  H   -0.008480
    30  H    0.014315
 Sum of Mulliken charges =  -0.00000

 Dipole moment (field-independent basis, Debye):
    X=             11.2899    Y=              0.9333    Z=              1.0467  Tot=             11.3767

 Test job not archived.
 1\1\GINC-SE095\SP\RHF\Aug-CC-pVDZ\C6H12N12\OHZDE\08-Apr-2025\0\\#t hf
 aug-cc-pvdz iop(5/13=1,5/36=2,99/5=2) pseudo=read geom=check guess=(re
 ad,tcheck) scf=(maxcycle=1)\\title\\0,1\N,0,3.187601,4.376465,-1.49664
 1\C,0,2.374574,4.877151,-0.822315\N,0,1.447054,5.48737,-0.158373\C,0,1
 .185537,5.156956,1.116757\N,0,1.867065,4.229109,1.797929\N,0,0.206646,
 5.817607,1.733021\H,0,1.540497,3.95731,2.717722\H,0,2.611069,3.685335,
 1.377566\H,0,-0.007785,5.587082,2.696952\H,0,-0.346843,6.49436,1.20798
 1\N,0,1.420831,6.588365,7.397293\C,0,2.233857,7.089051,6.722967\N,0,3.

 Normal termination of Gaussian 16 at Tue Apr  8 19:13:29 2025.
