 Gaussian 16, Revision C.01,

 ----------------------------------------------------------------------
 #t hf aug-cc-pvdz symm=none int=(grid=ultrafine) guess=(read,tcheck) s
 table=(opt,rrhf)
 ----------------------------------------------------------------------
 -----
 title
 -----
 Symbolic Z-matrix:
 Charge =  0 Multiplicity = 1

 SCF Done:  E(RHF) =  -449.649055522     A.U. after   15 cycles
 Normal termination of Gaussian 16 at Tue Apr  8 19:00:22 2025.
 Gaussian 16:  ES64L-G16RevC.01  3-Jul-2019

 ----------------------------------------------------------------------
 #t hf aug-cc-pvdz iop(5/13=1,5/36=2,99/5=2) pseudo=read geom=check gue
 ss=(read,tcheck) scf=(maxcycle=1)
 ----------------------------------------------------------------------
 -----
 title
 -----
 Structure from the checkpoint file:  "3B-69_12a_pyrazole_dimerBC_mol1.chk"
 Charge =  0 Multiplicity = 1

                         Standard orientation:
 ---------------------------------------------------------------------
 Center     Atomic      Atomic             Coordinates (Angstroms)
 Number     Number       Type             X           Y           Z
 ---------------------------------------------------------------------
      1          6           0        1.178820    0.273030   -0.133543
      2          6           0        2.194149    1.241675   -0.127830
      3          6           0        3.364775    0.523034    0.009638
      4          1           0        3.622673   -1.617433    0.094414
      5          1           0        4.393248    0.833634    0.047604
      6          1           0        2.091828    2.307229   -0.214915
      7          1           0        0.117091    0.419287   -0.227211
      8          7           0        3.020558   -0.779721    0.080282
      9          7           0        1.685620   -0.954749   -0.008791
     10          6           0       -2.373985    0.599792    1.000875
     11          6           0       -2.697002    1.029559   -0.295334
     12          6           0       -2.489172   -0.076747   -1.094460
     13          1           0       -1.736612   -2.018040   -0.528484
     14          1           0       -2.589943   -0.220831   -2.155004
     15          1           0       -3.028881    2.002682   -0.605730
     16          1           0       -2.398016    1.163873    1.916664
     17          7           0       -2.074490   -1.073935   -0.285572
     18          7           0       -1.994102   -0.679090    1.002165
 ---------------------------------------------------------------------

 SCF Done:  E(RHF) =  -449.780389552     A.U. after    2 cycles

 The electronic state is 1-A.
 Alpha  occ. eigenvalues --  -15.70551 -15.70200 -15.64883 -15.64391 -11.28748
 Alpha  occ. eigenvalues --  -11.28351 -11.26160 -11.25412 -11.23059 -11.22462
 Alpha  occ. eigenvalues --   -1.33264  -1.32801  -1.07247  -1.06791  -1.03888
 Alpha  occ. eigenvalues --   -1.03402  -0.81833  -0.81433  -0.79711  -0.79218
 Alpha  occ. eigenvalues --   -0.73900  -0.73535  -0.61871  -0.61126  -0.60039
 Alpha  occ. eigenvalues --   -0.59526  -0.59250  -0.58695  -0.56669  -0.55548
 Alpha  occ. eigenvalues --   -0.44687  -0.44368  -0.36615  -0.35758  -0.34251
 Alpha  occ. eigenvalues --   -0.33742
 Alpha virt. eigenvalues --    0.02884   0.03283   0.03534   0.04838   0.05519
 Alpha virt. eigenvalues --    0.06009   0.06875   0.08784   0.10156   0.11055
 Alpha virt. eigenvalues --    0.11250   0.11897   0.12567   0.13210   0.13684

 Mulliken charges:
               1
     1  C    0.272655
     2  C    0.750674
     3  C    0.689822
     4  H    0.007758
     5  H   -0.329438
     6  H   -0.359346
     7  H   -0.281375
     8  N   -0.239020
     9  N   -0.538629
    10  C    0.637569
    11  C    0.365463
    12  C    0.793111
    13  H    0.011984
    14  H   -0.400311
    15  H   -0.349354
    16  H   -0.314098
    17  N   -0.205962
    18  N   -0.511503
 Sum of Mulliken charges =  -0.00000

 Dipole moment (field-independent basis, Debye):
    X=              1.8336    Y=              0.3897    Z=             -2.2473  Tot=              2.9265

 Test job not archived.
 1\1\GINC-SE208\SP\RHF\Aug-CC-pVDZ\C6H8N4\OHZDE\08-Apr-2025\0\\#t hf au
 g-cc-pvdz iop(5/13=1,5/36=2,99/5=2) pseudo=read geom=check guess=(read
 ,tcheck) scf=(maxcycle=1)\\title\\0,1\C,0,5.922353,2.348921,6.261977\C
 ,0,5.048807,1.377253,6.773813\C,0,5.801878,0.678241,7.695754\H,0,7.837
 666,1.037377,8.313722\H,0,5.55454,-0.141615,8.345623\H,0,4.020061,1.21
 0588,6.514271\H,0,5.722353,3.102313,5.520469\N,0,7.033572,1.229218,7.6
 96363\N,0,7.127429,2.256777,6.826913\C,0,5.922353,3.945079,2.875477\C,
 0,5.048807,4.916747,3.387313\C,0,5.801878,5.615759,4.309254\H,0,7.8376

 Normal termination of Gaussian 16 at Tue Apr  8 19:00:31 2025.
