 Gaussian 16, Revision C.01,

 ----------------------------------------------------------------------
 #t hf aug-cc-pvdz symm=none int=(grid=ultrafine) guess=(read,tcheck) s
 table=(opt,rrhf)
 ----------------------------------------------------------------------
 -----
 title
 -----
 Symbolic Z-matrix:
 Charge =  0 Multiplicity = 1

 SCF Done:  E(RHF) =  -610.989652003     A.U. after   15 cycles
 Normal termination of Gaussian 16 at Tue Apr  8 19:11:08 2025.
 Gaussian 16:  ES64L-G16RevC.01  3-Jul-2019

 ----------------------------------------------------------------------
 #t hf aug-cc-pvdz iop(5/13=1,5/36=2,99/5=2) pseudo=read geom=check gue
 ss=(read,tcheck) scf=(maxcycle=1)
 ----------------------------------------------------------------------
 -----
 title
 -----
 Structure from the checkpoint file:  "3B-69_23a_cyclobutylfuran_dimerAC_mol1.chk"
 Charge =  0 Multiplicity = 1

                         Standard orientation:
 ---------------------------------------------------------------------
 Center     Atomic      Atomic             Coordinates (Angstroms)
 Number     Number       Type             X           Y           Z
 ---------------------------------------------------------------------
      1          8           0       -2.890980   -1.645141    0.073967
      2          6           0       -2.566808   -0.926479   -1.065940
      3          1           0       -2.637683   -1.471301   -1.989087
      4          6           0       -2.232447    0.324170   -0.682442
      5          6           0       -1.771565    1.773744   -0.793315
      6          1           0       -0.749256    1.907263   -1.144377
      7          1           0       -2.424567    2.434308   -1.362012
      8          6           0       -1.932937    1.852322    0.783512
      9          1           0       -1.014540    2.052420    1.331428
     10          1           0       -2.707060    2.533605    1.130894
     11          6           0       -2.355072    0.394482    0.729564
     12          6           0       -2.751884   -0.814327    1.175109
     13          1           0       -2.989747   -1.258567    2.123952
     14          8           0        1.920290   -2.023033   -0.070119
     15          6           0        1.055558   -0.988900   -0.392236
     16          1           0        0.066435   -1.290068   -0.683763
     17          6           0        1.728470    0.171916   -0.241610
     18          6           0        1.991746    1.673924   -0.216560
     19          1           0        1.422453    2.229769    0.527166
     20          1           0        1.905101    2.184208   -1.174828
     21          6           0        3.471846    1.316943    0.231175
     22          1           0        3.757396    1.684965    1.214397
     23          1           0        4.244607    1.587766   -0.485472
     24          6           0        3.047371   -0.140275    0.178837
     25          6           0        3.146207   -1.480603    0.283449
     26          1           0        3.909476   -2.190491    0.543660
 ---------------------------------------------------------------------

 SCF Done:  E(RHF) =  -611.175348934     A.U. after    2 cycles

 The electronic state is 1-A.
 Alpha  occ. eigenvalues --  -20.62611 -20.61913 -11.29754 -11.29696 -11.29044
 Alpha  occ. eigenvalues --  -11.28937 -11.26143 -11.25988 -11.25984 -11.25749
 Alpha  occ. eigenvalues --  -11.23399 -11.23160 -11.22732 -11.22602  -1.39530
 Alpha  occ. eigenvalues --   -1.38826  -1.14833  -1.14375  -0.99833  -0.99123
 Alpha  occ. eigenvalues --   -0.98365  -0.97858  -0.87988  -0.87663  -0.78805
 Alpha  occ. eigenvalues --   -0.78162  -0.74831  -0.74255  -0.71957  -0.71352
 Alpha  occ. eigenvalues --   -0.65671  -0.65074  -0.61949  -0.61249  -0.60966
 Alpha  occ. eigenvalues --   -0.60085  -0.58706  -0.58097  -0.53580  -0.52894
 Alpha  occ. eigenvalues --   -0.52148  -0.51804  -0.50971  -0.50553  -0.45780
 Alpha  occ. eigenvalues --   -0.45306  -0.38823  -0.38171  -0.31967  -0.31065
 Alpha virt. eigenvalues --    0.03053   0.03760   0.04030   0.04119   0.04883
 Alpha virt. eigenvalues --    0.05196   0.05803   0.06060   0.07445   0.08031
 Alpha virt. eigenvalues --    0.08143   0.09053   0.09934   0.10471   0.11027

 Mulliken charges:
               1
     1  O   -0.719127
     2  C    1.585197
     3  H   -0.479559
     4  C   -1.020210
     5  C    0.628811
     6  H   -0.154588
     7  H   -0.101577
     8  C    0.359673
     9  H   -0.122037
    10  H   -0.068125
    11  C   -0.680777
    12  C    1.232487
    13  H   -0.408586
    14  O   -0.656182
    15  C    1.601610
    16  H   -0.360515
    17  C   -1.042114
    18  C    0.399643
    19  H   -0.129851
    20  H   -0.154625
    21  C    0.429383
    22  H   -0.058537
    23  H   -0.053917
    24  C   -0.838823
    25  C    1.208508
    26  H   -0.396163
 Sum of Mulliken charges =  -0.00000

 Dipole moment (field-independent basis, Debye):
    X=              0.6974    Y=              3.4580    Z=              0.1016  Tot=              3.5291

 Test job not archived.
 1\1\GINC-SE423\SP\RHF\Aug-CC-pVDZ\C12H12O2\OHZDE\08-Apr-2025\0\\#t hf
 aug-cc-pvdz iop(5/13=1,5/36=2,99/5=2) pseudo=read geom=check guess=(re
 ad,tcheck) scf=(maxcycle=1)\\title\\0,1\O,0,-0.126301,16.441388,12.924
 526\C,0,-0.701266,17.4636,12.185981\H,0,-1.568703,17.187494,11.615566\
 C,0,0.02543,18.581936,12.396288\C,0,0.473934,20.034432,12.273536\H,0,0
 .824753,20.32698,11.284835\H,0,-0.238268,20.779526,12.625356\C,0,1.633
 898,19.669284,13.293216\H,0,2.642979,19.773757,12.900092\H,0,1.574915,
 20.176469,14.254138\C,0,1.077037,18.256376,13.291762\C,0,0.973511,16.9

 Normal termination of Gaussian 16 at Tue Apr  8 19:11:32 2025.
