 Gaussian 16, Revision C.01,

 ----------------------------------------------------------------------
 #t hf aug-cc-pvdz symm=none int=(grid=ultrafine) guess=(read,tcheck) s
 table=(opt,rrhf)
 ----------------------------------------------------------------------
 -----
 title
 -----
 Symbolic Z-matrix:
 Charge =  0 Multiplicity = 1

 SCF Done:  E(RHF) =  -191.887035065     A.U. after   13 cycles
 Normal termination of Gaussian 16 at Tue Apr  8 18:29:48 2025.
 Gaussian 16:  ES64L-G16RevC.01  3-Jul-2019

 ----------------------------------------------------------------------
 #t hf aug-cc-pvdz iop(5/13=1,5/36=2,99/5=2) pseudo=read geom=check gue
 ss=(read,tcheck) scf=(maxcycle=1)
 ----------------------------------------------------------------------
 -----
 title
 -----
 Structure from the checkpoint file:  "3B-69_03c_methanol_ethyne_dimerBC_mol1.chk"
 Charge =  0 Multiplicity = 1

                         Standard orientation:
 ---------------------------------------------------------------------
 Center     Atomic      Atomic             Coordinates (Angstroms)
 Number     Number       Type             X           Y           Z
 ---------------------------------------------------------------------
      1          8           0       -1.475700   -0.409823   -0.225345
      2          1           0       -1.198172    0.064736   -1.046978
      3          6           0       -2.721515    0.140098    0.223430
      4          1           0       -2.574881    1.159873    0.586962
      5          1           0       -3.080122   -0.475538    1.046243
      6          1           0       -3.472924    0.146744   -0.568569
      7          6           0        3.208803   -0.260050    0.129294
      8          1           0        4.042710   -0.902661    0.323520
      9          6           0        2.284540    0.478879   -0.070493
     10          1           0        1.458019    1.131865   -0.231807
 ---------------------------------------------------------------------

 SCF Done:  E(RHF) =  -191.953553734     A.U. after    2 cycles

 The electronic state is 1-A.
 Alpha  occ. eigenvalues --  -20.57680 -11.28648 -11.25214 -11.24815  -1.31004
 Alpha  occ. eigenvalues --   -1.02235  -0.92636  -0.76107  -0.69691  -0.67821
 Alpha  occ. eigenvalues --   -0.62920  -0.60434  -0.51450  -0.46754  -0.41037
 Alpha  occ. eigenvalues --   -0.40981
 Alpha virt. eigenvalues --    0.03139   0.04081   0.04947   0.05398   0.06611
 Alpha virt. eigenvalues --    0.07726   0.10767   0.11275   0.11530   0.12689
 Alpha virt. eigenvalues --    0.14180   0.14506   0.15323   0.15540   0.16875

 Mulliken charges:
               1
     1  O   -0.520276
     2  H    0.148549
     3  C    0.823801
     4  H   -0.124084
     5  H   -0.179800
     6  H   -0.146350
     7  C    0.258146
     8  H   -0.252670
     9  C    0.284382
    10  H   -0.291697
 Sum of Mulliken charges =  -0.00000

 Dipole moment (field-independent basis, Debye):
    X=             -1.1078    Y=              1.3361    Z=             -0.7184  Tot=              1.8784

 Test job not archived.
 1\1\GINC-SE195\SP\RHF\Aug-CC-pVDZ\C3H6O1\OHZDE\08-Apr-2025\0\\#t hf au
 g-cc-pvdz iop(5/13=1,5/36=2,99/5=2) pseudo=read geom=check guess=(read
 ,tcheck) scf=(maxcycle=1)\\title\\0,1\O,0,0.929023,6.189692,13.237802\
 H,0,1.783226,5.692413,13.25676\C,0,1.143396,7.444774,12.578499\H,0,1.7
 71311,8.092502,13.194753\H,0,0.173881,7.921501,12.446586\H,0,1.611902,
 7.316706,11.600735\C,0,0.779291,3.91789,17.34989\H,0,0.128231,3.29013,
 17.922699\C,0,1.513982,4.636857,16.730609\H,0,2.15468,5.288095,16.1820
 23\\Version=ES64L-G16RevC.01\State=1-A\HF=-191.9535537\RMSD=4.691e-03\

 Normal termination of Gaussian 16 at Tue Apr  8 18:29:51 2025.
