 Gaussian 16, Revision C.01,

 ----------------------------------------------------------------------
 #t hf aug-cc-pvdz symm=none int=(grid=ultrafine) guess=(read,tcheck) s
 table=(opt,rrhf)
 ----------------------------------------------------------------------
 -----
 title
 -----
 Symbolic Z-matrix:
 Charge =  0 Multiplicity = 1

 SCF Done:  E(RHF) =  -610.990991138     A.U. after   14 cycles
 Normal termination of Gaussian 16 at Tue Apr  8 19:11:45 2025.
 Gaussian 16:  ES64L-G16RevC.01  3-Jul-2019

 ----------------------------------------------------------------------
 #t hf aug-cc-pvdz iop(5/13=1,5/36=2,99/5=2) pseudo=read geom=check gue
 ss=(read,tcheck) scf=(maxcycle=1)
 ----------------------------------------------------------------------
 -----
 title
 -----
 Structure from the checkpoint file:  "3B-69_23a_cyclobutylfuran_dimerAB_mol1.chk"
 Charge =  0 Multiplicity = 1

                         Standard orientation:
 ---------------------------------------------------------------------
 Center     Atomic      Atomic             Coordinates (Angstroms)
 Number     Number       Type             X           Y           Z
 ---------------------------------------------------------------------
      1          8           0       -3.396978   -1.548031    0.004068
      2          6           0       -3.922958   -0.391526   -0.549820
      3          1           0       -4.834348   -0.519893   -1.103846
      4          6           0       -3.102049    0.630135   -0.225307
      5          6           0       -2.547105    2.049518   -0.167369
      6          1           0       -2.219647    2.456237   -1.123162
      7          1           0       -3.182018    2.784651    0.325215
      8          6           0       -1.374274    1.459262    0.724069
      9          1           0       -0.378984    1.547464    0.293577
     10          1           0       -1.349670    1.825099    1.748591
     11          6           0       -2.039661    0.104609    0.555009
     12          6           0       -2.231344   -1.223762    0.681017
     13          1           0       -1.734750   -2.042822    1.167602
     14          8           0        1.890206   -1.925468   -0.293777
     15          6           0        1.364226   -0.768963   -0.847665
     16          1           0        0.452835   -0.897330   -1.401691
     17          6           0        2.185134    0.252699   -0.523152
     18          6           0        2.740078    1.672082   -0.465213
     19          1           0        3.067537    2.078800   -1.421006
     20          1           0        2.105166    2.407215    0.027371
     21          6           0        3.912910    1.081826    0.426224
     22          1           0        4.908200    1.170027   -0.004268
     23          1           0        3.937514    1.447662    1.450746
     24          6           0        3.247523   -0.272827    0.257165
     25          6           0        3.055839   -1.601198    0.383173
     26          1           0        3.552433   -2.420259    0.869757
 ---------------------------------------------------------------------

 SCF Done:  E(RHF) =  -611.177240996     A.U. after    2 cycles

 The electronic state is 1-A.
 Alpha  occ. eigenvalues --  -20.62385 -20.62136 -11.29537 -11.29463 -11.29350
 Alpha  occ. eigenvalues --  -11.29183 -11.26174 -11.25978 -11.25799 -11.25509
 Alpha  occ. eigenvalues --  -11.23129 -11.23032 -11.22936 -11.22722  -1.39301
 Alpha  occ. eigenvalues --   -1.39070  -1.14715  -1.14392  -0.99611  -0.99330
 Alpha  occ. eigenvalues --   -0.98215  -0.97913  -0.87933  -0.87526  -0.78614
 Alpha  occ. eigenvalues --   -0.78263  -0.74662  -0.74380  -0.71761  -0.71481
 Alpha  occ. eigenvalues --   -0.65557  -0.65041  -0.61669  -0.61371  -0.60710
 Alpha  occ. eigenvalues --   -0.60479  -0.58554  -0.58265  -0.53486  -0.52755
 Alpha  occ. eigenvalues --   -0.52082  -0.51736  -0.50869  -0.50546  -0.45656
 Alpha  occ. eigenvalues --   -0.45329  -0.38618  -0.38345  -0.31820  -0.31189
 Alpha virt. eigenvalues --    0.02931   0.03774   0.03994   0.04167   0.04754
 Alpha virt. eigenvalues --    0.05249   0.05721   0.06243   0.06492   0.07266
 Alpha virt. eigenvalues --    0.07493   0.09600   0.09852   0.10300   0.10565

 Mulliken charges:
               1
     1  O   -0.683071
     2  C    1.389228
     3  H   -0.397103
     4  C   -0.876361
     5  C    0.369611
     6  H   -0.064503
     7  H   -0.092995
     8  C    0.571790
     9  H   -0.290246
    10  H   -0.110695
    11  C   -0.831903
    12  C    1.426636
    13  H   -0.423855
    14  O   -0.661695
    15  C    1.383410
    16  H   -0.433185
    17  C   -0.881824
    18  C    0.498282
    19  H   -0.055298
    20  H   -0.142848
    21  C    0.413814
    22  H   -0.082920
    23  H   -0.055739
    24  C   -0.817168
    25  C    1.250288
    26  H   -0.401652
 Sum of Mulliken charges =   0.00000

 Dipole moment (field-independent basis, Debye):
    X=              1.5472    Y=              3.2605    Z=              0.3221  Tot=              3.6233

 Test job not archived.
 1\1\GINC-SE225\SP\RHF\Aug-CC-pVDZ\C12H12O2\OHZDE\08-Apr-2025\0\\#t hf
 aug-cc-pvdz iop(5/13=1,5/36=2,99/5=2) pseudo=read geom=check guess=(re
 ad,tcheck) scf=(maxcycle=1)\\title\\0,1\O,0,-0.126301,16.441388,12.924
 526\C,0,-0.701266,17.4636,12.185981\H,0,-1.568703,17.187494,11.615566\
 C,0,0.02543,18.581936,12.396288\C,0,0.473934,20.034432,12.273536\H,0,0
 .824753,20.32698,11.284835\H,0,-0.238268,20.779526,12.625356\C,0,1.633
 898,19.669284,13.293216\H,0,2.642979,19.773757,12.900092\H,0,1.574915,
 20.176469,14.254138\C,0,1.077037,18.256376,13.291762\C,0,0.973511,16.9

 Normal termination of Gaussian 16 at Tue Apr  8 19:12:10 2025.
