 Gaussian 16, Revision C.01,

 ----------------------------------------------------------------------
 #t hf aug-cc-pvdz symm=none int=(grid=ultrafine) guess=(read,tcheck) s
 table=(opt,rrhf)
 ----------------------------------------------------------------------
 -----
 title
 -----
 Symbolic Z-matrix:
 Charge =  0 Multiplicity = 1

 SCF Done:  E(RHF) =  -395.834350743     A.U. after   13 cycles
 Normal termination of Gaussian 16 at Tue Apr  8 18:31:44 2025.
 Gaussian 16:  ES64L-G16RevC.01  3-Jul-2019

 ----------------------------------------------------------------------
 #t hf aug-cc-pvdz iop(5/13=1,5/36=2,99/5=2) pseudo=read geom=check gue
 ss=(read,tcheck) scf=(maxcycle=1)
 ----------------------------------------------------------------------
 -----
 title
 -----
 Structure from the checkpoint file:  "3B-69_04c_acetonitrile_trimer_mol1.chk"
 Charge =  0 Multiplicity = 1

                         Standard orientation:
 ---------------------------------------------------------------------
 Center     Atomic      Atomic             Coordinates (Angstroms)
 Number     Number       Type             X           Y           Z
 ---------------------------------------------------------------------
      1          7           0        1.345657   -0.228267    0.000000
      2          6           0       -1.237761    0.097252    0.000000
      3          6           0        0.203055   -0.079082    0.000000
      4          1           0       -1.724382   -0.878108    0.000000
      5          1           0       -1.540978    0.649395    0.889258
      6          1           0       -1.540978    0.649395   -0.889258
      7          7           0       -0.337503   -6.101660    0.000000
      8          6           0        0.345073   -3.588873    0.000000
      9          6           0       -0.040432   -4.988312    0.000000
     10          1           0        1.432246   -3.510247    0.000000
     11          1           0       -0.050042   -3.098276   -0.889258
     12          1           0       -0.050042   -3.098276    0.889258
     13          7           0       -0.337503    3.390668    0.000000
     14          6           0        0.345073    5.903455    0.000000
     15          6           0       -0.040432    4.504016    0.000000
     16          1           0        1.432246    5.982081    0.000000
     17          1           0       -0.050042    6.394052   -0.889258
     18          1           0       -0.050042    6.394052    0.889258
 ---------------------------------------------------------------------

 SCF Done:  E(RHF) =  -395.957948355     A.U. after    2 cycles

 The electronic state is 1-A'.
 Alpha  occ. eigenvalues --  -15.65113 -15.63410 -15.62898 -11.30609 -11.30524
 Alpha  occ. eigenvalues --  -11.28886 -11.28659 -11.28276 -11.28175  -1.20833
 Alpha  occ. eigenvalues --   -1.19187  -1.18587  -1.04813  -1.02968  -1.02523
 Alpha  occ. eigenvalues --   -0.70943  -0.69143  -0.68702  -0.64429  -0.64360
 Alpha  occ. eigenvalues --   -0.62947  -0.62602  -0.62169  -0.61896  -0.56083
 Alpha  occ. eigenvalues --   -0.54366  -0.53704  -0.47445  -0.47439  -0.45782
 Alpha  occ. eigenvalues --   -0.45702  -0.45135  -0.45122
 Alpha virt. eigenvalues --    0.01993   0.03102   0.03960   0.04697   0.05361
 Alpha virt. eigenvalues --    0.05441   0.06121   0.07780   0.07827   0.08230
 Alpha virt. eigenvalues --    0.09527   0.10828   0.12069   0.12639   0.12940

 Mulliken charges:
               1
     1  N   -0.222824
     2  C    0.465106
     3  C   -0.279882
     4  H   -0.067550
     5  H    0.060433
     6  H    0.060433
     7  N   -0.152158
     8  C    0.684249
     9  C   -0.541845
    10  H    0.041111
    11  H   -0.011270
    12  H   -0.011270
    13  N   -0.202000
    14  C    0.247753
    15  C   -0.287830
    16  H    0.076027
    17  H    0.070758
    18  H    0.070758
 Sum of Mulliken charges =  -0.00000

 Dipole moment (field-independent basis, Debye):
    X=             -1.7438    Y=              9.3428    Z=             -0.0000  Tot=              9.5041

 Test job not archived.
 1\1\GINC-SE082\SP\RHF\Aug-CC-pVDZ\C6H9N3\OHZDE\08-Apr-2025\0\\#t hf au
 g-cc-pvdz iop(5/13=1,5/36=2,99/5=2) pseudo=read geom=check guess=(read
 ,tcheck) scf=(maxcycle=1)\\title\\0,1\N,0,0.,7.615376,7.171412\C,0,0.,
 5.649997,8.879421\C,0,0.,6.749023,7.931167\H,0,0.,4.702934,8.339793\H,
 0,0.889258,5.705299,9.506911\H,0,-0.889258,5.705299,9.506911\N,0,0.,2.
 948624,3.227912\C,0,0.,4.914003,4.935921\C,0,0.,3.814977,3.987667\H,0,
 0.,5.861066,4.396293\H,0,-0.889258,4.858701,5.563411\H,0,0.889258,4.85
 8701,5.563411\N,0,0.,8.230624,11.114912\C,0,0.,10.196003,12.822921\C,0

 Normal termination of Gaussian 16 at Tue Apr  8 18:31:49 2025.
