 Gaussian 16, Revision C.01,

 ----------------------------------------------------------------------
 #t hf aug-cc-pvdz symm=none int=(grid=ultrafine) guess=(read,tcheck) s
 table=(opt,rrhf)
 ----------------------------------------------------------------------
 -----
 title
 -----
 Symbolic Z-matrix:
 Charge =  0 Multiplicity = 1

 SCF Done:  E(RHF) =  -836.199941360     A.U. after   13 cycles
 Normal termination of Gaussian 16 at Tue Apr  8 19:13:45 2025.
 Gaussian 16:  ES64L-G16RevC.01  3-Jul-2019

 ----------------------------------------------------------------------
 #t hf aug-cc-pvdz iop(5/13=1,5/36=2,99/5=2) pseudo=read geom=check gue
 ss=(read,tcheck) scf=(maxcycle=1)
 ----------------------------------------------------------------------
 -----
 title
 -----
 Structure from the checkpoint file:  "3B-69_13b_triazine_trimer_mol1.chk"
 Charge =  0 Multiplicity = 1

                         Standard orientation:
 ---------------------------------------------------------------------
 Center     Atomic      Atomic             Coordinates (Angstroms)
 Number     Number       Type             X           Y           Z
 ---------------------------------------------------------------------
      1          6           0       -1.977909   -0.957818    0.559201
      2          7           0       -1.922938   -2.291709    0.579642
      3          1           0       -1.099540   -0.416766    0.885819
      4          6           0       -4.088438   -0.957818   -0.225593
      5          7           0       -3.033174   -0.240081    0.166804
      6          1           0       -4.966807   -0.416766   -0.552211
      7          6           0       -3.033174   -2.907863    0.166804
      8          7           0       -4.143410   -2.291709   -0.246034
      9          1           0       -3.033174   -3.989967    0.166804
     10          6           0        4.088438   -0.957819    0.225593
     11          7           0        4.143410   -2.291710    0.246034
     12          1           0        4.966807   -0.416767    0.552211
     13          6           0        1.977909   -0.957819   -0.559201
     14          7           0        3.033174   -0.240082   -0.166804
     15          1           0        1.099540   -0.416767   -0.885819
     16          6           0        3.033173   -2.907864   -0.166804
     17          7           0        1.922937   -2.291709   -0.579642
     18          1           0        3.033173   -3.989967   -0.166804
     19          6           0        1.055265    2.565652    0.392397
     20          7           0        1.110236    3.899543    0.412838
     21          1           0        1.933633    2.024600    0.719015
     22          6           0       -1.055264    2.565652   -0.392397
     23          7           0        0.000000    1.847915    0.000000
     24          1           0       -1.933633    2.024600   -0.719015
     25          6           0        0.000000    4.515697    0.000000
     26          7           0       -1.110236    3.899543   -0.412838
     27          1           0        0.000001    5.597800    0.000000
 ---------------------------------------------------------------------

 SCF Done:  E(RHF) =  -836.435503299     A.U. after    2 cycles

 The electronic state is 1-A.
 Alpha  occ. eigenvalues --  -15.65406 -15.65406 -15.65290 -15.65290 -15.65260
 Alpha  occ. eigenvalues --  -15.65102 -15.65102 -15.65009 -15.65006 -11.35616
 Alpha  occ. eigenvalues --  -11.35616 -11.35453 -11.35453 -11.35369 -11.35195
 Alpha  occ. eigenvalues --  -11.35195 -11.35124 -11.35112  -1.33244  -1.33193
 Alpha  occ. eigenvalues --   -1.33073  -1.18589  -1.18474  -1.18355  -1.18269
 Alpha  occ. eigenvalues --   -1.18214  -1.18090  -0.92891  -0.92834  -0.92731
 Alpha  occ. eigenvalues --   -0.92654  -0.92541  -0.92484  -0.76843  -0.76404
 Alpha  occ. eigenvalues --   -0.76088  -0.74651  -0.74635  -0.74446  -0.62781
 Alpha  occ. eigenvalues --   -0.62369  -0.62218  -0.61892  -0.61600  -0.61443
 Alpha  occ. eigenvalues --   -0.61048  -0.60965  -0.60763  -0.57054  -0.56434
 Alpha  occ. eigenvalues --   -0.55994  -0.44023  -0.43828  -0.43801  -0.43763
 Alpha  occ. eigenvalues --   -0.43584  -0.43580  -0.43531  -0.43470  -0.43217
 Alpha  occ. eigenvalues --   -0.42904  -0.42809  -0.42691
 Alpha virt. eigenvalues --    0.03227   0.03261   0.03349   0.04249   0.04269
 Alpha virt. eigenvalues --    0.05071   0.05328   0.06964   0.06995   0.07589
 Alpha virt. eigenvalues --    0.07694   0.07923   0.08188   0.08214   0.08624

 Mulliken charges:
               1
     1  C    0.609294
     2  N   -0.391717
     3  H   -0.288116
     4  C    0.730385
     5  N   -0.377493
     6  H   -0.263528
     7  C    0.730061
     8  N   -0.507470
     9  H   -0.235274
    10  C    0.730384
    11  N   -0.507470
    12  H   -0.263527
    13  C    0.609295
    14  N   -0.377493
    15  H   -0.288117
    16  C    0.730061
    17  N   -0.391717
    18  H   -0.235274
    19  C    0.665260
    20  N   -0.437529
    21  H   -0.318503
    22  C    0.665259
    23  N   -0.319249
    24  H   -0.318502
    25  C    0.719166
    26  N   -0.437530
    27  H   -0.230658
 Sum of Mulliken charges =  -0.00000

 Dipole moment (field-independent basis, Debye):
    X=             -0.0000    Y=             -0.1980    Z=             -0.0000  Tot=              0.1980

 Test job not archived.
 1\1\GINC-SE089\SP\RHF\Aug-CC-pVDZ\C9H9N9\OHZDE\08-Apr-2025\0\\#t hf au
 g-cc-pvdz iop(5/13=1,5/36=2,99/5=2) pseudo=read geom=check guess=(read
 ,tcheck) scf=(maxcycle=1)\\title\\0,1\C,0,-3.52347,8.354547,9.10125\N,
 0,-4.139624,7.170039,9.10125\H,0,-2.441366,8.354547,9.10125\C,0,-5.473
 515,9.480406,9.10125\N,0,-4.139624,9.539055,9.10125\H,0,-6.014567,10.4
 17535,9.10125\C,0,-5.473515,7.228688,9.10125\N,0,-6.191252,8.354547,9.
 10125\H,0,-6.014567,6.291559,9.10125\C,0,1.30003,5.569698,6.67425\N,0,
 0.683876,4.38519,6.67425\H,0,2.382134,5.569698,6.67425\C,0,-0.650015,6

 Normal termination of Gaussian 16 at Tue Apr  8 19:14:17 2025.
