 Gaussian 16, Revision C.01,

 ----------------------------------------------------------------------
 #t hf aug-cc-pvdz symm=none int=(grid=ultrafine) guess=(read,tcheck) s
 table=(opt,rrhf)
 ----------------------------------------------------------------------
 -----
 title
 -----
 Symbolic Z-matrix:
 Charge =  0 Multiplicity = 1

 SCF Done:  E(RHF) =  -781.273004604     A.U. after   13 cycles
 Normal termination of Gaussian 16 at Tue Apr  8 19:05:10 2025.
 Gaussian 16:  ES64L-G16RevC.01  3-Jul-2019

 ----------------------------------------------------------------------
 #t hf aug-cc-pvdz iop(5/13=1,5/36=2,99/5=2) pseudo=read geom=check gue
 ss=(read,tcheck) scf=(maxcycle=1)
 ----------------------------------------------------------------------
 -----
 title
 -----
 Structure from the checkpoint file:  "3B-69_16b_triazolidinedione_dimerAC_mol1.chk"
 Charge =  0 Multiplicity = 1

                         Standard orientation:
 ---------------------------------------------------------------------
 Center     Atomic      Atomic             Coordinates (Angstroms)
 Number     Number       Type             X           Y           Z
 ---------------------------------------------------------------------
      1          7           0       -2.942915    1.491987   -0.093756
      2          7           0       -3.792176    0.380149    0.048861
      3          6           0       -3.019276   -0.747548    0.027163
      4          7           0       -1.712914   -0.308458    0.073336
      5          6           0       -1.657408    1.067805    0.008006
      6          8           0       -3.386221   -1.918446   -0.000399
      7          8           0       -0.640441    1.763890    0.034571
      8          1           0       -3.221675    2.380261    0.341562
      9          1           0       -4.678806    0.403175   -0.454606
     10          1           0       -0.889200   -0.929370    0.049105
     11          7           0        2.942914   -1.491986    0.093756
     12          7           0        3.792175   -0.380148   -0.048861
     13          6           0        3.019277    0.747548   -0.027164
     14          7           0        1.712914    0.308458   -0.073335
     15          6           0        1.657408   -1.067805   -0.008006
     16          8           0        3.386221    1.918447    0.000399
     17          8           0        0.640441   -1.763890   -0.034571
     18          1           0        3.221675   -2.380261   -0.341562
     19          1           0        4.678806   -0.403175    0.454606
     20          1           0        0.889200    0.929370   -0.049105
 ---------------------------------------------------------------------

 SCF Done:  E(RHF) =  -781.509304528     A.U. after    2 cycles

 The electronic state is 1-A.
 Alpha  occ. eigenvalues --  -20.57614 -20.57614 -20.55459 -20.55459 -15.72750
 Alpha  occ. eigenvalues --  -15.72749 -15.72152 -15.72152 -15.68666 -15.68666
 Alpha  occ. eigenvalues --  -11.43956 -11.43955 -11.42425 -11.42425  -1.43447
 Alpha  occ. eigenvalues --   -1.43411  -1.37236  -1.37122  -1.32429  -1.32275
 Alpha  occ. eigenvalues --   -1.21498  -1.21409  -1.12282  -1.12269  -0.91165
 Alpha  occ. eigenvalues --   -0.89781  -0.87584  -0.87440  -0.78919  -0.77103
 Alpha  occ. eigenvalues --   -0.74698  -0.74651  -0.71760  -0.71298  -0.68333
 Alpha  occ. eigenvalues --   -0.68159  -0.66872  -0.66599  -0.65103  -0.65034
 Alpha  occ. eigenvalues --   -0.59257  -0.59150  -0.54586  -0.54174  -0.52440
 Alpha  occ. eigenvalues --   -0.50224  -0.47491  -0.47195  -0.45632  -0.44820
 Alpha  occ. eigenvalues --   -0.40282  -0.40232
 Alpha virt. eigenvalues --    0.02111   0.02350   0.03801   0.04378   0.05490
 Alpha virt. eigenvalues --    0.05889   0.08375   0.09010   0.10646   0.11388
 Alpha virt. eigenvalues --    0.12099   0.12601   0.12924   0.13132   0.14156

 Mulliken charges:
               1
     1  N   -0.173925
     2  N   -0.197564
     3  C    0.803937
     4  N   -0.290074
     5  C    0.698795
     6  O   -0.479523
     7  O   -0.514230
     8  H    0.035774
     9  H    0.056571
    10  H    0.060238
    11  N   -0.173925
    12  N   -0.197563
    13  C    0.803938
    14  N   -0.290074
    15  C    0.698794
    16  O   -0.479523
    17  O   -0.514231
    18  H    0.035774
    19  H    0.056571
    20  H    0.060239
 Sum of Mulliken charges =  -0.00000

 Dipole moment (field-independent basis, Debye):
    X=              0.0000    Y=              0.0000    Z=             -0.0000  Tot=              0.0000

 Test job not archived.
 1\1\GINC-SE100\SP\RHF\Aug-CC-pVDZ\C4H6N6O4\OHZDE\08-Apr-2025\0\\#t hf
 aug-cc-pvdz iop(5/13=1,5/36=2,99/5=2) pseudo=read geom=check guess=(re
 ad,tcheck) scf=(maxcycle=1)\\title\\0,1\N,0,-0.050072,2.63415,3.305578
 \N,0,-0.508443,1.631479,4.178684\C,0,-0.094523,1.94988,5.442343\N,0,0.
 428735,3.222814,5.356588\C,0,0.451861,3.654419,4.047148\O,0,-0.182753,
 1.27341,6.462645\O,0,0.852126,4.747272,3.641043\H,0,-0.602367,2.840582
 ,2.463796\H,0,-0.455705,0.667432,3.850119\H,0,0.845509,3.735184,6.1493
 04\N,0,2.542325,6.87885,7.646573\N,0,3.000696,7.881521,6.773467\C,0,2.

 Normal termination of Gaussian 16 at Tue Apr  8 19:05:30 2025.
