 Gaussian 16, Revision C.01,

 ----------------------------------------------------------------------
 #t hf aug-cc-pvdz symm=none int=(grid=ultrafine) guess=(read,tcheck) s
 table=(opt,rrhf)
 ----------------------------------------------------------------------
 -----
 title
 -----
 Symbolic Z-matrix:
 Charge =  0 Multiplicity = 1

 SCF Done:  E(RHF) =  -756.941987956     A.U. after   13 cycles
 Normal termination of Gaussian 16 at Tue Apr  8 19:04:15 2025.
 Gaussian 16:  ES64L-G16RevC.01  3-Jul-2019

 ----------------------------------------------------------------------
 #t hf aug-cc-pvdz iop(5/13=1,5/36=2,99/5=2) pseudo=read geom=check gue
 ss=(read,tcheck) scf=(maxcycle=1)
 ----------------------------------------------------------------------
 -----
 title
 -----
 Structure from the checkpoint file:  "3B-69_18b_succinic_anhydride_dimerBC_mol1.chk"
 Charge =  0 Multiplicity = 1

                         Standard orientation:
 ---------------------------------------------------------------------
 Center     Atomic      Atomic             Coordinates (Angstroms)
 Number     Number       Type             X           Y           Z
 ---------------------------------------------------------------------
      1          8           0       -5.808521   -0.968157    0.182015
      2          8           0       -3.794092   -0.501400    1.050102
      3          8           0       -7.881782   -0.894054   -0.658912
      4          6           0       -4.810601   -0.086036    0.577284
      5          6           0       -5.250294    1.328500    0.312960
      6          6           0       -6.651179    1.198337   -0.281174
      7          6           0       -6.914187   -0.284186   -0.306016
      8          1           0       -5.236504    1.883036    1.249881
      9          1           0       -4.526297    1.802881   -0.345604
     10          1           0       -6.734102    1.584081   -1.296311
     11          1           0       -7.420226    1.683719    0.317953
     12          8           0        5.943397   -1.006023   -0.061442
     13          8           0        7.957825   -0.539266    0.806645
     14          8           0        3.870136   -0.931920   -0.902369
     15          6           0        6.941316   -0.123902    0.333827
     16          6           0        6.501624    1.290634    0.069503
     17          6           0        5.100738    1.160471   -0.524631
     18          6           0        4.837731   -0.322052   -0.549473
     19          1           0        6.515413    1.845170    1.006424
     20          1           0        7.225621    1.765015   -0.589061
     21          1           0        5.017815    1.546215   -1.539768
     22          1           0        4.331692    1.645854    0.074496
 ---------------------------------------------------------------------

 SCF Done:  E(RHF) =  -757.179583361     A.U. after    2 cycles

 The electronic state is 1-A.
 Alpha  occ. eigenvalues --  -20.66086 -20.66034 -20.59249 -20.59233 -20.59225
 Alpha  occ. eigenvalues --  -20.59146 -11.42838 -11.42802 -11.42785 -11.42744
 Alpha  occ. eigenvalues --  -11.29899 -11.29843 -11.29815 -11.29759  -1.47184
 Alpha  occ. eigenvalues --   -1.47131  -1.39896  -1.39841  -1.35140  -1.35084
 Alpha  occ. eigenvalues --   -1.12471  -1.12415  -0.98202  -0.98146  -0.88938
 Alpha  occ. eigenvalues --   -0.88884  -0.81405  -0.81351  -0.73247  -0.73193
 Alpha  occ. eigenvalues --   -0.72503  -0.72448  -0.70167  -0.70111  -0.64456
 Alpha  occ. eigenvalues --   -0.64402  -0.63967  -0.63922  -0.63857  -0.63791
 Alpha  occ. eigenvalues --   -0.61804  -0.61747  -0.59257  -0.59203  -0.53312
 Alpha  occ. eigenvalues --   -0.53256  -0.50919  -0.50864  -0.50747  -0.50692
 Alpha  occ. eigenvalues --   -0.47927  -0.47872
 Alpha virt. eigenvalues --    0.01994   0.02275   0.03624   0.03778   0.04027
 Alpha virt. eigenvalues --    0.04807   0.06331   0.06585   0.06787   0.07095
 Alpha virt. eigenvalues --    0.09178   0.09688   0.09753   0.10008   0.10352

 Mulliken charges:
               1
     1  O   -0.624123
     2  O   -0.443641
     3  O   -0.448074
     4  C    0.596714
     5  C    0.117705
     6  C    0.105791
     7  C    0.604069
     8  H    0.024728
     9  H    0.014822
    10  H    0.027017
    11  H    0.024987
    12  O   -0.624374
    13  O   -0.445035
    14  O   -0.446468
    15  C    0.597833
    16  C    0.116495
    17  C    0.107385
    18  C    0.603025
    19  H    0.025608
    20  H    0.015352
    21  H    0.026222
    22  H    0.023959
 Sum of Mulliken charges =  -0.00000

 Dipole moment (field-independent basis, Debye):
    X=             -0.6271    Y=             11.1618    Z=             -1.0138  Tot=             11.2253

 Test job not archived.
 1\1\GINC-SE332\SP\RHF\Aug-CC-pVDZ\C8H8O6\OHZDE\08-Apr-2025\0\\#t hf au
 g-cc-pvdz iop(5/13=1,5/36=2,99/5=2) pseudo=read geom=check guess=(read
 ,tcheck) scf=(maxcycle=1)\\title\\0,1\O,0,8.046799,11.79151,7.411095\O
 ,0,8.910411,12.344224,9.405598\O,0,7.664829,10.991787,5.355468\C,0,9.0
 21567,11.710744,8.397767\C,0,10.110376,10.76938,7.959089\C,0,9.683116,
 10.296378,6.571236\C,0,8.382065,11.009501,6.313577\H,0,11.058144,11.30
 5293,7.951684\H,0,10.20297,9.973944,8.695039\H,0,9.510611,9.222863,6.5
 08114\H,0,10.392349,10.561172,5.788386\O,0,8.046799,11.79151,19.165595

 Normal termination of Gaussian 16 at Tue Apr  8 19:04:26 2025.
