 Gaussian 16, Revision C.01,

 ----------------------------------------------------------------------
 #t hf aug-cc-pvdz symm=none int=(grid=ultrafine) guess=(read,tcheck) s
 table=(opt,rrhf)
 ----------------------------------------------------------------------
 -----
 title
 -----
 Symbolic Z-matrix:
 Charge =  0 Multiplicity = 1

 SCF Done:  E(RHF) =  -152.077500724     A.U. after   11 cycles
 Normal termination of Gaussian 16 at Tue Apr  8 18:15:42 2025.
 Gaussian 16:  ES64L-G16RevC.01  3-Jul-2019

 ----------------------------------------------------------------------
 #t hf aug-cc-pvdz iop(5/13=1,5/36=2,99/5=2) pseudo=read geom=check gue
 ss=(read,tcheck) scf=(maxcycle=1)
 ----------------------------------------------------------------------
 -----
 title
 -----
 Structure from the checkpoint file:  "3B-69_01a_water_dimerAB_mol1.chk"
 Charge =  0 Multiplicity = 1

                         Standard orientation:
 ---------------------------------------------------------------------
 Center     Atomic      Atomic             Coordinates (Angstroms)
 Number     Number       Type             X           Y           Z
 ---------------------------------------------------------------------
      1          8           0        2.253394    0.039669    0.107892
      2          1           0        1.503868   -0.172685   -0.497687
      3          1           0        3.099611   -0.142204   -0.366123
      4          8           0       -2.249627   -0.031105   -0.113715
      5          1           0       -2.314408   -0.637295    0.660785
      6          1           0       -2.319211    0.883665    0.249610
 ---------------------------------------------------------------------

 SCF Done:  E(RHF) =  -152.129700006     A.U. after    2 cycles

 The electronic state is 1-A.
 Alpha  occ. eigenvalues --  -20.58764 -20.57974  -1.30301  -1.29427  -0.72386
 Alpha  occ. eigenvalues --   -0.72103  -0.59623  -0.58476  -0.52982  -0.52213
 Alpha virt. eigenvalues --    0.03261   0.04665   0.05904   0.07767   0.16714
 Alpha virt. eigenvalues --    0.18119   0.20094   0.21404   0.21769   0.22686
 Alpha virt. eigenvalues --    0.23069   0.25634   0.28114   0.29217   0.32927

 Mulliken charges:
               1
     1  O   -0.336399
     2  H    0.168158
     3  H    0.169816
     4  O   -0.337716
     5  H    0.167178
     6  H    0.168962
 Sum of Mulliken charges =  -0.00000

 Dipole moment (field-independent basis, Debye):
    X=             -0.1159    Y=             -0.1508    Z=              0.0952  Tot=              0.2127

 Test job not archived.
 1\1\GINC-SE365\SP\RHF\Aug-CC-pVDZ\H4O2\OHZDE\08-Apr-2025\0\\#t hf aug-
 cc-pvdz iop(5/13=1,5/36=2,99/5=2) pseudo=read geom=check guess=(read,t
 check) scf=(maxcycle=1)\\title\\0,1\O,0,-0.084889,0.056804,0.055205\H,
 0,0.710375,0.517729,0.413971\H,0,-0.890958,0.498588,0.414274\O,0,4.422
 945,-0.026001,-0.007196\H,0,4.446575,-0.955128,0.320949\H,0,4.445532,-
 0.08411,-0.991962\\Version=ES64L-G16RevC.01\State=1-A\HF=-152.1297\RMS
 D=2.006e-03\Dipole=0.0441835,-0.0569786,0.0424477\Quadrupole=0.1250125
 ,-0.1181056,-0.006907,-5.6436497,-4.1255992,0.1996766\PG=C01 [X(H4O2)]

 Normal termination of Gaussian 16 at Tue Apr  8 18:15:43 2025.
