 Gaussian 16, Revision C.01,

 ----------------------------------------------------------------------
 #t hf aug-cc-pvdz symm=none int=(grid=ultrafine) guess=(read,tcheck) s
 table=(opt,rrhf)
 ----------------------------------------------------------------------
 -----
 title
 -----
 Symbolic Z-matrix:
 Charge =  0 Multiplicity = 1

 SCF Done:  E(RHF) =  -461.456202090     A.U. after   14 cycles
 Normal termination of Gaussian 16 at Tue Apr  8 19:05:33 2025.
 Gaussian 16:  ES64L-G16RevC.01  3-Jul-2019

 ----------------------------------------------------------------------
 #t hf aug-cc-pvdz iop(5/13=1,5/36=2,99/5=2) pseudo=read geom=check gue
 ss=(read,tcheck) scf=(maxcycle=1)
 ----------------------------------------------------------------------
 -----
 title
 -----
 Structure from the checkpoint file:  "3B-69_19a_benzene_dimerAB_mol1.chk"
 Charge =  0 Multiplicity = 1

                         Standard orientation:
 ---------------------------------------------------------------------
 Center     Atomic      Atomic             Coordinates (Angstroms)
 Number     Number       Type             X           Y           Z
 ---------------------------------------------------------------------
      1          6           0        3.685863    0.889117    0.679403
      2          6           0        2.638925    0.232541    1.320610
      3          6           0        4.021804    0.554661   -0.629704
      4          1           0        4.231648    1.665940    1.198669
      5          1           0        2.366773    0.487546    2.336315
      6          1           0        4.822397    1.081696   -1.127833
      7          6           0        2.266996   -1.094894   -0.660882
      8          6           0        3.313934   -0.438319   -1.302089
      9          6           0        1.931056   -0.760439    0.648224
     10          1           0        1.721211   -1.871718   -1.180149
     11          1           0        3.586086   -0.693323   -2.317795
     12          1           0        1.130462   -1.287474    1.146354
     13          6           0       -4.327665   -0.166409   -0.204460
     14          6           0       -3.836266    1.115737   -0.434560
     15          6           0       -3.469334   -1.176775    0.220868
     16          1           0       -5.380071   -0.372747   -0.348820
     17          1           0       -4.495301    1.909303   -0.761174
     18          1           0       -3.860965   -2.164326    0.416360
     19          6           0       -1.625194    0.372187    0.185940
     20          6           0       -2.116593   -0.909959    0.416040
     21          6           0       -2.483526    1.382553   -0.239388
     22          1           0       -0.572788    0.578525    0.330299
     23          1           0       -1.457558   -1.703526    0.742654
     24          1           0       -2.091894    2.370104   -0.434880
 ---------------------------------------------------------------------

 SCF Done:  E(RHF) =  -461.594466046     A.U. after    2 cycles

 The electronic state is 1-A.
 Alpha  occ. eigenvalues --  -11.24757 -11.24704 -11.24691 -11.24589 -11.24571
 Alpha  occ. eigenvalues --  -11.24524 -11.24367 -11.24324 -11.24260 -11.24184
 Alpha  occ. eigenvalues --  -11.24134 -11.24008  -1.14461  -1.14042  -1.01292
 Alpha  occ. eigenvalues --   -1.01230  -1.00884  -1.00780  -0.82911  -0.82881
 Alpha  occ. eigenvalues --   -0.82492  -0.82407  -0.71797  -0.71242  -0.64860
 Alpha  occ. eigenvalues --   -0.64454  -0.62816  -0.62413  -0.59725  -0.59524
 Alpha  occ. eigenvalues --   -0.59120  -0.58926  -0.50931  -0.50415  -0.50149
 Alpha  occ. eigenvalues --   -0.50008  -0.49733  -0.49485  -0.34297  -0.34274
 Alpha  occ. eigenvalues --   -0.33878  -0.33742
 Alpha virt. eigenvalues --    0.03155   0.03734   0.04131   0.04253   0.04770
 Alpha virt. eigenvalues --    0.05599   0.05855   0.06078   0.07064   0.07585
 Alpha virt. eigenvalues --    0.08448   0.09566   0.10266   0.10619   0.10710

 Mulliken charges:
               1
     1  C    0.404414
     2  C    0.386779
     3  C    0.599289
     4  H   -0.453141
     5  H   -0.490208
     6  H   -0.455377
     7  C    0.347591
     8  C    0.319235
     9  C    0.859518
    10  H   -0.503499
    11  H   -0.449397
    12  H   -0.534744
    13  C    0.604474
    14  C    0.715612
    15  C    0.553966
    16  H   -0.447650
    17  H   -0.450632
    18  H   -0.479126
    19  C    0.509912
    20  C    0.271936
    21  C    0.282409
    22  H   -0.550277
    23  H   -0.573925
    24  H   -0.467160
 Sum of Mulliken charges =   0.00000

 Dipole moment (field-independent basis, Debye):
    X=              0.1877    Y=              0.0882    Z=             -0.0923  Tot=              0.2270

 Test job not archived.
 1\1\GINC-SE398\SP\RHF\Aug-CC-pVDZ\C12H12\OHZDE\08-Apr-2025\0\\#t hf au
 g-cc-pvdz iop(5/13=1,5/36=2,99/5=2) pseudo=read geom=check guess=(read
 ,tcheck) scf=(maxcycle=1)\\title\\0,1\C,0,14.171733,20.025411,6.67944\
 C,0,13.70564,19.092508,7.60181\C,0,15.173718,19.675303,5.77837\H,0,13.
 746682,21.020351,6.65947\H,0,12.924382,19.352746,8.30371\H,0,15.516834
 ,20.39801,5.05255\C,0,15.248667,17.459389,6.71936\C,0,15.71476,18.3922
 92,5.79699\C,0,14.246682,17.809497,7.62043\H,0,15.673718,16.464449,6.7
 3933\H,0,16.496018,18.132054,5.09509\H,0,13.903566,17.08679,8.34625\C,

 Normal termination of Gaussian 16 at Tue Apr  8 19:05:52 2025.
