 Gaussian 16, Revision C.01,

 ----------------------------------------------------------------------
 #t hf aug-cc-pvdz symm=none int=(grid=ultrafine) guess=(read,tcheck) s
 table=(opt,rrhf)
 ----------------------------------------------------------------------
 -----
 title
 -----
 Symbolic Z-matrix:
 Charge =  0 Multiplicity = 1

 SCF Done:  E(RHF) =  -339.384555971     A.U. after   13 cycles
 Normal termination of Gaussian 16 at Tue Apr  8 18:48:53 2025.
 Gaussian 16:  ES64L-G16RevC.01  3-Jul-2019

 ----------------------------------------------------------------------
 #t hf aug-cc-pvdz iop(5/13=1,5/36=2,99/5=2) pseudo=read geom=check gue
 ss=(read,tcheck) scf=(maxcycle=1)
 ----------------------------------------------------------------------
 -----
 title
 -----
 Structure from the checkpoint file:  "3B-69_08a_vinylene_carbonate_dimerAB_mol2.chk"
 Charge =  0 Multiplicity = 1

                         Standard orientation:
 ---------------------------------------------------------------------
 Center     Atomic      Atomic             Coordinates (Angstroms)
 Number     Number       Type             X           Y           Z
 ---------------------------------------------------------------------
      1          6           0       -1.338334   -0.659551    0.008366
      2          6           0       -1.337111    0.663132    0.010433
      3          6           0        0.777173   -0.003044   -0.006154
      4          1           0       -2.106735   -1.408288    0.003289
      5          1           0       -2.100623    1.415317    0.024180
      6          8           0       -0.014708   -1.101028   -0.011694
      7          8           0       -0.011087    1.098976   -0.016061
      8          8           0        1.975419    0.000770    0.014838
 ---------------------------------------------------------------------

 SCF Done:  E(RHF) =  -339.495187260     A.U. after    2 cycles

 The electronic state is 1-A.
 Alpha  occ. eigenvalues --  -20.67187 -20.67096 -20.57372 -11.46879 -11.34839
 Alpha  occ. eigenvalues --  -11.34664  -1.52046  -1.39031  -1.36760  -1.07589
 Alpha  occ. eigenvalues --   -0.91443  -0.89058  -0.77327  -0.74564  -0.70269
 Alpha  occ. eigenvalues --   -0.67234  -0.63806  -0.62482  -0.61175  -0.54487
 Alpha  occ. eigenvalues --   -0.51050  -0.39236
 Alpha virt. eigenvalues --    0.02380   0.03736   0.07282   0.08586   0.09179
 Alpha virt. eigenvalues --    0.10028   0.10757   0.12131   0.12637   0.13630
 Alpha virt. eigenvalues --    0.14212   0.14624   0.16901   0.18504   0.19477

 Mulliken charges:
               1
     1  C    0.645763
     2  C    0.650987
     3  C    0.634128
     4  H   -0.240403
     5  H   -0.242749
     6  O   -0.522467
     7  O   -0.524300
     8  O   -0.400960
 Sum of Mulliken charges =  -0.00000

 Dipole moment (field-independent basis, Debye):
    X=             -5.6207    Y=             -0.0062    Z=             -0.0085  Tot=              5.6207

 Test job not archived.
 1\1\GINC-SE208\SP\RHF\Aug-CC-pVDZ\C3H2O3\OHZDE\08-Apr-2025\0\\#t hf au
 g-cc-pvdz iop(5/13=1,5/36=2,99/5=2) pseudo=read geom=check guess=(read
 ,tcheck) scf=(maxcycle=1)\\title\\0,1\C,0,0.845927,15.309211,1.553806\
 C,0,1.46459,14.71303,2.55945\C,0,0.932131,13.146144,1.084452\H,0,0.584
 258,16.325703,1.331665\H,0,1.890128,15.047782,3.484534\O,0,0.509604,14
 .34051,0.607341\O,0,1.545281,13.348493,2.275671\O,0,0.782676,12.082704
 ,0.552468\\Version=ES64L-G16RevC.01\State=1-A\HF=-339.4951873\RMSD=5.4
 71e-03\Dipole=0.2469746,1.955929,1.0017171\Quadrupole=0.1524591,-0.445

 Normal termination of Gaussian 16 at Tue Apr  8 18:48:56 2025.
