 Gaussian 16, Revision C.01,

 ----------------------------------------------------------------------
 #t hf aug-cc-pvdz symm=none int=(grid=ultrafine) guess=(read,tcheck) s
 table=(opt,rrhf)
 ----------------------------------------------------------------------
 -----
 title
 -----
 Symbolic Z-matrix:
 Charge =  0 Multiplicity = 1

 SCF Done:  E(RHF) =  -263.887328184     A.U. after   13 cycles
 Normal termination of Gaussian 16 at Tue Apr  8 18:30:55 2025.
 Gaussian 16:  ES64L-G16RevC.01  3-Jul-2019

 ----------------------------------------------------------------------
 #t hf aug-cc-pvdz iop(5/13=1,5/36=2,99/5=2) pseudo=read geom=check gue
 ss=(read,tcheck) scf=(maxcycle=1)
 ----------------------------------------------------------------------
 -----
 title
 -----
 Structure from the checkpoint file:  "3B-69_04b_acetonitrile_dimerAC_mol1.chk"
 Charge =  0 Multiplicity = 1

                         Standard orientation:
 ---------------------------------------------------------------------
 Center     Atomic      Atomic             Coordinates (Angstroms)
 Number     Number       Type             X           Y           Z
 ---------------------------------------------------------------------
      1          6           0       -1.927071    1.239577    0.043348
      2          6           0       -2.290261   -0.151459   -0.162423
      3          7           0       -2.588688   -1.251645   -0.329384
      4          1           0       -1.124142    1.518184   -0.640564
      5          1           0       -1.598970    1.393420    1.071698
      6          1           0       -2.797223    1.867936   -0.146259
      7          6           0        3.146937    0.114593   -0.565793
      8          6           0        2.009656   -0.168872    0.291800
      9          7           0        1.101173   -0.396191    0.962866
     10          1           0        3.405187    1.172526   -0.501484
     11          1           0        4.003857   -0.488199   -0.263878
     12          1           0        2.888329   -0.132045   -1.595475
 ---------------------------------------------------------------------

 SCF Done:  E(RHF) =  -263.969988995     A.U. after    2 cycles

 The electronic state is 1-A.
 Alpha  occ. eigenvalues --  -15.64526 -15.62256 -11.30206 -11.29856 -11.28114
 Alpha  occ. eigenvalues --  -11.27635  -1.20226  -1.17926  -1.04339  -1.02184
 Alpha  occ. eigenvalues --   -0.70472  -0.68352  -0.64068  -0.63949  -0.61999
 Alpha  occ. eigenvalues --   -0.61792  -0.55284  -0.53096  -0.46844  -0.46797
 Alpha  occ. eigenvalues --   -0.44582  -0.44452
 Alpha virt. eigenvalues --    0.02071   0.03465   0.04712   0.04958   0.06491
 Alpha virt. eigenvalues --    0.06777   0.08483   0.09508   0.11870   0.12246
 Alpha virt. eigenvalues --    0.12802   0.13213   0.13692   0.14261   0.14397

 Mulliken charges:
               1
     1  C    0.437295
     2  C   -0.324632
     3  N   -0.210708
     4  H    0.037023
     5  H    0.056392
     6  H    0.012165
     7  C    0.380008
     8  C   -0.362061
     9  N   -0.172072
    10  H    0.052975
    11  H    0.037617
    12  H    0.055998
 Sum of Mulliken charges =   0.00000

 Dipole moment (field-independent basis, Debye):
    X=              4.5589    Y=              4.5917    Z=             -1.7058  Tot=              6.6916

 Test job not archived.
 1\1\GINC-SE333\SP\RHF\Aug-CC-pVDZ\C4H6N2\OHZDE\08-Apr-2025\0\\#t hf au
 g-cc-pvdz iop(5/13=1,5/36=2,99/5=2) pseudo=read geom=check guess=(read
 ,tcheck) scf=(maxcycle=1)\\title\\0,1\C,0,6.774062,3.760286,9.793622\C
 ,0,7.504477,2.900537,10.708255\N,0,8.078059,2.222976,11.442598\H,0,6.1
 48058,3.155336,9.136198\H,0,7.470162,4.347622,9.194202\H,0,6.144004,4.
 439501,10.367769\C,0,7.494334,0.374714,5.869172\C,0,8.224749,1.234463,
 6.783805\N,0,8.79833,1.912024,7.518148\H,0,6.86833,0.979664,5.211748\H
 ,0,8.190434,-0.212622,5.269752\H,0,6.864275,-0.304501,6.443319\\Versio

 Normal termination of Gaussian 16 at Tue Apr  8 18:30:59 2025.
