 Gaussian 16, Revision C.01,

 ----------------------------------------------------------------------
 #t hf aug-cc-pvdz symm=none int=(grid=ultrafine) guess=(read,tcheck) s
 table=(opt,rrhf)
 ----------------------------------------------------------------------
 -----
 title
 -----
 Symbolic Z-matrix:
 Charge =  0 Multiplicity = 1

 SCF Done:  E(RHF) =  -599.497747939     A.U. after   15 cycles
 Normal termination of Gaussian 16 at Tue Apr  8 19:03:38 2025.
 Gaussian 16:  ES64L-G16RevC.01  3-Jul-2019

 ----------------------------------------------------------------------
 #t hf aug-cc-pvdz iop(5/13=1,5/36=2,99/5=2) pseudo=read geom=check gue
 ss=(read,tcheck) scf=(maxcycle=1)
 ----------------------------------------------------------------------
 -----
 title
 -----
 Structure from the checkpoint file:  "3B-69_14a_cyanoacetamide_dimerBC_mol1.chk"
 Charge =  0 Multiplicity = 1

                         Standard orientation:
 ---------------------------------------------------------------------
 Center     Atomic      Atomic             Coordinates (Angstroms)
 Number     Number       Type             X           Y           Z
 ---------------------------------------------------------------------
      1          6           0       -2.689045   -0.508083    0.000423
      2          6           0       -1.738537    1.777992   -0.026128
      3          6           0       -1.430366    0.363749   -0.109021
      4          1           0       -0.702835    0.122423    0.666565
      5          1           0       -0.929323    0.176200   -1.061512
      6          1           0       -3.261462   -2.454987    0.082627
      7          1           0       -1.517423   -2.193327   -0.009473
      8          7           0       -2.461816   -1.824624   -0.007423
      9          7           0       -1.978984    2.900336    0.038643
     10          8           0       -3.812821   -0.002046    0.052085
     11          6           0        1.603784   -1.715571   -0.002635
     12          6           0        2.876668   -1.036977    0.134773
     13          6           0        2.732925    0.486639    0.031277
     14          1           0        3.569024   -1.433917   -0.606610
     15          1           0        3.288692   -1.279832    1.117749
     16          1           0        3.859562    2.167968   -0.095924
     17          1           0        4.771437    0.660745   -0.124096
     18          7           0        0.593118   -2.253443   -0.105143
     19          7           0        3.881999    1.147194   -0.147747
     20          8           0        1.631512    1.032294    0.124194
 ---------------------------------------------------------------------

 SCF Done:  E(RHF) =  -599.679535279     A.U. after    2 cycles

 The electronic state is 1-A.
 Alpha  occ. eigenvalues --  -20.58334 -20.52441 -15.70498 -15.68084 -15.64273
 Alpha  occ. eigenvalues --  -15.60844 -11.42686 -11.36514 -11.34718 -11.33673
 Alpha  occ. eigenvalues --  -11.27750 -11.26118  -1.39022  -1.33051  -1.24108
 Alpha  occ. eigenvalues --   -1.23640  -1.17706  -1.16594  -1.09977  -1.03059
 Alpha  occ. eigenvalues --   -0.87171  -0.81095  -0.79271  -0.74600  -0.73660
 Alpha  occ. eigenvalues --   -0.71774  -0.69614  -0.68430  -0.65397  -0.64602
 Alpha  occ. eigenvalues --   -0.63649  -0.60943  -0.60188  -0.57844  -0.54117
 Alpha  occ. eigenvalues --   -0.51855  -0.51501  -0.50607  -0.49042  -0.46679
 Alpha  occ. eigenvalues --   -0.44409  -0.43304  -0.42672  -0.40701
 Alpha virt. eigenvalues --    0.00152   0.02482   0.02733   0.03942   0.04688
 Alpha virt. eigenvalues --    0.06147   0.06848   0.07443   0.08869   0.09413
 Alpha virt. eigenvalues --    0.10087   0.11003   0.11332   0.11590   0.12606

 Mulliken charges:
               1
     1  C    0.543971
     2  C   -0.311922
     3  C    0.394123
     4  H    0.057433
     5  H    0.099484
     6  H   -0.000340
     7  H    0.054106
     8  N   -0.082149
     9  N   -0.186435
    10  O   -0.523532
    11  C   -0.210048
    12  C    0.149460
    13  C    0.532741
    14  H    0.071265
    15  H    0.150192
    16  H    0.043902
    17  H    0.009994
    18  N   -0.185613
    19  N   -0.160291
    20  O   -0.446341
 Sum of Mulliken charges =  -0.00000

 Dipole moment (field-independent basis, Debye):
    X=             13.7273    Y=             -5.8368    Z=              0.0242  Tot=             14.9167

 Test job not archived.
 1\1\GINC-SE132\SP\RHF\Aug-CC-pVDZ\C6H8N4O2\OHZDE\08-Apr-2025\0\\#t hf
 aug-cc-pvdz iop(5/13=1,5/36=2,99/5=2) pseudo=read geom=check guess=(re
 ad,tcheck) scf=(maxcycle=1)\\title\\0,1\C,0,2.914349,23.782511,0.68304
 8\C,0,2.787287,26.254583,0.628049\C,0,3.42728,25.112897,1.251656\H,0,3
 .275043,25.177288,2.329501\H,0,4.505214,25.194233,1.093851\H,0,3.10310
 5,21.776494,0.938231\H,0,4.039968,22.763235,2.063953\N,0,3.423129,22.6
 91524,1.262585\N,0,2.282408,27.162428,0.135524\O,0,2.121953,23.756077,
 -0.261952\C,0,5.578016,24.531209,4.180296\C,0,5.959025,25.683875,4.971

 Normal termination of Gaussian 16 at Tue Apr  8 19:03:51 2025.
