 Gaussian 16, Revision C.01,

 ----------------------------------------------------------------------
 #t hf aug-cc-pvdz symm=none int=(grid=ultrafine) guess=(read,tcheck) s
 table=(opt,rrhf)
 ----------------------------------------------------------------------
 -----
 title
 -----
 Symbolic Z-matrix:
 Charge =  0 Multiplicity = 1

 SCF Done:  E(RHF) =  -1129.30492597     A.U. after   13 cycles

 1\1\GINC-SE127\Stability\RHF\Aug-CC-pVDZ\C6H6O12\OHZDE\08-Apr-2025\0\\
 #t hf aug-cc-pvdz symm=none int=(grid=ultrafine) guess=(read,tcheck) s
 table=(opt,rrhf)\\title\\0,1\O,0,-1.061967,-1.393698,3.865972\O,0,-0.2
 19281,-0.272646,5.6286\C,0,-0.39363,-0.508179,4.356354\H,0,-0.68854,-0
 .914709,6.221064\O,0,1.061967,1.393698,3.986428\O,0,0.219281,0.272646,
 2.2238\C,0,0.39363,0.508179,3.496046\H,0,0.68854,0.914709,1.631336\O,0
 ,-1.061967,-1.393698,11.718372\O,0,-0.219281,-0.272646,13.481\C,0,-0.3
 9363,-0.508179,12.208754\H,0,-0.68854,-0.914709,14.073464\O,0,1.061967

 Normal termination of Gaussian 16 at Tue Apr  8 18:51:19 2025.
 Gaussian 16:  ES64L-G16RevC.01  3-Jul-2019

 ----------------------------------------------------------------------
 #t hf aug-cc-pvdz iop(5/13=1,5/36=2,99/5=2) pseudo=read geom=check gue
 ss=(read,tcheck) scf=(maxcycle=1)
 ----------------------------------------------------------------------
 -----
 title
 -----
 Structure from the checkpoint file:  "3B-69_07b_oxalic_acid_trimer_mol1.chk"
 Charge =  0 Multiplicity = 1

                         Standard orientation:
 ---------------------------------------------------------------------
 Center     Atomic      Atomic             Coordinates (Angstroms)
 Number     Number       Type             X           Y           Z
 ---------------------------------------------------------------------
      1          8           0       -3.937036   -2.540638    0.932380
      2          8           0       -2.204359   -1.330602    0.153033
      3          6           0       -3.470128   -1.596200    0.331274
      4          1           0       -1.595433   -2.001917    0.555534
      5          8           0       -3.890501    0.415606   -0.952730
      6          8           0       -5.623177   -0.794430   -0.173384
      7          6           0       -4.357408   -0.528831   -0.351624
      8          1           0       -6.232104   -0.123114   -0.575884
      9          8           0        3.913289   -2.439685    0.782725
     10          8           0        5.645965   -1.229649    0.003378
     11          6           0        4.380196   -1.495247    0.181619
     12          1           0        6.254892   -1.900964    0.405879
     13          8           0        3.959824    0.516559   -1.102385
     14          8           0        2.227148   -0.693477   -0.323039
     15          6           0        3.492916   -0.427878   -0.501279
     16          1           0        1.618221   -0.022162   -0.725539
     17          8           0        0.031749    0.724760   -1.005831
     18          8           0       -1.726080    1.748820   -0.038839
     19          6           0       -0.455026    1.545035   -0.256504
     20          1           0       -2.320601    1.140596   -0.548810
     21          8           0       -0.077325    3.323398    1.345842
     22          8           0        1.680504    2.299337    0.378850
     23          6           0        0.409450    2.503122    0.596515
     24          1           0        2.275024    2.907562    0.888821
 ---------------------------------------------------------------------

 SCF Done:  E(RHF) =  -1129.66588597     A.U. after    2 cycles

 The electronic state is 1-A.
 Alpha  occ. eigenvalues --  -20.68681 -20.67619 -20.66168 -20.64918 -20.64475
 Alpha  occ. eigenvalues --  -20.63233 -20.62073 -20.61385 -20.60599 -20.59756
 Alpha  occ. eigenvalues --  -20.58380 -20.57366 -11.47158 -11.45623 -11.44483
 Alpha  occ. eigenvalues --  -11.43806 -11.42275 -11.41461  -1.50069  -1.47601
 Alpha  occ. eigenvalues --   -1.47013  -1.45770  -1.44703  -1.42477  -1.39726
 Alpha  occ. eigenvalues --   -1.37159  -1.37024  -1.35209  -1.34924  -1.32784
 Alpha  occ. eigenvalues --   -1.01322  -0.99078  -0.97043  -0.90799  -0.88594
 Alpha  occ. eigenvalues --   -0.86712  -0.80198  -0.78590  -0.77575  -0.76153
 Alpha  occ. eigenvalues --   -0.75648  -0.74883  -0.73933  -0.72912  -0.72762
 Alpha  occ. eigenvalues --   -0.71317  -0.70383  -0.69095  -0.68625  -0.67894
 Alpha  occ. eigenvalues --   -0.66677  -0.65529  -0.64730  -0.63652  -0.63435
 Alpha  occ. eigenvalues --   -0.61461  -0.59396  -0.58092  -0.56161  -0.55890
 Alpha  occ. eigenvalues --   -0.53953  -0.53858  -0.53171  -0.52421  -0.51293
 Alpha  occ. eigenvalues --   -0.50677  -0.49858  -0.48587  -0.46192
 Alpha virt. eigenvalues --    0.02187   0.03296   0.03893   0.04046   0.04328
 Alpha virt. eigenvalues --    0.05882   0.05969   0.06926   0.07892   0.08155
 Alpha virt. eigenvalues --    0.08439   0.09446   0.09838   0.10024   0.10359

 Mulliken charges:
               1
     1  O   -0.408582
     2  O   -0.429275
     3  C    0.564156
     4  H    0.272589
     5  O   -0.471339
     6  O   -0.441001
     7  C    0.598232
     8  H    0.252828
     9  O   -0.443096
    10  O   -0.462849
    11  C    0.652524
    12  H    0.257950
    13  O   -0.420513
    14  O   -0.360227
    15  C    0.508202
    16  H    0.335612
    17  O   -0.473572
    18  O   -0.397257
    19  C    0.575989
    20  H    0.306819
    21  O   -0.420062
    22  O   -0.473390
    23  C    0.596935
    24  H    0.279327
 Sum of Mulliken charges =  -0.00000

 Dipole moment (field-independent basis, Debye):
    X=             -2.1354    Y=             -0.0415    Z=              0.0506  Tot=              2.1364

 Test job not archived.
 1\1\GINC-SE127\SP\RHF\Aug-CC-pVDZ\C6H6O12\OHZDE\08-Apr-2025\0\\#t hf a
 ug-cc-pvdz iop(5/13=1,5/36=2,99/5=2) pseudo=read geom=check guess=(rea
 d,tcheck) scf=(maxcycle=1)\\title\\0,1\O,0,-1.061967,-1.393698,3.86597
 2\O,0,-0.219281,-0.272646,5.6286\C,0,-0.39363,-0.508179,4.356354\H,0,-
 0.68854,-0.914709,6.221064\O,0,1.061967,1.393698,3.986428\O,0,0.219281
 ,0.272646,2.2238\C,0,0.39363,0.508179,3.496046\H,0,0.68854,0.914709,1.
 631336\O,0,-1.061967,-1.393698,11.718372\O,0,-0.219281,-0.272646,13.48
 1\C,0,-0.39363,-0.508179,12.208754\H,0,-0.68854,-0.914709,14.073464\O,

 Normal termination of Gaussian 16 at Tue Apr  8 18:51:42 2025.
