 Gaussian 16, Revision C.01,

 ----------------------------------------------------------------------
 #t hf aug-cc-pvdz symm=none int=(grid=ultrafine) guess=(read,tcheck) s
 table=(opt,rrhf)
 ----------------------------------------------------------------------
 -----
 title
 -----
 Symbolic Z-matrix:
 Charge =  0 Multiplicity = 1

 SCF Done:  E(RHF) =  -1137.85957397     A.U. after   16 cycles
 Normal termination of Gaussian 16 at Tue Apr  8 19:40:08 2025.
 Gaussian 16:  ES64L-G16RevC.01  3-Jul-2019

 ----------------------------------------------------------------------
 #t hf aug-cc-pvdz iop(5/13=1,5/36=2,99/5=2) pseudo=read geom=check gue
 ss=(read,tcheck) scf=(maxcycle=1)
 ----------------------------------------------------------------------
 -----
 title
 -----
 Structure from the checkpoint file:  "3B-69_21b_p-benzoquinone_trimer_mol1.chk"
 Charge =  0 Multiplicity = 1

                         Standard orientation:
 ---------------------------------------------------------------------
 Center     Atomic      Atomic             Coordinates (Angstroms)
 Number     Number       Type             X           Y           Z
 ---------------------------------------------------------------------
      1          8           0       -1.102408   -0.738524    0.013025
      2          6           0       -2.252877   -1.161377    0.000351
      3          6           0       -2.532426   -2.613998   -0.070048
      4          1           0       -1.677241   -3.277359   -0.106267
      5          6           0       -3.404964   -0.231035    0.067507
      6          1           0       -3.165031    0.825208    0.111667
      7          8           0       -6.091188   -2.564655   -0.019229
      8          6           0       -4.940718   -2.141803   -0.006554
      9          6           0       -3.788630   -3.072145   -0.073711
     10          1           0       -4.028563   -4.128388   -0.117870
     11          6           0       -4.661169   -0.689182    0.063845
     12          1           0       -5.516354   -0.025821    0.100064
     13          8           0        2.697468    4.865694    0.002229
     14          6           0        1.546998    4.442842   -0.010446
     15          6           0        1.267450    2.990221   -0.080844
     16          1           0        2.122635    2.326860   -0.117063
     17          6           0        0.394911    5.373184    0.056711
     18          1           0        0.634845    6.429427    0.100871
     19          8           0       -2.291312    3.039564   -0.030026
     20          6           0       -1.140842    3.462416   -0.017350
     21          6           0        0.011246    2.532074   -0.084507
     22          1           0       -0.228687    1.475830   -0.128667
     23          6           0       -0.861293    4.915037    0.053049
     24          1           0       -1.716478    5.578398    0.089267
     25          8           0        3.468728   -4.956181    0.040001
     26          6           0        3.435726   -3.730943    0.024151
     27          6           0        4.681599   -2.933807   -0.050582
     28          1           0        5.614301   -3.482842   -0.087021
     29          6           0        2.145170   -3.004820    0.091701
     30          1           0        1.252817   -3.618521    0.139079
     31          8           0        3.318710    0.354102   -0.006002
     32          6           0        3.351713   -0.871135    0.009849
     33          6           0        4.642268   -1.597258   -0.057701
     34          1           0        5.534621   -0.983557   -0.105079
     35          6           0        2.105839   -1.668271    0.084581
     36          1           0        1.173137   -1.119236    0.121021
 ---------------------------------------------------------------------

 SCF Done:  E(RHF) =  -1138.19679103     A.U. after    2 cycles

 The electronic state is 1-A.
 Alpha  occ. eigenvalues --  -20.60594 -20.60031 -20.59866 -20.59621 -20.59094
 Alpha  occ. eigenvalues --  -20.58710 -11.38682 -11.37844 -11.37820 -11.37549
 Alpha  occ. eigenvalues --  -11.37125 -11.36457 -11.30286 -11.30034 -11.29596
 Alpha  occ. eigenvalues --  -11.29442 -11.29422 -11.29279 -11.28999 -11.28930
 Alpha  occ. eigenvalues --  -11.28865 -11.28712 -11.27663 -11.27495  -1.38927
 Alpha  occ. eigenvalues --   -1.38057  -1.37968  -1.37601  -1.37371  -1.36639
 Alpha  occ. eigenvalues --   -1.15966  -1.15510  -1.14541  -1.07836  -1.07448
 Alpha  occ. eigenvalues --   -1.06393  -0.96951  -0.96422  -0.95479  -0.88379
 Alpha  occ. eigenvalues --   -0.87920  -0.86918  -0.84340  -0.83770  -0.82784
 Alpha  occ. eigenvalues --   -0.73625  -0.73464  -0.72962  -0.72758  -0.72015
 Alpha  occ. eigenvalues --   -0.71628  -0.70982  -0.70243  -0.69180  -0.65358
 Alpha  occ. eigenvalues --   -0.65090  -0.64600  -0.64223  -0.63506  -0.62962
 Alpha  occ. eigenvalues --   -0.62105  -0.61448  -0.61413  -0.60818  -0.60431
 Alpha  occ. eigenvalues --   -0.60316  -0.59997  -0.59676  -0.58531  -0.57684
 Alpha  occ. eigenvalues --   -0.57090  -0.56275  -0.49142  -0.48486  -0.47713
 Alpha  occ. eigenvalues --   -0.46418  -0.45800  -0.44684  -0.43401  -0.42799
 Alpha  occ. eigenvalues --   -0.42048  -0.41874  -0.41594  -0.40447
 Alpha virt. eigenvalues --   -0.01466  -0.00903  -0.00036   0.02687   0.03256
 Alpha virt. eigenvalues --    0.03292   0.04134   0.04775   0.04943   0.05660
 Alpha virt. eigenvalues --    0.06205   0.06735   0.07164   0.07687   0.08590

 Mulliken charges:
               1
     1  O   -0.383327
     2  C   -1.638520
     3  C    1.224544
     4  H   -0.495914
     5  C    1.373621
     6  H   -0.572081
     7  O   -0.501031
     8  C    0.271812
     9  C    0.799405
    10  H   -0.462470
    11  C    0.773357
    12  H   -0.457113
    13  O   -0.499308
    14  C   -0.096391
    15  C    0.787390
    16  H   -0.495159
    17  C    1.123175
    18  H   -0.448274
    19  O   -0.474616
    20  C   -0.972253
    21  C    1.139462
    22  H   -0.509107
    23  C    1.006774
    24  H   -0.508160
    25  O   -0.506775
    26  C    0.074529
    27  C    0.999039
    28  H   -0.442504
    29  C    0.555891
    30  H   -0.510023
    31  O   -0.416107
    32  C   -1.279314
    33  C    1.103053
    34  H   -0.525552
    35  C    1.449750
    36  H   -0.487803
 Sum of Mulliken charges =  -0.00000

 Dipole moment (field-independent basis, Debye):
    X=             -0.1079    Y=             -0.1719    Z=              0.0003  Tot=              0.2030

 Test job not archived.
 1\1\GINC-SE084\SP\RHF\Aug-CC-pVDZ\C18H12O6\OHZDE\08-Apr-2025\0\\#t hf
 aug-cc-pvdz iop(5/13=1,5/36=2,99/5=2) pseudo=read geom=check guess=(re
 ad,tcheck) scf=(maxcycle=1)\\title\\0,1\O,0,5.823654,5.541048,7.623703
 \C,0,5.232525,4.54544,7.221364\C,0,5.761253,3.186365,7.479383\H,0,6.68
 5935,3.117301,8.038752\C,0,3.959516,4.668808,6.471979\H,0,3.604306,5.6
 77619,6.295076\O,0,3.24442,1.229952,5.895778\C,0,3.835549,2.22556,6.29
 8118\C,0,5.108559,2.102192,7.047503\H,0,5.463769,1.093381,7.224406\C,0
 ,3.306821,3.584635,6.040099\H,0,2.382139,3.653699,5.48073\O,0,5.823654

 Normal termination of Gaussian 16 at Tue Apr  8 19:41:18 2025.
