 Gaussian 16, Revision C.01,

 ----------------------------------------------------------------------
 #t hf aug-cc-pvdz symm=none int=(grid=ultrafine) guess=(read,tcheck) s
 table=(opt,rrhf)
 ----------------------------------------------------------------------
 -----
 title
 -----
 Symbolic Z-matrix:
 Charge =  0 Multiplicity = 1

 SCF Done:  E(RHF) =  -227.845090243     A.U. after   13 cycles
 Normal termination of Gaussian 16 at Tue Apr  8 18:34:47 2025.
 Gaussian 16:  ES64L-G16RevC.01  3-Jul-2019

 ----------------------------------------------------------------------
 #t hf aug-cc-pvdz iop(5/13=1,5/36=2,99/5=2) pseudo=read geom=check gue
 ss=(read,tcheck) scf=(maxcycle=1)
 ----------------------------------------------------------------------
 -----
 title
 -----
 Structure from the checkpoint file:  "3B-69_06a_acetic_acid_dimerAC_mol3.chk"
 Charge =  0 Multiplicity = 1

                         Standard orientation:
 ---------------------------------------------------------------------
 Center     Atomic      Atomic             Coordinates (Angstroms)
 Number     Number       Type             X           Y           Z
 ---------------------------------------------------------------------
      1          8           0        0.800954   -1.009420    0.005321
      2          1           0        1.785555   -0.815196   -0.033941
      3          8           0        0.613481    1.210533    0.001419
      4          6           0        0.085460    0.102439   -0.001309
      5          6           0       -1.391998   -0.132348   -0.003079
      6          1           0       -1.918826    0.813699   -0.070103
      7          1           0       -1.678484   -0.650175    0.912438
      8          1           0       -1.664501   -0.777774   -0.835986
 ---------------------------------------------------------------------

 SCF Done:  E(RHF) =  -227.920004264     A.U. after    2 cycles

 The electronic state is 1-A.
 Alpha  occ. eigenvalues --  -20.63467 -20.55786 -11.40339 -11.25760  -1.42893
 Alpha  occ. eigenvalues --   -1.31428  -1.02695  -0.84684  -0.71480  -0.69418
 Alpha  occ. eigenvalues --   -0.66727  -0.58767  -0.58118  -0.57209  -0.49206
 Alpha  occ. eigenvalues --   -0.46988
 Alpha virt. eigenvalues --    0.03173   0.04598   0.05569   0.06279   0.09820
 Alpha virt. eigenvalues --    0.11715   0.11786   0.14092   0.15185   0.15300
 Alpha virt. eigenvalues --    0.16245   0.16553   0.19506   0.20610   0.23248

 Mulliken charges:
               1
     1  O   -0.482608
     2  H    0.211450
     3  O   -0.504626
     4  C    0.408053
     5  C    0.307442
     6  H   -0.012222
     7  H    0.043588
     8  H    0.028923
 Sum of Mulliken charges =  -0.00000

 Dipole moment (field-independent basis, Debye):
    X=             -0.8916    Y=             -2.2158    Z=             -0.0725  Tot=              2.3895

 Test job not archived.
 1\1\GINC-SE398\SP\RHF\Aug-CC-pVDZ\C2H4O2\OHZDE\08-Apr-2025\0\\#t hf au
 g-cc-pvdz iop(5/13=1,5/36=2,99/5=2) pseudo=read geom=check guess=(read
 ,tcheck) scf=(maxcycle=1)\\title\\0,1\O,0,1.655579,1.539503,2.911827\H
 ,0,2.346664,1.769234,2.220214\O,0,3.330622,0.41321,3.85472\C,0,2.16439
 2,0.79531,3.879036\C,0,1.189508,0.473153,4.967074\H,0,1.683196,-0.0852
 47,5.755431\H,0,0.368623,-0.11514,4.556647\H,0,0.759865,1.390782,5.364
 48\\Version=ES64L-G16RevC.01\State=1-A\HF=-227.9200043\RMSD=3.547e-03\
 Dipole=-0.8756937,0.3414578,-0.0190556\Quadrupole=-3.3474912,0.2381064

 Normal termination of Gaussian 16 at Tue Apr  8 18:34:49 2025.
