 Gaussian 16, Revision C.01,

 ----------------------------------------------------------------------
 #t hf aug-cc-pvdz symm=none int=(grid=ultrafine) guess=(read,tcheck) s
 table=(opt,rrhf)
 ----------------------------------------------------------------------
 -----
 title
 -----
 Symbolic Z-matrix:
 Charge =  0 Multiplicity = 1

 SCF Done:  E(RHF) =  -487.405797001     A.U. after   15 cycles
 Normal termination of Gaussian 16 at Tue Apr  8 18:34:05 2025.
 Gaussian 16:  ES64L-G16RevC.01  3-Jul-2019

 ----------------------------------------------------------------------
 #t hf aug-cc-pvdz iop(5/13=1,5/36=2,99/5=2) pseudo=read geom=check gue
 ss=(read,tcheck) scf=(maxcycle=1)
 ----------------------------------------------------------------------
 -----
 title
 -----
 Structure from the checkpoint file:  "3B-69_05c_nitromethane_dimerAC_mol1.chk"
 Charge =  0 Multiplicity = 1

                         Standard orientation:
 ---------------------------------------------------------------------
 Center     Atomic      Atomic             Coordinates (Angstroms)
 Number     Number       Type             X           Y           Z
 ---------------------------------------------------------------------
      1          6           0       -5.142702   -0.682125    0.119131
      2          7           0       -3.902770    0.129747   -0.047722
      3          8           0       -4.006705    1.273852   -0.479833
      4          8           0       -2.840934   -0.376048    0.281082
      5          1           0       -4.881210   -1.712569   -0.083156
      6          1           0       -5.450091   -0.568457    1.156988
      7          1           0       -5.900691   -0.293789   -0.547808
      8          6           0        5.153172    0.665227   -0.122681
      9          7           0        3.905830   -0.134685    0.046685
     10          8           0        3.039800    0.286630    0.807594
     11          8           0        3.793934   -1.161991   -0.604130
     12          1           0        5.963361   -0.033907   -0.283671
     13          1           0        5.007469    1.282800   -1.006948
     14          1           0        5.288161    1.282347    0.755443
 ---------------------------------------------------------------------

 SCF Done:  E(RHF) =  -487.559959956     A.U. after    2 cycles

 The electronic state is 1-A.
 Alpha  occ. eigenvalues --  -20.61810 -20.61769 -20.61670 -20.61655 -15.91447
 Alpha  occ. eigenvalues --  -15.91437 -11.32143 -11.32135  -1.54753  -1.54739
 Alpha  occ. eigenvalues --   -1.36057  -1.36043  -1.09288  -1.09278  -0.86218
 Alpha  occ. eigenvalues --   -0.86211  -0.75963  -0.75953  -0.74122  -0.74115
 Alpha  occ. eigenvalues --   -0.73878  -0.73863  -0.63124  -0.63120  -0.60369
 Alpha  occ. eigenvalues --   -0.60357  -0.51113  -0.51108  -0.50975  -0.50955
 Alpha  occ. eigenvalues --   -0.47057  -0.47041
 Alpha virt. eigenvalues --    0.02920   0.02956   0.04824   0.04896   0.05530
 Alpha virt. eigenvalues --    0.05572   0.08607   0.08647   0.08660   0.09178
 Alpha virt. eigenvalues --    0.13102   0.13889   0.13997   0.14311   0.14417

 Mulliken charges:
               1
     1  C    0.846614
     2  N    0.401396
     3  O   -0.560853
     4  O   -0.544851
     5  H   -0.058223
     6  H   -0.006260
     7  H   -0.077786
     8  C    0.847035
     9  N    0.400074
    10  O   -0.551076
    11  O   -0.554791
    12  H   -0.060440
    13  H   -0.005172
    14  H   -0.075667
 Sum of Mulliken charges =  -0.00000

 Dipole moment (field-independent basis, Debye):
    X=              0.0671    Y=             -0.1072    Z=              0.0071  Tot=              0.1266

 Test job not archived.
 1\1\GINC-SE332\SP\RHF\Aug-CC-pVDZ\C2H6N2O4\OHZDE\08-Apr-2025\0\\#t hf
 aug-cc-pvdz iop(5/13=1,5/36=2,99/5=2) pseudo=read geom=check guess=(re
 ad,tcheck) scf=(maxcycle=1)\\title\\0,1\C,0,0.691316,6.61465,11.679005
 \N,0,1.868622,5.699059,11.686151\O,0,2.660061,5.771533,12.621496\O,0,1
 .974396,4.898353,10.770117\H,0,0.477227,6.854026,10.645575\H,0,-0.1361
 06,6.058747,12.115925\H,0,0.926871,7.482841,12.279769\C,0,7.086184,-0.
 37765,7.425505\N,0,5.908878,0.537941,7.432651\O,0,5.117439,0.465467,8.
 367996\O,0,5.803104,1.338647,6.516617\H,0,7.300273,-0.617026,6.392075\

 Normal termination of Gaussian 16 at Tue Apr  8 18:34:09 2025.
