 Gaussian 16, Revision C.01,

 ----------------------------------------------------------------------
 #t hf aug-cc-pvdz symm=none int=(grid=ultrafine) guess=(read,tcheck) s
 table=(opt,rrhf)
 ----------------------------------------------------------------------
 -----
 title
 -----
 Symbolic Z-matrix:
 Charge =  0 Multiplicity = 1

 SCF Done:  E(RHF) =  -278.732061561     A.U. after   11 cycles
 Normal termination of Gaussian 16 at Tue Apr  8 18:59:54 2025.
 Gaussian 16:  ES64L-G16RevC.01  3-Jul-2019

 ----------------------------------------------------------------------
 #t hf aug-cc-pvdz iop(5/13=1,5/36=2,99/5=2) pseudo=read geom=check gue
 ss=(read,tcheck) scf=(maxcycle=1)
 ----------------------------------------------------------------------
 -----
 title
 -----
 Structure from the checkpoint file:  "3B-69_13a_triazine_dimerAB_mol2.chk"
 Charge =  0 Multiplicity = 1

                         Standard orientation:
 ---------------------------------------------------------------------
 Center     Atomic      Atomic             Coordinates (Angstroms)
 Number     Number       Type             X           Y           Z
 ---------------------------------------------------------------------
      1          6           0       -0.650015    1.125859   -0.000000
      2          7           0       -1.367752   -0.000000   -0.000000
      3          1           0       -1.191067    2.062989   -0.000000
      4          6           0        1.300030    0.000000    0.000000
      5          7           0        0.683876    1.184508   -0.000000
      6          1           0        2.382134   -0.000000    0.000000
      7          6           0       -0.650015   -1.125859    0.000000
      8          7           0        0.683876   -1.184508    0.000000
      9          1           0       -1.191067   -2.062988    0.000000
 ---------------------------------------------------------------------

 SCF Done:  E(RHF) =  -278.811247327     A.U. after    2 cycles

 The electronic state is 1-A'.
 Alpha  occ. eigenvalues --  -15.65350 -15.65350 -15.65345 -11.35564 -11.35564
 Alpha  occ. eigenvalues --  -11.35546  -1.33282  -1.18438  -1.18438  -0.92833
 Alpha  occ. eigenvalues --   -0.92833  -0.76613  -0.74702  -0.62150  -0.62150
 Alpha  occ. eigenvalues --   -0.61156  -0.56557  -0.43667  -0.43667  -0.43329
 Alpha  occ. eigenvalues --   -0.43329
 Alpha virt. eigenvalues --    0.03608   0.04064   0.04064   0.06716   0.07817
 Alpha virt. eigenvalues --    0.07817   0.09943   0.09943   0.11134   0.12851
 Alpha virt. eigenvalues --    0.14510   0.14510   0.15779   0.15779   0.16455

 Mulliken charges:
               1
     1  C    0.678522
     2  N   -0.485340
     3  H   -0.193182
     4  C    0.678523
     5  N   -0.485340
     6  H   -0.193183
     7  C    0.678523
     8  N   -0.485340
     9  H   -0.193183
 Sum of Mulliken charges =  -0.00000

 Dipole moment (field-independent basis, Debye):
    X=             -0.0000    Y=              0.0000    Z=             -0.0000  Tot=              0.0000

 Test job not archived.
 1\1\GINC-SE461\SP\RHF\Aug-CC-pVDZ\C3H3N3\OHZDE\08-Apr-2025\0\\#t hf au
 g-cc-pvdz iop(5/13=1,5/36=2,99/5=2) pseudo=read geom=check guess=(read
 ,tcheck) scf=(maxcycle=1)\\title\\0,1\C,0,-3.52347,8.354547,9.10125\N,
 0,-4.139624,7.170039,9.10125\H,0,-2.441366,8.354547,9.10125\C,0,-5.473
 515,9.480406,9.10125\N,0,-4.139624,9.539055,9.10125\H,0,-6.014567,10.4
 17535,9.10125\C,0,-5.473515,7.228688,9.10125\N,0,-6.191252,8.354547,9.
 10125\H,0,-6.014567,6.291559,9.10125\\Version=ES64L-G16RevC.01\State=1
 -A'\HF=-278.8112473\RMSD=1.726e-03\Dipole=0.0000003,0.,0.\Quadrupole=-

 Normal termination of Gaussian 16 at Tue Apr  8 18:59:58 2025.
