 Gaussian 16, Revision C.01,

 ----------------------------------------------------------------------
 #t hf aug-cc-pvdz symm=none int=(grid=ultrafine) guess=(read,tcheck) s
 table=(opt,rrhf)
 ----------------------------------------------------------------------
 -----
 title
 -----
 Symbolic Z-matrix:
 Charge =  0 Multiplicity = 1

 SCF Done:  E(RHF) =  -641.509334388     A.U. after   13 cycles
 Normal termination of Gaussian 16 at Tue Apr  8 19:04:12 2025.
 Gaussian 16:  ES64L-G16RevC.01  3-Jul-2019

 ----------------------------------------------------------------------
 #t hf aug-cc-pvdz iop(5/13=1,5/36=2,99/5=2) pseudo=read geom=check gue
 ss=(read,tcheck) scf=(maxcycle=1)
 ----------------------------------------------------------------------
 -----
 title
 -----
 Structure from the checkpoint file:  "3B-69_17a_oxazolidinone_dimerBC_mol1.chk"
 Charge =  0 Multiplicity = 1

                         Standard orientation:
 ---------------------------------------------------------------------
 Center     Atomic      Atomic             Coordinates (Angstroms)
 Number     Number       Type             X           Y           Z
 ---------------------------------------------------------------------
      1          7           0        3.481538   -0.975728    0.212379
      2          8           0        2.052928    0.606771   -0.383482
      3          8           0        1.275452   -1.500163   -0.258929
      4          6           0        4.334229    0.202585    0.122684
      5          6           0        3.274866    1.308990   -0.018039
      6          6           0        2.213141   -0.719924   -0.140336
      7          1           0        3.816403   -1.930417    0.362995
      8          1           0        5.002795    0.142285   -0.734710
      9          1           0        4.933332    0.328843    1.022732
     10          1           0        3.084619    1.830088    0.918992
     11          1           0        3.494889    2.025798   -0.800653
     12          7           0       -2.182082   -0.678740    0.347049
     13          8           0       -3.610692    0.903759   -0.248811
     14          8           0       -4.388168   -1.203175   -0.124259
     15          6           0       -1.329391    0.499574    0.257355
     16          6           0       -2.388753    1.605978    0.116632
     17          6           0       -3.450479   -0.422936   -0.005665
     18          1           0       -1.847217   -1.633428    0.497666
     19          1           0       -0.660825    0.439273   -0.600039
     20          1           0       -0.730288    0.625831    1.157403
     21          1           0       -2.579001    2.127076    1.053663
     22          1           0       -2.168731    2.322787   -0.665982
 ---------------------------------------------------------------------

 SCF Done:  E(RHF) =  -641.711509544     A.U. after    2 cycles

 The electronic state is 1-A.
 Alpha  occ. eigenvalues --  -20.63899 -20.59807 -20.55185 -20.50946 -15.68620
 Alpha  occ. eigenvalues --  -15.64220 -11.43526 -11.39238 -11.34253 -11.32515
 Alpha  occ. eigenvalues --  -11.30423 -11.27976  -1.44731  -1.40548  -1.32986
 Alpha  occ. eigenvalues --   -1.28751  -1.23688  -1.19283  -1.05130  -1.01011
 Alpha  occ. eigenvalues --   -0.91549  -0.87330  -0.85764  -0.81393  -0.74976
 Alpha  occ. eigenvalues --   -0.74291  -0.70862  -0.70157  -0.69580  -0.65328
 Alpha  occ. eigenvalues --   -0.63901  -0.63249  -0.62426  -0.60935  -0.59546
 Alpha  occ. eigenvalues --   -0.58861  -0.58247  -0.56914  -0.56313  -0.52175
 Alpha  occ. eigenvalues --   -0.49337  -0.48360  -0.45222  -0.44109  -0.43127
 Alpha  occ. eigenvalues --   -0.38707
 Alpha virt. eigenvalues --    0.01342   0.02560   0.02919   0.03721   0.04912
 Alpha virt. eigenvalues --    0.05252   0.06225   0.06586   0.07402   0.07972
 Alpha virt. eigenvalues --    0.09435   0.09823   0.10394   0.11982   0.12359

 Mulliken charges:
               1
     1  N   -0.330672
     2  O   -0.617911
     3  O   -0.477541
     4  C    0.787054
     5  C    0.810575
     6  C    0.671472
     7  H   -0.082471
     8  H   -0.196192
     9  H   -0.135142
    10  H   -0.209377
    11  H   -0.193978
    12  N   -0.316923
    13  O   -0.629054
    14  O   -0.503240
    15  C    0.718911
    16  C    0.870738
    17  C    0.676889
    18  H   -0.070460
    19  H   -0.287835
    20  H   -0.175822
    21  H   -0.163942
    22  H   -0.145080
 Sum of Mulliken charges =  -0.00000

 Dipole moment (field-independent basis, Debye):
    X=             13.2184    Y=              4.2411    Z=              2.1930  Tot=             14.0543

 Test job not archived.
 1\1\GINC-SE219\SP\RHF\Aug-CC-pVDZ\C6H10N2O4\OHZDE\08-Apr-2025\0\\#t hf
  aug-cc-pvdz iop(5/13=1,5/36=2,99/5=2) pseudo=read geom=check guess=(r
 ead,tcheck) scf=(maxcycle=1)\\title\\0,1\N,0,1.432652,2.001945,8.63745
 1\O,0,2.441991,3.496894,9.920667\O,0,1.766543,4.165741,7.882146\C,0,1.
 825983,1.210221,9.795904\C,0,2.266349,2.322413,10.763008\C,0,1.852144,
 3.273264,8.717763\H,0,1.029707,1.62123,7.777834\H,0,2.63018,0.51925,9.
 547777\H,0,0.986979,0.640085,10.190833\H,0,1.504131,2.56187,11.502905\
 H,0,3.209898,2.121702,11.257113\N,0,1.432652,7.674945,8.637451\O,0,2.4

 Normal termination of Gaussian 16 at Tue Apr  8 19:04:31 2025.
