 Gaussian 16, Revision C.01,

 ----------------------------------------------------------------------
 #t hf aug-cc-pvdz symm=none int=(grid=ultrafine) guess=(read,tcheck) s
 table=(opt,rrhf)
 ----------------------------------------------------------------------
 -----
 title
 -----
 Symbolic Z-matrix:
 Charge =  0 Multiplicity = 1

 SCF Done:  E(RHF) =  -599.481993546     A.U. after   14 cycles
 Normal termination of Gaussian 16 at Tue Apr  8 19:03:27 2025.
 Gaussian 16:  ES64L-G16RevC.01  3-Jul-2019

 ----------------------------------------------------------------------
 #t hf aug-cc-pvdz iop(5/13=1,5/36=2,99/5=2) pseudo=read geom=check gue
 ss=(read,tcheck) scf=(maxcycle=1)
 ----------------------------------------------------------------------
 -----
 title
 -----
 Structure from the checkpoint file:  "3B-69_14b_cyanoacetamide_dimerAB_mol1.chk"
 Charge =  0 Multiplicity = 1

                         Standard orientation:
 ---------------------------------------------------------------------
 Center     Atomic      Atomic             Coordinates (Angstroms)
 Number     Number       Type             X           Y           Z
 ---------------------------------------------------------------------
      1          6           0       -1.443343   -1.192787    0.280044
      2          6           0       -3.105017    0.611807   -0.055500
      3          6           0       -2.046449    0.118204    0.803403
      4          1           0       -1.291383    0.898386    0.904715
      5          1           0       -2.458306   -0.034721    1.803627
      6          1           0        0.034654   -2.525632    0.684888
      7          1           0       -0.040922   -1.140564    1.777819
      8          7           0       -0.419948   -1.665064    0.997395
      9          7           0       -3.945311    1.006138   -0.733789
     10          8           0       -1.914325   -1.761783   -0.707900
     11          6           0        1.444612    1.202372   -0.202716
     12          6           0        3.086314   -0.649948   -0.139203
     13          6           0        2.619272    0.545335    0.535402
     14          1           0        3.460382    1.230262    0.647109
     15          1           0        2.316102    0.272089    1.548755
     16          1           0        0.242014    2.837011   -0.121695
     17          1           0        1.484998    2.762401    1.130521
     18          7           0        1.010145    2.343982    0.338521
     19          7           0        3.459153   -1.598585   -0.670943
     20          8           0        0.938307    0.672479   -1.194927
 ---------------------------------------------------------------------

 SCF Done:  E(RHF) =  -599.663890086     A.U. after    2 cycles

 The electronic state is 1-A.
 Alpha  occ. eigenvalues --  -20.57683 -20.54955 -15.70472 -15.67806 -15.65750
 Alpha  occ. eigenvalues --  -15.63786 -11.41924 -11.39347 -11.33817 -11.31493
 Alpha  occ. eigenvalues --  -11.30713 -11.28855  -1.38296  -1.35491  -1.23513
 Alpha  occ. eigenvalues --   -1.21354  -1.20848  -1.19416  -1.08741  -1.06457
 Alpha  occ. eigenvalues --   -0.86744  -0.84235  -0.78979  -0.76498  -0.73678
 Alpha  occ. eigenvalues --   -0.71368  -0.70270  -0.69663  -0.67769  -0.67088
 Alpha  occ. eigenvalues --   -0.64525  -0.62033  -0.59527  -0.56946  -0.56242
 Alpha  occ. eigenvalues --   -0.54417  -0.49373  -0.48135  -0.47665  -0.47058
 Alpha  occ. eigenvalues --   -0.46416  -0.45977  -0.45364  -0.43508
 Alpha virt. eigenvalues --   -0.00201   0.01857   0.02531   0.04082   0.04626
 Alpha virt. eigenvalues --    0.05454   0.06561   0.07245   0.08368   0.08828
 Alpha virt. eigenvalues --    0.09846   0.10395   0.11007   0.11398   0.12242

 Mulliken charges:
               1
     1  C    0.570252
     2  C   -0.333677
     3  C    0.541880
     4  H   -0.088766
     5  H    0.103521
     6  H    0.020255
     7  H    0.023850
     8  N   -0.134830
     9  N   -0.163633
    10  O   -0.529562
    11  C    0.526019
    12  C   -0.167774
    13  C    0.326525
    14  H    0.046567
    15  H    0.065510
    16  H    0.024200
    17  H    0.024184
    18  N   -0.154197
    19  N   -0.184592
    20  O   -0.515732
 Sum of Mulliken charges =  -0.00000

 Dipole moment (field-independent basis, Debye):
    X=              5.4261    Y=              5.7126    Z=             10.2234  Tot=             12.9072

 Test job not archived.
 1\1\GINC-SE195\SP\RHF\Aug-CC-pVDZ\C6H8N4O2\OHZDE\08-Apr-2025\0\\#t hf
 aug-cc-pvdz iop(5/13=1,5/36=2,99/5=2) pseudo=read geom=check guess=(re
 ad,tcheck) scf=(maxcycle=1)\\title\\0,1\C,0,2.712508,16.885489,6.36813
 8\C,0,2.839569,14.413417,6.423138\C,0,2.199576,15.555103,5.799531\H,0,
 2.351814,15.490712,4.721686\H,0,1.121642,15.473767,5.957336\H,0,2.5237
 51,18.891506,6.112956\H,0,1.586888,17.904765,4.987234\N,0,2.203727,17.
 976476,5.788601\N,0,3.344448,13.505572,6.915663\O,0,3.504903,16.911923
 ,7.313138\C,0,4.07858,17.004511,2.842545\C,0,4.205641,19.476583,2.8975

 Normal termination of Gaussian 16 at Tue Apr  8 19:03:44 2025.
