 Gaussian 16, Revision C.01,

 ----------------------------------------------------------------------
 #t hf aug-cc-pvdz symm=none int=(grid=ultrafine) guess=(read,tcheck) s
 table=(opt,rrhf)
 ----------------------------------------------------------------------
 -----
 title
 -----
 Symbolic Z-matrix:
 Charge =  0 Multiplicity = 1

 SCF Done:  E(RHF) =  -416.023575074     A.U. after   14 cycles
 Normal termination of Gaussian 16 at Tue Apr  8 18:52:54 2025.
 Gaussian 16:  ES64L-G16RevC.01  3-Jul-2019

 ----------------------------------------------------------------------
 #t hf aug-cc-pvdz iop(5/13=1,5/36=2,99/5=2) pseudo=read geom=check gue
 ss=(read,tcheck) scf=(maxcycle=1)
 ----------------------------------------------------------------------
 -----
 title
 -----
 Structure from the checkpoint file:  "3B-69_09a_acetamide_dimerAC_mol1.chk"
 Charge =  0 Multiplicity = 1

                         Standard orientation:
 ---------------------------------------------------------------------
 Center     Atomic      Atomic             Coordinates (Angstroms)
 Number     Number       Type             X           Y           Z
 ---------------------------------------------------------------------
      1          6           0       -1.568528    1.215529   -0.519852
      2          6           0       -2.324032   -0.017239   -0.082493
      3          8           0       -3.572596   -0.019141   -0.044178
      4          7           0       -1.597982   -1.068852    0.294763
      5          1           0       -2.034099   -1.863210    0.767317
      6          1           0       -0.577524   -1.032597    0.244513
      7          1           0       -1.343523    1.803967    0.371908
      8          1           0       -0.627089    0.976769   -1.010193
      9          1           0       -2.182876    1.817753   -1.182610
     10          6           0        3.381650   -0.089859   -0.632567
     11          6           0        2.051687   -0.112203    0.083314
     12          8           0        1.248294   -1.052113   -0.094210
     13          7           0        1.805383    0.885000    0.932008
     14          1           0        1.013822    0.839584    1.576896
     15          1           0        2.484532    1.640414    1.047237
     16          1           0        4.116711   -0.576145    0.011896
     17          1           0        3.730202    0.920634   -0.835451
     18          1           0        3.317784   -0.647540   -1.562223
 ---------------------------------------------------------------------

 SCF Done:  E(RHF) =  -416.156472480     A.U. after    2 cycles

 The electronic state is 1-A.
 Alpha  occ. eigenvalues --  -20.55798 -20.50179 -15.68693 -15.62127 -11.39777
 Alpha  occ. eigenvalues --  -11.34261 -11.27062 -11.23407  -1.36020  -1.30151
 Alpha  occ. eigenvalues --   -1.21357  -1.15373  -1.02393  -0.98276  -0.83321
 Alpha  occ. eigenvalues --   -0.77840  -0.75284  -0.72023  -0.67872  -0.65075
 Alpha  occ. eigenvalues --   -0.64290  -0.61357  -0.60203  -0.58873  -0.56349
 Alpha  occ. eigenvalues --   -0.55362  -0.54626  -0.50700  -0.46877  -0.44976
 Alpha  occ. eigenvalues --   -0.41355  -0.38773
 Alpha virt. eigenvalues --    0.01534   0.03260   0.03721   0.04525   0.05867
 Alpha virt. eigenvalues --    0.06189   0.06539   0.07365   0.08506   0.09818
 Alpha virt. eigenvalues --    0.10526   0.11529   0.12954   0.13322   0.14267

 Mulliken charges:
               1
     1  C    0.484046
     2  C    0.387708
     3  O   -0.607363
     4  N   -0.101226
     5  H   -0.023617
     6  H    0.043185
     7  H   -0.000666
     8  H   -0.124388
     9  H   -0.050080
    10  C    0.417650
    11  C    0.323144
    12  O   -0.595071
    13  N   -0.165794
    14  H    0.009428
    15  H    0.030871
    16  H    0.072956
    17  H   -0.084513
    18  H   -0.016272
 Sum of Mulliken charges =  -0.00000

 Dipole moment (field-independent basis, Debye):
    X=              8.7818    Y=              3.0210    Z=              1.7016  Tot=              9.4415

 Test job not archived.
 1\1\GINC-SE127\SP\RHF\Aug-CC-pVDZ\C4H10N2O2\OHZDE\08-Apr-2025\0\\#t hf
  aug-cc-pvdz iop(5/13=1,5/36=2,99/5=2) pseudo=read geom=check guess=(r
 ead,tcheck) scf=(maxcycle=1)\\title\\0,1\C,0,-1.004918,11.251778,13.36
 389\C,0,-1.828837,9.986003,13.391436\O,0,-2.955857,9.947587,12.854098\
 N,0,-1.315604,8.944986,14.045834\H,0,-1.888595,8.125309,14.25636\H,0,-
 0.387165,9.0116,14.468606\H,0,-1.234988,11.820456,14.267104\H,0,0.0649
 3,11.054024,13.355768\H,0,-1.271188,11.855156,12.501115\C,0,3.495866,1
 0.0911,15.512557\C,0,1.987714,10.010453,15.540103\O,0,1.390934,9.05363

 Normal termination of Gaussian 16 at Tue Apr  8 18:53:02 2025.
