 Gaussian 16, Revision C.01,

 ----------------------------------------------------------------------
 #t hf aug-cc-pvdz symm=none int=(grid=ultrafine) guess=(read,tcheck) s
 table=(opt,rrhf)
 ----------------------------------------------------------------------
 -----
 title
 -----
 Symbolic Z-matrix:
 Charge =  0 Multiplicity = 1

 SCF Done:  E(RHF) =  -962.271554087     A.U. after   13 cycles
 Normal termination of Gaussian 16 at Tue Apr  8 19:21:18 2025.
 Gaussian 16:  ES64L-G16RevC.01  3-Jul-2019

 ----------------------------------------------------------------------
 #t hf aug-cc-pvdz iop(5/13=1,5/36=2,99/5=2) pseudo=read geom=check gue
 ss=(read,tcheck) scf=(maxcycle=1)
 ----------------------------------------------------------------------
 -----
 title
 -----
 Structure from the checkpoint file:  "3B-69_17b_oxazolidinone_trimer_mol1.chk"
 Charge =  0 Multiplicity = 1

                         Standard orientation:
 ---------------------------------------------------------------------
 Center     Atomic      Atomic             Coordinates (Angstroms)
 Number     Number       Type             X           Y           Z
 ---------------------------------------------------------------------
      1          7           0        2.607809   -0.633273   -0.289060
      2          8           0        4.535914    0.259140    0.332464
      3          8           0        3.090070   -0.321551    1.954650
      4          6           0        3.219206   -0.281751   -1.564276
      5          6           0        4.644856    0.071547   -1.107235
      6          6           0        3.354057   -0.256302    0.759597
      7          1           0        1.651245   -0.976611   -0.173500
      8          1           0        2.703102    0.554864   -2.032736
      9          1           0        3.212921   -1.124297   -2.253498
     10          1           0        5.353554   -0.737208   -1.278773
     11          1           0        5.024371    0.991724   -1.536132
     12          7           0       -1.697722   -1.232941   -1.044824
     13          8           0       -2.094361   -2.212943    0.900055
     14          8           0        0.036669   -1.671441    0.426090
     15          6           0       -3.120183   -1.538075   -1.128774
     16          6           0       -3.406473   -1.956537    0.323504
     17          6           0       -1.141597   -1.684399    0.089013
     18          1           0       -1.131173   -0.867297   -1.813964
     19          1           0       -3.311928   -2.334205   -1.846516
     20          1           0       -3.697961   -0.662124   -1.418314
     21          1           0       -3.869865   -1.161811    0.906121
     22          1           0       -3.991602   -2.864954    0.407836
     23          7           0       -1.878722    1.429088    1.098577
     24          8           0       -1.482083    2.409090   -0.846303
     25          8           0       -3.613114    1.867588   -0.372337
     26          6           0       -0.456262    1.734222    1.182527
     27          6           0       -0.169971    2.152684   -0.269751
     28          6           0       -2.434847    1.880546   -0.035260
     29          1           0       -2.445272    1.063443    1.867717
     30          1           0       -0.264516    2.530351    1.900268
     31          1           0        0.121516    0.858272    1.472067
     32          1           0        0.293421    1.357959   -0.852368
     33          1           0        0.415158    3.061101   -0.354084
 ---------------------------------------------------------------------

 SCF Done:  E(RHF) =  -962.573113389     A.U. after    2 cycles

 The electronic state is 1-A.
 Alpha  occ. eigenvalues --  -20.63422 -20.62492 -20.60800 -20.56038 -20.54165
 Alpha  occ. eigenvalues --  -20.51761 -15.68465 -15.67074 -15.64297 -11.43956
 Alpha  occ. eigenvalues --  -11.42272 -11.40001 -11.33143 -11.32594 -11.31716
 Alpha  occ. eigenvalues --  -11.31090 -11.30010 -11.29878  -1.44507  -1.43340
 Alpha  occ. eigenvalues --   -1.41504  -1.33737  -1.31874  -1.29586  -1.23381
 Alpha  occ. eigenvalues --   -1.22081  -1.20175  -1.04274  -1.03276  -1.02353
 Alpha  occ. eigenvalues --   -0.90752  -0.89704  -0.88724  -0.85523  -0.84228
 Alpha  occ. eigenvalues --   -0.82517  -0.75049  -0.74223  -0.73291  -0.72438
 Alpha  occ. eigenvalues --   -0.71890  -0.71319  -0.69137  -0.67817  -0.66576
 Alpha  occ. eigenvalues --   -0.64751  -0.62747  -0.62297  -0.61966  -0.61240
 Alpha  occ. eigenvalues --   -0.60760  -0.60632  -0.60474  -0.60270  -0.59399
 Alpha  occ. eigenvalues --   -0.58700  -0.57922  -0.55236  -0.54320  -0.53585
 Alpha  occ. eigenvalues --   -0.49418  -0.49060  -0.48038  -0.47264  -0.46287
 Alpha  occ. eigenvalues --   -0.44926  -0.43481  -0.41210  -0.39579
 Alpha virt. eigenvalues --    0.01863   0.02744   0.03297   0.03850   0.04265
 Alpha virt. eigenvalues --    0.04788   0.05396   0.05908   0.06647   0.06977
 Alpha virt. eigenvalues --    0.07427   0.08052   0.08384   0.09256   0.09759

 Mulliken charges:
               1
     1  N   -0.181592
     2  O   -0.673594
     3  O   -0.491722
     4  C    0.702262
     5  C    0.886805
     6  C    0.697660
     7  H   -0.066519
     8  H   -0.290286
     9  H   -0.209753
    10  H   -0.178572
    11  H   -0.163403
    12  N   -0.180782
    13  O   -0.668988
    14  O   -0.500887
    15  C    0.868811
    16  C    0.822688
    17  C    0.597420
    18  H   -0.119575
    19  H   -0.244328
    20  H   -0.175307
    21  H   -0.229259
    22  H   -0.199203
    23  N   -0.232930
    24  O   -0.742913
    25  O   -0.554142
    26  C    1.014176
    27  C    1.027505
    28  C    0.711124
    29  H   -0.115707
    30  H   -0.250295
    31  H   -0.232774
    32  H   -0.413367
    33  H   -0.212553
 Sum of Mulliken charges =  -0.00000

 Dipole moment (field-independent basis, Debye):
    X=             -1.7375    Y=             -1.0295    Z=             -6.0500  Tot=              6.3782

 Test job not archived.
 1\1\GINC-SE108\SP\RHF\Aug-CC-pVDZ\C9H15N3O6\OHZDE\08-Apr-2025\0\\#t hf
  aug-cc-pvdz iop(5/13=1,5/36=2,99/5=2) pseudo=read geom=check guess=(r
 ead,tcheck) scf=(maxcycle=1)\\title\\0,1\N,0,7.885048,10.511445,5.3704
 38\O,0,6.875708,12.006394,4.087222\O,0,7.551157,12.675241,6.125743\C,0
 ,7.491717,9.719721,4.211985\C,0,7.051351,10.831913,3.244881\C,0,7.4655
 55,11.782764,5.290126\H,0,8.287993,10.13073,6.230055\H,0,6.687519,9.02
 875,4.460112\H,0,8.33072,9.149585,3.817056\H,0,7.813568,11.07137,2.504
 984\H,0,6.107802,10.631202,2.750776\N,0,8.750652,7.674945,8.637451\O,0

 Normal termination of Gaussian 16 at Tue Apr  8 19:22:07 2025.
