 Gaussian 16, Revision C.01,

 ----------------------------------------------------------------------
 #t hf aug-cc-pvdz symm=none int=(grid=ultrafine) guess=(read,tcheck) s
 table=(opt,rrhf)
 ----------------------------------------------------------------------
 -----
 title
 -----
 Symbolic Z-matrix:
 Charge =  0 Multiplicity = 1

 SCF Done:  E(RHF) =  -752.855107236     A.U. after   14 cycles
 Normal termination of Gaussian 16 at Tue Apr  8 18:42:20 2025.
 Gaussian 16:  ES64L-G16RevC.01  3-Jul-2019

 ----------------------------------------------------------------------
 #t hf aug-cc-pvdz iop(5/13=1,5/36=2,99/5=2) pseudo=read geom=check gue
 ss=(read,tcheck) scf=(maxcycle=1)
 ----------------------------------------------------------------------
 -----
 title
 -----
 Structure from the checkpoint file:  "3B-69_07a_oxalic_acid_dimerAB_mol1.chk"
 Charge =  0 Multiplicity = 1

                         Standard orientation:
 ---------------------------------------------------------------------
 Center     Atomic      Atomic             Coordinates (Angstroms)
 Number     Number       Type             X           Y           Z
 ---------------------------------------------------------------------
      1          6           0       -1.743220   -0.873457    0.170322
      2          1           0       -1.307127   -2.451442   -0.777149
      3          8           0       -1.438614   -1.292724    1.271901
      4          8           0       -1.674608   -1.537049   -0.950468
      5          6           0       -2.294757    0.548999   -0.021821
      6          8           0       -2.599363    0.968266   -1.123399
      7          8           0       -2.363368    1.212591    1.098970
      8          1           0       -2.730849    2.126984    0.925651
      9          6           0        1.728991    0.869516   -0.156521
     10          1           0        2.203108    2.699533   -0.091940
     11          8           0        0.552034    1.047236   -0.411931
     12          8           0        2.623947    1.799913    0.029624
     13          6           0        2.308986   -0.545059    0.008019
     14          8           0        3.485942   -0.722778    0.263429
     15          8           0        1.414030   -1.475456   -0.178125
     16          1           0        1.834868   -2.375075   -0.056562
 ---------------------------------------------------------------------

 SCF Done:  E(RHF) =  -753.095255343     A.U. after    2 cycles

 The electronic state is 1-A.
 Alpha  occ. eigenvalues --  -20.66898 -20.66856 -20.64824 -20.64782 -20.60390
 Alpha  occ. eigenvalues --  -20.60099 -20.57980 -20.57735 -11.44544 -11.44256
 Alpha  occ. eigenvalues --  -11.42230 -11.42043  -1.48342  -1.46121  -1.45719
 Alpha  occ. eigenvalues --   -1.43545  -1.36963  -1.35394  -1.34609  -1.33101
 Alpha  occ. eigenvalues --   -0.99351  -0.97093  -0.88360  -0.86237  -0.78239
 Alpha  occ. eigenvalues --   -0.75992  -0.75439  -0.74444  -0.72999  -0.72084
 Alpha  occ. eigenvalues --   -0.71117  -0.69094  -0.67351  -0.66432  -0.65575
 Alpha  occ. eigenvalues --   -0.64367  -0.62004  -0.59860  -0.56133  -0.53833
 Alpha  occ. eigenvalues --   -0.53171  -0.52818  -0.50849  -0.50519  -0.48833
 Alpha  occ. eigenvalues --   -0.46475
 Alpha virt. eigenvalues --    0.02437   0.02803   0.04245   0.05214   0.05539
 Alpha virt. eigenvalues --    0.08079   0.08336   0.08899   0.09655   0.10443
 Alpha virt. eigenvalues --    0.10933   0.11527   0.11992   0.12963   0.13145

 Mulliken charges:
               1
     1  C    0.717349
     2  H    0.253123
     3  O   -0.470269
     4  O   -0.477514
     5  C    0.703954
     6  O   -0.469131
     7  O   -0.489106
     8  H    0.257532
     9  C    0.480251
    10  H    0.245026
    11  O   -0.300846
    12  O   -0.439261
    13  C    0.631149
    14  O   -0.427907
    15  O   -0.487176
    16  H    0.272827
 Sum of Mulliken charges =  -0.00000

 Dipole moment (field-independent basis, Debye):
    X=              0.5122    Y=              0.2026    Z=             -0.0761  Tot=              0.5561

 Test job not archived.
 1\1\GINC-SE127\SP\RHF\Aug-CC-pVDZ\C4H4O8\OHZDE\08-Apr-2025\0\\#t hf au
 g-cc-pvdz iop(5/13=1,5/36=2,99/5=2) pseudo=read geom=check guess=(read
 ,tcheck) scf=(maxcycle=1)\\title\\0,1\C,0,-1.599714,6.025105,4.897591\
 H,0,-0.099127,5.378673,5.850628\O,0,-0.967931,6.64465,4.061493\O,0,-1.
 098297,5.340779,5.888304\C,0,-3.137243,6.004895,4.888196\O,0,-3.769026
 ,5.38535,5.724294\O,0,-3.63866,6.689221,3.897483\H,0,-4.63783,6.651327
 ,3.935158\C,0,-1.953003,3.017605,2.44175\H,0,-3.453591,2.371173,1.4887
 12\O,0,-2.584787,3.63715,3.277847\O,0,-2.45442,2.333279,1.451036\C,0,-

 Normal termination of Gaussian 16 at Tue Apr  8 18:42:30 2025.
