 Gaussian 16, Revision C.01,

 ----------------------------------------------------------------------
 #t hf aug-cc-pvdz symm=none int=(grid=ultrafine) guess=(read,tcheck) s
 table=(opt,rrhf)
 ----------------------------------------------------------------------
 -----
 title
 -----
 Symbolic Z-matrix:
 Charge =  0 Multiplicity = 1

 SCF Done:  E(RHF) =  -487.409148255     A.U. after   15 cycles
 Normal termination of Gaussian 16 at Tue Apr  8 18:33:16 2025.
 Gaussian 16:  ES64L-G16RevC.01  3-Jul-2019

 ----------------------------------------------------------------------
 #t hf aug-cc-pvdz iop(5/13=1,5/36=2,99/5=2) pseudo=read geom=check gue
 ss=(read,tcheck) scf=(maxcycle=1)
 ----------------------------------------------------------------------
 -----
 title
 -----
 Structure from the checkpoint file:  "3B-69_05c_nitromethane_dimerAB_mol1.chk"
 Charge =  0 Multiplicity = 1

                         Standard orientation:
 ---------------------------------------------------------------------
 Center     Atomic      Atomic             Coordinates (Angstroms)
 Number     Number       Type             X           Y           Z
 ---------------------------------------------------------------------
      1          6           0       -3.120737   -0.797252   -0.084179
      2          7           0       -1.941589    0.109609    0.023626
      3          8           0       -2.138310    1.300744    0.244979
      4          8           0       -0.830043   -0.384017   -0.086987
      5          1           0       -2.873144   -1.560640   -0.810160
      6          1           0       -3.259372   -1.243331    0.898851
      7          1           0       -3.984393   -0.207439   -0.360547
      8          6           0        1.869803    0.888811   -0.981389
      9          7           0        2.082495   -0.119922    0.096399
     10          8           0        2.169044   -1.302993   -0.218800
     11          8           0        2.188145    0.284614    1.243842
     12          1           0        1.258322    1.678833   -0.565374
     13          1           0        2.853496    1.273038   -1.244583
     14          1           0        1.413675    0.395597   -1.829237
 ---------------------------------------------------------------------

 SCF Done:  E(RHF) =  -487.562414975     A.U. after    2 cycles

 The electronic state is 1-A.
 Alpha  occ. eigenvalues --  -20.63246 -20.63215 -20.60445 -20.60298 -15.92914
 Alpha  occ. eigenvalues --  -15.90104 -11.33137 -11.30487  -1.56280  -1.53352
 Alpha  occ. eigenvalues --   -1.37583  -1.34678  -1.10518  -1.07709  -0.87654
 Alpha  occ. eigenvalues --   -0.84830  -0.77332  -0.76033  -0.75265  -0.74538
 Alpha  occ. eigenvalues --   -0.72827  -0.72045  -0.64170  -0.61548  -0.61405
 Alpha  occ. eigenvalues --   -0.58828  -0.52654  -0.52488  -0.49783  -0.49634
 Alpha  occ. eigenvalues --   -0.48651  -0.45775
 Alpha virt. eigenvalues --    0.02382   0.03586   0.04395   0.04931   0.05958
 Alpha virt. eigenvalues --    0.06884   0.07405   0.09138   0.09854   0.11127
 Alpha virt. eigenvalues --    0.13026   0.13687   0.14553   0.14973   0.15483

 Mulliken charges:
               1
     1  C    0.847060
     2  N    0.332578
     3  O   -0.555776
     4  O   -0.471895
     5  H   -0.064849
     6  H   -0.002482
     7  H   -0.093830
     8  C    0.908089
     9  N    0.539301
    10  O   -0.633765
    11  O   -0.624940
    12  H   -0.029436
    13  H   -0.069503
    14  H   -0.080551
 Sum of Mulliken charges =  -0.00000

 Dipole moment (field-independent basis, Debye):
    X=             -4.5510    Y=              0.2288    Z=             -3.3817  Tot=              5.6745

 Test job not archived.
 1\1\GINC-SE403\SP\RHF\Aug-CC-pVDZ\C2H6N2O4\OHZDE\08-Apr-2025\0\\#t hf
 aug-cc-pvdz iop(5/13=1,5/36=2,99/5=2) pseudo=read geom=check guess=(re
 ad,tcheck) scf=(maxcycle=1)\\title\\0,1\C,0,0.691316,6.61465,11.679005
 \N,0,1.868622,5.699059,11.686151\O,0,2.660061,5.771533,12.621496\O,0,1
 .974396,4.898353,10.770117\H,0,0.477227,6.854026,10.645575\H,0,-0.1361
 06,6.058747,12.115925\H,0,0.926871,7.482841,12.279769\C,0,4.493684,3.4
 9615,9.588495\N,0,3.316378,2.580559,9.581349\O,0,2.524939,2.653033,8.6
 46004\O,0,3.210604,1.779853,10.497383\H,0,4.707773,3.735526,10.621925\

 Normal termination of Gaussian 16 at Tue Apr  8 18:33:21 2025.
