 Gaussian 16, Revision C.01,

 ----------------------------------------------------------------------
 #t hf aug-cc-pvdz symm=none int=(grid=ultrafine) guess=(read,tcheck) s
 table=(opt,rrhf)
 ----------------------------------------------------------------------
 -----
 title
 -----
 Symbolic Z-matrix:
 Charge =  0 Multiplicity = 1

 SCF Done:  E(RHF) =  -453.326818673     A.U. after   15 cycles
 Normal termination of Gaussian 16 at Tue Apr  8 19:03:18 2025.
 Gaussian 16:  ES64L-G16RevC.01  3-Jul-2019

 ----------------------------------------------------------------------
 #t hf aug-cc-pvdz iop(5/13=1,5/36=2,99/5=2) pseudo=read geom=check gue
 ss=(read,tcheck) scf=(maxcycle=1)
 ----------------------------------------------------------------------
 -----
 title
 -----
 Structure from the checkpoint file:  "3B-69_20a_maleic_acid_dimerAC_mol2.chk"
 Charge =  0 Multiplicity = 1

                         Standard orientation:
 ---------------------------------------------------------------------
 Center     Atomic      Atomic             Coordinates (Angstroms)
 Number     Number       Type             X           Y           Z
 ---------------------------------------------------------------------
      1          6           0        1.547681   -0.052539   -0.004966
      2          6           0        0.632620    1.111986   -0.048616
      3          1           0        1.136331    2.070434   -0.089365
      4          6           0       -0.704600    1.113942   -0.066091
      5          1           0       -1.186726    2.080651   -0.126845
      6          6           0       -1.691629    0.001785    0.005851
      7          8           0        2.799717    0.306559    0.107765
      8          1           0        3.427442   -0.481468    0.097555
      9          8           0        1.193202   -1.231330   -0.091281
     10          8           0       -1.322110   -1.256757    0.015598
     11          1           0       -0.316031   -1.370035   -0.067729
     12          8           0       -2.891490    0.262700    0.076582
 ---------------------------------------------------------------------

 SCF Done:  E(RHF) =  -453.469852492     A.U. after    2 cycles

 The electronic state is 1-A.
 Alpha  occ. eigenvalues --  -20.68429 -20.61398 -20.59890 -20.55187 -11.46157
 Alpha  occ. eigenvalues --  -11.40180 -11.31741 -11.30990  -1.48464  -1.41149
 Alpha  occ. eigenvalues --   -1.37504  -1.30424  -1.12414  -0.98066  -0.88592
 Alpha  occ. eigenvalues --   -0.83059  -0.79734  -0.77029  -0.70737  -0.69298
 Alpha  occ. eigenvalues --   -0.68190  -0.64495  -0.63540  -0.61366  -0.59646
 Alpha  occ. eigenvalues --   -0.55672  -0.50866  -0.48244  -0.47285  -0.43697
 Alpha virt. eigenvalues --    0.01744   0.01882   0.03219   0.05362   0.06437
 Alpha virt. eigenvalues --    0.08681   0.09462   0.11116   0.11618   0.11953
 Alpha virt. eigenvalues --    0.12674   0.13462   0.13530   0.14625   0.15317

 Mulliken charges:
               1
     1  C    0.451832
     2  C    0.718551
     3  H   -0.397185
     4  C    0.592708
     5  H   -0.402517
     6  C    0.530282
     7  O   -0.519555
     8  H    0.283017
     9  O   -0.611918
    10  O   -0.483406
    11  H    0.321906
    12  O   -0.483714
 Sum of Mulliken charges =  -0.00000

 Dipole moment (field-independent basis, Debye):
    X=              7.0975    Y=              2.5445    Z=             -0.2618  Tot=              7.5443

 Test job not archived.
 1\1\GINC-SE028\SP\RHF\Aug-CC-pVDZ\C4H4O4\OHZDE\08-Apr-2025\0\\#t hf au
 g-cc-pvdz iop(5/13=1,5/36=2,99/5=2) pseudo=read geom=check guess=(read
 ,tcheck) scf=(maxcycle=1)\\title\\0,1\C,0,-1.812866,3.535867,7.854403\
 C,0,-3.01907,4.394092,7.79209\H,0,-2.805931,5.454418,7.726603\C,0,-4.3
 02655,4.018833,7.784558\H,0,-5.03774,4.808884,7.706247\C,0,-4.936171,2
 .675625,7.888204\O,0,-0.712671,4.235658,7.949894\H,0,0.111684,3.656381
 ,7.95226\O,0,-1.82085,2.30329,7.796572\O,0,-4.226933,1.57274,7.922753\
 H,0,-3.229793,1.745595,7.83442\O,0,-6.160859,2.5895,7.962157\\Version=

 Normal termination of Gaussian 16 at Tue Apr  8 19:03:25 2025.
