 Gaussian 16, Revision C.01,

 ----------------------------------------------------------------------
 #t hf aug-cc-pvdz symm=none int=(grid=ultrafine) guess=(read,tcheck) s
 table=(opt,rrhf)
 ----------------------------------------------------------------------
 -----
 title
 -----
 Symbolic Z-matrix:
 Charge =  0 Multiplicity = 1

 SCF Done:  E(RHF) =  -379.283118320     A.U. after   12 cycles
 Normal termination of Gaussian 16 at Tue Apr  8 19:04:11 2025.
 Gaussian 16:  ES64L-G16RevC.01  3-Jul-2019

 ----------------------------------------------------------------------
 #t hf aug-cc-pvdz iop(5/13=1,5/36=2,99/5=2) pseudo=read geom=check gue
 ss=(read,tcheck) scf=(maxcycle=1)
 ----------------------------------------------------------------------
 -----
 title
 -----
 Structure from the checkpoint file:  "3B-69_21a_p-benzoquinone_dimerAB_mol2.chk"
 Charge =  0 Multiplicity = 1

                         Standard orientation:
 ---------------------------------------------------------------------
 Center     Atomic      Atomic             Coordinates (Angstroms)
 Number     Number       Type             X           Y           Z
 ---------------------------------------------------------------------
      1          8           0       -2.656299    0.000049    0.002256
      2          6           0       -1.430532    0.001920   -0.003925
      3          6           0       -0.668254    1.271622   -0.003403
      4          1           0       -1.243047    2.189353    0.005770
      5          6           0       -0.668888   -1.269783    0.000173
      6          1           0       -1.257556   -2.180053   -0.006741
      7          8           0        2.656299   -0.000049   -0.002257
      8          6           0        1.430532   -0.001920    0.003925
      9          6           0        0.668887    1.269784   -0.000173
     10          1           0        1.257555    2.180054    0.006741
     11          6           0        0.668254   -1.271622    0.003404
     12          1           0        1.243047   -2.189353   -0.005770
 ---------------------------------------------------------------------

 SCF Done:  E(RHF) =  -379.396110632     A.U. after    2 cycles

 The electronic state is 1-A.
 Alpha  occ. eigenvalues --  -20.59573 -20.59573 -11.37535 -11.37530 -11.29515
 Alpha  occ. eigenvalues --  -11.29509 -11.29351 -11.29347  -1.37760  -1.37458
 Alpha  occ. eigenvalues --   -1.15535  -1.07546  -0.96360  -0.87931  -0.83800
 Alpha  occ. eigenvalues --   -0.72838  -0.72465  -0.70065  -0.65114  -0.63932
 Alpha  occ. eigenvalues --   -0.61496  -0.60667  -0.59797  -0.56829  -0.48298
 Alpha  occ. eigenvalues --   -0.45791  -0.42662  -0.41735
 Alpha virt. eigenvalues --   -0.00778   0.03083   0.03591   0.04717   0.05827
 Alpha virt. eigenvalues --    0.08615   0.09501   0.10136   0.11309   0.12467
 Alpha virt. eigenvalues --    0.13074   0.13166   0.13272   0.13649   0.14090

 Mulliken charges:
               1
     1  O   -0.505241
     2  C   -0.113605
     3  C    0.729297
     4  H   -0.406463
     5  C    0.705690
     6  H   -0.409677
     7  O   -0.505242
     8  C   -0.113601
     9  C    0.705687
    10  H   -0.409677
    11  C    0.729294
    12  H   -0.406463
 Sum of Mulliken charges =  -0.00000

 Dipole moment (field-independent basis, Debye):
    X=             -0.0000    Y=              0.0000    Z=              0.0000  Tot=              0.0000

 Test job not archived.
 1\1\GINC-SE284\SP\RHF\Aug-CC-pVDZ\C6H4O2\OHZDE\08-Apr-2025\0\\#t hf au
 g-cc-pvdz iop(5/13=1,5/36=2,99/5=2) pseudo=read geom=check guess=(read
 ,tcheck) scf=(maxcycle=1)\\title\\0,1\O,0,0.080654,12.312048,7.623703\
 C,0,-0.510475,11.31644,7.221364\C,0,0.018253,9.957365,7.479383\H,0,0.9
 42935,9.888301,8.038752\C,0,-1.783484,11.439808,6.471979\H,0,-2.138694
 ,12.448619,6.295076\O,0,-2.49858,8.000952,5.895778\C,0,-1.907451,8.996
 56,6.298118\C,0,-0.634441,8.873192,7.047503\H,0,-0.279231,7.864381,7.2
 24406\C,0,-2.436179,10.355635,6.040099\H,0,-3.360861,10.424699,5.48073

 Normal termination of Gaussian 16 at Tue Apr  8 19:04:21 2025.
