 Gaussian 16, Revision C.01,

 ----------------------------------------------------------------------
 #t hf aug-cc-pvdz symm=none int=(grid=ultrafine) guess=(read,tcheck) s
 table=(opt,rrhf)
 ----------------------------------------------------------------------
 -----
 title
 -----
 Symbolic Z-matrix:
 Charge =  0 Multiplicity = 1

 SCF Done:  E(RHF) =  -824.874373465     A.U. after   15 cycles
 Normal termination of Gaussian 16 at Tue Apr  8 19:12:25 2025.
 Gaussian 16:  ES64L-G16RevC.01  3-Jul-2019

 ----------------------------------------------------------------------
 #t hf aug-cc-pvdz iop(5/13=1,5/36=2,99/5=2) pseudo=read geom=check gue
 ss=(read,tcheck) scf=(maxcycle=1)
 ----------------------------------------------------------------------
 -----
 title
 -----
 Structure from the checkpoint file:  "3B-69_22c_uracil_dimerBC_mol1.chk"
 Charge =  0 Multiplicity = 1

                         Standard orientation:
 ---------------------------------------------------------------------
 Center     Atomic      Atomic             Coordinates (Angstroms)
 Number     Number       Type             X           Y           Z
 ---------------------------------------------------------------------
      1          6           0       -2.078640   -1.144696   -0.012164
      2          6           0       -1.928739    1.304965    0.068517
      3          6           0       -1.118060    1.186186    1.239994
      4          6           0       -0.834550   -0.036660    1.709229
      5          1           0       -0.279072   -0.189618    2.473878
      6          1           0       -1.072044   -1.929921    1.374555
      7          1           0       -2.838263    0.193834   -1.204226
      8          1           0       -0.791492    1.967231    1.627931
      9          7           0       -1.291459   -1.167329    1.110473
     10          7           0       -2.359869    0.121617   -0.472766
     11          8           0       -2.501320   -2.144034   -0.559834
     12          8           0       -2.254665    2.376350   -0.475645
     13          6           0        1.519565   -1.228794   -0.649602
     14          6           0        1.669468    1.220867   -0.568921
     15          6           0        2.480147    1.102089    0.602555
     16          6           0        2.763656   -0.120757    1.071791
     17          1           0        3.319134   -0.273716    1.836439
     18          1           0        2.526161   -2.014019    0.737118
     19          1           0        0.759942    0.109736   -1.841664
     20          1           0        2.806714    1.883133    0.990493
     21          7           0        2.306747   -1.251427    0.473035
     22          7           0        1.238337    0.037519   -1.110205
     23          8           0        1.096886   -2.228132   -1.197272
     24          8           0        1.343542    2.292253   -1.113084
 ---------------------------------------------------------------------

 SCF Done:  E(RHF) =  -825.115597608     A.U. after    2 cycles

 The electronic state is 1-A.
 Alpha  occ. eigenvalues --  -20.57611 -20.56060 -20.55910 -20.54623 -15.70858
 Alpha  occ. eigenvalues --  -15.69401 -15.69082 -15.67838 -11.44649 -11.43180
 Alpha  occ. eigenvalues --  -11.39739 -11.38513 -11.35330 -11.34165 -11.26435
 Alpha  occ. eigenvalues --  -11.25151  -1.42435  -1.40913  -1.36243  -1.34913
 Alpha  occ. eigenvalues --   -1.31669  -1.30252  -1.25084  -1.23759  -1.11897
 Alpha  occ. eigenvalues --   -1.10624  -0.98145  -0.96885  -0.94103  -0.92742
 Alpha  occ. eigenvalues --   -0.87654  -0.86346  -0.79822  -0.78472  -0.77681
 Alpha  occ. eigenvalues --   -0.76502  -0.71402  -0.70287  -0.70147  -0.69217
 Alpha  occ. eigenvalues --   -0.67837  -0.67288  -0.65060  -0.63755  -0.63431
 Alpha  occ. eigenvalues --   -0.62215  -0.59166  -0.57088  -0.55103  -0.53579
 Alpha  occ. eigenvalues --   -0.51158  -0.49695  -0.47210  -0.45941  -0.45428
 Alpha  occ. eigenvalues --   -0.43762  -0.39298  -0.37457
 Alpha virt. eigenvalues --    0.00261   0.02509   0.02857   0.04431   0.05481
 Alpha virt. eigenvalues --    0.05616   0.05712   0.06158   0.07285   0.07537
 Alpha virt. eigenvalues --    0.08284   0.08844   0.09917   0.10366   0.10716

 Mulliken charges:
               1
     1  C    0.651703
     2  C    0.211538
     3  C    1.374503
     4  C    1.469593
     5  H   -0.773785
     6  H   -0.540869
     7  H   -0.377159
     8  H   -0.934524
     9  N    0.046958
    10  N   -0.041381
    11  O   -0.469512
    12  O   -0.589965
    13  C    0.536547
    14  C    0.259956
    15  C    1.195275
    16  C    1.173058
    17  H   -0.662028
    18  H   -0.516129
    19  H   -0.423211
    20  H   -0.755909
    21  N    0.084767
    22  N    0.188614
    23  O   -0.482639
    24  O   -0.625401
 Sum of Mulliken charges =  -0.00000

 Dipole moment (field-independent basis, Debye):
    X=              6.0988    Y=             -3.2300    Z=              7.9607  Tot=             10.5357

 Test job not archived.
 1\1\GINC-SE187\SP\RHF\Aug-CC-pVDZ\C8H8N4O4\OHZDE\08-Apr-2025\0\\#t hf
 aug-cc-pvdz iop(5/13=1,5/36=2,99/5=2) pseudo=read geom=check guess=(re
 ad,tcheck) scf=(maxcycle=1)\\title\\0,1\C,0,8.26454,9.785332,3.107764\
 C,0,7.979082,12.222909,3.026813\C,0,6.571336,12.022418,2.879434\C,0,6.
 095124,10.769966,2.857103\H,0,5.162869,10.564154,2.785122\H,0,6.600568
 ,8.90577,3.005925\H,0,9.591364,11.203993,3.236764\H,0,6.024709,12.7745
 07,2.82715\N,0,6.904021,9.68422,2.969041\N,0,8.730514,11.08048,3.12366
 5\O,0,9.005743,8.826934,3.204553\O,0,8.547345,13.329695,3.074863\C,0,6

 Normal termination of Gaussian 16 at Tue Apr  8 19:12:54 2025.
