 Gaussian 16, Revision C.01,

 ----------------------------------------------------------------------
 #t hf aug-cc-pvdz symm=none int=(grid=ultrafine) guess=(read,tcheck) s
 table=(opt,rrhf)
 ----------------------------------------------------------------------
 -----
 title
 -----
 Symbolic Z-matrix:
 Charge =  0 Multiplicity = 1

 SCF Done:  E(RHF) =  -1129.30389239     A.U. after   13 cycles

 1\1\GINC-SE437\Stability\RHF\Aug-CC-pVDZ\C6H6O12\OHZDE\08-Apr-2025\0\\
 #t hf aug-cc-pvdz symm=none int=(grid=ultrafine) guess=(read,tcheck) s
 table=(opt,rrhf)\\title\\0,1\O,0,17.460467,7.487698,15.644572\O,0,16.6
 17781,6.366646,17.4072\C,0,16.79213,6.602179,16.134954\H,0,17.08704,7.
 008709,17.999664\O,0,15.336533,4.700302,15.765028\O,0,16.179219,5.8213
 54,14.0024\C,0,16.00487,5.585821,15.274646\H,0,15.70996,5.179291,13.40
 9936\O,0,15.336533,4.440698,11.838828\O,0,16.179219,3.319646,10.0762\C
 ,0,16.00487,3.555179,11.348446\H,0,15.70996,3.961709,9.483736\O,0,17.4

 Normal termination of Gaussian 16 at Tue Apr  8 18:51:36 2025.
 Gaussian 16:  ES64L-G16RevC.01  3-Jul-2019

 ----------------------------------------------------------------------
 #t hf aug-cc-pvdz iop(5/13=1,5/36=2,99/5=2) pseudo=read geom=check gue
 ss=(read,tcheck) scf=(maxcycle=1)
 ----------------------------------------------------------------------
 -----
 title
 -----
 Structure from the checkpoint file:  "3B-69_07c_oxalic_acid_trimer_mol1.chk"
 Charge =  0 Multiplicity = 1

                         Standard orientation:
 ---------------------------------------------------------------------
 Center     Atomic      Atomic             Coordinates (Angstroms)
 Number     Number       Type             X           Y           Z
 ---------------------------------------------------------------------
      1          8           0       -1.244585    2.667458   -0.972272
      2          8           0       -0.075541    4.333349   -0.006932
      3          6           0       -0.360810    3.083337   -0.253049
      4          1           0       -0.675254    4.976926   -0.464769
      5          8           0        1.474228    2.555618    1.239228
      6          8           0        0.305184    0.889727    0.273889
      7          6           0        0.590453    2.139740    0.520006
      8          1           0        0.904898    0.246150    0.731726
      9          8           0        1.561210   -1.373492    1.046944
     10          8           0        2.630903   -3.141315    0.150121
     11          6           0        2.445814   -1.869886    0.381843
     12          1           0        1.948419   -3.726512    0.568717
     13          8           0        4.408819   -1.515097   -0.994196
     14          8           0        3.339125    0.252726   -0.097373
     15          6           0        3.524214   -1.018703   -0.329094
     16          1           0        4.021609    0.837923   -0.515968
     17          8           0       -4.523640   -1.096441    0.860717
     18          8           0       -3.453947   -2.864264   -0.036106
     19          6           0       -3.639036   -1.592835    0.195616
     20          1           0       -4.136431   -3.449461    0.382490
     21          8           0       -1.676031   -1.238046   -1.180422
     22          8           0       -2.745725    0.529777   -0.283600
     23          6           0       -2.560636   -0.741652   -0.515321
     24          1           0       -2.063241    1.114974   -0.702195
 ---------------------------------------------------------------------

 SCF Done:  E(RHF) =  -1129.66476382     A.U. after    2 cycles

 The electronic state is 1-A.
 Alpha  occ. eigenvalues --  -20.67846 -20.67240 -20.67221 -20.64674 -20.63536
 Alpha  occ. eigenvalues --  -20.62387 -20.61518 -20.61471 -20.60888 -20.58966
 Alpha  occ. eigenvalues --  -20.57954 -20.56927 -11.46371 -11.45237 -11.45106
 Alpha  occ. eigenvalues --  -11.43173 -11.41863 -11.41033  -1.49352  -1.48182
 Alpha  occ. eigenvalues --   -1.46443  -1.45420  -1.44173  -1.42005  -1.38909
 Alpha  occ. eigenvalues --   -1.37951  -1.36591  -1.34538  -1.34476  -1.32335
 Alpha  occ. eigenvalues --   -1.00672  -0.99192  -0.96641  -0.90206  -0.88617
 Alpha  occ. eigenvalues --   -0.86339  -0.79607  -0.78360  -0.77240  -0.76257
 Alpha  occ. eigenvalues --   -0.75215  -0.74857  -0.73058  -0.72499  -0.72007
 Alpha  occ. eigenvalues --   -0.71209  -0.70528  -0.68472  -0.68254  -0.67297
 Alpha  occ. eigenvalues --   -0.66891  -0.65226  -0.64331  -0.63137  -0.62902
 Alpha  occ. eigenvalues --   -0.61372  -0.59030  -0.57484  -0.55951  -0.55254
 Alpha  occ. eigenvalues --   -0.54509  -0.53498  -0.53421  -0.51280  -0.50894
 Alpha  occ. eigenvalues --   -0.50054  -0.49381  -0.48440  -0.45776
 Alpha virt. eigenvalues --    0.02498   0.02828   0.03536   0.04041   0.04584
 Alpha virt. eigenvalues --    0.05802   0.06377   0.06815   0.08201   0.08460
 Alpha virt. eigenvalues --    0.08952   0.09365   0.09580   0.10235   0.10677

 Mulliken charges:
               1
     1  O   -0.487338
     2  O   -0.473420
     3  C    0.619214
     4  H    0.261886
     5  O   -0.409410
     6  O   -0.374806
     7  C    0.521518
     8  H    0.329192
     9  O   -0.455454
    10  O   -0.450910
    11  C    0.611377
    12  H    0.250328
    13  O   -0.399672
    14  O   -0.459315
    15  C    0.577011
    16  H    0.269594
    17  O   -0.424331
    18  O   -0.461488
    19  C    0.561688
    20  H    0.253143
    21  O   -0.413722
    22  O   -0.391740
    23  C    0.609487
    24  H    0.337168
 Sum of Mulliken charges =  -0.00000

 Dipole moment (field-independent basis, Debye):
    X=              1.5478    Y=             -0.0609    Z=              0.0388  Tot=              1.5495

 Test job not archived.
 1\1\GINC-SE437\SP\RHF\Aug-CC-pVDZ\C6H6O12\OHZDE\08-Apr-2025\0\\#t hf a
 ug-cc-pvdz iop(5/13=1,5/36=2,99/5=2) pseudo=read geom=check guess=(rea
 d,tcheck) scf=(maxcycle=1)\\title\\0,1\O,0,17.460467,7.487698,15.64457
 2\O,0,16.617781,6.366646,17.4072\C,0,16.79213,6.602179,16.134954\H,0,1
 7.08704,7.008709,17.999664\O,0,15.336533,4.700302,15.765028\O,0,16.179
 219,5.821354,14.0024\C,0,16.00487,5.585821,15.274646\H,0,15.70996,5.17
 9291,13.409936\O,0,15.336533,4.440698,11.838828\O,0,16.179219,3.319646
 ,10.0762\C,0,16.00487,3.555179,11.348446\H,0,15.70996,3.961709,9.48373

 Normal termination of Gaussian 16 at Tue Apr  8 18:51:55 2025.
