 Gaussian 16, Revision C.01,

 ----------------------------------------------------------------------
 #t hf aug-cc-pvdz symm=none int=(grid=ultrafine) guess=(read,tcheck) s
 table=(opt,rrhf)
 ----------------------------------------------------------------------
 -----
 title
 -----
 Symbolic Z-matrix:
 Charge =  0 Multiplicity = 1

 SCF Done:  E(RHF) =  -610.990085459     A.U. after   14 cycles
 Normal termination of Gaussian 16 at Tue Apr  8 19:12:35 2025.
 Gaussian 16:  ES64L-G16RevC.01  3-Jul-2019

 ----------------------------------------------------------------------
 #t hf aug-cc-pvdz iop(5/13=1,5/36=2,99/5=2) pseudo=read geom=check gue
 ss=(read,tcheck) scf=(maxcycle=1)
 ----------------------------------------------------------------------
 -----
 title
 -----
 Structure from the checkpoint file:  "3B-69_23b_cyclobutylfuran_dimerBC_mol1.chk"
 Charge =  0 Multiplicity = 1

                         Standard orientation:
 ---------------------------------------------------------------------
 Center     Atomic      Atomic             Coordinates (Angstroms)
 Number     Number       Type             X           Y           Z
 ---------------------------------------------------------------------
      1          6           0        3.628976    1.358381    0.005881
      2          6           0        2.591250    0.494908    0.016889
      3          6           0        1.148588    0.005705    0.027042
      4          6           0        1.739594   -1.465922    0.033352
      5          6           0        3.118825   -0.822303    0.001406
      6          6           0        4.465552   -0.728967   -0.022048
      7          8           0        4.794139    0.617683   -0.019631
      8          1           0        3.762361    2.423502    0.014711
      9          1           0        0.580595    0.252149   -0.869497
     10          1           0        0.571317    0.273093    0.910815
     11          1           0        1.476640   -2.060203   -0.837529
     12          1           0        1.515673   -2.032097    0.934781
     13          1           0        5.307278   -1.395930   -0.028627
     14          6           0       -4.281584   -0.856954    0.006621
     15          6           0       -3.714707    0.368292    0.004633
     16          6           0       -3.613553    1.888234    0.020179
     17          6           0       -2.040003    1.696738   -0.027597
     18          6           0       -2.306123    0.197869   -0.016975
     19          6           0       -2.049219   -1.127606   -0.024242
     20          8           0       -3.265641   -1.792093   -0.009651
     21          1           0       -5.276420   -1.260186    0.014294
     22          1           0       -3.976173    2.356820    0.934547
     23          1           0       -4.041673    2.393332   -0.844333
     24          1           0       -1.512589    2.087822    0.838218
     25          1           0       -1.572385    2.075671   -0.933695
     26          1           0       -1.188181   -1.768949   -0.050283
 ---------------------------------------------------------------------

 SCF Done:  E(RHF) =  -611.176201555     A.U. after    2 cycles

 The electronic state is 1-A.
 Alpha  occ. eigenvalues --  -20.62734 -20.62445 -11.29892 -11.29827 -11.29622
 Alpha  occ. eigenvalues --  -11.29565 -11.26232 -11.26162 -11.26023 -11.25905
 Alpha  occ. eigenvalues --  -11.23513 -11.23333 -11.23247 -11.23095  -1.39822
 Alpha  occ. eigenvalues --   -1.39554  -1.14970  -1.14712  -1.00046  -0.99710
 Alpha  occ. eigenvalues --   -0.98506  -0.98254  -0.88275  -0.87687  -0.79186
 Alpha  occ. eigenvalues --   -0.78336  -0.75068  -0.74762  -0.72323  -0.71711
 Alpha  occ. eigenvalues --   -0.65869  -0.65477  -0.62055  -0.61813  -0.61140
 Alpha  occ. eigenvalues --   -0.60832  -0.58933  -0.58518  -0.53777  -0.53089
 Alpha  occ. eigenvalues --   -0.52360  -0.52164  -0.50978  -0.50839  -0.45879
 Alpha  occ. eigenvalues --   -0.45574  -0.38937  -0.38588  -0.31986  -0.31654
 Alpha virt. eigenvalues --    0.03059   0.03777   0.03861   0.04460   0.04685
 Alpha virt. eigenvalues --    0.04802   0.05804   0.06190   0.07283   0.07395
 Alpha virt. eigenvalues --    0.07585   0.09574   0.09680   0.09799   0.10429

 Mulliken charges:
               1
     1  C    1.167237
     2  C   -0.525781
     3  C    0.210792
     4  C    0.742795
     5  C   -0.752606
     6  C    1.132515
     7  O   -0.677225
     8  H   -0.383123
     9  H   -0.181402
    10  H   -0.201277
    11  H   -0.125975
    12  H   -0.110511
    13  H   -0.381004
    14  C    1.267500
    15  C   -0.795750
    16  C    0.477235
    17  C    0.541772
    18  C   -1.058784
    19  C    1.460778
    20  O   -0.652572
    21  H   -0.410106
    22  H   -0.043327
    23  H   -0.072000
    24  H   -0.102560
    25  H   -0.082853
    26  H   -0.443767
 Sum of Mulliken charges =  -0.00000

 Dipole moment (field-independent basis, Debye):
    X=             -1.5699    Y=              1.1933    Z=              0.0350  Tot=              1.9722

 Test job not archived.
 1\1\GINC-SE457\SP\RHF\Aug-CC-pVDZ\C12H12O2\OHZDE\08-Apr-2025\0\\#t hf
 aug-cc-pvdz iop(5/13=1,5/36=2,99/5=2) pseudo=read geom=check guess=(re
 ad,tcheck) scf=(maxcycle=1)\\title\\0,1\C,0,9.633653,11.628619,4.88436
 2\C,0,8.707305,11.331693,5.820469\C,0,7.822565,10.485713,6.72725\C,0,7
 .238541,11.850722,7.284636\C,0,8.19906,12.55267,6.334786\C,0,8.830902,
 13.563949,5.70152\O,0,9.722723,13.004064,4.800063\H,0,10.281234,11.085
 372,4.222642\H,0,8.363944,9.898852,7.468624\H,0,7.100363,9.851695,6.21
 5159\H,0,7.416903,12.017496,8.343466\H,0,6.183244,12.004402,7.07016\H,

 Normal termination of Gaussian 16 at Tue Apr  8 19:12:58 2025.
