 Gaussian 16, Revision C.01,

 ----------------------------------------------------------------------
 #t hf aug-cc-pvdz symm=none int=(grid=ultrafine) guess=(read,tcheck) s
 table=(opt,rrhf)
 ----------------------------------------------------------------------
 -----
 title
 -----
 Symbolic Z-matrix:
 Charge =  0 Multiplicity = 1

 SCF Done:  E(RHF) =  -557.466827418     A.U. after   13 cycles
 Normal termination of Gaussian 16 at Tue Apr  8 19:02:23 2025.
 Gaussian 16:  ES64L-G16RevC.01  3-Jul-2019

 ----------------------------------------------------------------------
 #t hf aug-cc-pvdz iop(5/13=1,5/36=2,99/5=2) pseudo=read geom=check gue
 ss=(read,tcheck) scf=(maxcycle=1)
 ----------------------------------------------------------------------
 -----
 title
 -----
 Structure from the checkpoint file:  "3B-69_13c_triazine_dimerAC_mol1.chk"
 Charge =  0 Multiplicity = 1

                         Standard orientation:
 ---------------------------------------------------------------------
 Center     Atomic      Atomic             Coordinates (Angstroms)
 Number     Number       Type             X           Y           Z
 ---------------------------------------------------------------------
      1          6           0       -1.111720    1.392425   -0.606750
      2          7           0       -1.727874    0.207916   -0.606750
      3          1           0       -0.029616    1.392425   -0.606750
      4          6           0       -3.061765    2.518283   -0.606750
      5          7           0       -1.727874    2.576933   -0.606750
      6          1           0       -3.602817    3.455412   -0.606750
      7          6           0       -3.061765    0.266566   -0.606750
      8          7           0       -3.779502    1.392425   -0.606750
      9          1           0       -3.602817   -0.670563   -0.606750
     10          6           0        3.061765   -2.518283    0.606750
     11          7           0        3.779502   -1.392425    0.606750
     12          1           0        3.602817   -3.455412    0.606750
     13          6           0        1.111720   -1.392425    0.606750
     14          7           0        1.727874   -2.576933    0.606750
     15          1           0        0.029616   -1.392425    0.606750
     16          6           0        3.061765   -0.266566    0.606750
     17          7           0        1.727874   -0.207916    0.606750
     18          1           0        3.602817    0.670563    0.606750
 ---------------------------------------------------------------------

 SCF Done:  E(RHF) =  -557.624467990     A.U. after    2 cycles

 The electronic state is 1-AG.
 Alpha  occ. eigenvalues --  -15.65352 -15.65352 -15.65280 -15.65280 -15.65149
 Alpha  occ. eigenvalues --  -15.65149 -11.35618 -11.35618 -11.35500 -11.35500
 Alpha  occ. eigenvalues --  -11.35145 -11.35145  -1.33232  -1.33203  -1.18569
 Alpha  occ. eigenvalues --   -1.18380  -1.18316  -1.18249  -0.92907  -0.92759
 Alpha  occ. eigenvalues --   -0.92667  -0.92621  -0.76708  -0.76266  -0.74681
 Alpha  occ. eigenvalues --   -0.74576  -0.62527  -0.62265  -0.61975  -0.61559
 Alpha  occ. eigenvalues --   -0.61037  -0.60957  -0.56906  -0.56160  -0.43872
 Alpha  occ. eigenvalues --   -0.43801  -0.43780  -0.43614  -0.43497  -0.43343
 Alpha  occ. eigenvalues --   -0.43032  -0.42872
 Alpha virt. eigenvalues --    0.03417   0.03436   0.03689   0.04376   0.05185
 Alpha virt. eigenvalues --    0.06071   0.07487   0.07711   0.07822   0.08293
 Alpha virt. eigenvalues --    0.08547   0.08809   0.09941   0.10382   0.11528

 Mulliken charges:
               1
     1  C    0.651194
     2  N   -0.400065
     3  H   -0.251526
     4  C    0.722047
     5  N   -0.453152
     6  H   -0.210942
     7  C    0.691038
     8  N   -0.494191
     9  H   -0.254403
    10  C    0.722047
    11  N   -0.494191
    12  H   -0.210942
    13  C    0.651194
    14  N   -0.453152
    15  H   -0.251526
    16  C    0.691038
    17  N   -0.400065
    18  H   -0.254403
 Sum of Mulliken charges =  -0.00000

 Dipole moment (field-independent basis, Debye):
    X=              0.0000    Y=              0.0000    Z=             -0.0000  Tot=              0.0000

 Test job not archived.
 1\1\GINC-SE105\SP\RHF\Aug-CC-pVDZ\C6H6N6\OHZDE\08-Apr-2025\0\\#t hf au
 g-cc-pvdz iop(5/13=1,5/36=2,99/5=2) pseudo=read geom=check guess=(read
 ,tcheck) scf=(maxcycle=1)\\title\\0,1\C,0,-3.52347,13.924245,6.67425\N
 ,0,-4.139624,12.739737,6.67425\H,0,-2.441366,13.924245,6.67425\C,0,-5.
 473515,15.050104,6.67425\N,0,-4.139624,15.108753,6.67425\H,0,-6.014567
 ,15.987233,6.67425\C,0,-5.473515,12.798386,6.67425\N,0,-6.191252,13.92
 4245,6.67425\H,0,-6.014567,11.861257,6.67425\C,0,0.650015,10.013537,7.
 88775\N,0,1.367752,11.139396,7.88775\H,0,1.191067,9.076408,7.88775\C,0

 Normal termination of Gaussian 16 at Tue Apr  8 19:02:31 2025.
