 Gaussian 16, Revision C.01,

 ----------------------------------------------------------------------
 #t hf aug-cc-pvdz symm=none int=(grid=ultrafine) guess=(read,tcheck) s
 table=(opt,rrhf)
 ----------------------------------------------------------------------
 -----
 title
 -----
 Symbolic Z-matrix:
 Charge =  0 Multiplicity = 1

 SCF Done:  E(RHF) =  -624.041932553     A.U. after   13 cycles
 Normal termination of Gaussian 16 at Tue Apr  8 18:58:30 2025.
 Gaussian 16:  ES64L-G16RevC.01  3-Jul-2019

 ----------------------------------------------------------------------
 #t hf aug-cc-pvdz iop(5/13=1,5/36=2,99/5=2) pseudo=read geom=check gue
 ss=(read,tcheck) scf=(maxcycle=1)
 ----------------------------------------------------------------------
 -----
 title
 -----
 Structure from the checkpoint file:  "3B-69_09c_acetamide_trimer_mol1.chk"
 Charge =  0 Multiplicity = 1

                         Standard orientation:
 ---------------------------------------------------------------------
 Center     Atomic      Atomic             Coordinates (Angstroms)
 Number     Number       Type             X           Y           Z
 ---------------------------------------------------------------------
      1          6           0        4.932764   -1.380337    0.473244
      2          6           0        3.801533   -0.618548   -0.176202
      3          8           0        2.672066   -1.137640   -0.299615
      4          7           0        4.080926    0.598631   -0.640720
      5          1           0        3.420415    1.092525   -1.244297
      6          1           0        5.015808    0.993260   -0.516477
      7          1           0        5.478885   -1.903917   -0.313991
      8          1           0        5.633396   -0.727980    0.990246
      9          1           0        4.540089   -2.117505    1.167317
     10          6           0       -2.970287   -1.395362    0.648336
     11          6           0       -4.101517   -0.633572   -0.001110
     12          8           0       -5.230985   -1.152664   -0.124523
     13          7           0       -3.822125    0.583607   -0.465629
     14          1           0       -4.482636    1.077500   -1.069206
     15          1           0       -2.887244    0.978236   -0.341384
     16          1           0       -2.424166   -1.918941   -0.138899
     17          1           0       -2.269655   -0.743004    1.165338
     18          1           0       -3.362963   -2.132530    1.342409
     19          6           0        0.983105    1.847544    0.922654
     20          6           0       -0.148910    1.249348    0.121101
     21          8           0       -1.277769    1.784166    0.115563
     22          7           0        0.129154    0.164552   -0.600884
     23          1           0       -0.531841   -0.183037   -1.298577
     24          1           0        1.063570   -0.248839   -0.567013
     25          1           0        1.529922    2.531486    0.270476
     26          1           0        1.682927    1.096288    1.282668
     27          1           0        0.591181    2.413603    1.762488
 ---------------------------------------------------------------------

 SCF Done:  E(RHF) =  -624.240715835     A.U. after    2 cycles

 The electronic state is 1-A.
 Alpha  occ. eigenvalues --  -20.56874 -20.53504 -20.49110 -15.69692 -15.64722
 Alpha  occ. eigenvalues --  -15.60970 -11.40783 -11.37347 -11.33134 -11.27838
 Alpha  occ. eigenvalues --  -11.25453 -11.22065  -1.37083  -1.33701  -1.29079
 Alpha  occ. eigenvalues --   -1.22368  -1.18182  -1.14224  -1.03231  -1.00560
 Alpha  occ. eigenvalues --   -0.96983  -0.84308  -0.80541  -0.76616  -0.76268
 Alpha  occ. eigenvalues --   -0.73827  -0.70410  -0.69595  -0.66366  -0.65405
 Alpha  occ. eigenvalues --   -0.63716  -0.62568  -0.62424  -0.59695  -0.59001
 Alpha  occ. eigenvalues --   -0.58944  -0.57258  -0.56067  -0.54960  -0.53940
 Alpha  occ. eigenvalues --   -0.52964  -0.49513  -0.47997  -0.46051  -0.44711
 Alpha  occ. eigenvalues --   -0.41956  -0.40250  -0.37686
 Alpha virt. eigenvalues --    0.00877   0.02570   0.03089   0.03621   0.05092
 Alpha virt. eigenvalues --    0.05337   0.05493   0.06197   0.06670   0.06907
 Alpha virt. eigenvalues --    0.07816   0.08582   0.09343   0.09624   0.10684

 Mulliken charges:
               1
     1  C    0.446005
     2  C    0.282696
     3  O   -0.582949
     4  N   -0.156985
     5  H    0.011125
     6  H    0.030474
     7  H    0.071855
     8  H   -0.086488
     9  H   -0.016472
    10  C    0.476524
    11  C    0.394266
    12  O   -0.614626
    13  N   -0.097501
    14  H   -0.026735
    15  H    0.044767
    16  H    0.004771
    17  H   -0.124430
    18  H   -0.053423
    19  C    0.621683
    20  C    0.189086
    21  O   -0.613460
    22  N   -0.053249
    23  H    0.001468
    24  H   -0.006240
    25  H    0.022534
    26  H   -0.124374
    27  H   -0.040321
 Sum of Mulliken charges =  -0.00000

 Dipole moment (field-independent basis, Debye):
    X=             14.9155    Y=              2.5347    Z=             -0.8257  Tot=             15.1519

 Test job not archived.
 1\1\GINC-SE461\SP\RHF\Aug-CC-pVDZ\C6H15N3O3\OHZDE\08-Apr-2025\0\\#t hf
  aug-cc-pvdz iop(5/13=1,5/36=2,99/5=2) pseudo=read geom=check guess=(r
 ead,tcheck) scf=(maxcycle=1)\\title\\0,1\C,0,7.996134,3.456191,13.3638
 9\C,0,9.504286,3.375543,13.391436\O,0,10.101066,2.418723,12.854098\N,0
 ,10.149217,4.340524,14.045834\H,0,11.145574,4.254138,14.25636\H,0,9.62
 7308,5.111269,14.468606\H,0,7.618679,2.972605,14.267104\H,0,7.632469,4
 .481583,13.355768\H,0,7.606727,2.923905,12.501115\C,0,13.742134,0.1387
 36,9.066557\C,0,15.250286,0.058089,9.094103\O,0,15.847066,-0.898732,8.

 Normal termination of Gaussian 16 at Tue Apr  8 18:58:48 2025.
