 Gaussian 16, Revision C.01,

 ----------------------------------------------------------------------
 #t hf aug-cc-pvdz symm=none int=(grid=ultrafine) guess=(read,tcheck) s
 table=(opt,rrhf)
 ----------------------------------------------------------------------
 -----
 title
 -----
 Symbolic Z-matrix:
 Charge =  0 Multiplicity = 1

 SCF Done:  E(RHF) =  -345.187877346     A.U. after   12 cycles

 1\1\GINC-SE195\Stability\RHF\Aug-CC-pVDZ\C3H12O3\OHZDE\08-Apr-2025\0\\
 #t hf aug-cc-pvdz symm=none int=(grid=ultrafine) guess=(read,tcheck) s
 table=(opt,rrhf)\\title\\0,1\O,0,3.211523,12.095308,13.092198\H,0,4.06
 5726,12.592587,13.07324\C,0,3.425896,10.840226,13.751501\H,0,4.053811,
 10.192498,13.135247\H,0,2.456381,10.363499,13.883414\H,0,3.894402,10.9
 68294,14.729265\O,0,0.929023,13.503692,13.237802\H,0,1.783226,13.00641
 3,13.25676\C,0,1.143396,14.758774,12.578499\H,0,1.771311,15.406502,13.
 194753\H,0,0.173881,15.235501,12.446586\H,0,1.611902,14.630706,11.6007

 Normal termination of Gaussian 16 at Tue Apr  8 18:29:16 2025.
 Gaussian 16:  ES64L-G16RevC.01  3-Jul-2019

 ----------------------------------------------------------------------
 #t hf aug-cc-pvdz iop(5/13=1,5/36=2,99/5=2) pseudo=read geom=check gue
 ss=(read,tcheck) scf=(maxcycle=1)
 ----------------------------------------------------------------------
 -----
 title
 -----
 Structure from the checkpoint file:  "3B-69_03a_methanol_ethyne_trimer_mol1.chk"
 Charge =  0 Multiplicity = 1

                         Standard orientation:
 ---------------------------------------------------------------------
 Center     Atomic      Atomic             Coordinates (Angstroms)
 Number     Number       Type             X           Y           Z
 ---------------------------------------------------------------------
      1          8           0       -0.168403    1.120818    0.285425
      2          1           0        0.688695    0.641635    0.171083
      3          6           0        0.036813    2.506891   -0.018803
      4          1           0        0.662807    2.972568    0.745968
      5          1           0       -0.935809    2.995394   -0.018677
      6          1           0        0.503167    2.644888   -0.996244
      7          8           0       -2.443191   -0.213332   -0.224412
      8          1           0       -1.591919    0.276648   -0.112324
      9          6           0       -2.219670   -1.596696    0.079250
     10          1           0       -1.589860   -2.054436   -0.687178
     11          1           0       -3.186037   -2.097453    0.081682
     12          1           0       -1.749032   -1.728771    1.055456
     13          8           0        2.121714   -0.184482   -0.230434
     14          1           0        2.972986    0.305499   -0.118345
     15          6           0        2.345235   -1.567845    0.073228
     16          1           0        2.975045   -2.025585   -0.693199
     17          1           0        1.378867   -2.068602    0.075661
     18          1           0        2.815873   -1.699920    1.049434
 ---------------------------------------------------------------------

 SCF Done:  E(RHF) =  -345.305945986     A.U. after    2 cycles

 The electronic state is 1-A.
 Alpha  occ. eigenvalues --  -20.61497 -20.55887 -20.51786 -11.31072 -11.27978
 Alpha  occ. eigenvalues --  -11.25509  -1.35269  -1.30399  -1.25855  -0.95517
 Alpha  occ. eigenvalues --   -0.92148  -0.89218  -0.74226  -0.70728  -0.66705
 Alpha  occ. eigenvalues --   -0.65727  -0.63169  -0.62019  -0.59407  -0.59047
 Alpha  occ. eigenvalues --   -0.56237  -0.54999  -0.51395  -0.49783  -0.47264
 Alpha  occ. eigenvalues --   -0.45408  -0.42204
 Alpha virt. eigenvalues --    0.02132   0.03929   0.04483   0.04806   0.05859
 Alpha virt. eigenvalues --    0.06421   0.07032   0.07583   0.08191   0.08749
 Alpha virt. eigenvalues --    0.10756   0.11663   0.13442   0.13959   0.14581

 Mulliken charges:
               1
     1  O   -0.543701
     2  H    0.214633
     3  C    0.876201
     4  H   -0.175684
     5  H   -0.245484
     6  H   -0.139560
     7  O   -0.494772
     8  H    0.222689
     9  C    0.894043
    10  H   -0.156738
    11  H   -0.253129
    12  H   -0.164988
    13  O   -0.605066
    14  H    0.189273
    15  C    0.896945
    16  H   -0.156252
    17  H   -0.225635
    18  H   -0.132776
 Sum of Mulliken charges =  -0.00000

 Dipole moment (field-independent basis, Debye):
    X=              6.3919    Y=             -0.7194    Z=              0.5340  Tot=              6.4543

 Test job not archived.
 1\1\GINC-SE195\SP\RHF\Aug-CC-pVDZ\C3H12O3\OHZDE\08-Apr-2025\0\\#t hf a
 ug-cc-pvdz iop(5/13=1,5/36=2,99/5=2) pseudo=read geom=check guess=(rea
 d,tcheck) scf=(maxcycle=1)\\title\\0,1\O,0,3.211523,12.095308,13.09219
 8\H,0,4.065726,12.592587,13.07324\C,0,3.425896,10.840226,13.751501\H,0
 ,4.053811,10.192498,13.135247\H,0,2.456381,10.363499,13.883414\H,0,3.8
 94402,10.968294,14.729265\O,0,0.929023,13.503692,13.237802\H,0,1.78322
 6,13.006413,13.25676\C,0,1.143396,14.758774,12.578499\H,0,1.771311,15.
 406502,13.194753\H,0,0.173881,15.235501,12.446586\H,0,1.611902,14.6307

 Normal termination of Gaussian 16 at Tue Apr  8 18:29:22 2025.
