 Gaussian 16, Revision C.01,

 ----------------------------------------------------------------------
 #t hf aug-cc-pvdz symm=none int=(grid=ultrafine) guess=(read,tcheck) s
 table=(opt,rrhf)
 ----------------------------------------------------------------------
 -----
 title
 -----
 Symbolic Z-matrix:
 Charge =  0 Multiplicity = 1

 SCF Done:  E(RHF) =  -591.816820969     A.U. after   15 cycles
 Normal termination of Gaussian 16 at Tue Apr  8 19:03:36 2025.
 Gaussian 16:  ES64L-G16RevC.01  3-Jul-2019

 ----------------------------------------------------------------------
 #t hf aug-cc-pvdz iop(5/13=1,5/36=2,99/5=2) pseudo=read geom=check gue
 ss=(read,tcheck) scf=(maxcycle=1)
 ----------------------------------------------------------------------
 -----
 title
 -----
 Structure from the checkpoint file:  "3B-69_15b_cyanoguanidine_dimerAC_mol1.chk"
 Charge =  0 Multiplicity = 1

                         Standard orientation:
 ---------------------------------------------------------------------
 Center     Atomic      Atomic             Coordinates (Angstroms)
 Number     Number       Type             X           Y           Z
 ---------------------------------------------------------------------
      1          7           0        0.038685   -1.877647    0.571007
      2          6           0       -0.925814   -1.430759    0.084748
      3          7           0       -1.976930   -0.999299   -0.533699
      4          6           0       -2.792105   -0.101351    0.043104
      5          7           0       -2.570772    0.435813    1.248029
      6          7           0       -3.863559    0.286334   -0.646936
      7          1           0       -3.286181    1.020979    1.663136
      8          1           0       -1.781403    0.168974    1.823901
      9          1           0       -4.492752    0.965267   -0.232872
     10          1           0       -4.063562   -0.150950   -1.546265
     11          7           0       -0.038684    1.877647   -0.571007
     12          6           0        0.925814    1.430758   -0.084748
     13          7           0        1.976930    0.999299    0.533699
     14          6           0        2.792104    0.101351   -0.043104
     15          7           0        2.570772   -0.435813   -1.248029
     16          7           0        3.863558   -0.286334    0.646936
     17          1           0        3.286181   -1.020978   -1.663136
     18          1           0        1.781403   -0.168974   -1.823901
     19          1           0        4.492752   -0.965267    0.232872
     20          1           0        4.063562    0.150950    1.546265
 ---------------------------------------------------------------------

 SCF Done:  E(RHF) =  -591.995689768     A.U. after    2 cycles

 The electronic state is 1-A.
 Alpha  occ. eigenvalues --  -15.67344 -15.67344 -15.67005 -15.67005 -15.60342
 Alpha  occ. eigenvalues --  -15.60342 -15.57621 -15.57620 -11.40861 -11.40861
 Alpha  occ. eigenvalues --  -11.27661 -11.27661  -1.30965  -1.30913  -1.18703
 Alpha  occ. eigenvalues --   -1.18464  -1.16757  -1.16687  -1.10584  -1.10540
 Alpha  occ. eigenvalues --   -0.88049  -0.88023  -0.80084  -0.80083  -0.75468
 Alpha  occ. eigenvalues --   -0.75459  -0.68092  -0.68080  -0.67233  -0.67188
 Alpha  occ. eigenvalues --   -0.61593  -0.60862  -0.51968  -0.51887  -0.49680
 Alpha  occ. eigenvalues --   -0.49609  -0.49137  -0.48033  -0.43626  -0.43517
 Alpha  occ. eigenvalues --   -0.37063  -0.36915  -0.33340  -0.32779
 Alpha virt. eigenvalues --    0.01842   0.02343   0.03205   0.04602   0.05664
 Alpha virt. eigenvalues --    0.06176   0.08048   0.08591   0.09120   0.09148
 Alpha virt. eigenvalues --    0.11484   0.11780   0.12632   0.13332   0.13421

 Mulliken charges:
               1
     1  N   -0.179156
     2  C   -0.409489
     3  N   -0.259168
     4  C    1.145062
     5  N   -0.096518
     6  N   -0.197792
     7  H   -0.020857
     8  H    0.021446
     9  H   -0.017607
    10  H    0.014079
    11  N   -0.179155
    12  C   -0.409490
    13  N   -0.259169
    14  C    1.145063
    15  N   -0.096517
    16  N   -0.197794
    17  H   -0.020857
    18  H    0.021446
    19  H   -0.017607
    20  H    0.014080
 Sum of Mulliken charges =  -0.00000

 Dipole moment (field-independent basis, Debye):
    X=             -0.0000    Y=              0.0000    Z=             -0.0000  Tot=              0.0000

 Test job not archived.
 1\1\GINC-SE046\SP\RHF\Aug-CC-pVDZ\C4H8N8\OHZDE\08-Apr-2025\0\\#t hf au
 g-cc-pvdz iop(5/13=1,5/36=2,99/5=2) pseudo=read geom=check guess=(read
 ,tcheck) scf=(maxcycle=1)\\title\\0,1\N,0,-2.474236,4.376465,10.304662
 \C,0,-3.287263,4.877151,10.978989\N,0,-4.214783,5.48737,11.64293\C,0,-
 4.4763,5.156956,12.918061\N,0,-3.794771,4.229109,13.599232\N,0,-5.4551
 91,5.817607,13.534325\H,0,-4.12134,3.95731,14.519026\H,0,-3.050768,3.6
 85335,13.17887\H,0,-5.669621,5.587082,14.498255\H,0,-6.008679,6.49436,
 13.009285\N,0,-1.410087,6.683035,13.297945\C,0,-0.597061,6.182349,12.6

 Normal termination of Gaussian 16 at Tue Apr  8 19:03:54 2025.
