 Gaussian 16, Revision C.01,

 ----------------------------------------------------------------------
 #t hf aug-cc-pvdz symm=none int=(grid=ultrafine) guess=(read,tcheck) s
 table=(opt,rrhf)
 ----------------------------------------------------------------------
 -----
 title
 -----
 Symbolic Z-matrix:
 Charge =  0 Multiplicity = 1

 SCF Done:  E(RHF) =  -376.427524582     A.U. after   13 cycles
 Normal termination of Gaussian 16 at Tue Apr  8 18:43:52 2025.
 Gaussian 16:  ES64L-G16RevC.01  3-Jul-2019

 ----------------------------------------------------------------------
 #t hf aug-cc-pvdz iop(5/13=1,5/36=2,99/5=2) pseudo=read geom=check gue
 ss=(read,tcheck) scf=(maxcycle=1)
 ----------------------------------------------------------------------
 -----
 title
 -----
 Structure from the checkpoint file:  "3B-69_07b_oxalic_acid_dimerAB_mol3.chk"
 Charge =  0 Multiplicity = 1

                         Standard orientation:
 ---------------------------------------------------------------------
 Center     Atomic      Atomic             Coordinates (Angstroms)
 Number     Number       Type             X           Y           Z
 ---------------------------------------------------------------------
      1          8           0       -1.061967   -1.393698   -0.060228
      2          8           0       -0.219281   -0.272646    1.702400
      3          6           0       -0.393630   -0.508179    0.430154
      4          1           0       -0.688540   -0.914709    2.294864
      5          8           0        1.061967    1.393698    0.060228
      6          8           0        0.219281    0.272646   -1.702400
      7          6           0        0.393630    0.508179   -0.430154
      8          1           0        0.688540    0.914709   -2.294864
 ---------------------------------------------------------------------

 SCF Done:  E(RHF) =  -376.548816478     A.U. after    2 cycles

 The electronic state is 1-AG.
 Alpha  occ. eigenvalues --  -20.65850 -20.65850 -20.59486 -20.59486 -11.43616
 Alpha  occ. eigenvalues --  -11.43568  -1.47385  -1.44723  -1.36379  -1.34798
 Alpha  occ. eigenvalues --   -0.98752  -0.88454  -0.77463  -0.74263  -0.73426
 Alpha  occ. eigenvalues --   -0.70287  -0.66527  -0.65599  -0.60975  -0.55416
 Alpha  occ. eigenvalues --   -0.52283  -0.52210  -0.47878
 Alpha virt. eigenvalues --    0.03042   0.03501   0.06516   0.08667   0.09654
 Alpha virt. eigenvalues --    0.10517   0.11238   0.11980   0.13389   0.13393
 Alpha virt. eigenvalues --    0.17716   0.18872   0.19439   0.20759   0.24103

 Mulliken charges:
               1
     1  O   -0.407017
     2  O   -0.422851
     3  C    0.588099
     4  H    0.241769
     5  O   -0.407017
     6  O   -0.422851
     7  C    0.588099
     8  H    0.241769
 Sum of Mulliken charges =  -0.00000

 Dipole moment (field-independent basis, Debye):
    X=             -0.0000    Y=             -0.0000    Z=             -0.0000  Tot=              0.0000

 Test job not archived.
 1\1\GINC-SE087\SP\RHF\Aug-CC-pVDZ\C2H2O4\OHZDE\08-Apr-2025\0\\#t hf au
 g-cc-pvdz iop(5/13=1,5/36=2,99/5=2) pseudo=read geom=check guess=(read
 ,tcheck) scf=(maxcycle=1)\\title\\0,1\O,0,-1.061967,-1.393698,11.71837
 2\O,0,-0.219281,-0.272646,13.481\C,0,-0.39363,-0.508179,12.208754\H,0,
 -0.68854,-0.914709,14.073464\O,0,1.061967,1.393698,11.838828\O,0,0.219
 281,0.272646,10.0762\C,0,0.39363,0.508179,11.348446\H,0,0.68854,0.9147
 09,9.483736\\Version=ES64L-G16RevC.01\State=1-AG\HF=-376.5488165\RMSD=
 3.891e-03\Dipole=0.,0.,0.\Quadrupole=-2.297348,-3.9871664,6.2845144,-3

 Normal termination of Gaussian 16 at Tue Apr  8 18:43:54 2025.
