 Gaussian 16, Revision C.01,

 ----------------------------------------------------------------------
 #t hf aug-cc-pvdz symm=none int=(grid=ultrafine) guess=(read,tcheck) s
 table=(opt,rrhf)
 ----------------------------------------------------------------------
 -----
 title
 -----
 Symbolic Z-matrix:
 Charge =  0 Multiplicity = 1

 SCF Done:  E(RHF) =  -76.0402986023     A.U. after   10 cycles
 Normal termination of Gaussian 16 at Tue Apr  8 18:21:43 2025.
 Gaussian 16:  ES64L-G16RevC.01  3-Jul-2019

 ----------------------------------------------------------------------
 #t hf aug-cc-pvdz iop(5/13=1,5/36=2,99/5=2) pseudo=read geom=check gue
 ss=(read,tcheck) scf=(maxcycle=1)
 ----------------------------------------------------------------------
 -----
 title
 -----
 Structure from the checkpoint file:  "3B-69_01c_water_dimerBC_mol3.chk"
 Charge =  0 Multiplicity = 1

                         Standard orientation:
 ---------------------------------------------------------------------
 Center     Atomic      Atomic             Coordinates (Angstroms)
 Number     Number       Type             X           Y           Z
 ---------------------------------------------------------------------
      1          8           0       -0.000000    0.116288    0.000000
      2          1           0        0.775930   -0.453041   -0.000000
      3          1           0       -0.775930   -0.477263   -0.000000
 ---------------------------------------------------------------------

 SCF Done:  E(RHF) =  -76.0665395735     A.U. after    2 cycles

 The electronic state is 1-A'.
 Alpha  occ. eigenvalues --  -20.58240  -1.30868  -0.73125  -0.59612  -0.52846
 Alpha virt. eigenvalues --    0.03539   0.05799   0.17214   0.19454   0.22089
 Alpha virt. eigenvalues --    0.22892   0.28711   0.32736   0.38451   0.40399
 Alpha virt. eigenvalues --    0.43334   0.53505   0.64488   0.65156   0.81284

 Mulliken charges:
               1
     1  O   -0.287384
     2  H    0.135531
     3  H    0.151852
 Sum of Mulliken charges =   0.00000

 Dipole moment (field-independent basis, Debye):
    X=              0.0048    Y=             -2.0512    Z=             -0.0000  Tot=              2.0512

 Test job not archived.
 1\1\GINC-SE437\SP\RHF\Aug-CC-pVDZ\H2O1\OHZDE\08-Apr-2025\0\\#t hf aug-
 cc-pvdz iop(5/13=1,5/36=2,99/5=2) pseudo=read geom=check guess=(read,t
 check) scf=(maxcycle=1)\\title\\0,1\O,0,1.602083,0.679871,0.031168\H,0
 ,2.064562,1.065746,-0.719443\H,0,0.719298,1.097655,0.05393\\Version=ES
 64L-G16RevC.01\State=1-A'\HF=-76.0665396\RMSD=2.822e-03\Dipole=-0.2900
 517,0.5577005,-0.5060705\Quadrupole=0.8759909,-0.7182224,-0.1577685,-0
 .2822301,-0.8967125,-0.3934708\PG=CS [SG(H2O1)]\\@

 Normal termination of Gaussian 16 at Tue Apr  8 18:21:44 2025.
