 Gaussian 16, Revision C.01,

 ----------------------------------------------------------------------
 #t hf aug-cc-pvdz symm=none int=(grid=ultrafine) guess=(read,tcheck) s
 table=(opt,rrhf)
 ----------------------------------------------------------------------
 -----
 title
 -----
 Symbolic Z-matrix:
 Charge =  0 Multiplicity = 1

 SCF Done:  E(RHF) =  -295.905575109     A.U. after   15 cycles
 Normal termination of Gaussian 16 at Tue Apr  8 19:00:46 2025.
 Gaussian 16:  ES64L-G16RevC.01  3-Jul-2019

 ----------------------------------------------------------------------
 #t hf aug-cc-pvdz iop(5/13=1,5/36=2,99/5=2) pseudo=read geom=check gue
 ss=(read,tcheck) scf=(maxcycle=1)
 ----------------------------------------------------------------------
 -----
 title
 -----
 Structure from the checkpoint file:  "3B-69_15a_cyanoguanidine_dimerAB_mol2.chk"
 Charge =  0 Multiplicity = 1

                         Standard orientation:
 ---------------------------------------------------------------------
 Center     Atomic      Atomic             Coordinates (Angstroms)
 Number     Number       Type             X           Y           Z
 ---------------------------------------------------------------------
      1          7           0        2.612949    0.091052    0.013013
      2          6           0        1.507408   -0.288383   -0.001872
      3          7           0        0.321304   -0.804618   -0.013674
      4          6           0       -0.768575   -0.020049   -0.002005
      5          7           0       -0.721198    1.316681   -0.018850
      6          7           0       -1.957146   -0.621519   -0.000220
      7          1           0       -1.580392    1.839542    0.103388
      8          1           0        0.152811    1.828426   -0.006139
      9          1           0       -2.794675   -0.049867    0.006361
     10          1           0       -2.002109   -1.638685    0.057766
 ---------------------------------------------------------------------

 SCF Done:  E(RHF) =  -295.995303463     A.U. after    2 cycles

 The electronic state is 1-A.
 Alpha  occ. eigenvalues --  -15.69369 -15.69295 -15.62200 -15.58902 -11.42819
 Alpha  occ. eigenvalues --  -11.28616  -1.33052  -1.20238  -1.18872  -1.11820
 Alpha  occ. eigenvalues --   -0.89962  -0.82116  -0.77639  -0.70043  -0.69305
 Alpha  occ. eigenvalues --   -0.63352  -0.53235  -0.50560  -0.50098  -0.45912
 Alpha  occ. eigenvalues --   -0.38238  -0.34469
 Alpha virt. eigenvalues --    0.00743   0.02657   0.04964   0.06915   0.07772
 Alpha virt. eigenvalues --    0.10107   0.10442   0.13196   0.13695   0.13858
 Alpha virt. eigenvalues --    0.14023   0.15102   0.16240   0.16480   0.16858

 Mulliken charges:
               1
     1  N   -0.211419
     2  C   -0.365165
     3  N   -0.347743
     4  C    1.279607
     5  N   -0.185605
     6  N   -0.217423
     7  H   -0.003287
     8  H    0.033767
     9  H   -0.009623
    10  H    0.026890
 Sum of Mulliken charges =  -0.00000

 Dipole moment (field-independent basis, Debye):
    X=             -8.8227    Y=              2.1680    Z=              0.2984  Tot=              9.0901

 Test job not archived.
 1\1\GINC-SE144\SP\RHF\Aug-CC-pVDZ\C2H4N4\OHZDE\08-Apr-2025\0\\#t hf au
 g-cc-pvdz iop(5/13=1,5/36=2,99/5=2) pseudo=read geom=check guess=(read
 ,tcheck) scf=(maxcycle=1)\\title\\0,1\N,0,3.187601,4.376465,-1.496641\
 C,0,2.374574,4.877151,-0.822315\N,0,1.447054,5.48737,-0.158373\C,0,1.1
 85537,5.156956,1.116757\N,0,1.867065,4.229109,1.797929\N,0,0.206646,5.
 817607,1.733021\H,0,1.540497,3.95731,2.717722\H,0,2.611069,3.685335,1.
 377566\H,0,-0.007785,5.587082,2.696952\H,0,-0.346843,6.49436,1.207981\
 \Version=ES64L-G16RevC.01\State=1-A\HF=-295.9953035\RMSD=2.661e-03\Dip

 Normal termination of Gaussian 16 at Tue Apr  8 19:00:49 2025.
