 Gaussian 16, Revision C.01,

 ----------------------------------------------------------------------
 #t hf aug-cc-pvdz symm=none int=(grid=ultrafine) guess=(read,tcheck) s
 table=(opt,rrhf)
 ----------------------------------------------------------------------
 -----
 title
 -----
 Symbolic Z-matrix:
 Charge =  0 Multiplicity = 1

 SCF Done:  E(RHF) =  -916.483616847     A.U. after   15 cycles
 Normal termination of Gaussian 16 at Tue Apr  8 19:42:28 2025.
 Gaussian 16:  ES64L-G16RevC.01  3-Jul-2019

 ----------------------------------------------------------------------
 #t hf aug-cc-pvdz iop(5/13=1,5/36=2,99/5=2) pseudo=read geom=check gue
 ss=(read,tcheck) scf=(maxcycle=1)
 ----------------------------------------------------------------------
 -----
 title
 -----
 Structure from the checkpoint file:  "3B-69_23a_cyclobutylfuran_trimer_mol1.chk"
 Charge =  0 Multiplicity = 1

                         Standard orientation:
 ---------------------------------------------------------------------
 Center     Atomic      Atomic             Coordinates (Angstroms)
 Number     Number       Type             X           Y           Z
 ---------------------------------------------------------------------
      1          8           0       -3.386266   -1.636641   -1.288022
      2          6           0       -3.868858   -0.883052   -0.229646
      3          1           0       -4.798568   -0.376519   -0.411628
      4          6           0       -2.991768   -0.997611    0.790443
      5          6           0       -2.367443   -0.779537    2.164717
      6          1           0       -2.043939    0.240387    2.367910
      7          1           0       -2.953846   -1.134460    3.011084
      8          6           0       -1.203320   -1.748657    1.691197
      9          1           0       -0.215660   -1.294643    1.645319
     10          1           0       -1.136170   -2.685676    2.240353
     11          6           0       -1.937484   -1.847062    0.365405
     12          6           0       -2.190209   -2.223325   -0.904141
     13          1           0       -1.722239   -2.847822   -1.642543
     14          8           0        1.867630   -1.337189   -1.989726
     15          6           0        1.385038   -0.583599   -0.931351
     16          1           0        0.455327   -0.077066   -1.113332
     17          6           0        2.262127   -0.698159    0.088739
     18          6           0        2.886452   -0.480085    1.463013
     19          1           0        3.209957    0.539839    1.666206
     20          1           0        2.300050   -0.835008    2.309379
     21          6           0        4.050576   -1.449204    0.989493
     22          1           0        5.038236   -0.995190    0.943615
     23          1           0        4.117725   -2.386223    1.538649
     24          6           0        3.316412   -1.547610   -0.336299
     25          6           0        3.063686   -1.923872   -1.605845
     26          1           0        3.531657   -2.548369   -2.344247
     27          8           0       -1.010439    2.534974   -1.802759
     28          6           0       -1.401059    1.815562   -0.684361
     29          1           0       -2.259735    1.184423   -0.819984
     30          6           0       -0.550159    2.120452    0.318636
     31          6           0        0.089452    2.093701    1.702887
     32          1           0        0.536081    1.141697    1.986432
     33          1           0       -0.540763    2.440471    2.520660
     34          6           0        1.126593    3.158297    1.146496
     35          1           0        2.163210    2.828239    1.132567
     36          1           0        1.074078    4.137802    1.617557
     37          6           0        0.392610    3.056992   -0.179178
     38          6           0        0.101542    3.294817   -1.473747
     39          1           0        0.492066    3.910681   -2.262691
 ---------------------------------------------------------------------

 SCF Done:  E(RHF) =  -916.760598979     A.U. after    2 cycles

 The electronic state is 1-A.
 Alpha  occ. eigenvalues --  -20.62462 -20.62256 -20.62036 -11.29595 -11.29472
 Alpha  occ. eigenvalues --  -11.29339 -11.29186 -11.29108 -11.28998 -11.26207
 Alpha  occ. eigenvalues --  -11.26189 -11.26005 -11.25945 -11.25927 -11.25690
 Alpha  occ. eigenvalues --  -11.23273 -11.23019 -11.22952 -11.22911 -11.22866
 Alpha  occ. eigenvalues --  -11.22660  -1.39375  -1.39143  -1.38922  -1.14742
 Alpha  occ. eigenvalues --   -1.14590  -1.14506  -0.99679  -0.99459  -0.99177
 Alpha  occ. eigenvalues --   -0.98249  -0.98122  -0.97977  -0.88004  -0.87906
 Alpha  occ. eigenvalues --   -0.87679  -0.78792  -0.78381  -0.78203  -0.74664
 Alpha  occ. eigenvalues --   -0.74544  -0.74372  -0.71851  -0.71601  -0.71405
 Alpha  occ. eigenvalues --   -0.65658  -0.65592  -0.65049  -0.61890  -0.61685
 Alpha  occ. eigenvalues --   -0.61375  -0.60747  -0.60323  -0.60091  -0.58539
 Alpha  occ. eigenvalues --   -0.58358  -0.58211  -0.53962  -0.53051  -0.52923
 Alpha  occ. eigenvalues --   -0.52052  -0.51974  -0.51956  -0.50799  -0.50788
 Alpha  occ. eigenvalues --   -0.50693  -0.45683  -0.45529  -0.45390  -0.38775
 Alpha  occ. eigenvalues --   -0.38527  -0.38239  -0.32021  -0.31378  -0.31049
 Alpha virt. eigenvalues --    0.02690   0.03421   0.03630   0.03922   0.04598
 Alpha virt. eigenvalues --    0.04742   0.05042   0.05373   0.05754   0.06310
 Alpha virt. eigenvalues --    0.06959   0.07519   0.07699   0.08423   0.08551

 Mulliken charges:
               1
     1  O   -0.739627
     2  C    1.630338
     3  H   -0.483833
     4  C   -0.967517
     5  C    0.544477
     6  H   -0.172757
     7  H   -0.139764
     8  C    0.521623
     9  H   -0.330003
    10  H   -0.127160
    11  C   -0.792979
    12  C    1.523172
    13  H   -0.455512
    14  O   -0.624662
    15  C    1.415861
    16  H   -0.513112
    17  C   -1.017592
    18  C    0.471734
    19  H   -0.138041
    20  H   -0.262291
    21  C    0.560088
    22  H   -0.066454
    23  H   -0.057033
    24  C   -0.738952
    25  C    1.315108
    26  H   -0.456038
    27  O   -0.785878
    28  C    2.212377
    29  H   -0.444989
    30  C   -1.487656
    31  C    0.765781
    32  H   -0.181144
    33  H   -0.209014
    34  C    0.390759
    35  H   -0.123825
    36  H   -0.080265
    37  C   -0.802866
    38  C    1.288221
    39  H   -0.440576
 Sum of Mulliken charges =  -0.00000

 Dipole moment (field-independent basis, Debye):
    X=              2.2593    Y=              0.3556    Z=              4.4801  Tot=              5.0301

 Test job not archived.
 1\1\GINC-SE402\SP\RHF\Aug-CC-pVDZ\C18H18O3\OHZDE\08-Apr-2025\0\\#t hf
 aug-cc-pvdz iop(5/13=1,5/36=2,99/5=2) pseudo=read geom=check guess=(re
 ad,tcheck) scf=(maxcycle=1)\\title\\0,1\O,0,-0.126301,16.441388,12.924
 526\C,0,-0.701266,17.4636,12.185981\H,0,-1.568703,17.187494,11.615566\
 C,0,0.02543,18.581936,12.396288\C,0,0.473934,20.034432,12.273536\H,0,0
 .824753,20.32698,11.284835\H,0,-0.238268,20.779526,12.625356\C,0,1.633
 898,19.669284,13.293216\H,0,2.642979,19.773757,12.900092\H,0,1.574915,
 20.176469,14.254138\C,0,1.077037,18.256376,13.291762\C,0,0.973511,16.9

 Normal termination of Gaussian 16 at Tue Apr  8 19:43:45 2025.
