 Gaussian 16, Revision C.01,

 ----------------------------------------------------------------------
 #t hf aug-cc-pvdz symm=none int=(grid=ultrafine) guess=(read,tcheck) s
 table=(opt,rrhf)
 ----------------------------------------------------------------------
 -----
 title
 -----
 Symbolic Z-matrix:
 Charge =  0 Multiplicity = 1

 SCF Done:  E(RHF) =  -899.233419917     A.U. after   15 cycles
 Normal termination of Gaussian 16 at Tue Apr  8 19:27:23 2025.
 Gaussian 16:  ES64L-G16RevC.01  3-Jul-2019

 ----------------------------------------------------------------------
 #t hf aug-cc-pvdz iop(5/13=1,5/36=2,99/5=2) pseudo=read geom=check gue
 ss=(read,tcheck) scf=(maxcycle=1)
 ----------------------------------------------------------------------
 -----
 title
 -----
 Structure from the checkpoint file:  "3B-69_14a_cyanoacetamide_trimer_mol1.chk"
 Charge =  0 Multiplicity = 1

                         Standard orientation:
 ---------------------------------------------------------------------
 Center     Atomic      Atomic             Coordinates (Angstroms)
 Number     Number       Type             X           Y           Z
 ---------------------------------------------------------------------
      1          6           0        1.529493   -1.110799   -1.281176
      2          6           0        3.504647   -1.909264   -0.019618
      3          6           0        2.119907   -2.180818   -0.352300
      4          1           0        2.059017   -3.176534   -0.792655
      5          1           0        1.545657   -2.225855    0.575961
      6          1           0       -0.166095   -0.670330   -2.308707
      7          1           0       -0.205385   -2.198273   -1.424137
      8          7           0        0.272875   -1.339684   -1.672963
      9          7           0        4.602638   -1.697036    0.246921
     10          8           0        2.177998   -0.108956   -1.593211
     11          6           0        1.262039    1.983278    0.878751
     12          6           0       -0.535230    2.921650   -0.542373
     13          6           0       -0.177738    1.847967    0.363898
     14          1           0       -0.336891    0.897490   -0.146334
     15          1           0       -0.876109    1.860074    1.203893
     16          1           0        2.627666    1.014353    2.028140
     17          1           0        1.082593    0.179677    1.841903
     18          7           0        1.670285    0.987884    1.670899
     19          7           0       -0.822626    3.771715   -1.261024
     20          8           0        1.950883    2.966549    0.595402
     21          6           0       -1.617708   -1.386485    1.366779
     22          6           0       -2.882479   -1.769942    0.772709
     23          6           0       -3.495289   -0.638101   -0.061663
     24          1           0       -3.554138   -2.106646    1.561424
     25          1           0       -2.705965   -2.626744    0.117180
     26          1           0       -5.201290   -0.155651   -1.046123
     27          1           0       -5.261160   -1.678151   -0.161566
     28          7           0       -0.611248   -1.084432    1.832677
     29          7           0       -4.780613   -0.814076   -0.386823
     30          8           0       -2.825498    0.338792   -0.403046
 ---------------------------------------------------------------------

 SCF Done:  E(RHF) =  -899.504673540     A.U. after    2 cycles

 The electronic state is 1-A.
 Alpha  occ. eigenvalues --  -20.59771 -20.55888 -20.51708 -15.71832 -15.69809
 Alpha  occ. eigenvalues --  -15.68851 -15.64093 -15.63778 -15.60768 -11.44151
 Alpha  occ. eigenvalues --  -11.40166 -11.36480 -11.35926 -11.35425 -11.31855
 Alpha  occ. eigenvalues --  -11.29133 -11.27613 -11.26052  -1.40469  -1.36487
 Alpha  occ. eigenvalues --   -1.32275  -1.25894  -1.25024  -1.21865  -1.19725
 Alpha  occ. eigenvalues --   -1.17220  -1.16504  -1.11705  -1.06918  -1.02886
 Alpha  occ. eigenvalues --   -0.88627  -0.85109  -0.80908  -0.80477  -0.77437
 Alpha  occ. eigenvalues --   -0.76233  -0.73959  -0.72958  -0.71871  -0.71226
 Alpha  occ. eigenvalues --   -0.68659  -0.68320  -0.67803  -0.66369  -0.64316
 Alpha  occ. eigenvalues --   -0.63618  -0.62747  -0.61998  -0.61502  -0.58072
 Alpha  occ. eigenvalues --   -0.57629  -0.54685  -0.53625  -0.53258  -0.52449
 Alpha  occ. eigenvalues --   -0.51707  -0.50501  -0.48033  -0.47643  -0.46439
 Alpha  occ. eigenvalues --   -0.45957  -0.44521  -0.44041  -0.43176  -0.42245
 Alpha  occ. eigenvalues --   -0.40086
 Alpha virt. eigenvalues --   -0.01278   0.00747   0.01528   0.02960   0.03570
 Alpha virt. eigenvalues --    0.04109   0.05176   0.05888   0.06646   0.07214
 Alpha virt. eigenvalues --    0.07620   0.08181   0.09108   0.09188   0.09559

 Mulliken charges:
               1
     1  C    0.684854
     2  C   -0.278765
     3  C    0.471410
     4  H    0.016598
     5  H   -0.040023
     6  H    0.026428
     7  H    0.023396
     8  N   -0.096198
     9  N   -0.184931
    10  O   -0.593551
    11  C    0.666074
    12  C   -0.406684
    13  C    0.673156
    14  H   -0.244852
    15  H    0.107195
    16  H    0.004924
    17  H    0.065388
    18  N   -0.114196
    19  N   -0.200727
    20  O   -0.555113
    21  C   -0.272536
    22  C    0.198128
    23  C    0.536382
    24  H    0.070959
    25  H    0.115949
    26  H    0.047343
    27  H    0.008384
    28  N   -0.135412
    29  N   -0.152793
    30  O   -0.440786
 Sum of Mulliken charges =  -0.00000

 Dipole moment (field-independent basis, Debye):
    X=            -14.8217    Y=            -15.3305    Z=              2.1752  Tot=             21.4346

 Test job not archived.
 1\1\GINC-SE177\SP\RHF\Aug-CC-pVDZ\C9H12N6O3\OHZDE\08-Apr-2025\0\\#t hf
  aug-cc-pvdz iop(5/13=1,5/36=2,99/5=2) pseudo=read geom=check guess=(r
 ead,tcheck) scf=(maxcycle=1)\\title\\0,1\C,0,1.548277,23.663489,4.2086
 42\C,0,1.421215,21.191417,4.153643\C,0,2.061208,22.333103,4.77725\H,0,
 1.908971,22.268712,5.855094\H,0,3.139142,22.251767,4.619444\H,0,1.7370
 34,25.669506,4.463824\H,0,2.673896,24.682765,5.589546\N,0,2.057057,24.
 754476,4.788179\N,0,0.916336,20.283572,3.661117\O,0,0.755881,23.689923
 ,3.263642\C,0,2.914349,23.782511,0.683048\C,0,2.787287,26.254583,0.628

 Normal termination of Gaussian 16 at Tue Apr  8 19:28:06 2025.
