 Gaussian 16, Revision C.01,

 ----------------------------------------------------------------------
 #t hf aug-cc-pvdz symm=none int=(grid=ultrafine) guess=(read,tcheck) s
 table=(opt,rrhf)
 ----------------------------------------------------------------------
 -----
 title
 -----
 Symbolic Z-matrix:
 Charge =  0 Multiplicity = 1

 SCF Done:  E(RHF) =  -781.258266901     A.U. after   13 cycles
 Normal termination of Gaussian 16 at Tue Apr  8 19:04:48 2025.
 Gaussian 16:  ES64L-G16RevC.01  3-Jul-2019

 ----------------------------------------------------------------------
 #t hf aug-cc-pvdz iop(5/13=1,5/36=2,99/5=2) pseudo=read geom=check gue
 ss=(read,tcheck) scf=(maxcycle=1)
 ----------------------------------------------------------------------
 -----
 title
 -----
 Structure from the checkpoint file:  "3B-69_16b_triazolidinedione_dimerAB_mol1.chk"
 Charge =  0 Multiplicity = 1

                         Standard orientation:
 ---------------------------------------------------------------------
 Center     Atomic      Atomic             Coordinates (Angstroms)
 Number     Number       Type             X           Y           Z
 ---------------------------------------------------------------------
      1          7           0       -4.127250    0.258922   -0.024057
      2          7           0       -3.237689    1.139769   -0.664805
      3          6           0       -1.968449    0.664809   -0.483186
      4          7           0       -2.112293   -0.584207    0.083190
      5          6           0       -3.437535   -0.845134    0.360862
      6          8           0       -0.906677    1.205161   -0.778267
      7          8           0       -3.894167   -1.875281    0.860607
      8          1           0       -5.076639    0.158850   -0.404699
      9          1           0       -3.428033    2.138100   -0.579784
     10          1           0       -1.325522   -1.191461    0.360419
     11          7           0        1.505692    0.074111    0.170843
     12          7           0        2.145805   -1.033977   -0.412389
     13          6           0        3.494259   -0.877346   -0.249035
     14          7           0        3.667098    0.398678    0.244324
     15          6           0        2.449233    0.993898    0.497239
     16          8           0        4.387736   -1.678864   -0.505313
     17          8           0        2.264482    2.131576    0.934296
     18          1           0        0.607660    0.383525   -0.221640
     19          1           0        1.715624   -1.947967   -0.272069
     20          1           0        4.581339    0.807780    0.492163
 ---------------------------------------------------------------------

 SCF Done:  E(RHF) =  -781.495172954     A.U. after    2 cycles

 The electronic state is 1-A.
 Alpha  occ. eigenvalues --  -20.59755 -20.57902 -20.55281 -20.54463 -15.74830
 Alpha  occ. eigenvalues --  -15.74407 -15.73212 -15.71267 -15.69751 -15.69372
 Alpha  occ. eigenvalues --  -11.46484 -11.45197 -11.42243 -11.41563  -1.45982
 Alpha  occ. eigenvalues --   -1.42055  -1.39487  -1.35261  -1.34515  -1.30676
 Alpha  occ. eigenvalues --   -1.24723  -1.20907  -1.14476  -1.10610  -0.93266
 Alpha  occ. eigenvalues --   -0.90479  -0.89553  -0.86678  -0.80077  -0.77175
 Alpha  occ. eigenvalues --   -0.75955  -0.73738  -0.73486  -0.71265  -0.70189
 Alpha  occ. eigenvalues --   -0.68941  -0.67685  -0.66977  -0.65005  -0.64064
 Alpha  occ. eigenvalues --   -0.61379  -0.57404  -0.56791  -0.53514  -0.53033
 Alpha  occ. eigenvalues --   -0.49794  -0.49246  -0.48370  -0.45879  -0.44416
 Alpha  occ. eigenvalues --   -0.42315  -0.38494
 Alpha virt. eigenvalues --    0.01382   0.02394   0.03404   0.04600   0.04941
 Alpha virt. eigenvalues --    0.06061   0.07823   0.08643   0.09944   0.10402
 Alpha virt. eigenvalues --    0.10680   0.11758   0.12238   0.12515   0.12819

 Mulliken charges:
               1
     1  N   -0.164206
     2  N   -0.212444
     3  C    0.725967
     4  N   -0.336142
     5  C    0.812796
     6  O   -0.477257
     7  O   -0.476269
     8  H    0.070042
     9  H    0.046338
    10  H   -0.001515
    11  N   -0.159309
    12  N   -0.160770
    13  C    0.759491
    14  N   -0.384934
    15  C    0.733871
    16  O   -0.470970
    17  O   -0.481136
    18  H    0.156410
    19  H    0.029263
    20  H   -0.009227
 Sum of Mulliken charges =  -0.00000

 Dipole moment (field-independent basis, Debye):
    X=             -6.4061    Y=              1.0323    Z=             -1.3414  Tot=              6.6259

 Test job not archived.
 1\1\GINC-SE047\SP\RHF\Aug-CC-pVDZ\C4H6N6O4\OHZDE\08-Apr-2025\0\\#t hf
 aug-cc-pvdz iop(5/13=1,5/36=2,99/5=2) pseudo=read geom=check guess=(re
 ad,tcheck) scf=(maxcycle=1)\\title\\0,1\N,0,-0.050072,2.63415,3.305578
 \N,0,-0.508443,1.631479,4.178684\C,0,-0.094523,1.94988,5.442343\N,0,0.
 428735,3.222814,5.356588\C,0,0.451861,3.654419,4.047148\O,0,-0.182753,
 1.27341,6.462645\O,0,0.852126,4.747272,3.641043\H,0,-0.602367,2.840582
 ,2.463796\H,0,-0.455705,0.667432,3.850119\H,0,0.845509,3.735184,6.1493
 04\N,0,1.196054,2.12235,8.781654\N,0,0.737684,3.125021,9.654759\C,0,1.

 Normal termination of Gaussian 16 at Tue Apr  8 19:05:05 2025.
