 Gaussian 16, Revision C.01,

 ----------------------------------------------------------------------
 #t hf aug-cc-pvdz symm=none int=(grid=ultrafine) guess=(read,tcheck) s
 table=(opt,rrhf)
 ----------------------------------------------------------------------
 -----
 title
 -----
 Symbolic Z-matrix:
 Charge =  0 Multiplicity = 1

 SCF Done:  E(RHF) =  -224.845449854     A.U. after   14 cycles
 Normal termination of Gaussian 16 at Tue Apr  8 18:53:36 2025.
 Gaussian 16:  ES64L-G16RevC.01  3-Jul-2019

 ----------------------------------------------------------------------
 #t hf aug-cc-pvdz iop(5/13=1,5/36=2,99/5=2) pseudo=read geom=check gue
 ss=(read,tcheck) scf=(maxcycle=1)
 ----------------------------------------------------------------------
 -----
 title
 -----
 Structure from the checkpoint file:  "3B-69_10a_imidazole_dimerAB_mol2.chk"
 Charge =  0 Multiplicity = 1

                         Standard orientation:
 ---------------------------------------------------------------------
 Center     Atomic      Atomic             Coordinates (Angstroms)
 Number     Number       Type             X           Y           Z
 ---------------------------------------------------------------------
      1          7           0        0.830379    0.723395   -0.008851
      2          6           0        0.936625   -0.622193   -0.002253
      3          7           0       -0.253411   -1.202944    0.002009
      4          6           0       -1.165715   -0.170930    0.000175
      5          6           0       -0.507989    1.027212   -0.004278
      6          1           0        1.613082    1.408335    0.056207
      7          1           0        1.875367   -1.147974    0.005568
      8          1           0       -2.225575   -0.343001    0.017771
      9          1           0       -0.879176    2.034941    0.006484
 ---------------------------------------------------------------------

 SCF Done:  E(RHF) =  -224.912424812     A.U. after    2 cycles

 The electronic state is 1-A.
 Alpha  occ. eigenvalues --  -15.69271 -15.61019 -11.30833 -11.27052 -11.25367
 Alpha  occ. eigenvalues --   -1.31186  -1.13005  -1.00398  -0.81785  -0.79878
 Alpha  occ. eigenvalues --   -0.75995  -0.60942  -0.60601  -0.59873  -0.57431
 Alpha  occ. eigenvalues --   -0.42860  -0.39476  -0.32248
 Alpha virt. eigenvalues --    0.02460   0.03654   0.04942   0.06405   0.08325
 Alpha virt. eigenvalues --    0.10339   0.12546   0.12666   0.13320   0.13469
 Alpha virt. eigenvalues --    0.14663   0.15436   0.15808   0.17150   0.17703

 Mulliken charges:
               1
     1  N   -0.449020
     2  C    0.654922
     3  N   -0.678780
     4  C    0.516726
     5  C    0.626417
     6  H   -0.014216
     7  H   -0.187068
     8  H   -0.211508
     9  H   -0.257473
 Sum of Mulliken charges =  -0.00000

 Dipole moment (field-independent basis, Debye):
    X=              2.1377    Y=              3.2962    Z=              0.1275  Tot=              3.9307

 Test job not archived.
 1\1\GINC-SE340\SP\RHF\Aug-CC-pVDZ\C3H4N2\OHZDE\08-Apr-2025\0\\#t hf au
 g-cc-pvdz iop(5/13=1,5/36=2,99/5=2) pseudo=read geom=check guess=(read
 ,tcheck) scf=(maxcycle=1)\\title\\0,1\N,0,1.225156,1.790098,0.793667\C
 ,0,0.314568,1.191681,1.590327\N,0,0.098973,1.892803,2.692789\C,0,0.918
 281,2.99557,2.592821\C,0,1.622758,2.943251,1.422717\H,0,1.619151,1.410
 346,-0.093212\H,0,-0.165462,0.258212,1.353791\H,0,0.967252,3.744556,3.
 360834\H,0,2.357781,3.610084,1.012244\\Version=ES64L-G16RevC.01\State=
 1-A\HF=-224.9124248\RMSD=4.605e-03\Dipole=0.7841589,-0.184533,-1.32008

 Normal termination of Gaussian 16 at Tue Apr  8 18:53:38 2025.
