 Gaussian 16, Revision C.01,

 ----------------------------------------------------------------------
 #t hf aug-cc-pvdz symm=none int=(grid=ultrafine) guess=(read,tcheck) s
 table=(opt,rrhf)
 ----------------------------------------------------------------------
 -----
 title
 -----
 Symbolic Z-matrix:
 Charge =  0 Multiplicity = 1

 SCF Done:  E(RHF) =  -390.627011433     A.U. after   13 cycles
 Normal termination of Gaussian 16 at Tue Apr  8 19:00:47 2025.
 Gaussian 16:  ES64L-G16RevC.01  3-Jul-2019

 ----------------------------------------------------------------------
 #t hf aug-cc-pvdz iop(5/13=1,5/36=2,99/5=2) pseudo=read geom=check gue
 ss=(read,tcheck) scf=(maxcycle=1)
 ----------------------------------------------------------------------
 -----
 title
 -----
 Structure from the checkpoint file:  "3B-69_16a_triazolidinedione_dimerAB_mol3.chk"
 Charge =  0 Multiplicity = 1

                         Standard orientation:
 ---------------------------------------------------------------------
 Center     Atomic      Atomic             Coordinates (Angstroms)
 Number     Number       Type             X           Y           Z
 ---------------------------------------------------------------------
      1          7           0       -0.703068    1.122029    0.073607
      2          7           0        0.694843    1.134570   -0.079528
      3          6           0        1.138306   -0.157375   -0.018206
      4          7           0        0.005884   -0.944133   -0.030228
      5          6           0       -1.130884   -0.165075    0.017486
      6          8           0        2.296901   -0.561116    0.014440
      7          8           0       -2.296585   -0.565797    0.012534
      8          1           0       -1.252395    1.861246   -0.382507
      9          1           0        1.209254    1.875777    0.395990
     10          1           0        0.012464   -1.974269    0.028090
 ---------------------------------------------------------------------

 SCF Done:  E(RHF) =  -390.745926153     A.U. after    2 cycles

 The electronic state is 1-A.
 Alpha  occ. eigenvalues --  -20.56424 -20.56125 -15.72609 -15.72552 -15.70715
 Alpha  occ. eigenvalues --  -11.43475 -11.43293  -1.43602  -1.36647  -1.32197
 Alpha  occ. eigenvalues --   -1.22352  -1.12335  -0.90980  -0.88052  -0.77586
 Alpha  occ. eigenvalues --   -0.74901  -0.71125  -0.68812  -0.66463  -0.65528
 Alpha  occ. eigenvalues --   -0.58817  -0.54632  -0.50603  -0.47395  -0.45698
 Alpha  occ. eigenvalues --   -0.40258
 Alpha virt. eigenvalues --    0.02147   0.03960   0.04045   0.06880   0.10048
 Alpha virt. eigenvalues --    0.10572   0.11812   0.12407   0.13089   0.14159
 Alpha virt. eigenvalues --    0.14674   0.14886   0.15794   0.16637   0.17014

 Mulliken charges:
               1
     1  N   -0.187636
     2  N   -0.176326
     3  C    0.786146
     4  N   -0.385700
     5  C    0.784238
     6  O   -0.467171
     7  O   -0.479541
     8  H    0.066861
     9  H    0.057529
    10  H    0.001601
 Sum of Mulliken charges =  -0.00000

 Dipole moment (field-independent basis, Debye):
    X=              0.0496    Y=              3.1093    Z=              0.0609  Tot=              3.1103

 Test job not archived.
 1\1\GINC-SE398\SP\RHF\Aug-CC-pVDZ\C2H3N3O2\OHZDE\08-Apr-2025\0\\#t hf
 aug-cc-pvdz iop(5/13=1,5/36=2,99/5=2) pseudo=read geom=check guess=(re
 ad,tcheck) scf=(maxcycle=1)\\title\\0,1\N,0,4.758199,16.90365,2.170497
 \N,0,5.216569,15.90098,1.297392\C,0,4.80265,16.21938,0.033733\N,0,4.27
 9392,17.492314,0.119488\C,0,4.256265,17.923919,1.428927\O,0,4.89088,15
 .54291,-0.98657\O,0,3.856001,19.016772,1.835033\H,0,5.310494,17.110082
 ,3.01228\H,0,5.163831,14.936932,1.625956\H,0,3.862617,18.004684,-0.673
 229\\Version=ES64L-G16RevC.01\State=1-A\HF=-390.7459262\RMSD=2.846e-03

 Normal termination of Gaussian 16 at Tue Apr  8 19:00:51 2025.
