 Gaussian 16, Revision C.01,

 ----------------------------------------------------------------------
 #t hf aug-cc-pvdz symm=none int=(grid=ultrafine) guess=(read,tcheck) s
 table=(opt,rrhf)
 ----------------------------------------------------------------------
 -----
 title
 -----
 Symbolic Z-matrix:
 Charge =  0 Multiplicity = 1

 SCF Done:  E(RHF) =  -115.059316510     A.U. after   11 cycles
 Normal termination of Gaussian 16 at Tue Apr  8 18:27:44 2025.
 Gaussian 16:  ES64L-G16RevC.01  3-Jul-2019

 ----------------------------------------------------------------------
 #t hf aug-cc-pvdz iop(5/13=1,5/36=2,99/5=2) pseudo=read geom=check gue
 ss=(read,tcheck) scf=(maxcycle=1)
 ----------------------------------------------------------------------
 -----
 title
 -----
 Structure from the checkpoint file:  "3B-69_03a_methanol_ethyne_dimerAC_mol2.chk"
 Charge =  0 Multiplicity = 1

                         Standard orientation:
 ---------------------------------------------------------------------
 Center     Atomic      Atomic             Coordinates (Angstroms)
 Number     Number       Type             X           Y           Z
 ---------------------------------------------------------------------
      1          8           0       -0.752173    0.128444   -0.001817
      2          1           0       -1.164199   -0.770170    0.004242
      3          6           0        0.673874   -0.020736   -0.000750
      4          1           0        1.010917   -0.420247    0.958620
      5          1           0        1.111981    0.965635   -0.141332
      6          1           0        1.015444   -0.678351   -0.802495
 ---------------------------------------------------------------------

 SCF Done:  E(RHF) =  -115.099102220     A.U. after    2 cycles

 The electronic state is 1-A.
 Alpha  occ. eigenvalues --  -20.57431 -11.28461  -1.30758  -0.92432  -0.69461
 Alpha  occ. eigenvalues --   -0.62696  -0.60238  -0.51261  -0.46516
 Alpha virt. eigenvalues --    0.03378   0.05198   0.05829   0.06540   0.11375
 Alpha virt. eigenvalues --    0.14006   0.15262   0.17128   0.20643   0.22101
 Alpha virt. eigenvalues --    0.24078   0.27888   0.28123   0.32086   0.33261

 Mulliken charges:
               1
     1  O   -0.533258
     2  H    0.150690
     3  C    0.807900
     4  H   -0.118396
     5  H   -0.175837
     6  H   -0.131098
 Sum of Mulliken charges =   0.00000

 Dipole moment (field-independent basis, Debye):
    X=              1.0144    Y=             -1.6477    Z=             -0.0000  Tot=              1.9349

 Test job not archived.
 1\1\GINC-SE365\SP\RHF\Aug-CC-pVDZ\C1H4O1\OHZDE\08-Apr-2025\0\\#t hf au
 g-cc-pvdz iop(5/13=1,5/36=2,99/5=2) pseudo=read geom=check guess=(read
 ,tcheck) scf=(maxcycle=1)\\title\\0,1\O,0,3.211523,12.095308,13.092198
 \H,0,4.065726,12.592587,13.07324\C,0,3.425896,10.840226,13.751501\H,0,
 4.053811,10.192498,13.135247\H,0,2.456381,10.363499,13.883414\H,0,3.89
 4402,10.968294,14.729265\\Version=ES64L-G16RevC.01\State=1-A\HF=-115.0
 991022\RMSD=2.313e-03\Dipole=0.6490162,-0.2626515,0.2988503\Quadrupole
 =0.3741074,0.3556792,-0.7297865,1.717952,-0.5611853,-0.0646698\PG=C01

 Normal termination of Gaussian 16 at Tue Apr  8 18:27:45 2025.
