 Gaussian 16, Revision C.01,

 ----------------------------------------------------------------------
 #t hf aug-cc-pvdz symm=none int=(grid=ultrafine) guess=(read,tcheck) s
 table=(opt,rrhf)
 ----------------------------------------------------------------------
 -----
 title
 -----
 Symbolic Z-matrix:
 Charge =  0 Multiplicity = 1

 SCF Done:  E(RHF) =  -1359.96635056     A.U. after   16 cycles
 Normal termination of Gaussian 16 at Tue Apr  8 19:31:31 2025.
 Gaussian 16:  ES64L-G16RevC.01  3-Jul-2019

 ----------------------------------------------------------------------
 #t hf aug-cc-pvdz iop(5/13=1,5/36=2,99/5=2) pseudo=read geom=check gue
 ss=(read,tcheck) scf=(maxcycle=1)
 ----------------------------------------------------------------------
 -----
 title
 -----
 Structure from the checkpoint file:  "3B-69_20c_maleic_acid_trimer_mol1.chk"
 Charge =  0 Multiplicity = 1

                         Standard orientation:
 ---------------------------------------------------------------------
 Center     Atomic      Atomic             Coordinates (Angstroms)
 Number     Number       Type             X           Y           Z
 ---------------------------------------------------------------------
      1          6           0       -4.061292   -1.364128   -0.121181
      2          8           0       -4.572788   -0.841273    0.969377
      3          1           0       -4.390114    0.156173    1.040526
      4          8           0       -4.249526   -2.555432   -0.350011
      5          6           0       -3.261585   -0.550832   -1.082477
      6          1           0       -2.876982   -1.156969   -1.892174
      7          6           0       -2.953998    0.751439   -1.110432
      8          1           0       -2.343318    1.101036   -1.933619
      9          6           0       -3.353932    1.808265   -0.149679
     10          8           0       -2.878397    2.983754   -0.470538
     11          1           0       -3.203927    3.696041    0.163460
     12          8           0       -4.063777    1.622195    0.841553
     13          6           0       -0.382707   -1.653106    0.036842
     14          8           0       -0.894203   -1.130251    1.127400
     15          1           0       -0.711529   -0.132805    1.198549
     16          8           0       -0.570942   -2.844411   -0.191988
     17          6           0        0.417000   -0.839811   -0.924454
     18          1           0        0.801603   -1.445947   -1.734151
     19          6           0        0.724586    0.462460   -0.952409
     20          1           0        1.335267    0.812058   -1.775596
     21          6           0        0.324653    1.519287    0.008344
     22          8           0        0.800188    2.694776   -0.312515
     23          1           0        0.474658    3.407062    0.321482
     24          8           0       -0.385192    1.333217    0.999576
     25          6           0        3.295878   -1.942085    0.194865
     26          8           0        2.784382   -1.419229    1.285423
     27          1           0        2.967056   -0.421783    1.356572
     28          8           0        3.107643   -3.133389   -0.033965
     29          6           0        4.095585   -1.128789   -0.766431
     30          1           0        4.480188   -1.734926   -1.576128
     31          6           0        4.403171    0.173482   -0.794386
     32          1           0        5.013851    0.523080   -1.617573
     33          6           0        4.003238    1.230309    0.166367
     34          8           0        4.478773    2.405798   -0.154492
     35          1           0        4.153242    3.118084    0.479505
     36          8           0        3.293392    1.044239    1.157599
 ---------------------------------------------------------------------

 SCF Done:  E(RHF) =  -1360.39024622     A.U. after    2 cycles

 The electronic state is 1-A.
 Alpha  occ. eigenvalues --  -20.70057 -20.69696 -20.68425 -20.63076 -20.62205
 Alpha  occ. eigenvalues --  -20.60974 -20.60745 -20.59447 -20.58291 -20.56324
 Alpha  occ. eigenvalues --  -20.54769 -20.53604 -11.47776 -11.47023 -11.45607
 Alpha  occ. eigenvalues --  -11.41140 -11.39625 -11.38590 -11.33193 -11.32334
 Alpha  occ. eigenvalues --  -11.32332 -11.31393 -11.31016 -11.30116  -1.50138
 Alpha  occ. eigenvalues --   -1.49597  -1.48273  -1.42269  -1.40805  -1.39592
 Alpha  occ. eigenvalues --   -1.39168  -1.38299  -1.36899  -1.31571  -1.29971
 Alpha  occ. eigenvalues --   -1.28857  -1.13771  -1.12934  -1.11578  -0.99384
 Alpha  occ. eigenvalues --   -0.98652  -0.97357  -0.89843  -0.88915  -0.87662
 Alpha  occ. eigenvalues --   -0.84268  -0.83114  -0.81863  -0.81139  -0.80326
 Alpha  occ. eigenvalues --   -0.79015  -0.78562  -0.77662  -0.76310  -0.72966
 Alpha  occ. eigenvalues --   -0.71628  -0.70643  -0.70200  -0.69702  -0.69645
 Alpha  occ. eigenvalues --   -0.68973  -0.68469  -0.67762  -0.65692  -0.65094
 Alpha  occ. eigenvalues --   -0.64366  -0.63398  -0.63165  -0.62727  -0.61814
 Alpha  occ. eigenvalues --   -0.61501  -0.60932  -0.60540  -0.59746  -0.58496
 Alpha  occ. eigenvalues --   -0.57483  -0.56741  -0.55260  -0.52291  -0.51240
 Alpha  occ. eigenvalues --   -0.49931  -0.49406  -0.48351  -0.47836  -0.46891
 Alpha  occ. eigenvalues --   -0.46500  -0.45681  -0.45300  -0.43881  -0.42370
 Alpha virt. eigenvalues --   -0.00269   0.00153   0.01305   0.01459   0.01711
 Alpha virt. eigenvalues --    0.02885   0.02942   0.03761   0.04494   0.05255
 Alpha virt. eigenvalues --    0.05883   0.06097   0.06804   0.07721   0.08679

 Mulliken charges:
               1
     1  C    0.610127
     2  O   -0.522138
     3  H    0.332983
     4  O   -0.507360
     5  C    0.590364
     6  H   -0.541757
     7  C    1.048829
     8  H   -0.581149
     9  C    0.489610
    10  O   -0.634618
    11  H    0.304154
    12  O   -0.667620
    13  C    0.770815
    14  O   -0.530983
    15  H    0.371943
    16  O   -0.583583
    17  C    0.713118
    18  H   -0.718844
    19  C    1.120993
    20  H   -0.743184
    21  C    0.806663
    22  O   -0.677217
    23  H    0.304508
    24  O   -0.703523
    25  C    0.618392
    26  O   -0.527269
    27  H    0.371871
    28  O   -0.527769
    29  C    0.495721
    30  H   -0.457652
    31  C    0.813356
    32  H   -0.452919
    33  C    0.509342
    34  O   -0.543255
    35  H    0.282469
    36  O   -0.634419
 Sum of Mulliken charges =  -0.00000

 Dipole moment (field-independent basis, Debye):
    X=              9.0214    Y=             17.5644    Z=             -6.0739  Tot=             20.6588

 Test job not archived.
 1\1\GINC-SE127\SP\RHF\Aug-CC-pVDZ\C12H12O12\OHZDE\08-Apr-2025\0\\#t hf
  aug-cc-pvdz iop(5/13=1,5/36=2,99/5=2) pseudo=read geom=check guess=(r
 ead,tcheck) scf=(maxcycle=1)\\title\\0,1\C,0,-1.647553,10.845738,6.203
 201\O,0,-2.15126,10.135432,5.220314\H,0,-2.044314,9.136168,5.373168\O,
 0,-1.751616,12.068249,6.16272\C,0,-0.955798,10.207203,7.360275\H,0,-0.
 559945,10.946547,8.044089\C,0,-0.752528,8.923996,7.681774\H,0,-0.20685
 6,8.720057,8.594701\C,0,-1.192451,7.714058,6.945301\O,0,-0.824514,6.60
 6276,7.53547\H,0,-1.177353,5.797481,7.049024\O,0,-1.842498,7.729101,5.

 Normal termination of Gaussian 16 at Tue Apr  8 19:32:57 2025.
