 Gaussian 16, Revision C.01,

 ----------------------------------------------------------------------
 #t hf aug-cc-pvdz symm=none int=(grid=ultrafine) guess=(read,tcheck) s
 table=(opt,rrhf)
 ----------------------------------------------------------------------
 -----
 title
 -----
 Symbolic Z-matrix:
 Charge =  0 Multiplicity = 1

 SCF Done:  E(RHF) =  -227.772752568     A.U. after   14 cycles
 Normal termination of Gaussian 16 at Tue Apr  8 18:24:45 2025.
 Gaussian 16:  ES64L-G16RevC.01  3-Jul-2019

 ----------------------------------------------------------------------
 #t hf aug-cc-pvdz iop(5/13=1,5/36=2,99/5=2) pseudo=read geom=check gue
 ss=(read,tcheck) scf=(maxcycle=1)
 ----------------------------------------------------------------------
 -----
 title
 -----
 Structure from the checkpoint file:  "3B-69_02a_formaldehyde_dimerAB_mol1.chk"
 Charge =  0 Multiplicity = 1

                         Standard orientation:
 ---------------------------------------------------------------------
 Center     Atomic      Atomic             Coordinates (Angstroms)
 Number     Number       Type             X           Y           Z
 ---------------------------------------------------------------------
      1          8           0        2.888445   -0.121483   -0.061604
      2          6           0        1.723126    0.166225    0.103411
      3          1           0        1.374396    1.206496    0.026792
      4          1           0        0.962286   -0.591915    0.330000
      5          8           0       -1.584429   -0.201491   -0.122157
      6          6           0       -2.749749    0.086217    0.042858
      7          1           0       -3.098479    1.126487   -0.033761
      8          1           0       -3.510588   -0.671924    0.269446
 ---------------------------------------------------------------------

 SCF Done:  E(RHF) =  -227.848982237     A.U. after    2 cycles

 The electronic state is 1-A.
 Alpha  occ. eigenvalues --  -20.60912 -20.57448 -11.37207 -11.33568  -1.38464
 Alpha  occ. eigenvalues --   -1.34986  -0.88847  -0.85152  -0.71968  -0.68855
 Alpha  occ. eigenvalues --   -0.68042  -0.64590  -0.56727  -0.53257  -0.47453
 Alpha  occ. eigenvalues --   -0.43891
 Alpha virt. eigenvalues --    0.02531   0.04130   0.05241   0.05653   0.06874
 Alpha virt. eigenvalues --    0.08109   0.09976   0.13114   0.14416   0.14922
 Alpha virt. eigenvalues --    0.15253   0.15955   0.17544   0.18931   0.24151

 Mulliken charges:
               1
     1  O   -0.431443
     2  C    0.674111
     3  H   -0.123994
     4  H   -0.113785
     5  O   -0.337672
     6  C    0.637264
     7  H   -0.137559
     8  H   -0.166922
 Sum of Mulliken charges =  -0.00000

 Dipole moment (field-independent basis, Debye):
    X=             -6.3591    Y=              1.4232    Z=              0.8328  Tot=              6.5694

 Test job not archived.
 1\1\GINC-SE261\SP\RHF\Aug-CC-pVDZ\C2H4O2\OHZDE\08-Apr-2025\0\\#t hf au
 g-cc-pvdz iop(5/13=1,5/36=2,99/5=2) pseudo=read geom=check guess=(read
 ,tcheck) scf=(maxcycle=1)\\title\\0,1\O,0,2.074088,0.498855,1.635515\C
 ,0,2.169454,0.15428,2.793163\H,0,2.970226,-0.523067,3.124239\H,0,1.470
 34,0.502963,3.564302\O,0,2.074088,0.498855,6.109515\C,0,2.169454,0.154
 28,7.267163\H,0,2.970226,-0.523067,7.598239\H,0,1.47034,0.502963,8.038
 302\\Version=ES64L-G16RevC.01\State=1-A\HF=-227.8489822\RMSD=2.185e-03
 \Dipole=0.1818648,-0.6804571,2.4867765\Quadrupole=0.3853952,0.1415138,

 Normal termination of Gaussian 16 at Tue Apr  8 18:24:46 2025.
