 Gaussian 16, Revision C.01,

 ----------------------------------------------------------------------
 #t hf aug-cc-pvdz symm=none int=(grid=ultrafine) guess=(read,tcheck) s
 table=(opt,rrhf)
 ----------------------------------------------------------------------
 -----
 title
 -----
 Symbolic Z-matrix:
 Charge =  0 Multiplicity = 1

 SCF Done:  E(RHF) =  -224.824644740     A.U. after   15 cycles
 Normal termination of Gaussian 16 at Tue Apr  8 18:58:41 2025.
 Gaussian 16:  ES64L-G16RevC.01  3-Jul-2019

 ----------------------------------------------------------------------
 #t hf aug-cc-pvdz iop(5/13=1,5/36=2,99/5=2) pseudo=read geom=check gue
 ss=(read,tcheck) scf=(maxcycle=1)
 ----------------------------------------------------------------------
 -----
 title
 -----
 Structure from the checkpoint file:  "3B-69_12a_pyrazole_dimerAB_mol3.chk"
 Charge =  0 Multiplicity = 1

                         Standard orientation:
 ---------------------------------------------------------------------
 Center     Atomic      Atomic             Coordinates (Angstroms)
 Number     Number       Type             X           Y           Z
 ---------------------------------------------------------------------
      1          6           0        1.079445   -0.445211    0.002329
      2          6           0        0.761797    0.921646    0.001896
      3          6           0       -0.618076    0.961834   -0.004692
      4          1           0       -2.008443   -0.686203    0.073721
      5          1           0       -1.308681    1.785587    0.008208
      6          1           0        1.436519    1.757201    0.009348
      7          1           0        2.052251   -0.904553    0.011640
      8          7           0       -1.048785   -0.316876   -0.010864
      9          7           0       -0.024165   -1.194787   -0.003438
 ---------------------------------------------------------------------

 SCF Done:  E(RHF) =  -224.890811599     A.U. after    2 cycles

 The electronic state is 1-A.
 Alpha  occ. eigenvalues --  -15.70845 -15.65143 -11.28937 -11.26399 -11.23165
 Alpha  occ. eigenvalues --   -1.33482  -1.07510  -1.04064  -0.82112  -0.79952
 Alpha  occ. eigenvalues --   -0.74131  -0.61641  -0.60306  -0.59439  -0.56877
 Alpha  occ. eigenvalues --   -0.45025  -0.36587  -0.34403
 Alpha virt. eigenvalues --    0.02887   0.03874   0.04692   0.06428   0.09959
 Alpha virt. eigenvalues --    0.10295   0.11973   0.12994   0.13513   0.13878
 Alpha virt. eigenvalues --    0.14071   0.15708   0.16563   0.17461   0.17745

 Mulliken charges:
               1
     1  C    0.491101
     2  C    0.500109
     3  C    0.564203
     4  H    0.020184
     5  H   -0.312082
     6  H   -0.306090
     7  H   -0.249550
     8  N   -0.198226
     9  N   -0.509649
 Sum of Mulliken charges =  -0.00000

 Dipole moment (field-independent basis, Debye):
    X=             -1.4567    Y=              1.8644    Z=              0.1526  Tot=              2.3709

 Test job not archived.
 1\1\GINC-SE088\SP\RHF\Aug-CC-pVDZ\C3H4N2\OHZDE\08-Apr-2025\0\\#t hf au
 g-cc-pvdz iop(5/13=1,5/36=2,99/5=2) pseudo=read geom=check guess=(read
 ,tcheck) scf=(maxcycle=1)\\title\\0,1\C,0,5.922353,2.348921,6.261977\C
 ,0,5.048807,1.377253,6.773813\C,0,5.801878,0.678241,7.695754\H,0,7.837
 666,1.037377,8.313722\H,0,5.55454,-0.141615,8.345623\H,0,4.020061,1.21
 0588,6.514271\H,0,5.722353,3.102313,5.520469\N,0,7.033572,1.229218,7.6
 96363\N,0,7.127429,2.256777,6.826913\\Version=ES64L-G16RevC.01\State=1
 -A\HF=-224.8908116\RMSD=6.558e-03\Dipole=-0.258061,-0.6787497,0.585493

 Normal termination of Gaussian 16 at Tue Apr  8 18:58:43 2025.
