 Gaussian 16, Revision C.01,

 ----------------------------------------------------------------------
 #t hf aug-cc-pvdz symm=none int=(grid=ultrafine) guess=(read,tcheck) s
 table=(opt,rrhf)
 ----------------------------------------------------------------------
 -----
 title
 -----
 Symbolic Z-matrix:
 Charge =  0 Multiplicity = 1

 SCF Done:  E(RHF) =  -836.196533539     A.U. after   12 cycles
 Normal termination of Gaussian 16 at Tue Apr  8 19:10:20 2025.
 Gaussian 16:  ES64L-G16RevC.01  3-Jul-2019

 ----------------------------------------------------------------------
 #t hf aug-cc-pvdz iop(5/13=1,5/36=2,99/5=2) pseudo=read geom=check gue
 ss=(read,tcheck) scf=(maxcycle=1)
 ----------------------------------------------------------------------
 -----
 title
 -----
 Structure from the checkpoint file:  "3B-69_13a_triazine_trimer_mol1.chk"
 Charge =  0 Multiplicity = 1

                         Standard orientation:
 ---------------------------------------------------------------------
 Center     Atomic      Atomic             Coordinates (Angstroms)
 Number     Number       Type             X           Y           Z
 ---------------------------------------------------------------------
      1          6           0       -0.000000   -1.300030    0.000000
      2          7           0        0.000000   -0.683876    1.184508
      3          1           0       -0.000000   -2.382134    0.000000
      4          6           0        0.000000    0.650015   -1.125859
      5          7           0        0.000000   -0.683876   -1.184508
      6          1           0        0.000000    1.191067   -2.062988
      7          6           0        0.000000    0.650015    1.125859
      8          7           0        0.000000    1.367752   -0.000000
      9          1           0        0.000000    1.191067    2.062988
     10          6           0       -3.640500   -0.650015    1.125859
     11          7           0       -3.640500   -1.367752    0.000000
     12          1           0       -3.640500   -1.191067    2.062988
     13          6           0       -3.640500    1.300030   -0.000000
     14          7           0       -3.640500    0.683876    1.184508
     15          1           0       -3.640500    2.382134   -0.000000
     16          6           0       -3.640500   -0.650015   -1.125859
     17          7           0       -3.640500    0.683876   -1.184508
     18          1           0       -3.640500   -1.191067   -2.062988
     19          6           0        3.640500   -0.650015    1.125859
     20          7           0        3.640500   -1.367752    0.000000
     21          1           0        3.640500   -1.191067    2.062988
     22          6           0        3.640500    1.300030   -0.000000
     23          7           0        3.640500    0.683876    1.184508
     24          1           0        3.640500    2.382134   -0.000000
     25          6           0        3.640500   -0.650015   -1.125859
     26          7           0        3.640500    0.683876   -1.184508
     27          1           0        3.640500   -1.191067   -2.062988
 ---------------------------------------------------------------------

 SCF Done:  E(RHF) =  -836.432100954     A.U. after    2 cycles

 The electronic state is 1-A.
 Alpha  occ. eigenvalues --  -15.65272 -15.65272 -15.65272 -15.65272 -15.65268
 Alpha  occ. eigenvalues --  -15.65266 -15.65203 -15.65203 -15.65199 -11.35568
 Alpha  occ. eigenvalues --  -11.35568 -11.35565 -11.35565 -11.35564 -11.35564
 Alpha  occ. eigenvalues --  -11.35550 -11.35547 -11.35545  -1.33560  -1.33401
 Alpha  occ. eigenvalues --   -1.32932  -1.18504  -1.18504  -1.18403  -1.18403
 Alpha  occ. eigenvalues --   -1.18327  -1.18327  -0.92869  -0.92869  -0.92808
 Alpha  occ. eigenvalues --   -0.92808  -0.92698  -0.92698  -0.76723  -0.76649
 Alpha  occ. eigenvalues --   -0.76392  -0.74708  -0.74674  -0.74629  -0.63134
 Alpha  occ. eigenvalues --   -0.62179  -0.62179  -0.62090  -0.62090  -0.61980
 Alpha  occ. eigenvalues --   -0.61980  -0.60999  -0.59558  -0.56638  -0.56579
 Alpha  occ. eigenvalues --   -0.56422  -0.45162  -0.45162  -0.43813  -0.43813
 Alpha  occ. eigenvalues --   -0.43366  -0.43366  -0.43292  -0.43292  -0.43173
 Alpha  occ. eigenvalues --   -0.43173  -0.42314  -0.42314
 Alpha virt. eigenvalues --    0.03013   0.03013   0.03319   0.03767   0.05134
 Alpha virt. eigenvalues --    0.05134   0.05740   0.06321   0.06321   0.06600
 Alpha virt. eigenvalues --    0.06600   0.07929   0.07929   0.08711   0.09638

 Mulliken charges:
               1
     1  C    1.185661
     2  N   -0.772531
     3  H   -0.397164
     4  C    1.185664
     5  N   -0.772531
     6  H   -0.397165
     7  C    1.185664
     8  N   -0.772531
     9  H   -0.397165
    10  C    0.727147
    11  N   -0.463304
    12  H   -0.271826
    13  C    0.727145
    14  N   -0.463304
    15  H   -0.271824
    16  C    0.727147
    17  N   -0.463304
    18  H   -0.271826
    19  C    0.727147
    20  N   -0.463304
    21  H   -0.271826
    22  C    0.727145
    23  N   -0.463304
    24  H   -0.271824
    25  C    0.727147
    26  N   -0.463304
    27  H   -0.271826
 Sum of Mulliken charges =  -0.00000

 Dipole moment (field-independent basis, Debye):
    X=             -0.0000    Y=             -0.0000    Z=              0.0000  Tot=              0.0000

 Test job not archived.
 1\1\GINC-SE054\SP\RHF\Aug-CC-pVDZ\C9H9N9\OHZDE\08-Apr-2025\0\\#t hf au
 g-cc-pvdz iop(5/13=1,5/36=2,99/5=2) pseudo=read geom=check guess=(read
 ,tcheck) scf=(maxcycle=1)\\title\\0,1\C,0,-3.52347,8.354547,9.10125\N,
 0,-4.139624,7.170039,9.10125\H,0,-2.441366,8.354547,9.10125\C,0,-5.473
 515,9.480406,9.10125\N,0,-4.139624,9.539055,9.10125\H,0,-6.014567,10.4
 17535,9.10125\C,0,-5.473515,7.228688,9.10125\N,0,-6.191252,8.354547,9.
 10125\H,0,-6.014567,6.291559,9.10125\C,0,-4.173485,7.228688,5.46075\N,
 0,-3.455748,8.354547,5.46075\H,0,-3.632433,6.291559,5.46075\C,0,-6.123

 Normal termination of Gaussian 16 at Tue Apr  8 19:10:56 2025.
