 Gaussian 16, Revision C.01,

 ----------------------------------------------------------------------
 #t hf aug-cc-pvdz symm=none int=(grid=ultrafine) guess=(read,tcheck) s
 table=(opt,rrhf)
 ----------------------------------------------------------------------
 -----
 title
 -----
 Symbolic Z-matrix:
 Charge =  0 Multiplicity = 1

 SCF Done:  E(RHF) =  -752.864563357     A.U. after   13 cycles
 Normal termination of Gaussian 16 at Tue Apr  8 18:46:10 2025.
 Gaussian 16:  ES64L-G16RevC.01  3-Jul-2019

 ----------------------------------------------------------------------
 #t hf aug-cc-pvdz iop(5/13=1,5/36=2,99/5=2) pseudo=read geom=check gue
 ss=(read,tcheck) scf=(maxcycle=1)
 ----------------------------------------------------------------------
 -----
 title
 -----
 Structure from the checkpoint file:  "3B-69_07b_oxalic_acid_dimerBC_mol1.chk"
 Charge =  0 Multiplicity = 1

                         Standard orientation:
 ---------------------------------------------------------------------
 Center     Atomic      Atomic             Coordinates (Angstroms)
 Number     Number       Type             X           Y           Z
 ---------------------------------------------------------------------
      1          8           0       -3.273573   -1.001500   -1.240748
      2          8           0       -4.029601    0.685809    0.045776
      3          6           0       -3.138186   -0.176573   -0.361852
      4          1           0       -4.897313    0.617333   -0.429461
      5          8           0       -1.691056    0.790115    1.324586
      6          8           0       -0.935028   -0.897195    0.038062
      7          6           0       -1.826443   -0.034813    0.445690
      8          1           0       -0.067316   -0.828718    0.513299
      9          8           0        1.648959   -1.211910    0.760102
     10          8           0        3.711781   -1.118813   -0.139804
     11          6           0        2.545809   -0.630495    0.186596
     12          1           0        3.831049   -2.070033    0.114004
     13          8           0        3.315670    1.423295   -0.843940
     14          8           0        1.252848    1.330199    0.055966
     15          6           0        2.418820    0.841881   -0.270434
     16          1           0        1.133580    2.281419   -0.197842
 ---------------------------------------------------------------------

 SCF Done:  E(RHF) =  -753.105702579     A.U. after    2 cycles

 The electronic state is 1-A.
 Alpha  occ. eigenvalues --  -20.68187 -20.67141 -20.64880 -20.62606 -20.62204
 Alpha  occ. eigenvalues --  -20.60969 -20.58298 -20.57478 -11.46576 -11.45191
 Alpha  occ. eigenvalues --  -11.42220 -11.41555  -1.49551  -1.46535  -1.45760
 Alpha  occ. eigenvalues --   -1.42576  -1.39123  -1.36669  -1.34890  -1.32877
 Alpha  occ. eigenvalues --   -1.00820  -0.97084  -0.90290  -0.86849  -0.79606
 Alpha  occ. eigenvalues --   -0.77715  -0.75454  -0.75195  -0.72854  -0.72417
 Alpha  occ. eigenvalues --   -0.71353  -0.68801  -0.68414  -0.67392  -0.64769
 Alpha  occ. eigenvalues --   -0.63717  -0.62912  -0.59714  -0.57232  -0.55495
 Alpha  occ. eigenvalues --   -0.53854  -0.53526  -0.51193  -0.50284  -0.49876
 Alpha  occ. eigenvalues --   -0.46229
 Alpha virt. eigenvalues --    0.02462   0.03310   0.03939   0.04402   0.06526
 Alpha virt. eigenvalues --    0.07841   0.08138   0.08938   0.09775   0.10071
 Alpha virt. eigenvalues --    0.10649   0.11173   0.11997   0.12918   0.13560

 Mulliken charges:
               1
     1  O   -0.427142
     2  O   -0.447642
     3  C    0.597330
     4  H    0.251643
     5  O   -0.419862
     6  O   -0.379116
     7  C    0.561039
     8  H    0.325930
     9  O   -0.462970
    10  O   -0.436563
    11  C    0.573452
    12  H    0.247482
    13  O   -0.405383
    14  O   -0.444385
    15  C    0.600174
    16  H    0.266012
 Sum of Mulliken charges =  -0.00000

 Dipole moment (field-independent basis, Debye):
    X=              1.2733    Y=              0.0261    Z=             -0.0302  Tot=              1.2739

 Test job not archived.
 1\1\GINC-SE045\SP\RHF\Aug-CC-pVDZ\C4H4O8\OHZDE\08-Apr-2025\0\\#t hf au
 g-cc-pvdz iop(5/13=1,5/36=2,99/5=2) pseudo=read geom=check guess=(read
 ,tcheck) scf=(maxcycle=1)\\title\\0,1\O,0,-1.061967,-1.393698,11.71837
 2\O,0,-0.219281,-0.272646,13.481\C,0,-0.39363,-0.508179,12.208754\H,0,
 -0.68854,-0.914709,14.073464\O,0,1.061967,1.393698,11.838828\O,0,0.219
 281,0.272646,10.0762\C,0,0.39363,0.508179,11.348446\H,0,0.68854,0.9147
 09,9.483736\O,0,1.061967,1.653302,7.912628\O,0,0.219281,2.774354,6.15\
 C,0,0.39363,2.538821,7.422246\H,0,0.68854,2.132291,5.557536\O,0,-1.061

 Normal termination of Gaussian 16 at Tue Apr  8 18:46:18 2025.
