 Gaussian 16, Revision C.01,

 ----------------------------------------------------------------------
 #t hf aug-cc-pvdz symm=none int=(grid=ultrafine) guess=(read,tcheck) s
 table=(opt,rrhf)
 ----------------------------------------------------------------------
 -----
 title
 -----
 Symbolic Z-matrix:
 Charge =  0 Multiplicity = 1

 SCF Done:  E(RHF) =  -455.702709062     A.U. after   13 cycles
 Normal termination of Gaussian 16 at Tue Apr  8 18:36:30 2025.
 Gaussian 16:  ES64L-G16RevC.01  3-Jul-2019

 ----------------------------------------------------------------------
 #t hf aug-cc-pvdz iop(5/13=1,5/36=2,99/5=2) pseudo=read geom=check gue
 ss=(read,tcheck) scf=(maxcycle=1)
 ----------------------------------------------------------------------
 -----
 title
 -----
 Structure from the checkpoint file:  "3B-69_06b_acetic_acid_dimerBC_mol1.chk"
 Charge =  0 Multiplicity = 1

                         Standard orientation:
 ---------------------------------------------------------------------
 Center     Atomic      Atomic             Coordinates (Angstroms)
 Number     Number       Type             X           Y           Z
 ---------------------------------------------------------------------
      1          8           0        3.381492   -0.371156    0.104334
      2          6           0        2.095604   -0.082235    0.001175
      3          8           0        1.262133   -0.937023   -0.282104
      4          6           0        1.787683    1.365584    0.220183
      5          1           0        3.561109   -1.345537   -0.056360
      6          1           0        2.035688    1.906367   -0.695112
      7          1           0        2.407832    1.773748    1.014516
      8          1           0        0.732533    1.505529    0.430147
      9          8           0       -1.341490   -1.019766    0.092100
     10          6           0       -2.078827    0.068794   -0.045736
     11          8           0       -1.594540    1.134940   -0.412318
     12          6           0       -3.530105   -0.150087    0.245549
     13          1           0       -0.375283   -0.847512   -0.118319
     14          1           0       -3.981486   -0.628821   -0.625535
     15          1           0       -3.654564   -0.827360    1.086953
     16          1           0       -4.032726    0.795293    0.420584
 ---------------------------------------------------------------------

 SCF Done:  E(RHF) =  -455.851709328     A.U. after    2 cycles

 The electronic state is 1-A.
 Alpha  occ. eigenvalues --  -20.65287 -20.58803 -20.58476 -20.53699 -11.42731
 Alpha  occ. eigenvalues --  -11.38147 -11.25806 -11.24078  -1.45004  -1.39712
 Alpha  occ. eigenvalues --   -1.34355  -1.28972  -1.03479  -1.00836  -0.86450
 Alpha  occ. eigenvalues --   -0.82364  -0.74544  -0.71105  -0.69057  -0.68344
 Alpha  occ. eigenvalues --   -0.67037  -0.63987  -0.61172  -0.58385  -0.57635
 Alpha  occ. eigenvalues --   -0.56836  -0.55538  -0.54838  -0.52153  -0.49457
 Alpha  occ. eigenvalues --   -0.46891  -0.44927
 Alpha virt. eigenvalues --    0.02863   0.04266   0.04794   0.05389   0.06324
 Alpha virt. eigenvalues --    0.06450   0.07268   0.08981   0.10991   0.11131
 Alpha virt. eigenvalues --    0.11244   0.13561   0.13714   0.14311   0.14371

 Mulliken charges:
               1
     1  O   -0.474611
     2  C    0.374807
     3  O   -0.584924
     4  C    0.428700
     5  H    0.210746
     6  H    0.055869
     7  H    0.023786
     8  H   -0.083502
     9  O   -0.424382
    10  C    0.332206
    11  O   -0.531715
    12  C    0.360902
    13  H    0.267526
    14  H    0.069466
    15  H   -0.008277
    16  H   -0.016598
 Sum of Mulliken charges =  -0.00000

 Dipole moment (field-independent basis, Debye):
    X=              2.1110    Y=             -0.4988    Z=              1.0910  Tot=              2.4281

 Test job not archived.
 1\1\GINC-SE222\SP\RHF\Aug-CC-pVDZ\C4H8O4\OHZDE\08-Apr-2025\0\\#t hf au
 g-cc-pvdz iop(5/13=1,5/36=2,99/5=2) pseudo=read geom=check guess=(read
 ,tcheck) scf=(maxcycle=1)\\title\\0,1\O,0,5.327155,17.887053,2.402174\
 C,0,4.525997,17.40189,3.33512\O,0,4.142801,16.236406,3.315351\C,0,4.11
 924,18.413124,4.360262\H,0,5.576489,17.191358,1.722951\H,0,3.329155,19
 .031693,3.930313\H,0,4.950397,19.071689,4.600299\H,0,3.732132,17.92444
 4,5.248152\O,0,3.1985,14.682947,5.218189\C,0,2.397341,15.16811,6.15113
 5\O,0,2.014145,16.333594,6.131367\C,0,1.990584,14.156876,7.176277\H,0,

 Normal termination of Gaussian 16 at Tue Apr  8 18:36:36 2025.
