 Gaussian 16, Revision C.01,

 ----------------------------------------------------------------------
 #t hf aug-cc-pvdz symm=none int=(grid=ultrafine) guess=(read,tcheck) s
 table=(opt,rrhf)
 ----------------------------------------------------------------------
 -----
 title
 -----
 Symbolic Z-matrix:
 Charge =  0 Multiplicity = 1

 SCF Done:  E(RHF) =  -756.948793473     A.U. after   14 cycles
 Normal termination of Gaussian 16 at Tue Apr  8 19:07:21 2025.
 Gaussian 16:  ES64L-G16RevC.01  3-Jul-2019

 ----------------------------------------------------------------------
 #t hf aug-cc-pvdz iop(5/13=1,5/36=2,99/5=2) pseudo=read geom=check gue
 ss=(read,tcheck) scf=(maxcycle=1)
 ----------------------------------------------------------------------
 -----
 title
 -----
 Structure from the checkpoint file:  "3B-69_18a_succinic_anhydride_dimerAC_mol1.chk"
 Charge =  0 Multiplicity = 1

                         Standard orientation:
 ---------------------------------------------------------------------
 Center     Atomic      Atomic             Coordinates (Angstroms)
 Number     Number       Type             X           Y           Z
 ---------------------------------------------------------------------
      1          8           0       -1.773103    0.445304    0.337774
      2          8           0       -0.215572   -1.136158    0.017718
      3          8           0       -3.653549    1.656870    0.421970
      4          6           0       -1.371793   -0.834781   -0.023541
      5          6           0       -2.571536   -1.646134   -0.431503
      6          6           0       -3.756060   -0.692999   -0.287094
      7          6           0       -3.144922    0.599257    0.186456
      8          1           0       -2.430151   -1.995691   -1.452944
      9          1           0       -2.627644   -2.529908    0.199931
     10          1           0       -4.493667   -1.018623    0.445083
     11          1           0       -4.281231   -0.513141   -1.224019
     12          8           0        2.518830    0.036205   -0.971603
     13          8           0        1.717073    2.105665   -1.293914
     14          8           0        3.305746   -1.881444   -0.126355
     15          6           0        2.007081    1.244982   -0.516421
     16          6           0        1.919616    1.225195    0.985600
     17          6           0        2.457364   -0.145558    1.390917
     18          6           0        2.821340   -0.808191    0.088571
     19          1           0        2.511031    2.047915    1.384200
     20          1           0        0.888055    1.406671    1.278627
     21          1           0        1.727060   -0.767752    1.906386
     22          1           0        3.344610   -0.091627    2.020097
 ---------------------------------------------------------------------

 SCF Done:  E(RHF) =  -757.185062162     A.U. after    2 cycles

 The electronic state is 1-A.
 Alpha  occ. eigenvalues --  -20.67649 -20.64054 -20.61116 -20.60327 -20.57466
 Alpha  occ. eigenvalues --  -20.57258 -11.44647 -11.43945 -11.40986 -11.40883
 Alpha  occ. eigenvalues --  -11.30854 -11.30782 -11.27669 -11.27597  -1.48751
 Alpha  occ. eigenvalues --   -1.45182  -1.41480  -1.38050  -1.36646  -1.33232
 Alpha  occ. eigenvalues --   -1.13544  -1.10267  -0.99407  -0.96082  -0.90377
 Alpha  occ. eigenvalues --   -0.86930  -0.82708  -0.79329  -0.74641  -0.74512
 Alpha  occ. eigenvalues --   -0.72068  -0.70694  -0.70313  -0.68329  -0.65689
 Alpha  occ. eigenvalues --   -0.65501  -0.64980  -0.63187  -0.62240  -0.62022
 Alpha  occ. eigenvalues --   -0.61871  -0.60499  -0.59675  -0.57147  -0.54548
 Alpha  occ. eigenvalues --   -0.52474  -0.52274  -0.51279  -0.49438  -0.49066
 Alpha  occ. eigenvalues --   -0.48826  -0.46043
 Alpha virt. eigenvalues --    0.01734   0.03302   0.03516   0.04112   0.05092
 Alpha virt. eigenvalues --    0.05466   0.06345   0.07097   0.08117   0.08708
 Alpha virt. eigenvalues --    0.09449   0.09519   0.10341   0.11155   0.11437

 Mulliken charges:
               1
     1  O   -0.639975
     2  O   -0.357575
     3  O   -0.453399
     4  C    0.528084
     5  C    0.023917
     6  C    0.122721
     7  C    0.612405
     8  H    0.036194
     9  H    0.022787
    10  H    0.040542
    11  H    0.042966
    12  O   -0.690774
    13  O   -0.473321
    14  O   -0.478438
    15  C    0.667634
    16  C    0.239037
    17  C    0.113552
    18  C    0.699662
    19  H    0.006587
    20  H   -0.056192
    21  H    0.000020
    22  H   -0.006434
 Sum of Mulliken charges =   0.00000

 Dipole moment (field-independent basis, Debye):
    X=             -5.2376    Y=             -3.0538    Z=              3.5813  Tot=              7.0416

 Test job not archived.
 1\1\GINC-SE214\SP\RHF\Aug-CC-pVDZ\C8H8O6\OHZDE\08-Apr-2025\0\\#t hf au
 g-cc-pvdz iop(5/13=1,5/36=2,99/5=2) pseudo=read geom=check guess=(read
 ,tcheck) scf=(maxcycle=1)\\title\\0,1\O,0,8.283701,1.24756,10.220655\O
 ,0,7.420089,1.800274,8.226152\O,0,8.665671,0.447837,12.276282\C,0,7.30
 8933,1.166794,9.233983\C,0,6.220124,0.22543,9.672661\C,0,6.647384,-0.2
 47572,11.060514\C,0,7.948435,0.465551,11.318173\H,0,5.272356,0.761343,
 9.680066\H,0,6.12753,-0.570006,8.936711\H,0,6.819889,-1.321087,11.1236
 36\H,0,5.938151,0.017222,11.843364\O,0,8.046799,4.76221,7.411095\O,0,8

 Normal termination of Gaussian 16 at Tue Apr  8 19:07:39 2025.
