 Gaussian 16, Revision C.01,

 ----------------------------------------------------------------------
 #t hf aug-cc-pvdz symm=none int=(grid=ultrafine) guess=(read,tcheck) s
 table=(opt,rrhf)
 ----------------------------------------------------------------------
 -----
 title
 -----
 Symbolic Z-matrix:
 Charge =  0 Multiplicity = 1

 SCF Done:  E(RHF) =  -1018.16948458     A.U. after   14 cycles
 Normal termination of Gaussian 16 at Tue Apr  8 18:58:45 2025.
 Gaussian 16:  ES64L-G16RevC.01  3-Jul-2019

 ----------------------------------------------------------------------
 #t hf aug-cc-pvdz iop(5/13=1,5/36=2,99/5=2) pseudo=read geom=check gue
 ss=(read,tcheck) scf=(maxcycle=1)
 ----------------------------------------------------------------------
 -----
 title
 -----
 Structure from the checkpoint file:  "3B-69_08c_vinylene_carbonate_trimer_mol1.chk"
 Charge =  0 Multiplicity = 1

                         Standard orientation:
 ---------------------------------------------------------------------
 Center     Atomic      Atomic             Coordinates (Angstroms)
 Number     Number       Type             X           Y           Z
 ---------------------------------------------------------------------
      1          6           0        4.154051   -1.114059   -0.333750
      2          6           0        3.258602   -0.157496   -0.153043
      3          6           0        2.241164   -2.095122    0.200071
      4          1           0        5.196293   -1.126681   -0.588004
      5          1           0        3.278306    0.912260   -0.217505
      6          8           0        3.535944   -2.344373   -0.106674
      7          8           0        2.047337   -0.754104    0.201780
      8          8           0        1.399402   -2.918430    0.423340
      9          6           0       -1.374548   -1.063722   -0.032514
     10          6           0       -1.612344   -2.364175   -0.074574
     11          6           0       -3.573306   -1.330364   -0.063298
     12          1           0       -0.484601   -0.464765   -0.014653
     13          1           0       -0.995738   -3.240839   -0.087961
     14          8           0       -2.597787   -0.392176   -0.034311
     15          8           0       -2.994846   -2.554662   -0.112063
     16          8           0       -4.752973   -1.120472   -0.039254
     17          6           0       -1.404065    2.621670   -0.004344
     18          6           0       -1.166269    3.922123    0.037716
     19          6           0        0.794692    2.888313    0.026439
     20          1           0       -2.294012    2.022713   -0.022205
     21          1           0       -1.782876    4.798787    0.051104
     22          8           0       -0.180825    1.950125   -0.002547
     23          8           0        0.216233    4.112611    0.075206
     24          8           0        1.974360    2.678420    0.002397
 ---------------------------------------------------------------------

 SCF Done:  E(RHF) =  -1018.49894381     A.U. after    2 cycles

 The electronic state is 1-A.
 Alpha  occ. eigenvalues --  -20.68918 -20.68539 -20.67692 -20.67491 -20.66600
 Alpha  occ. eigenvalues --  -20.65910 -20.59780 -20.58600 -20.56908 -11.49118
 Alpha  occ. eigenvalues --  -11.47893 -11.46253 -11.35453 -11.35227 -11.34247
 Alpha  occ. eigenvalues --  -11.33916 -11.32682 -11.32459  -1.53671  -1.52528
 Alpha  occ. eigenvalues --   -1.51173  -1.40588  -1.39450  -1.39228  -1.38173
 Alpha  occ. eigenvalues --   -1.38041  -1.36255  -1.08580  -1.07402  -1.05891
 Alpha  occ. eigenvalues --   -0.92818  -0.91605  -0.90842  -0.90018  -0.89353
 Alpha  occ. eigenvalues --   -0.88095  -0.78906  -0.77523  -0.76188  -0.75978
 Alpha  occ. eigenvalues --   -0.75026  -0.73740  -0.71331  -0.70797  -0.69246
 Alpha  occ. eigenvalues --   -0.68756  -0.68069  -0.66442  -0.65053  -0.64155
 Alpha  occ. eigenvalues --   -0.63526  -0.62911  -0.62644  -0.62110  -0.61569
 Alpha  occ. eigenvalues --   -0.61311  -0.60346  -0.56875  -0.55666  -0.53863
 Alpha  occ. eigenvalues --   -0.53542  -0.52341  -0.50535  -0.40283  -0.39129
 Alpha  occ. eigenvalues --   -0.37592
 Alpha virt. eigenvalues --    0.02540   0.02958   0.04623   0.05169   0.05664
 Alpha virt. eigenvalues --    0.06793   0.06890   0.08106   0.08388   0.08733
 Alpha virt. eigenvalues --    0.08757   0.09752   0.10071   0.10344   0.11370

 Mulliken charges:
               1
     1  C    0.721108
     2  C    0.681331
     3  C    0.524723
     4  H   -0.252076
     5  H   -0.313212
     6  O   -0.580288
     7  O   -0.432074
     8  O   -0.380878
     9  C    0.882355
    10  C    0.687284
    11  C    0.628011
    12  H   -0.396114
    13  H   -0.271195
    14  O   -0.540979
    15  O   -0.572849
    16  O   -0.408914
    17  C    0.775279
    18  C    0.690887
    19  C    0.557295
    20  H   -0.371850
    21  H   -0.247337
    22  O   -0.429281
    23  O   -0.556063
    24  O   -0.395161
 Sum of Mulliken charges =  -0.00000

 Dipole moment (field-independent basis, Debye):
    X=              4.2423    Y=              4.2256    Z=             -1.0203  Tot=              6.0740

 Test job not archived.
 1\1\GINC-SE009\SP\RHF\Aug-CC-pVDZ\C9H6O9\OHZDE\08-Apr-2025\0\\#t hf au
 g-cc-pvdz iop(5/13=1,5/36=2,99/5=2) pseudo=read geom=check guess=(read
 ,tcheck) scf=(maxcycle=1)\\title\\0,1\C,0,0.845927,15.309211,1.553806\
 C,0,1.46459,14.71303,2.55945\C,0,0.932131,13.146144,1.084452\H,0,0.584
 258,16.325703,1.331665\H,0,1.890128,15.047782,3.484534\O,0,0.509604,14
 .34051,0.607341\O,0,1.545281,13.348493,2.275671\O,0,0.782676,12.082704
 ,0.552468\C,0,1.292572,10.034211,3.17663\C,0,0.673909,9.43803,2.170986
 \C,0,1.206368,7.871144,3.645984\H,0,1.554241,11.050703,3.398771\H,0,0.

 Normal termination of Gaussian 16 at Tue Apr  8 18:59:12 2025.
