 Gaussian 16, Revision C.01,

 ----------------------------------------------------------------------
 #t hf aug-cc-pvdz symm=none int=(grid=ultrafine) guess=(read,tcheck) s
 table=(opt,rrhf)
 ----------------------------------------------------------------------
 -----
 title
 -----
 Symbolic Z-matrix:
 Charge =  0 Multiplicity = 1

 SCF Done:  E(RHF) =  -152.080148282     A.U. after   11 cycles
 Normal termination of Gaussian 16 at Tue Apr  8 18:16:42 2025.
 Gaussian 16:  ES64L-G16RevC.01  3-Jul-2019

 ----------------------------------------------------------------------
 #t hf aug-cc-pvdz iop(5/13=1,5/36=2,99/5=2) pseudo=read geom=check gue
 ss=(read,tcheck) scf=(maxcycle=1)
 ----------------------------------------------------------------------
 -----
 title
 -----
 Structure from the checkpoint file:  "3B-69_01a_water_dimerAC_mol1.chk"
 Charge =  0 Multiplicity = 1

                         Standard orientation:
 ---------------------------------------------------------------------
 Center     Atomic      Atomic             Coordinates (Angstroms)
 Number     Number       Type             X           Y           Z
 ---------------------------------------------------------------------
      1          8           0       -1.443282   -0.108998    0.042833
      2          1           0       -0.461950   -0.017441   -0.004230
      3          1           0       -1.850482    0.751616   -0.216748
      4          8           0        1.311237    0.032755   -0.100069
      5          1           0        1.690878   -0.837537    0.166249
      6          1           0        1.677913    0.713299    0.512617
 ---------------------------------------------------------------------

 SCF Done:  E(RHF) =  -152.131603244     A.U. after    2 cycles

 The electronic state is 1-A.
 Alpha  occ. eigenvalues --  -20.61510 -20.54336  -1.33492  -1.26281  -0.75560
 Alpha  occ. eigenvalues --   -0.70599  -0.62474  -0.57123  -0.53861  -0.49007
 Alpha virt. eigenvalues --    0.02562   0.05167   0.05940   0.09212   0.15432
 Alpha virt. eigenvalues --    0.18302   0.20163   0.21803   0.22605   0.23452
 Alpha virt. eigenvalues --    0.26420   0.27676   0.28368   0.32630   0.34312

 Mulliken charges:
               1
     1  O   -0.351397
     2  H    0.221046
     3  H    0.150546
     4  O   -0.403363
     5  H    0.191812
     6  H    0.191355
 Sum of Mulliken charges =  -0.00000

 Dipole moment (field-independent basis, Debye):
    X=              3.0631    Y=              1.3045    Z=              0.9942  Tot=              3.4746

 Test job not archived.
 1\1\GINC-SE365\SP\RHF\Aug-CC-pVDZ\H4O2\OHZDE\08-Apr-2025\0\\#t hf aug-
 cc-pvdz iop(5/13=1,5/36=2,99/5=2) pseudo=read geom=check guess=(read,t
 check) scf=(maxcycle=1)\\title\\0,1\O,0,-0.084889,0.056804,0.055205\H,
 0,0.710375,0.517729,0.413971\H,0,-0.890958,0.498588,0.414274\O,0,2.201
 771,1.306708,0.969979\H,0,2.989729,0.844404,0.598684\H,0,2.274831,1.26
 8852,1.952936\\Version=ES64L-G16RevC.01\State=1-A\HF=-152.1316032\RMSD
 =2.220e-03\Dipole=0.8459333,0.3892417,1.0007804\Quadrupole=3.8159827,-
 3.723717,-0.0922657,-2.263223,-0.3472152,-0.094342\PG=C01 [X(H4O2)]\\@

 Normal termination of Gaussian 16 at Tue Apr  8 18:16:44 2025.
