 Gaussian 16, Revision C.01,

 ----------------------------------------------------------------------
 #t hf aug-cc-pvdz symm=none int=(grid=ultrafine) guess=(read,tcheck) s
 table=(opt,rrhf)
 ----------------------------------------------------------------------
 -----
 title
 -----
 Symbolic Z-matrix:
 Charge =  0 Multiplicity = 1

 SCF Done:  E(RHF) =  -230.121883633     A.U. after   12 cycles
 Normal termination of Gaussian 16 at Tue Apr  8 18:26:49 2025.
 Gaussian 16:  ES64L-G16RevC.01  3-Jul-2019

 ----------------------------------------------------------------------
 #t hf aug-cc-pvdz iop(5/13=1,5/36=2,99/5=2) pseudo=read geom=check gue
 ss=(read,tcheck) scf=(maxcycle=1)
 ----------------------------------------------------------------------
 -----
 title
 -----
 Structure from the checkpoint file:  "3B-69_03a_methanol_ethyne_dimerAC_mol1.chk"
 Charge =  0 Multiplicity = 1

                         Standard orientation:
 ---------------------------------------------------------------------
 Center     Atomic      Atomic             Coordinates (Angstroms)
 Number     Number       Type             X           Y           Z
 ---------------------------------------------------------------------
      1          8           0       -1.294788   -0.722721    0.006537
      2          1           0       -0.404502   -0.294754    0.045808
      3          6           0       -2.296973    0.302697    0.003458
      4          1           0       -2.327006    0.804103    0.973658
      5          1           0       -3.259736   -0.173154   -0.173409
      6          1           0       -2.118801    1.044343   -0.777656
      7          8           0        1.108461    0.472751   -0.092414
      8          1           0        1.202521    1.365347    0.321993
      9          6           0        2.357679   -0.221256    0.024522
     10          1           0        3.111295    0.248070   -0.612184
     11          1           0        2.203215   -1.244235   -0.313534
     12          1           0        2.719394   -0.238610    1.054465
 ---------------------------------------------------------------------

 SCF Done:  E(RHF) =  -230.200820046     A.U. after    2 cycles

 The electronic state is 1-A.
 Alpha  occ. eigenvalues --  -20.60388 -20.52888 -11.30239 -11.26154  -1.34143
 Alpha  occ. eigenvalues --   -1.26970  -0.94609  -0.89955  -0.72889  -0.68112
 Alpha  occ. eigenvalues --   -0.64733  -0.61899  -0.59904  -0.57134  -0.53904
 Alpha  occ. eigenvalues --   -0.49667  -0.47383  -0.43144
 Alpha virt. eigenvalues --    0.02721   0.04439   0.05106   0.05213   0.06933
 Alpha virt. eigenvalues --    0.06958   0.07639   0.09662   0.12783   0.14321
 Alpha virt. eigenvalues --    0.14572   0.15822   0.16114   0.16659   0.17174

 Mulliken charges:
               1
     1  O   -0.499979
     2  H    0.204466
     3  C    0.841993
     4  H   -0.139851
     5  H   -0.227022
     6  H   -0.144777
     7  O   -0.578773
     8  H    0.176212
     9  C    0.837465
    10  H   -0.157751
    11  H   -0.187652
    12  H   -0.124331
 Sum of Mulliken charges =  -0.00000

 Dipole moment (field-independent basis, Debye):
    X=              2.9759    Y=              2.6101    Z=              0.8321  Tot=              4.0449

 Test job not archived.
 1\1\GINC-SE457\SP\RHF\Aug-CC-pVDZ\C2H8O2\OHZDE\08-Apr-2025\0\\#t hf au
 g-cc-pvdz iop(5/13=1,5/36=2,99/5=2) pseudo=read geom=check guess=(read
 ,tcheck) scf=(maxcycle=1)\\title\\0,1\O,0,3.211523,12.095308,13.092198
 \H,0,4.065726,12.592587,13.07324\C,0,3.425896,10.840226,13.751501\H,0,
 4.053811,10.192498,13.135247\H,0,2.456381,10.363499,13.883414\H,0,3.89
 4402,10.968294,14.729265\O,0,5.494023,13.503692,13.237802\H,0,6.348226
 ,13.006413,13.25676\C,0,5.708396,14.758774,12.578499\H,0,6.336311,15.4
 06502,13.194753\H,0,4.738881,15.235501,12.446586\H,0,6.176902,14.63070

 Normal termination of Gaussian 16 at Tue Apr  8 18:26:52 2025.
