 Gaussian 16, Revision C.01,

 ----------------------------------------------------------------------
 #t hf aug-cc-pvdz symm=none int=(grid=ultrafine) guess=(read,tcheck) s
 table=(opt,rrhf)
 ----------------------------------------------------------------------
 -----
 title
 -----
 Symbolic Z-matrix:
 Charge =  0 Multiplicity = 1

 SCF Done:  E(RHF) =  -906.647118800     A.U. after   15 cycles
 Normal termination of Gaussian 16 at Tue Apr  8 19:09:05 2025.
 Gaussian 16:  ES64L-G16RevC.01  3-Jul-2019

 ----------------------------------------------------------------------
 #t hf aug-cc-pvdz iop(5/13=1,5/36=2,99/5=2) pseudo=read geom=check gue
 ss=(read,tcheck) scf=(maxcycle=1)
 ----------------------------------------------------------------------
 -----
 title
 -----
 Structure from the checkpoint file:  "3B-69_20c_maleic_acid_dimerAB_mol1.chk"
 Charge =  0 Multiplicity = 1

                         Standard orientation:
 ---------------------------------------------------------------------
 Center     Atomic      Atomic             Coordinates (Angstroms)
 Number     Number       Type             X           Y           Z
 ---------------------------------------------------------------------
      1          6           0       -2.673080   -0.186078   -0.187101
      2          8           0       -2.912126    0.584323    0.849075
      3          1           0       -2.254573    1.356771    0.914476
      4          8           0       -3.424321   -1.131922   -0.406228
      5          6           0       -1.517712    0.058329   -1.098398
      6          1           0       -1.446284   -0.704058   -1.862986
      7          6           0       -0.592736    1.025202   -1.128011
      8          1           0        0.157415    0.972632   -1.907302
      9          6           0       -0.458186    2.192619   -0.223075
     10          8           0        0.564208    2.948974   -0.528848
     11          1           0        0.607493    3.763177    0.063160
     12          8           0       -1.220731    2.445685    0.712620
     13          6           0        0.337920   -2.276259    0.266206
     14          8           0        0.098874   -1.505858    1.302382
     15          1           0        0.756427   -0.733410    1.367783
     16          8           0       -0.413321   -3.222103    0.047079
     17          6           0        1.493288   -2.031852   -0.645091
     18          1           0        1.564716   -2.794239   -1.409679
     19          6           0        2.418263   -1.064979   -0.674704
     20          1           0        3.168415   -1.117549   -1.453995
     21          6           0        2.552814    0.102438    0.230232
     22          8           0        3.575208    0.858793   -0.075541
     23          1           0        3.618493    1.672996    0.516467
     24          8           0        1.790269    0.355504    1.165927
 ---------------------------------------------------------------------

 SCF Done:  E(RHF) =  -906.930577142     A.U. after    2 cycles

 The electronic state is 1-A.
 Alpha  occ. eigenvalues --  -20.69576 -20.68618 -20.62597 -20.61038 -20.60584
 Alpha  occ. eigenvalues --  -20.58719 -20.55952 -20.54051 -11.47305 -11.45892
 Alpha  occ. eigenvalues --  -11.40778 -11.39033 -11.32765 -11.31915 -11.31370
 Alpha  occ. eigenvalues --  -11.30496  -1.49654  -1.48501  -1.41881  -1.40012
 Alpha  occ. eigenvalues --   -1.38699  -1.37192  -1.31204  -1.29305  -1.13339
 Alpha  occ. eigenvalues --   -1.11947  -0.98943  -0.97666  -0.89418  -0.87997
 Alpha  occ. eigenvalues --   -0.83852  -0.82229  -0.80701  -0.79339  -0.78109
 Alpha  occ. eigenvalues --   -0.76622  -0.72231  -0.70468  -0.70120  -0.69249
 Alpha  occ. eigenvalues --   -0.68806  -0.68083  -0.65304  -0.64625  -0.63655
 Alpha  occ. eigenvalues --   -0.62355  -0.62050  -0.60903  -0.60517  -0.58869
 Alpha  occ. eigenvalues --   -0.56981  -0.55516  -0.51856  -0.50281  -0.49025
 Alpha  occ. eigenvalues --   -0.47954  -0.47073  -0.46123  -0.44831  -0.42838
 Alpha virt. eigenvalues --    0.00534   0.00671   0.02150   0.02536   0.02937
 Alpha virt. eigenvalues --    0.04155   0.04979   0.05972   0.06822   0.07600
 Alpha virt. eigenvalues --    0.08404   0.08832   0.10359   0.10677   0.10753

 Mulliken charges:
               1
     1  C    0.570543
     2  O   -0.515628
     3  H    0.331766
     4  O   -0.498008
     5  C    0.607572
     6  H   -0.526783
     7  C    1.082744
     8  H   -0.568589
     9  C    0.470041
    10  O   -0.603394
    11  H    0.297942
    12  O   -0.662835
    13  C    0.626445
    14  O   -0.512281
    15  H    0.374727
    16  O   -0.520116
    17  C    0.509810
    18  H   -0.448286
    19  C    0.756518
    20  H   -0.442869
    21  C    0.565187
    22  O   -0.552546
    23  H    0.284061
    24  O   -0.626022
 Sum of Mulliken charges =  -0.00000

 Dipole moment (field-independent basis, Debye):
    X=             11.4872    Y=              7.2136    Z=             -3.9475  Tot=             14.1270

 Test job not archived.
 1\1\GINC-SE335\SP\RHF\Aug-CC-pVDZ\C8H8O8\OHZDE\08-Apr-2025\0\\#t hf au
 g-cc-pvdz iop(5/13=1,5/36=2,99/5=2) pseudo=read geom=check guess=(read
 ,tcheck) scf=(maxcycle=1)\\title\\0,1\C,0,-1.647553,10.845738,6.203201
 \O,0,-2.15126,10.135432,5.220314\H,0,-2.044314,9.136168,5.373168\O,0,-
 1.751616,12.068249,6.16272\C,0,-0.955798,10.207203,7.360275\H,0,-0.559
 945,10.946547,8.044089\C,0,-0.752528,8.923996,7.681774\H,0,-0.206856,8
 .720057,8.594701\C,0,-1.192451,7.714058,6.945301\O,0,-0.824514,6.60627
 6,7.53547\H,0,-1.177353,5.797481,7.049024\O,0,-1.842498,7.729101,5.897

 Normal termination of Gaussian 16 at Tue Apr  8 19:09:29 2025.
