 Gaussian 16, Revision C.01,

 ----------------------------------------------------------------------
 #t hf aug-cc-pvdz symm=none int=(grid=ultrafine) guess=(read,tcheck) s
 table=(opt,rrhf)
 ----------------------------------------------------------------------
 -----
 title
 -----
 Symbolic Z-matrix:
 Charge =  0 Multiplicity = 1

 SCF Done:  E(RHF) =  -641.513118683     A.U. after   13 cycles
 Normal termination of Gaussian 16 at Tue Apr  8 19:06:04 2025.
 Gaussian 16:  ES64L-G16RevC.01  3-Jul-2019

 ----------------------------------------------------------------------
 #t hf aug-cc-pvdz iop(5/13=1,5/36=2,99/5=2) pseudo=read geom=check gue
 ss=(read,tcheck) scf=(maxcycle=1)
 ----------------------------------------------------------------------
 -----
 title
 -----
 Structure from the checkpoint file:  "3B-69_17c_oxazolidinone_dimerAC_mol1.chk"
 Charge =  0 Multiplicity = 1

                         Standard orientation:
 ---------------------------------------------------------------------
 Center     Atomic      Atomic             Coordinates (Angstroms)
 Number     Number       Type             X           Y           Z
 ---------------------------------------------------------------------
      1          7           0        1.306452   -0.052687    1.103965
      2          8           0        2.305474   -0.429070   -0.835255
      3          8           0        1.347557   -2.183168    0.196584
      4          6           0        1.899274    1.242646    0.797006
      5          6           0        2.336673    1.015984   -0.660215
      6          6           0        1.609687   -0.985946    0.189771
      7          1           0        0.848570   -0.292397    1.986650
      8          1           0        2.732903    1.463314    1.461920
      9          1           0        1.167209    2.044066    0.879201
     10          1           0        1.642006    1.447405   -1.379295
     11          1           0        3.343991    1.356189   -0.870643
     12          7           0       -1.306452    0.052687   -1.103965
     13          8           0       -2.305473    0.429070    0.835255
     14          8           0       -1.347558    2.183169   -0.196584
     15          6           0       -1.899275   -1.242645   -0.797006
     16          6           0       -2.336673   -1.015984    0.660215
     17          6           0       -1.609686    0.985946   -0.189770
     18          1           0       -0.848569    0.292397   -1.986651
     19          1           0       -2.732902   -1.463315   -1.461920
     20          1           0       -1.167208   -2.044066   -0.879201
     21          1           0       -1.642005   -1.447406    1.379295
     22          1           0       -3.343991   -1.356189    0.870643
 ---------------------------------------------------------------------

 SCF Done:  E(RHF) =  -641.714476597     A.U. after    2 cycles

 The electronic state is 1-A.
 Alpha  occ. eigenvalues --  -20.62089 -20.62089 -20.53814 -20.53814 -15.66872
 Alpha  occ. eigenvalues --  -15.66872 -11.41954 -11.41954 -11.32166 -11.32166
 Alpha  occ. eigenvalues --  -11.30000 -11.29999  -1.43023  -1.42926  -1.31544
 Alpha  occ. eigenvalues --   -1.31474  -1.21910  -1.21834  -1.03092  -1.02983
 Alpha  occ. eigenvalues --   -0.89538  -0.89463  -0.84048  -0.83910  -0.73514
 Alpha  occ. eigenvalues --   -0.73059  -0.72659  -0.71834  -0.67642  -0.67627
 Alpha  occ. eigenvalues --   -0.62355  -0.62184  -0.61514  -0.60845  -0.60688
 Alpha  occ. eigenvalues --   -0.60195  -0.59417  -0.58783  -0.54177  -0.54101
 Alpha  occ. eigenvalues --   -0.47646  -0.47618  -0.46968  -0.46870  -0.42280
 Alpha  occ. eigenvalues --   -0.40580
 Alpha virt. eigenvalues --    0.02948   0.03179   0.03603   0.05001   0.05303
 Alpha virt. eigenvalues --    0.05518   0.07044   0.07142   0.08386   0.08668
 Alpha virt. eigenvalues --    0.09588   0.10544   0.11328   0.11565   0.12516

 Mulliken charges:
               1
     1  N   -0.215709
     2  O   -0.695766
     3  O   -0.551659
     4  C    0.819030
     5  C    0.818672
     6  C    0.746130
     7  H   -0.114898
     8  H   -0.229523
     9  H   -0.181200
    10  H   -0.222661
    11  H   -0.172416
    12  N   -0.215711
    13  O   -0.695766
    14  O   -0.551660
    15  C    0.819030
    16  C    0.818670
    17  C    0.746130
    18  H   -0.114895
    19  H   -0.229526
    20  H   -0.181198
    21  H   -0.222659
    22  H   -0.172416
 Sum of Mulliken charges =  -0.00000

 Dipole moment (field-independent basis, Debye):
    X=              0.0000    Y=             -0.0000    Z=             -0.0000  Tot=              0.0000

 Test job not archived.
 1\1\GINC-SE128\SP\RHF\Aug-CC-pVDZ\C6H10N2O4\OHZDE\08-Apr-2025\0\\#t hf
  aug-cc-pvdz iop(5/13=1,5/36=2,99/5=2) pseudo=read geom=check guess=(r
 ead,tcheck) scf=(maxcycle=1)\\title\\0,1\N,0,7.885048,4.838445,5.37043
 8\O,0,6.875708,6.333394,4.087222\O,0,7.551157,7.002241,6.125743\C,0,7.
 491717,4.046721,4.211985\C,0,7.051351,5.158913,3.244881\C,0,7.465555,6
 .109764,5.290126\H,0,8.287993,4.45773,6.230055\H,0,6.687519,3.35575,4.
 460112\H,0,8.33072,3.476585,3.817056\H,0,7.813568,5.39837,2.504984\H,0
 ,6.107802,4.958202,2.750776\N,0,10.523419,6.507555,3.968155\O,0,11.532

 Normal termination of Gaussian 16 at Tue Apr  8 19:06:20 2025.
