 Gaussian 16, Revision C.01,

 ----------------------------------------------------------------------
 #t hf aug-cc-pvdz symm=none int=(grid=ultrafine) guess=(read,tcheck) s
 table=(opt,rrhf)
 ----------------------------------------------------------------------
 -----
 title
 -----
 Symbolic Z-matrix:
 Charge =  0 Multiplicity = 1

 SCF Done:  E(RHF) =  -641.508301789     A.U. after   13 cycles
 Normal termination of Gaussian 16 at Tue Apr  8 19:04:12 2025.
 Gaussian 16:  ES64L-G16RevC.01  3-Jul-2019

 ----------------------------------------------------------------------
 #t hf aug-cc-pvdz iop(5/13=1,5/36=2,99/5=2) pseudo=read geom=check gue
 ss=(read,tcheck) scf=(maxcycle=1)
 ----------------------------------------------------------------------
 -----
 title
 -----
 Structure from the checkpoint file:  "3B-69_17b_oxazolidinone_dimerAB_mol1.chk"
 Charge =  0 Multiplicity = 1

                         Standard orientation:
 ---------------------------------------------------------------------
 Center     Atomic      Atomic             Coordinates (Angstroms)
 Number     Number       Type             X           Y           Z
 ---------------------------------------------------------------------
      1          7           0       -1.822875   -0.200577   -0.172460
      2          8           0       -3.917419    0.355932    0.278612
      3          8           0       -2.381190    1.998794    0.291260
      4          6           0       -2.495850   -1.492940   -0.151180
      5          6           0       -3.967128   -1.045728   -0.112122
      6          6           0       -2.646187    0.812385    0.135342
      7          1           0       -0.811293   -0.068615   -0.246875
      8          1           0       -2.205070   -2.075630    0.721553
      9          1           0       -2.272994   -2.071651   -1.045819
     10          1           0       -4.447591   -1.096159   -1.088018
     11          1           0       -4.564251   -1.575755    0.620835
     12          7           0        2.498824   -0.990019    0.237511
     13          8           0        3.118862    1.050622   -0.355463
     14          8           0        0.922933    0.569737   -0.431600
     15          6           0        3.952696   -1.073105    0.291384
     16          6           0        4.326991    0.411876    0.146754
     17          6           0        2.068202    0.205660   -0.190965
     18          1           0        1.862751   -1.783391    0.348065
     19          1           0        4.343438   -1.690828   -0.515760
     20          1           0        4.292180   -1.484882    1.240142
     21          1           0        4.571272    0.878312    1.099921
     22          1           0        5.122081    0.593210   -0.567151
 ---------------------------------------------------------------------

 SCF Done:  E(RHF) =  -641.710673455     A.U. after    2 cycles

 The electronic state is 1-A.
 Alpha  occ. eigenvalues --  -20.63331 -20.59430 -20.55372 -20.50076 -15.68658
 Alpha  occ. eigenvalues --  -15.62752 -11.43606 -11.38420 -11.33680 -11.32268
 Alpha  occ. eigenvalues --  -11.30560 -11.28764  -1.44324  -1.40068  -1.33178
 Alpha  occ. eigenvalues --   -1.27964  -1.23588  -1.18665  -1.04807  -1.01064
 Alpha  occ. eigenvalues --   -0.91192  -0.87418  -0.85632  -0.81101  -0.74895
 Alpha  occ. eigenvalues --   -0.73978  -0.70625  -0.70010  -0.69341  -0.65307
 Alpha  occ. eigenvalues --   -0.64328  -0.62888  -0.62021  -0.60685  -0.59239
 Alpha  occ. eigenvalues --   -0.58737  -0.57443  -0.56542  -0.55797  -0.52333
 Alpha  occ. eigenvalues --   -0.49085  -0.48515  -0.44843  -0.43320  -0.43166
 Alpha  occ. eigenvalues --   -0.37999
 Alpha virt. eigenvalues --    0.01380   0.02600   0.03147   0.03851   0.04703
 Alpha virt. eigenvalues --    0.04953   0.06117   0.06526   0.07626   0.07798
 Alpha virt. eigenvalues --    0.08911   0.10388   0.11183   0.11646   0.12094

 Mulliken charges:
               1
     1  N   -0.232347
     2  O   -0.641168
     3  O   -0.466463
     4  C    0.658983
     5  C    0.851766
     6  C    0.662001
     7  H   -0.058119
     8  H   -0.234296
     9  H   -0.183019
    10  H   -0.173631
    11  H   -0.168386
    12  N   -0.326014
    13  O   -0.625870
    14  O   -0.432662
    15  C    0.675172
    16  C    0.802850
    17  C    0.650223
    18  H   -0.080434
    19  H   -0.177723
    20  H   -0.136369
    21  H   -0.177201
    22  H   -0.187291
 Sum of Mulliken charges =  -0.00000

 Dipole moment (field-independent basis, Debye):
    X=              7.3319    Y=             -9.9834    Z=              0.5036  Tot=             12.3967

 Test job not archived.
 1\1\GINC-SE084\SP\RHF\Aug-CC-pVDZ\C6H10N2O4\OHZDE\08-Apr-2025\0\\#t hf
  aug-cc-pvdz iop(5/13=1,5/36=2,99/5=2) pseudo=read geom=check guess=(r
 ead,tcheck) scf=(maxcycle=1)\\title\\0,1\N,0,7.885048,10.511445,5.3704
 38\O,0,6.875708,12.006394,4.087222\O,0,7.551157,12.675241,6.125743\C,0
 ,7.491717,9.719721,4.211985\C,0,7.051351,10.831913,3.244881\C,0,7.4655
 55,11.782764,5.290126\H,0,8.287993,10.13073,6.230055\H,0,6.687519,9.02
 875,4.460112\H,0,8.33072,9.149585,3.817056\H,0,7.813568,11.07137,2.504
 984\H,0,6.107802,10.631202,2.750776\N,0,8.750652,7.674945,8.637451\O,0

 Normal termination of Gaussian 16 at Tue Apr  8 19:04:31 2025.
