 Gaussian 16, Revision C.01,

 ----------------------------------------------------------------------
 #t hf aug-cc-pvdz symm=none int=(grid=ultrafine) guess=(read,tcheck) s
 table=(opt,rrhf)
 ----------------------------------------------------------------------
 -----
 title
 -----
 Symbolic Z-matrix:
 Charge =  0 Multiplicity = 1

 SCF Done:  E(RHF) =  -76.0380099697     A.U. after   10 cycles
 Normal termination of Gaussian 16 at Tue Apr  8 18:18:42 2025.
 Gaussian 16:  ES64L-G16RevC.01  3-Jul-2019

 ----------------------------------------------------------------------
 #t hf aug-cc-pvdz iop(5/13=1,5/36=2,99/5=2) pseudo=read geom=check gue
 ss=(read,tcheck) scf=(maxcycle=1)
 ----------------------------------------------------------------------
 -----
 title
 -----
 Structure from the checkpoint file:  "3B-69_01a_water_dimerBC_mol3.chk"
 Charge =  0 Multiplicity = 1

                         Standard orientation:
 ---------------------------------------------------------------------
 Center     Atomic      Atomic             Coordinates (Angstroms)
 Number     Number       Type             X           Y           Z
 ---------------------------------------------------------------------
      1          8           0        0.000000    0.116861   -0.000000
      2          1           0        0.794549   -0.467224    0.000000
      3          1           0       -0.794549   -0.467662    0.000000
 ---------------------------------------------------------------------

 SCF Done:  E(RHF) =  -76.0641108122     A.U. after    2 cycles

 The electronic state is 1-A'.
 Alpha  occ. eigenvalues --  -20.58474  -1.29974  -0.72389  -0.59104  -0.52682
 Alpha virt. eigenvalues --    0.03514   0.05779   0.17254   0.19524   0.21914
 Alpha virt. eigenvalues --    0.22890   0.28308   0.32368   0.38265   0.40361
 Alpha virt. eigenvalues --    0.43244   0.53149   0.64086   0.64891   0.80888

 Mulliken charges:
               1
     1  O   -0.320935
     2  H    0.160323
     3  H    0.160612
 Sum of Mulliken charges =  -0.00000

 Dipole moment (field-independent basis, Debye):
    X=              0.0001    Y=             -2.0494    Z=              0.0000  Tot=              2.0494

 Test job not archived.
 1\1\GINC-SE365\SP\RHF\Aug-CC-pVDZ\H2O1\OHZDE\08-Apr-2025\0\\#t hf aug-
 cc-pvdz iop(5/13=1,5/36=2,99/5=2) pseudo=read geom=check guess=(read,t
 check) scf=(maxcycle=1)\\title\\0,1\O,0,2.201771,1.306708,0.969979\H,0
 ,2.989729,0.844404,0.598684\H,0,2.274831,1.268852,1.952936\\Version=ES
 64L-G16RevC.01\State=1-A'\HF=-76.0641108\RMSD=2.820e-03\Dipole=0.59408
 54,-0.3451007,0.4219972\Quadrupole=-0.1481778,-0.8456415,0.9938193,-0.
 6255887,-0.6538464,0.3929685\PG=CS [SG(H2O1)]\\@

 Normal termination of Gaussian 16 at Tue Apr  8 18:18:43 2025.
