 Gaussian 16, Revision C.01,

 ----------------------------------------------------------------------
 #t hf aug-cc-pvdz symm=none int=(grid=ultrafine) guess=(read,tcheck) s
 table=(opt,rrhf)
 ----------------------------------------------------------------------
 -----
 title
 -----
 Symbolic Z-matrix:
 Charge =  0 Multiplicity = 1

 SCF Done:  E(RHF) =  -678.769192438     A.U. after   14 cycles
 Normal termination of Gaussian 16 at Tue Apr  8 18:51:16 2025.
 Gaussian 16:  ES64L-G16RevC.01  3-Jul-2019

 ----------------------------------------------------------------------
 #t hf aug-cc-pvdz iop(5/13=1,5/36=2,99/5=2) pseudo=read geom=check gue
 ss=(read,tcheck) scf=(maxcycle=1)
 ----------------------------------------------------------------------
 -----
 title
 -----
 Structure from the checkpoint file:  "3B-69_08b_vinylene_carbonate_dimerBC_mol1.chk"
 Charge =  0 Multiplicity = 1

                         Standard orientation:
 ---------------------------------------------------------------------
 Center     Atomic      Atomic             Coordinates (Angstroms)
 Number     Number       Type             X           Y           Z
 ---------------------------------------------------------------------
      1          6           0       -1.550749    0.461105    0.916747
      2          6           0       -2.015298    1.439930    0.158069
      3          6           0       -3.398675   -0.279155   -0.054730
      4          1           0       -0.705893    0.355282    1.569506
      5          1           0       -1.691263    2.437284   -0.063754
      6          8           0       -2.413497   -0.629974    0.804935
      7          8           0       -3.191643    0.999779   -0.451425
      8          8           0       -4.300100   -0.980966   -0.416868
      9          6           0        1.550749   -0.461104   -0.916747
     10          6           0        2.015298   -1.439929   -0.158069
     11          6           0        3.398675    0.279154    0.054730
     12          1           0        0.705893   -0.355282   -1.569506
     13          1           0        1.691263   -2.437284    0.063753
     14          8           0        2.413498    0.629974   -0.804935
     15          8           0        3.191643   -0.999779    0.451425
     16          8           0        4.300100    0.980965    0.416868
 ---------------------------------------------------------------------

 SCF Done:  E(RHF) =  -678.990082874     A.U. after    2 cycles

 The electronic state is 1-A.
 Alpha  occ. eigenvalues --  -20.68175 -20.68175 -20.67990 -20.67989 -20.58285
 Alpha  occ. eigenvalues --  -20.58285 -11.47786 -11.47786 -11.35704 -11.35704
 Alpha  occ. eigenvalues --  -11.35527 -11.35526  -1.52992  -1.52984  -1.39972
 Alpha  occ. eigenvalues --   -1.39971  -1.37669  -1.37669  -1.08557  -1.08438
 Alpha  occ. eigenvalues --   -0.92367  -0.92333  -0.89992  -0.89977  -0.78286
 Alpha  occ. eigenvalues --   -0.78135  -0.75573  -0.75486  -0.71157  -0.71084
 Alpha  occ. eigenvalues --   -0.68126  -0.68107  -0.64713  -0.64686  -0.63413
 Alpha  occ. eigenvalues --   -0.63408  -0.62147  -0.62129  -0.55502  -0.55304
 Alpha  occ. eigenvalues --   -0.51949  -0.51947  -0.40716  -0.39643
 Alpha virt. eigenvalues --    0.02252   0.03031   0.03509   0.04636   0.06145
 Alpha virt. eigenvalues --    0.07884   0.08057   0.08728   0.08904   0.09677
 Alpha virt. eigenvalues --    0.10544   0.10770   0.11169   0.11275   0.12066

 Mulliken charges:
               1
     1  C    0.909024
     2  C    0.609558
     3  C    0.556742
     4  H   -0.295854
     5  H   -0.270502
     6  O   -0.583758
     7  O   -0.533190
     8  O   -0.392020
     9  C    0.909021
    10  C    0.609558
    11  C    0.556740
    12  H   -0.295852
    13  H   -0.270501
    14  O   -0.583757
    15  O   -0.533189
    16  O   -0.392020
 Sum of Mulliken charges =  -0.00000

 Dipole moment (field-independent basis, Debye):
    X=             -0.0000    Y=             -0.0000    Z=             -0.0000  Tot=              0.0000

 Test job not archived.
 1\1\GINC-SE009\SP\RHF\Aug-CC-pVDZ\C6H4O6\OHZDE\08-Apr-2025\0\\#t hf au
 g-cc-pvdz iop(5/13=1,5/36=2,99/5=2) pseudo=read geom=check guess=(read
 ,tcheck) scf=(maxcycle=1)\\title\\0,1\C,0,7.061072,10.034211,7.907066\
 C,0,6.442408,9.43803,6.901422\C,0,6.974868,7.871144,8.37642\H,0,7.3227
 4,11.050703,8.129207\H,0,6.016871,9.772782,5.976338\O,0,7.397394,9.065
 51,8.853531\O,0,6.361718,8.073493,7.185201\O,0,7.124323,6.807704,8.908
 405\C,0,10.244426,11.06579,6.284242\C,0,10.863089,11.66197,7.289886\C,
 0,10.33063,13.228856,5.814889\H,0,9.982757,10.049297,6.062101\H,0,11.2

 Normal termination of Gaussian 16 at Tue Apr  8 18:51:26 2025.
