 Gaussian 16, Revision C.01,

 ----------------------------------------------------------------------
 #t hf aug-cc-pvdz symm=none int=(grid=ultrafine) guess=(read,tcheck) s
 table=(opt,rrhf)
 ----------------------------------------------------------------------
 -----
 title
 -----
 Symbolic Z-matrix:
 Charge =  0 Multiplicity = 1

 SCF Done:  E(RHF) =  -899.256391679     A.U. after   14 cycles
 Normal termination of Gaussian 16 at Tue Apr  8 19:18:19 2025.
 Gaussian 16:  ES64L-G16RevC.01  3-Jul-2019

 ----------------------------------------------------------------------
 #t hf aug-cc-pvdz iop(5/13=1,5/36=2,99/5=2) pseudo=read geom=check gue
 ss=(read,tcheck) scf=(maxcycle=1)
 ----------------------------------------------------------------------
 -----
 title
 -----
 Structure from the checkpoint file:  "3B-69_14b_cyanoacetamide_trimer_mol1.chk"
 Charge =  0 Multiplicity = 1

                         Standard orientation:
 ---------------------------------------------------------------------
 Center     Atomic      Atomic             Coordinates (Angstroms)
 Number     Number       Type             X           Y           Z
 ---------------------------------------------------------------------
      1          6           0        1.526040    2.265484   -0.086158
      2          6           0       -0.899181    2.320806   -0.581687
      3          6           0        0.413655    2.010356   -1.112729
      4          1           0        0.411335    0.975853   -1.457504
      5          1           0        0.579181    2.624078   -2.001214
      6          1           0        3.533393    2.068479    0.151693
      7          1           0        2.904628    1.488331   -1.393203
      8          7           0        2.754483    1.938762   -0.497441
      9          7           0       -1.941856    2.566408   -0.164343
     10          8           0        1.277214    2.769764    1.011750
     11          6           0        1.629135   -1.504794   -0.376840
     12          6           0        3.983630   -1.571886    0.386154
     13          6           0        3.089032   -1.825802   -0.726117
     14          1           0        3.211212   -2.863492   -1.038111
     15          1           0        3.411821   -1.216106   -1.573193
     16          1           0       -0.242118   -1.602466   -1.160246
     17          1           0        1.036967   -2.231476   -2.202796
     18          7           0        0.748170   -1.777493   -1.343541
     19          7           0        4.696261   -1.371238    1.265679
     20          8           0        1.329199   -0.999205    0.707610
     21          6           0       -4.678568   -0.805320   -0.039207
     22          6           0       -3.726281   -0.288147    0.922711
     23          6           0       -2.289461   -0.718409    0.601460
     24          1           0       -4.032118   -0.596695    1.921624
     25          1           0       -3.774472    0.803659    0.897725
     26          1           0       -0.422282   -0.681248    1.391787
     27          1           0       -1.687078   -0.058871    2.448655
     28          7           0       -5.433129   -1.210224   -0.805986
     29          7           0       -1.413097   -0.531480    1.594332
     30          8           0       -1.993201   -1.183925   -0.500814
 ---------------------------------------------------------------------

 SCF Done:  E(RHF) =  -899.528025475     A.U. after    2 cycles

 The electronic state is 1-A.
 Alpha  occ. eigenvalues --  -20.58319 -20.56155 -20.55966 -15.68754 -15.68580
 Alpha  occ. eigenvalues --  -15.66088 -15.66055 -15.64898 -15.63349 -11.42346
 Alpha  occ. eigenvalues --  -11.40299 -11.39895 -11.33901 -11.32104 -11.31051
 Alpha  occ. eigenvalues --  -11.30426 -11.30310 -11.28465  -1.39118  -1.36893
 Alpha  occ. eigenvalues --   -1.36508  -1.22767  -1.21726  -1.21632  -1.20727
 Alpha  occ. eigenvalues --   -1.20015  -1.19029  -1.08858  -1.07275  -1.05732
 Alpha  occ. eigenvalues --   -0.86433  -0.85053  -0.83240  -0.78390  -0.77295
 Alpha  occ. eigenvalues --   -0.76258  -0.74111  -0.72243  -0.72098  -0.70115
 Alpha  occ. eigenvalues --   -0.69426  -0.68629  -0.67929  -0.67236  -0.65483
 Alpha  occ. eigenvalues --   -0.65418  -0.63004  -0.62337  -0.59860  -0.57969
 Alpha  occ. eigenvalues --   -0.57317  -0.56605  -0.55924  -0.54073  -0.50376
 Alpha  occ. eigenvalues --   -0.48580  -0.48530  -0.48286  -0.47633  -0.47465
 Alpha  occ. eigenvalues --   -0.46590  -0.45898  -0.45714  -0.45298  -0.44448
 Alpha  occ. eigenvalues --   -0.43364
 Alpha virt. eigenvalues --    0.00158   0.02110   0.03236   0.03357   0.04151
 Alpha virt. eigenvalues --    0.05085   0.05819   0.06244   0.06715   0.07100
 Alpha virt. eigenvalues --    0.07830   0.08141   0.09154   0.09964   0.10119

 Mulliken charges:
               1
     1  C    0.610745
     2  C   -0.266967
     3  C    0.533077
     4  H   -0.134650
     5  H    0.111192
     6  H    0.028615
     7  H    0.024112
     8  N   -0.162909
     9  N   -0.202222
    10  O   -0.565076
    11  C    0.377585
    12  C   -0.170037
    13  C    0.566737
    14  H    0.056669
    15  H    0.071236
    16  H    0.010952
    17  H    0.008887
    18  N   -0.142037
    19  N   -0.200171
    20  O   -0.587838
    21  C   -0.205459
    22  C    0.484932
    23  C    0.426232
    24  H    0.046398
    25  H    0.108929
    26  H    0.041711
    27  H    0.006705
    28  N   -0.197695
    29  N   -0.067201
    30  O   -0.612452
 Sum of Mulliken charges =   0.00000

 Dipole moment (field-independent basis, Debye):
    X=              5.8334    Y=             -1.9169    Z=             -4.8214  Tot=              7.8070

 Test job not archived.
 1\1\GINC-SE099\SP\RHF\Aug-CC-pVDZ\C9H12N6O3\OHZDE\08-Apr-2025\0\\#t hf
  aug-cc-pvdz iop(5/13=1,5/36=2,99/5=2) pseudo=read geom=check guess=(r
 ead,tcheck) scf=(maxcycle=1)\\title\\0,1\C,0,2.712508,16.885489,6.3681
 38\C,0,2.839569,14.413417,6.423138\C,0,2.199576,15.555103,5.799531\H,0
 ,2.351814,15.490712,4.721686\H,0,1.121642,15.473767,5.957336\H,0,2.523
 751,18.891506,6.112956\H,0,1.586888,17.904765,4.987234\N,0,2.203727,17
 .976476,5.788601\N,0,3.344448,13.505572,6.915663\O,0,3.504903,16.91192
 3,7.313138\C,0,4.07858,17.004511,2.842545\C,0,4.205641,19.476583,2.897

 Normal termination of Gaussian 16 at Tue Apr  8 19:19:01 2025.
