 Gaussian 16, Revision C.01,

 ----------------------------------------------------------------------
 #t hf aug-cc-pvdz symm=none int=(grid=ultrafine) guess=(read,tcheck) s
 table=(opt,rrhf)
 ----------------------------------------------------------------------
 -----
 title
 -----
 Symbolic Z-matrix:
 Charge =  0 Multiplicity = 1

 SCF Done:  E(RHF) =  -599.495322896     A.U. after   14 cycles
 Normal termination of Gaussian 16 at Tue Apr  8 19:03:36 2025.
 Gaussian 16:  ES64L-G16RevC.01  3-Jul-2019

 ----------------------------------------------------------------------
 #t hf aug-cc-pvdz iop(5/13=1,5/36=2,99/5=2) pseudo=read geom=check gue
 ss=(read,tcheck) scf=(maxcycle=1)
 ----------------------------------------------------------------------
 -----
 title
 -----
 Structure from the checkpoint file:  "3B-69_14b_cyanoacetamide_dimerAC_mol1.chk"
 Charge =  0 Multiplicity = 1

                         Standard orientation:
 ---------------------------------------------------------------------
 Center     Atomic      Atomic             Coordinates (Angstroms)
 Number     Number       Type             X           Y           Z
 ---------------------------------------------------------------------
      1          6           0       -3.142395   -0.008847    0.018117
      2          6           0       -1.068365    1.327899   -0.186376
      3          6           0       -2.090101    0.855083    0.727091
      4          1           0       -1.603933    0.314273    1.539642
      5          1           0       -2.569043    1.722899    1.186405
      6          1           0       -4.793530   -1.125775    0.406801
      7          1           0       -4.029870   -0.404070    1.826162
      8          7           0       -4.077305   -0.525293    0.820738
      9          7           0       -0.256611    1.705222   -0.907729
     10          8           0       -3.120785   -0.164231   -1.205403
     11          6           0        3.769423    0.384640    0.051911
     12          6           0        2.728054   -0.189199   -0.776258
     13          6           0        1.664622   -0.917527    0.055265
     14          1           0        3.187317   -0.843201   -1.516477
     15          1           0        2.242579    0.621939   -1.325217
     16          1           0        0.046901   -2.120303   -0.165335
     17          1           0        0.898726   -1.742007   -1.660433
     18          7           0        4.592017    0.845392    0.709411
     19          7           0        0.850283   -1.711905   -0.647991
     20          8           0        1.582627   -0.752016    1.274021
 ---------------------------------------------------------------------

 SCF Done:  E(RHF) =  -599.677764823     A.U. after    2 cycles

 The electronic state is 1-A.
 Alpha  occ. eigenvalues --  -20.56963 -20.55210 -15.69388 -15.67529 -15.65163
 Alpha  occ. eigenvalues --  -15.62973 -11.41152 -11.39323 -11.32514 -11.30545
 Alpha  occ. eigenvalues --  -11.30271 -11.28096  -1.37552  -1.35839  -1.22477
 Alpha  occ. eigenvalues --   -1.20995  -1.20601  -1.18668  -1.07705  -1.05551
 Alpha  occ. eigenvalues --   -0.85741  -0.83756  -0.77937  -0.76017  -0.72716
 Alpha  occ. eigenvalues --   -0.70667  -0.69236  -0.68550  -0.67734  -0.65650
 Alpha  occ. eigenvalues --   -0.63855  -0.62064  -0.58687  -0.56924  -0.56123
 Alpha  occ. eigenvalues --   -0.53677  -0.48867  -0.47733  -0.47220  -0.47035
 Alpha  occ. eigenvalues --   -0.45402  -0.45305  -0.44877  -0.43631
 Alpha virt. eigenvalues --    0.01142   0.02688   0.03343   0.04202   0.04627
 Alpha virt. eigenvalues --    0.06177   0.06404   0.07456   0.09289   0.09756
 Alpha virt. eigenvalues --    0.10145   0.10501   0.11364   0.12069   0.12358

 Mulliken charges:
               1
     1  C    0.552256
     2  C   -0.091571
     3  C    0.168644
     4  H    0.075622
     5  H    0.123657
     6  H    0.030301
     7  H    0.013869
     8  N   -0.127939
     9  N   -0.229959
    10  O   -0.520242
    11  C   -0.210850
    12  C    0.351511
    13  C    0.541747
    14  H    0.042759
    15  H    0.113640
    16  H    0.024738
    17  H    0.019413
    18  N   -0.185933
    19  N   -0.126584
    20  O   -0.565078
 Sum of Mulliken charges =  -0.00000

 Dipole moment (field-independent basis, Debye):
    X=             -7.6703    Y=             -3.7092    Z=              0.2949  Tot=              8.5252

 Test job not archived.
 1\1\GINC-SE225\SP\RHF\Aug-CC-pVDZ\C6H8N4O2\OHZDE\08-Apr-2025\0\\#t hf
 aug-cc-pvdz iop(5/13=1,5/36=2,99/5=2) pseudo=read geom=check guess=(re
 ad,tcheck) scf=(maxcycle=1)\\title\\0,1\C,0,2.712508,16.885489,6.36813
 8\C,0,2.839569,14.413417,6.423138\C,0,2.199576,15.555103,5.799531\H,0,
 2.351814,15.490712,4.721686\H,0,1.121642,15.473767,5.957336\H,0,2.5237
 51,18.891506,6.112956\H,0,1.586888,17.904765,4.987234\N,0,2.203727,17.
 976476,5.788601\N,0,3.344448,13.505572,6.915663\O,0,3.504903,16.911923
 ,7.313138\C,0,5.578016,10.975209,4.180296\C,0,5.959025,12.127875,4.971

 Normal termination of Gaussian 16 at Tue Apr  8 19:03:53 2025.
