 Gaussian 16, Revision C.01,

 ----------------------------------------------------------------------
 #t hf aug-cc-pvdz symm=none int=(grid=ultrafine) guess=(read,tcheck) s
 table=(opt,rrhf)
 ----------------------------------------------------------------------
 -----
 title
 -----
 Symbolic Z-matrix:
 Charge =  0 Multiplicity = 1

 SCF Done:  E(RHF) =  -1137.85486370     A.U. after   16 cycles
 Normal termination of Gaussian 16 at Tue Apr  8 19:56:43 2025.
 Gaussian 16:  ES64L-G16RevC.01  3-Jul-2019

 ----------------------------------------------------------------------
 #t hf aug-cc-pvdz iop(5/13=1,5/36=2,99/5=2) pseudo=read geom=check gue
 ss=(read,tcheck) scf=(maxcycle=1)
 ----------------------------------------------------------------------
 -----
 title
 -----
 Structure from the checkpoint file:  "3B-69_21a_p-benzoquinone_trimer_mol1.chk"
 Charge =  0 Multiplicity = 1

                         Standard orientation:
 ---------------------------------------------------------------------
 Center     Atomic      Atomic             Coordinates (Angstroms)
 Number     Number       Type             X           Y           Z
 ---------------------------------------------------------------------
      1          8           0       -2.143774    1.062257    1.928017
      2          6           0       -1.174454    1.575626    1.380828
      3          6           0        0.204126    1.281144    1.834711
      4          1           0        0.311504    0.593575    2.664421
      5          6           0       -1.350036    2.500935    0.236134
      6          1           0       -2.371976    2.699569   -0.066109
      7          8           0        2.053329    3.274006   -0.462844
      8          6           0        1.084009    2.760636    0.084345
      9          6           0        1.259591    1.835327    1.229040
     10          1           0        2.281531    1.636693    1.531284
     11          6           0       -0.294571    3.055118   -0.369538
     12          1           0       -0.401949    3.742687   -1.199248
     13          8           0        5.615588   -1.970960    0.655853
     14          6           0        4.595004   -1.514244    0.153495
     15          6           0        3.257223   -1.886061    0.668575
     16          1           0        3.226564   -2.577560    1.501395
     17          6           0        4.665995   -0.581915   -0.996755
     18          1           0        5.660349   -0.325877   -1.344424
     19          8           0        1.196176   -0.004526   -1.540885
     20          6           0        2.216761   -0.461243   -1.038527
     21          6           0        2.145769   -1.393571    0.111723
     22          1           0        1.151416   -1.649609    0.459392
     23          6           0        3.554541   -0.089424   -1.553607
     24          1           0        3.585201    0.602074   -2.386427
     25          8           0       -1.150954   -2.163605    0.808298
     26          6           0       -2.171538   -1.706889    0.305940
     27          6           0       -3.509319   -2.078706    0.821020
     28          1           0       -3.539978   -2.770205    1.653840
     29          6           0       -2.100547   -0.774560   -0.844310
     30          1           0       -1.106193   -0.518522   -1.191979
     31          8           0       -5.570366   -0.197171   -1.388440
     32          6           0       -4.549781   -0.653888   -0.886082
     33          6           0       -4.620773   -1.586216    0.264167
     34          1           0       -5.615126   -1.842254    0.611837
     35          6           0       -3.212001   -0.282069   -1.401162
     36          1           0       -3.181341    0.409429   -2.233982
 ---------------------------------------------------------------------

 SCF Done:  E(RHF) =  -1138.19008303     A.U. after    2 cycles

 The electronic state is 1-A.
 Alpha  occ. eigenvalues --  -20.60116 -20.59766 -20.59707 -20.59665 -20.59434
 Alpha  occ. eigenvalues --  -20.59102 -11.38164 -11.37842 -11.37675 -11.37554
 Alpha  occ. eigenvalues --  -11.37503 -11.37023 -11.29636 -11.29628 -11.29551
 Alpha  occ. eigenvalues --  -11.29447 -11.29403 -11.29376 -11.29320 -11.28975
 Alpha  occ. eigenvalues --  -11.28940 -11.28796 -11.28783 -11.28462  -1.38434
 Alpha  occ. eigenvalues --   -1.38022  -1.37703  -1.37671  -1.37587  -1.37097
 Alpha  occ. eigenvalues --   -1.15622  -1.15597  -1.14965  -1.07651  -1.07455
 Alpha  occ. eigenvalues --   -1.06912  -0.96545  -0.96485  -0.95901  -0.88066
 Alpha  occ. eigenvalues --   -0.88009  -0.87417  -0.83919  -0.83908  -0.83255
 Alpha  occ. eigenvalues --   -0.73133  -0.72980  -0.72958  -0.72652  -0.72422
 Alpha  occ. eigenvalues --   -0.72075  -0.70622  -0.70298  -0.69569  -0.65229
 Alpha  occ. eigenvalues --   -0.64976  -0.64565  -0.64193  -0.64065  -0.63305
 Alpha  occ. eigenvalues --   -0.62302  -0.61715  -0.61534  -0.60963  -0.60809
 Alpha  occ. eigenvalues --   -0.60095  -0.59962  -0.59702  -0.59096  -0.57647
 Alpha  occ. eigenvalues --   -0.56846  -0.56231  -0.48705  -0.48485  -0.48092
 Alpha  occ. eigenvalues --   -0.46188  -0.45974  -0.45076  -0.43071  -0.43034
 Alpha  occ. eigenvalues --   -0.42479  -0.41913  -0.41301  -0.40773
 Alpha virt. eigenvalues --   -0.01207  -0.00878  -0.00316   0.02953   0.03306
 Alpha virt. eigenvalues --    0.03539   0.03940   0.04502   0.05099   0.05173
 Alpha virt. eigenvalues --    0.05592   0.06053   0.06109   0.07153   0.08127

 Mulliken charges:
               1
     1  O   -0.596888
     2  C   -0.101183
     3  C    0.815574
     4  H   -0.630812
     5  C    0.987009
     6  H   -0.542362
     7  O   -0.544658
     8  C   -0.108370
     9  C    1.000878
    10  H   -0.588310
    11  C    0.739858
    12  H   -0.485243
    13  O   -0.488938
    14  C    0.139149
    15  C    0.512199
    16  H   -0.491400
    17  C    0.850590
    18  H   -0.457396
    19  O   -0.470419
    20  C   -0.879047
    21  C    1.500351
    22  H   -0.621109
    23  C    0.977242
    24  H   -0.572512
    25  O   -0.521319
    26  C   -1.019372
    27  C    1.101462
    28  H   -0.537262
    29  C    1.668234
    30  H   -0.607821
    31  O   -0.492285
    32  C   -0.032172
    33  C    0.944440
    34  H   -0.452862
    35  C    0.569518
    36  H   -0.564764
 Sum of Mulliken charges =  -0.00000

 Dipole moment (field-independent basis, Debye):
    X=              0.1316    Y=              0.0117    Z=             -0.0086  Tot=              0.1324

 Test job not archived.
 1\1\GINC-SE009\SP\RHF\Aug-CC-pVDZ\C18H12O6\OHZDE\08-Apr-2025\0\\#t hf
 aug-cc-pvdz iop(5/13=1,5/36=2,99/5=2) pseudo=read geom=check guess=(re
 ad,tcheck) scf=(maxcycle=1)\\title\\0,1\O,0,0.080654,12.312048,7.62370
 3\C,0,-0.510475,11.31644,7.221364\C,0,0.018253,9.957365,7.479383\H,0,0
 .942935,9.888301,8.038752\C,0,-1.783484,11.439808,6.471979\H,0,-2.1386
 94,12.448619,6.295076\O,0,-2.49858,8.000952,5.895778\C,0,-1.907451,8.9
 9656,6.298118\C,0,-0.634441,8.873192,7.047503\H,0,-0.279231,7.864381,7
 .224406\C,0,-2.436179,10.355635,6.040099\H,0,-3.360861,10.424699,5.480

 Normal termination of Gaussian 16 at Tue Apr  8 19:58:10 2025.
