 Gaussian 16, Revision C.01,

 ----------------------------------------------------------------------
 #t hf aug-cc-pvdz symm=none int=(grid=ultrafine) guess=(read,tcheck) s
 table=(opt,rrhf)
 ----------------------------------------------------------------------
 -----
 title
 -----
 Symbolic Z-matrix:
 Charge =  0 Multiplicity = 1

 SCF Done:  E(RHF) =  -376.426729411     A.U. after   13 cycles
 Normal termination of Gaussian 16 at Tue Apr  8 18:41:52 2025.
 Gaussian 16:  ES64L-G16RevC.01  3-Jul-2019

 ----------------------------------------------------------------------
 #t hf aug-cc-pvdz iop(5/13=1,5/36=2,99/5=2) pseudo=read geom=check gue
 ss=(read,tcheck) scf=(maxcycle=1)
 ----------------------------------------------------------------------
 -----
 title
 -----
 Structure from the checkpoint file:  "3B-69_07a_oxalic_acid_dimerAC_mol2.chk"
 Charge =  0 Multiplicity = 1

                         Standard orientation:
 ---------------------------------------------------------------------
 Center     Atomic      Atomic             Coordinates (Angstroms)
 Number     Number       Type             X           Y           Z
 ---------------------------------------------------------------------
      1          6           0        0.754696   -0.146745    0.004825
      2          1           0        2.445421    0.701399    0.009054
      3          8           0        1.179563   -1.287574   -0.001592
      4          8           0        1.474059    0.941234   -0.002456
      5          6           0       -0.754696    0.146745   -0.004825
      6          8           0       -1.179563    1.287574    0.001592
      7          8           0       -1.474059   -0.941233    0.002456
      8          1           0       -2.445421   -0.701399   -0.009053
 ---------------------------------------------------------------------

 SCF Done:  E(RHF) =  -376.547722887     A.U. after    2 cycles

 The electronic state is 1-A.
 Alpha  occ. eigenvalues --  -20.66236 -20.66236 -20.59572 -20.59572 -11.43701
 Alpha  occ. eigenvalues --  -11.43652  -1.47667  -1.45068  -1.36224  -1.34705
 Alpha  occ. eigenvalues --   -0.98671  -0.87674  -0.77426  -0.74509  -0.73612
 Alpha  occ. eigenvalues --   -0.70466  -0.67066  -0.65789  -0.61358  -0.55398
 Alpha  occ. eigenvalues --   -0.52351  -0.52140  -0.48092
 Alpha virt. eigenvalues --    0.03042   0.03531   0.06195   0.08727   0.09604
 Alpha virt. eigenvalues --    0.10536   0.11189   0.11970   0.13247   0.13478
 Alpha virt. eigenvalues --    0.17975   0.18751   0.19680   0.20788   0.24034

 Mulliken charges:
               1
     1  C    0.598383
     2  H    0.254142
     3  O   -0.420204
     4  O   -0.432321
     5  C    0.598383
     6  O   -0.420204
     7  O   -0.432322
     8  H    0.254142
 Sum of Mulliken charges =  -0.00000

 Dipole moment (field-independent basis, Debye):
    X=             -0.0000    Y=             -0.0000    Z=              0.0000  Tot=              0.0000

 Test job not archived.
 1\1\GINC-SE195\SP\RHF\Aug-CC-pVDZ\C2H2O4\OHZDE\08-Apr-2025\0\\#t hf au
 g-cc-pvdz iop(5/13=1,5/36=2,99/5=2) pseudo=read geom=check guess=(read
 ,tcheck) scf=(maxcycle=1)\\title\\0,1\C,0,-1.599714,6.025105,4.897591\
 H,0,-0.099127,5.378673,5.850628\O,0,-0.967931,6.64465,4.061493\O,0,-1.
 098297,5.340779,5.888304\C,0,-3.137243,6.004895,4.888196\O,0,-3.769026
 ,5.38535,5.724294\O,0,-3.63866,6.689221,3.897483\H,0,-4.63783,6.651327
 ,3.935158\\Version=ES64L-G16RevC.01\State=1-A\HF=-376.5477229\RMSD=4.0
 31e-03\Dipole=-0.0000001,0.,-0.0000007\Quadrupole=5.455451,-1.8636435,

 Normal termination of Gaussian 16 at Tue Apr  8 18:41:55 2025.
