 Gaussian 16, Revision C.01,

 ----------------------------------------------------------------------
 #t hf aug-cc-pvdz symm=none int=(grid=ultrafine) guess=(read,tcheck) s
 table=(opt,rrhf)
 ----------------------------------------------------------------------
 -----
 title
 -----
 Symbolic Z-matrix:
 Charge =  0 Multiplicity = 1

 SCF Done:  E(RHF) =  -906.667482517     A.U. after   15 cycles
 Normal termination of Gaussian 16 at Tue Apr  8 19:08:54 2025.
 Gaussian 16:  ES64L-G16RevC.01  3-Jul-2019

 ----------------------------------------------------------------------
 #t hf aug-cc-pvdz iop(5/13=1,5/36=2,99/5=2) pseudo=read geom=check gue
 ss=(read,tcheck) scf=(maxcycle=1)
 ----------------------------------------------------------------------
 -----
 title
 -----
 Structure from the checkpoint file:  "3B-69_20b_maleic_acid_dimerAB_mol1.chk"
 Charge =  0 Multiplicity = 1

                         Standard orientation:
 ---------------------------------------------------------------------
 Center     Atomic      Atomic             Coordinates (Angstroms)
 Number     Number       Type             X           Y           Z
 ---------------------------------------------------------------------
      1          6           0        2.218996    0.481849   -0.006607
      2          6           0        3.387031    1.392493   -0.048795
      3          1           0        3.128333    2.443900   -0.089144
      4          6           0        4.685582    1.073185   -0.065414
      5          1           0        5.385855    1.895812   -0.125132
      6          6           0        5.376499   -0.243546    0.006321
      7          8           0        1.089788    1.131122    0.105594
      8          1           0        0.291157    0.516962    0.094389
      9          8           0        2.280006   -0.747528   -0.093583
     10          8           0        4.715476   -1.376480    0.014885
     11          1           0        3.711711   -1.244721   -0.069171
     12          8           0        6.603847   -0.278533    0.078016
     13          6           0       -5.248958    0.159699   -0.005383
     14          6           0       -4.080924    1.070344   -0.047571
     15          1           0       -4.339622    2.121750   -0.087919
     16          6           0       -2.782372    0.751036   -0.064189
     17          1           0       -2.082100    1.573662   -0.123907
     18          6           0       -2.091456   -0.565695    0.007546
     19          8           0       -6.378166    0.808972    0.106819
     20          1           0       -7.176797    0.194812    0.095613
     21          8           0       -5.187949   -1.069678   -0.092359
     22          8           0       -2.752479   -1.698630    0.016109
     23          1           0       -3.756244   -1.566871   -0.067946
     24          8           0       -0.864108   -0.600683    0.079240
 ---------------------------------------------------------------------

 SCF Done:  E(RHF) =  -906.952917128     A.U. after    2 cycles

 The electronic state is 1-A.
 Alpha  occ. eigenvalues --  -20.70320 -20.63647 -20.63414 -20.62524 -20.59729
 Alpha  occ. eigenvalues --  -20.57752 -20.57669 -20.53189 -11.48378 -11.44681
 Alpha  occ. eigenvalues --  -11.42404 -11.38182 -11.34408 -11.33915 -11.29206
 Alpha  occ. eigenvalues --  -11.28570  -1.50461  -1.45054  -1.43885  -1.39781
 Alpha  occ. eigenvalues --   -1.38982  -1.35077  -1.33466  -1.28396  -1.15176
 Alpha  occ. eigenvalues --   -1.09870  -1.00699  -0.95132  -0.91633  -0.86679
 Alpha  occ. eigenvalues --   -0.85405  -0.82334  -0.80739  -0.79374  -0.76539
 Alpha  occ. eigenvalues --   -0.74387  -0.72939  -0.72423  -0.70781  -0.68934
 Alpha  occ. eigenvalues --   -0.67366  -0.66960  -0.66090  -0.64667  -0.63889
 Alpha  occ. eigenvalues --   -0.62585  -0.62248  -0.61419  -0.58103  -0.57717
 Alpha  occ. eigenvalues --   -0.56980  -0.53523  -0.52539  -0.51951  -0.51335
 Alpha  occ. eigenvalues --   -0.47712  -0.46902  -0.46228  -0.45306  -0.41374
 Alpha virt. eigenvalues --   -0.01044   0.00732   0.01936   0.03562   0.04407
 Alpha virt. eigenvalues --    0.04563   0.05441   0.06405   0.07143   0.07334
 Alpha virt. eigenvalues --    0.08318   0.08966   0.09480   0.10254   0.10602

 Mulliken charges:
               1
     1  C    0.079637
     2  C    1.249016
     3  H   -0.541336
     4  C    0.480761
     5  H   -0.405099
     6  C    0.577977
     7  O   -0.433488
     8  H    0.306642
     9  O   -0.646363
    10  O   -0.462402
    11  H    0.340672
    12  O   -0.514926
    13  C    0.496349
    14  C    0.735727
    15  H   -0.378848
    16  C    0.724566
    17  H   -0.546224
    18  C    0.427960
    19  O   -0.536976
    20  H    0.293935
    21  O   -0.608926
    22  O   -0.482419
    23  H    0.312017
    24  O   -0.468253
 Sum of Mulliken charges =  -0.00000

 Dipole moment (field-independent basis, Debye):
    X=            -15.2734    Y=              7.6595    Z=             -0.5324  Tot=             17.0946

 Test job not archived.
 1\1\GINC-SE166\SP\RHF\Aug-CC-pVDZ\C8H8O8\OHZDE\08-Apr-2025\0\\#t hf au
 g-cc-pvdz iop(5/13=1,5/36=2,99/5=2) pseudo=read geom=check guess=(read
 ,tcheck) scf=(maxcycle=1)\\title\\0,1\C,0,0.320145,1.506583,4.741899\C
 ,0,-0.886058,0.648358,4.679587\H,0,-0.67292,-0.411968,4.6141\C,0,-2.16
 9644,1.023617,4.672055\H,0,-2.904729,0.233566,4.593744\C,0,-2.803159,2
 .366825,4.775701\O,0,1.42034,0.806792,4.837391\H,0,2.244696,1.386069,4
 .839756\O,0,0.312161,2.73916,4.684069\O,0,-2.093922,3.46971,4.81025\H,
 0,-1.096782,3.296855,4.721917\O,0,-4.027847,2.45295,4.849654\C,0,7.795

 Normal termination of Gaussian 16 at Tue Apr  8 19:09:13 2025.
