 Gaussian 16, Revision C.01,

 ----------------------------------------------------------------------
 #t hf aug-cc-pvdz symm=none int=(grid=ultrafine) guess=(read,tcheck) s
 table=(opt,rrhf)
 ----------------------------------------------------------------------
 -----
 title
 -----
 Symbolic Z-matrix:
 Charge =  0 Multiplicity = 1

 SCF Done:  E(RHF) =  -752.853125548     A.U. after   13 cycles
 Normal termination of Gaussian 16 at Tue Apr  8 18:44:01 2025.
 Gaussian 16:  ES64L-G16RevC.01  3-Jul-2019

 ----------------------------------------------------------------------
 #t hf aug-cc-pvdz iop(5/13=1,5/36=2,99/5=2) pseudo=read geom=check gue
 ss=(read,tcheck) scf=(maxcycle=1)
 ----------------------------------------------------------------------
 -----
 title
 -----
 Structure from the checkpoint file:  "3B-69_07a_oxalic_acid_dimerBC_mol1.chk"
 Charge =  0 Multiplicity = 1

                         Standard orientation:
 ---------------------------------------------------------------------
 Center     Atomic      Atomic             Coordinates (Angstroms)
 Number     Number       Type             X           Y           Z
 ---------------------------------------------------------------------
      1          6           0       -2.350396    0.762060   -0.275185
      2          1           0       -2.504197    2.626751    0.002654
      3          8           0       -1.286670    0.804107   -0.865746
      4          8           0       -3.014148    1.785656    0.186250
      5          6           0       -3.074154   -0.570618   -0.020956
      6          8           0       -4.137881   -0.612664    0.569605
      7          8           0       -2.410403   -1.594213   -0.482391
      8          1           0       -2.920352   -2.435308   -0.298795
      9          6           0        3.074154    0.570618    0.020956
     10          1           0        2.920353    2.435308    0.298795
     11          8           0        4.137881    0.612664   -0.569605
     12          8           0        2.410403    1.594213    0.482391
     13          6           0        2.350397   -0.762061    0.275185
     14          8           0        1.286670   -0.804107    0.865746
     15          8           0        3.014147   -1.785656   -0.186250
     16          1           0        2.504197   -2.626751   -0.002654
 ---------------------------------------------------------------------

 SCF Done:  E(RHF) =  -753.094840506     A.U. after    2 cycles

 The electronic state is 1-A.
 Alpha  occ. eigenvalues --  -20.65719 -20.65719 -20.65697 -20.65697 -20.59045
 Alpha  occ. eigenvalues --  -20.59045 -20.58922 -20.58922 -11.43158 -11.43158
 Alpha  occ. eigenvalues --  -11.43043 -11.43043  -1.47113  -1.47105  -1.44516
 Alpha  occ. eigenvalues --   -1.44513  -1.35662  -1.35619  -1.34128  -1.34119
 Alpha  occ. eigenvalues --   -0.98101  -0.98100  -0.87153  -0.87147  -0.76885
 Alpha  occ. eigenvalues --   -0.76872  -0.73962  -0.73952  -0.73106  -0.73018
 Alpha  occ. eigenvalues --   -0.69926  -0.69832  -0.66571  -0.66476  -0.65239
 Alpha  occ. eigenvalues --   -0.65226  -0.60817  -0.60810  -0.54841  -0.54808
 Alpha  occ. eigenvalues --   -0.51846  -0.51800  -0.51714  -0.51266  -0.47523
 Alpha  occ. eigenvalues --   -0.47507
 Alpha virt. eigenvalues --    0.02614   0.02966   0.04216   0.04501   0.06749
 Alpha virt. eigenvalues --    0.06883   0.08494   0.09246   0.10101   0.10561
 Alpha virt. eigenvalues --    0.10901   0.11657   0.11950   0.12316   0.12718

 Mulliken charges:
               1
     1  C    0.614300
     2  H    0.251167
     3  O   -0.391774
     4  O   -0.444862
     5  C    0.580897
     6  O   -0.422385
     7  O   -0.448457
     8  H    0.261116
     9  C    0.580897
    10  H    0.261116
    11  O   -0.422385
    12  O   -0.448457
    13  C    0.614299
    14  O   -0.391774
    15  O   -0.444861
    16  H    0.251167
 Sum of Mulliken charges =  -0.00000

 Dipole moment (field-independent basis, Debye):
    X=              0.0000    Y=             -0.0000    Z=             -0.0000  Tot=              0.0000

 Test job not archived.
 1\1\GINC-SE127\SP\RHF\Aug-CC-pVDZ\C4H4O8\OHZDE\08-Apr-2025\0\\#t hf au
 g-cc-pvdz iop(5/13=1,5/36=2,99/5=2) pseudo=read geom=check guess=(read
 ,tcheck) scf=(maxcycle=1)\\title\\0,1\C,0,-1.953003,3.017605,2.44175\H
 ,0,-3.453591,2.371173,1.488712\O,0,-2.584787,3.63715,3.277847\O,0,-2.4
 5442,2.333279,1.451036\C,0,-0.415475,2.997395,2.451144\O,0,0.216308,2.
 37785,1.615046\O,0,0.085942,3.681721,3.441857\H,0,1.085112,3.643827,3.
 404182\C,0,-4.321482,3.017605,7.334643\H,0,-5.822069,2.371173,6.381605
 \O,0,-4.953265,3.63715,8.170741\O,0,-4.822899,2.333279,6.34393\C,0,-2.

 Normal termination of Gaussian 16 at Tue Apr  8 18:44:09 2025.
