 Gaussian 16, Revision C.01,

 ----------------------------------------------------------------------
 #t hf aug-cc-pvdz symm=none int=(grid=ultrafine) guess=(read,tcheck) s
 table=(opt,rrhf)
 ----------------------------------------------------------------------
 -----
 title
 -----
 Symbolic Z-matrix:
 Charge =  0 Multiplicity = 1

 SCF Done:  E(RHF) =  -449.691868094     A.U. after   13 cycles
 Normal termination of Gaussian 16 at Tue Apr  8 18:55:25 2025.
 Gaussian 16:  ES64L-G16RevC.01  3-Jul-2019

 ----------------------------------------------------------------------
 #t hf aug-cc-pvdz iop(5/13=1,5/36=2,99/5=2) pseudo=read geom=check gue
 ss=(read,tcheck) scf=(maxcycle=1)
 ----------------------------------------------------------------------
 -----
 title
 -----
 Structure from the checkpoint file:  "3B-69_10c_imidazole_dimerAB_mol1.chk"
 Charge =  0 Multiplicity = 1

                         Standard orientation:
 ---------------------------------------------------------------------
 Center     Atomic      Atomic             Coordinates (Angstroms)
 Number     Number       Type             X           Y           Z
 ---------------------------------------------------------------------
      1          7           0        5.919562   -0.390777    0.033725
      2          6           0        4.781322   -1.114426   -0.018064
      3          7           0        3.712245   -0.334567   -0.066742
      4          6           0        4.196684    0.954651   -0.042448
      5          6           0        5.561821    0.934151    0.021972
      6          1           0        6.886681   -0.761996    0.147197
      7          1           0        4.755726   -2.190094   -0.012926
      8          1           0        3.548476    1.810720   -0.056433
      9          1           0        6.277149    1.733790    0.069895
     10          7           0       -3.865418   -0.399737    0.051204
     11          6           0       -5.003658   -1.123386   -0.000585
     12          7           0       -6.072735   -0.343526   -0.049263
     13          6           0       -5.588297    0.945692   -0.024968
     14          6           0       -4.223159    0.925192    0.039451
     15          1           0       -2.898300   -0.770955    0.164676
     16          1           0       -5.029255   -2.199053    0.004553
     17          1           0       -6.236503    1.801761   -0.038954
     18          1           0       -3.507831    1.724831    0.087374
 ---------------------------------------------------------------------

 SCF Done:  E(RHF) =  -449.825837128     A.U. after    2 cycles

 The electronic state is 1-A.
 Alpha  occ. eigenvalues --  -15.69734 -15.68736 -15.61548 -15.60557 -11.31331
 Alpha  occ. eigenvalues --  -11.30353 -11.27522 -11.26568 -11.25852 -11.24896
 Alpha  occ. eigenvalues --   -1.31668  -1.30687  -1.13499  -1.12509  -1.00877
 Alpha  occ. eigenvalues --   -0.99914  -0.82266  -0.81273  -0.80361  -0.79390
 Alpha  occ. eigenvalues --   -0.76469  -0.75501  -0.61425  -0.61063  -0.60448
 Alpha  occ. eigenvalues --   -0.60349  -0.60100  -0.59371  -0.57935  -0.56975
 Alpha  occ. eigenvalues --   -0.43416  -0.42409  -0.39983  -0.38991  -0.32724
 Alpha  occ. eigenvalues --   -0.31771
 Alpha virt. eigenvalues --    0.02168   0.02842   0.03183   0.04104   0.04944
 Alpha virt. eigenvalues --    0.05746   0.06374   0.07469   0.07930   0.08744
 Alpha virt. eigenvalues --    0.10239   0.10733   0.12072   0.12102   0.12504

 Mulliken charges:
               1
     1  N   -0.460776
     2  C    0.658493
     3  N   -0.662551
     4  C    0.522361
     5  C    0.634899
     6  H   -0.012812
     7  H   -0.191732
     8  H   -0.229564
     9  H   -0.258425
    10  N   -0.440808
    11  C    0.657364
    12  N   -0.682280
    13  C    0.518711
    14  C    0.633214
    15  H   -0.011295
    16  H   -0.188424
    17  H   -0.215984
    18  H   -0.270390
 Sum of Mulliken charges =  -0.00000

 Dipole moment (field-independent basis, Debye):
    X=              7.9510    Y=             -0.6928    Z=              0.6460  Tot=              8.0072

 Test job not archived.
 1\1\GINC-SE232\SP\RHF\Aug-CC-pVDZ\C6H8N4\OHZDE\08-Apr-2025\0\\#t hf au
 g-cc-pvdz iop(5/13=1,5/36=2,99/5=2) pseudo=read geom=check guess=(read
 ,tcheck) scf=(maxcycle=1)\\title\\0,1\N,0,1.225156,1.790098,0.793667\C
 ,0,0.314568,1.191681,1.590327\N,0,0.098973,1.892803,2.692789\C,0,0.918
 281,2.99557,2.592821\C,0,1.622758,2.943251,1.422717\H,0,1.619151,1.410
 346,-0.093212\H,0,-0.165462,0.258212,1.353791\H,0,0.967252,3.744556,3.
 360834\H,0,2.357781,3.610084,1.012244\N,0,-3.530651,1.790098,9.345189\
 C,0,-4.441239,1.191681,10.141848\N,0,-4.656834,1.892803,11.244311\C,0,

 Normal termination of Gaussian 16 at Tue Apr  8 18:55:32 2025.
