 Gaussian 16, Revision C.01,

 ----------------------------------------------------------------------
 #t hf aug-cc-pvdz symm=none int=(grid=ultrafine) guess=(read,tcheck) s
 table=(opt,rrhf)
 ----------------------------------------------------------------------
 -----
 title
 -----
 Symbolic Z-matrix:
 Charge =  0 Multiplicity = 1

 SCF Done:  E(RHF) =  -692.182972364     A.U. after   14 cycles
 Normal termination of Gaussian 16 at Tue Apr  8 19:24:35 2025.
 Gaussian 16:  ES64L-G16RevC.01  3-Jul-2019

 ----------------------------------------------------------------------
 #t hf aug-cc-pvdz iop(5/13=1,5/36=2,99/5=2) pseudo=read geom=check gue
 ss=(read,tcheck) scf=(maxcycle=1)
 ----------------------------------------------------------------------
 -----
 title
 -----
 Structure from the checkpoint file:  "3B-69_19a_benzene_trimer_mol1.chk"
 Charge =  0 Multiplicity = 1

                         Standard orientation:
 ---------------------------------------------------------------------
 Center     Atomic      Atomic             Coordinates (Angstroms)
 Number     Number       Type             X           Y           Z
 ---------------------------------------------------------------------
      1          6           0        2.949186    1.902263    0.853920
      2          6           0        2.184125    1.006363    0.112056
      3          6           0        2.771496    3.273500    0.690783
      4          1           0        3.675878    1.529379    1.563743
      5          1           0        2.311117   -0.061221    0.234070
      6          1           0        3.354642    3.962769    1.283823
      7          6           0        1.064884    2.858457   -0.957418
      8          6           0        1.829945    3.754357   -0.215554
      9          6           0        1.242573    1.487221   -0.794281
     10          1           0        0.338192    3.231342   -1.667241
     11          1           0        1.702952    4.821942   -0.337568
     12          1           0        0.659427    0.797951   -1.387321
     13          6           0       -4.868519   -0.092662   -0.153927
     14          6           0       -4.446556    0.144653    1.151426
     15          6           0       -3.953252   -0.048103   -1.202153
     16          1           0       -5.908098   -0.320370   -0.349879
     17          1           0       -5.148646    0.108328    1.973923
     18          1           0       -4.283824   -0.252553   -2.210007
     19          6           0       -2.191468    0.472842    0.355438
     20          6           0       -2.613430    0.235527   -0.949915
     21          6           0       -3.106735    0.428283    1.403664
     22          1           0       -1.151889    0.700550    0.551391
     23          1           0       -1.911341    0.271853   -1.772412
     24          1           0       -2.776162    0.632733    2.411518
     25          6           0        0.570446   -2.064316   -0.928216
     26          6           0        1.814343   -2.464057   -1.409093
     27          6           0        0.280357   -2.169831    0.429426
     28          1           0       -0.166614   -1.663380   -1.611566
     29          1           0        2.051730   -2.382415   -2.461576
     30          1           0       -0.679589   -1.839552    0.798571
     31          6           0        2.475472   -3.076585    0.830202
     32          6           0        1.231574   -2.676844    1.311080
     33          6           0        2.765561   -2.971070   -0.527440
     34          1           0        3.212531   -3.477521    1.513552
     35          1           0        0.994185   -2.758479    2.363569
     36          1           0        3.725507   -3.301349   -0.896584
 ---------------------------------------------------------------------

 SCF Done:  E(RHF) =  -692.388588947     A.U. after    2 cycles

 The electronic state is 1-A.
 Alpha  occ. eigenvalues --  -11.24740 -11.24698 -11.24616 -11.24591 -11.24571
 Alpha  occ. eigenvalues --  -11.24541 -11.24517 -11.24502 -11.24420 -11.24364
 Alpha  occ. eigenvalues --  -11.24298 -11.24214 -11.24077 -11.24018 -11.23920
 Alpha  occ. eigenvalues --  -11.23842 -11.23798 -11.23578  -1.14468  -1.14280
 Alpha  occ. eigenvalues --   -1.13712  -1.01293  -1.01216  -1.01111  -1.00976
 Alpha  occ. eigenvalues --   -1.00531  -1.00468  -0.82930  -0.82887  -0.82670
 Alpha  occ. eigenvalues --   -0.82600  -0.82136  -0.82101  -0.71905  -0.71395
 Alpha  occ. eigenvalues --   -0.70953  -0.65002  -0.64509  -0.64114  -0.62754
 Alpha  occ. eigenvalues --   -0.62630  -0.62078  -0.59885  -0.59525  -0.59313
 Alpha  occ. eigenvalues --   -0.59078  -0.58854  -0.58677  -0.51051  -0.50794
 Alpha  occ. eigenvalues --   -0.50389  -0.50170  -0.49916  -0.49832  -0.49500
 Alpha  occ. eigenvalues --   -0.49277  -0.48884  -0.34578  -0.34385  -0.34166
 Alpha  occ. eigenvalues --   -0.34009  -0.33533  -0.33189
 Alpha virt. eigenvalues --    0.02909   0.03462   0.03722   0.04002   0.04646
 Alpha virt. eigenvalues --    0.04733   0.05106   0.05769   0.06060   0.06366
 Alpha virt. eigenvalues --    0.06955   0.07146   0.07645   0.08165   0.08689

 Mulliken charges:
               1
     1  C    0.347486
     2  C    0.291011
     3  C    0.792503
     4  H   -0.472197
     5  H   -0.538266
     6  H   -0.475380
     7  C    0.537687
     8  C    0.549607
     9  C    0.682020
    10  H   -0.540725
    11  H   -0.474084
    12  H   -0.638917
    13  C    0.717784
    14  C    0.655697
    15  C    0.445880
    16  H   -0.461364
    17  H   -0.469650
    18  H   -0.513367
    19  C    0.741508
    20  C    0.494067
    21  C    0.313062
    22  H   -0.749105
    23  H   -0.672012
    24  H   -0.509274
    25  C    0.577677
    26  C    0.608654
    27  C    0.281260
    28  H   -0.580889
    29  H   -0.568994
    30  H   -0.603026
    31  C    0.574476
    32  C    0.551742
    33  C    0.600266
    34  H   -0.469181
    35  H   -0.524611
    36  H   -0.501347
 Sum of Mulliken charges =   0.00000

 Dipole moment (field-independent basis, Debye):
    X=             -0.0717    Y=             -0.2541    Z=              0.1813  Tot=              0.3203

 Test job not archived.
 1\1\GINC-SE115\SP\RHF\Aug-CC-pVDZ\C18H18\OHZDE\08-Apr-2025\0\\#t hf au
 g-cc-pvdz iop(5/13=1,5/36=2,99/5=2) pseudo=read geom=check guess=(read
 ,tcheck) scf=(maxcycle=1)\\title\\0,1\C,0,14.171733,20.025411,6.67944\
 C,0,13.70564,19.092508,7.60181\C,0,15.173718,19.675303,5.77837\H,0,13.
 746682,21.020351,6.65947\H,0,12.924382,19.352746,8.30371\H,0,15.516834
 ,20.39801,5.05255\C,0,15.248667,17.459389,6.71936\C,0,15.71476,18.3922
 92,5.79699\C,0,14.246682,17.809497,7.62043\H,0,15.673718,16.464449,6.7
 3933\H,0,16.496018,18.132054,5.09509\H,0,13.903566,17.08679,8.34625\C,

 Normal termination of Gaussian 16 at Tue Apr  8 19:25:37 2025.
