 Gaussian 16, Revision C.01,

 ----------------------------------------------------------------------
 #t hf aug-cc-pvdz symm=none int=(grid=ultrafine) guess=(read,tcheck) s
 table=(opt,rrhf)
 ----------------------------------------------------------------------
 -----
 title
 -----
 Symbolic Z-matrix:
 Charge =  0 Multiplicity = 1

 SCF Done:  E(RHF) =  -132.247216243     A.U. after   11 cycles
 Normal termination of Gaussian 16 at Tue Apr  8 19:05:48 2025.
 Gaussian 16:  ES64L-G16RevC.01  3-Jul-2019

 ----------------------------------------------------------------------
 #t hf aug-cc-pvdz iop(5/13=1,5/36=2,99/5=2) pseudo=read geom=check gue
 ss=(read,tcheck) scf=(maxcycle=1)
 ----------------------------------------------------------------------
 -----
 title
 -----
 Structure from the checkpoint file:  "A21x12_01_water-ammonia_2p0_mol1.chk"
 Charge =  0 Multiplicity = 1

                         Standard orientation:
 ---------------------------------------------------------------------
 Center     Atomic      Atomic             Coordinates (Angstroms)
 Number     Number       Type             X           Y           Z
 ---------------------------------------------------------------------
      1          8           0       -0.038510    3.046965    0.000000
      2          1           0        0.846919    3.411541    0.000000
      3          1           0        0.086829    2.084872    0.000000
      4          7           0       -0.038510   -2.875656    0.000000
      5          1           0       -1.036207   -3.052094    0.000000
      6          1           0        0.340051   -3.345222    0.813484
      7          1           0        0.340051   -3.345222   -0.813484
 ---------------------------------------------------------------------

 SCF Done:  E(RHF) =  -132.294040102     A.U. after    2 cycles

 The electronic state is 1-A'.
 Alpha  occ. eigenvalues --  -20.57531 -15.61271  -1.30596  -1.11324  -0.72521
 Alpha  occ. eigenvalues --   -0.63059  -0.62985  -0.59337  -0.52280  -0.42725
 Alpha virt. eigenvalues --    0.03250   0.04617   0.05385   0.05427   0.07707
 Alpha virt. eigenvalues --    0.16516   0.17894   0.19294   0.19415   0.19801
 Alpha virt. eigenvalues --    0.20156   0.23102   0.25141   0.29105   0.29205

 Mulliken charges:
               1
     1  O   -0.276649
     2  H    0.128210
     3  H    0.149861
     4  N   -0.097660
     5  H    0.032662
     6  H    0.031788
     7  H    0.031788
 Sum of Mulliken charges =   0.00000

 Dipole moment (field-independent basis, Debye):
    X=              1.4322    Y=             -2.6914    Z=             -0.0000  Tot=              3.0488

 Test job not archived.
 1\1\GINC-SE047\SP\RHF\Aug-CC-pVDZ\H5N1O1\OHZDE\08-Apr-2025\0\\#t hf au
 g-cc-pvdz iop(5/13=1,5/36=2,99/5=2) pseudo=read geom=check guess=(read
 ,tcheck) scf=(maxcycle=1)\\title\\0,1\O,0,0.,-0.05881659,-3.01054428\H
 ,0,0.,0.82198296,-3.38616599\H,0,0.,0.07854479,-2.05009378\N,0,0.,0.01
 525597,2.91161379\H,0,0.,-0.98015654,3.1005153\H,0,-0.81348351,0.39965
 979,3.376408\H,0,0.81348351,0.39965979,3.376408\\Version=ES64L-G16RevC
 .01\State=1-A'\HF=-132.2940401\RMSD=1.438e-03\Dipole=0.,0.5766737,1.05
 1758\Quadrupole=-1.2513617,0.0731775,1.1781842,0.,0.,-4.9419768\PG=CS

 Normal termination of Gaussian 16 at Tue Apr  8 19:05:52 2025.
