 Gaussian 16, Revision C.01,

 ----------------------------------------------------------------------
 #t hf aug-cc-pvdz symm=none int=(grid=ultrafine) guess=(read,tcheck) s
 table=(opt,rrhf)
 ----------------------------------------------------------------------
 -----
 title
 -----
 Symbolic Z-matrix:
 Charge =  0 Multiplicity = 1

 SCF Done:  E(RHF) =  -66.5906460403     A.U. after   10 cycles
 Normal termination of Gaussian 16 at Tue Apr  8 19:09:46 2025.
 Gaussian 16:  ES64L-G16RevC.01  3-Jul-2019

 ----------------------------------------------------------------------
 #t hf aug-cc-pvdz iop(5/13=1,5/36=2,99/5=2) pseudo=read geom=check gue
 ss=(read,tcheck) scf=(maxcycle=1)
 ----------------------------------------------------------------------
 -----
 title
 -----
 Structure from the checkpoint file:  "A21x12_16_borane-methane_1p1_mol1.chk"
 Charge =  0 Multiplicity = 1

                         Standard orientation:
 ---------------------------------------------------------------------
 Center     Atomic      Atomic             Coordinates (Angstroms)
 Number     Number       Type             X           Y           Z
 ---------------------------------------------------------------------
      1          6           0        0.001179   -1.458173   -0.000000
      2          1           0       -0.845980   -0.769913   -0.000000
      3          1           0       -0.387365   -2.474771   -0.000000
      4          1           0        0.606842   -1.300682    0.889943
      5          1           0        0.606842   -1.300682   -0.889943
      6          5           0        0.001179    1.819494    0.000000
      7          1           0       -0.589170    1.898292    1.030518
      8          1           0       -0.589170    1.898292   -1.030518
      9          1           0        1.185028    1.701031    0.000000
 ---------------------------------------------------------------------

 SCF Done:  E(RHF) =  -66.6187738395     A.U. after    2 cycles

 The electronic state is 1-A'.
 Alpha  occ. eigenvalues --  -11.22546  -7.62467  -0.94743  -0.69810  -0.55694
 Alpha  occ. eigenvalues --   -0.55510  -0.55204  -0.49588  -0.49570
 Alpha virt. eigenvalues --    0.03301   0.03935   0.05524   0.05606   0.06313
 Alpha virt. eigenvalues --    0.07667   0.07728   0.09852   0.10552   0.10792
 Alpha virt. eigenvalues --    0.10971   0.15780   0.15849   0.16673   0.18915

 Mulliken charges:
               1
     1  C    0.609123
     2  H   -0.151641
     3  H   -0.211040
     4  H   -0.124377
     5  H   -0.124377
     6  B   -0.937551
     7  H    0.313548
     8  H    0.313548
     9  H    0.312767
 Sum of Mulliken charges =  -0.00000

 Dipole moment (field-independent basis, Debye):
    X=              0.0169    Y=             -0.2159    Z=              0.0000  Tot=              0.2165

 Test job not archived.
 1\1\GINC-SE228\SP\RHF\Aug-CC-pVDZ\C1H7B1\OHZDE\08-Apr-2025\0\\#t hf au
 g-cc-pvdz iop(5/13=1,5/36=2,99/5=2) pseudo=read geom=check guess=(read
 ,tcheck) scf=(maxcycle=1)\\title\\0,1\C,0,0.0044054,0.,1.63992031\H,0,
 0.84944175,0.,0.94905474\H,0,0.39607873,0.,2.65531758\H,0,-0.60173907,
 -0.88994299,1.48429497\H,0,-0.60173907,0.88994299,1.48429497\B,0,-0.00
 568788,0.,-1.63773067\H,0,0.58441657,-1.030518,-1.71834616\H,0,0.58441
 657,1.030518,-1.71834616\H,0,-1.18916619,0.,-1.51562307\\Version=ES64L
 -G16RevC.01\State=1-A'\HF=-66.6187738\RMSD=2.089e-03\Dipole=-0.0063973

 Normal termination of Gaussian 16 at Tue Apr  8 19:09:47 2025.
