 Gaussian 16, Revision C.01,

 ----------------------------------------------------------------------
 #t hf aug-cc-pvdz symm=none int=(grid=ultrafine) guess=(read,tcheck) s
 table=(opt,rrhf)
 ----------------------------------------------------------------------
 -----
 title
 -----
 Symbolic Z-matrix:
 Charge =  0 Multiplicity = 1

 SCF Done:  E(RHF) =  -227.773687243     A.U. after   12 cycles
 Normal termination of Gaussian 16 at Tue Apr  8 19:07:52 2025.
 Gaussian 16:  ES64L-G16RevC.01  3-Jul-2019

 ----------------------------------------------------------------------
 #t hf aug-cc-pvdz iop(5/13=1,5/36=2,99/5=2) pseudo=read geom=check gue
 ss=(read,tcheck) scf=(maxcycle=1)
 ----------------------------------------------------------------------
 -----
 title
 -----
 Structure from the checkpoint file:  "A21x12_09_formaldehyde-dimer_1p3_mol1.chk"
 Charge =  0 Multiplicity = 1

                         Standard orientation:
 ---------------------------------------------------------------------
 Center     Atomic      Atomic             Coordinates (Angstroms)
 Number     Number       Type             X           Y           Z
 ---------------------------------------------------------------------
      1          6           0       -0.970043   -1.633195    0.000000
      2          8           0       -1.900714   -0.858981    0.000000
      3          1           0       -0.528355   -2.008891    0.935423
      4          1           0       -0.528355   -2.008891   -0.935423
      5          6           0        1.101518    1.748549    0.000000
      6          8           0        1.733022    0.715760    0.000000
      7          1           0        1.609398    2.725511    0.000000
      8          1           0        0.000000    1.745916    0.000000
 ---------------------------------------------------------------------

 SCF Done:  E(RHF) =  -227.849866553     A.U. after    2 cycles

 The electronic state is 1-A'.
 Alpha  occ. eigenvalues --  -20.59572 -20.58806 -11.35764 -11.35187  -1.37183
 Alpha  occ. eigenvalues --   -1.36445  -0.87204  -0.86589  -0.70690  -0.69855
 Alpha  occ. eigenvalues --   -0.66819  -0.66128  -0.55399  -0.54715  -0.46039
 Alpha  occ. eigenvalues --   -0.45289
 Alpha virt. eigenvalues --    0.03423   0.04309   0.05469   0.06464   0.06988
 Alpha virt. eigenvalues --    0.08061   0.10189   0.11589   0.14897   0.15769
 Alpha virt. eigenvalues --    0.15891   0.16380   0.16967   0.18039   0.21988

 Mulliken charges:
               1
     1  C    0.619702
     2  O   -0.404200
     3  H   -0.108231
     4  H   -0.108231
     5  C    0.639471
     6  O   -0.393575
     7  H   -0.134701
     8  H   -0.110235
 Sum of Mulliken charges =  -0.00000

 Dipole moment (field-independent basis, Debye):
    X=              0.8148    Y=              0.6875    Z=              0.0000  Tot=              1.0661

 Test job not archived.
 1\1\GINC-SE047\SP\RHF\Aug-CC-pVDZ\C2H4O2\OHZDE\08-Apr-2025\0\\#t hf au
 g-cc-pvdz iop(5/13=1,5/36=2,99/5=2) pseudo=read geom=check guess=(read
 ,tcheck) scf=(maxcycle=1)\\title\\0,1\C,0,0.,0.6022046,-1.78987346\O,0
 ,0.,-0.59205334,-1.98812391\H,0,0.9354225,1.17524104,-1.70118502\H,0,-
 0.9354225,1.17524104,-1.70118502\C,0,0.,-0.60296985,1.98836857\O,0,0.,
 0.59142129,1.79119319\H,0,0.,-1.01034491,3.01132626\H,0,0.,-1.32099415
 ,1.15302988\\Version=ES64L-G16RevC.01\State=1-A'\HF=-227.8498666\RMSD=
 2.141e-03\Dipole=0.,0.0048264,0.4194156\Quadrupole=0.0809994,-0.016764

 Normal termination of Gaussian 16 at Tue Apr  8 19:07:54 2025.
