 Gaussian 16, Revision C.01,

 ----------------------------------------------------------------------
 #t hf aug-cc-pvdz symm=none int=(grid=ultrafine) guess=(read,tcheck) s
 table=(opt,rrhf)
 ----------------------------------------------------------------------
 -----
 title
 -----
 Symbolic Z-matrix:
 Charge =  0 Multiplicity = 1

 SCF Done:  E(RHF) =  -66.5910318689     A.U. after   10 cycles
 Normal termination of Gaussian 16 at Tue Apr  8 19:09:46 2025.
 Gaussian 16:  ES64L-G16RevC.01  3-Jul-2019

 ----------------------------------------------------------------------
 #t hf aug-cc-pvdz iop(5/13=1,5/36=2,99/5=2) pseudo=read geom=check gue
 ss=(read,tcheck) scf=(maxcycle=1)
 ----------------------------------------------------------------------
 -----
 title
 -----
 Structure from the checkpoint file:  "A21x12_16_borane-methane_1p2_mol1.chk"
 Charge =  0 Multiplicity = 1

                         Standard orientation:
 ---------------------------------------------------------------------
 Center     Atomic      Atomic             Coordinates (Angstroms)
 Number     Number       Type             X           Y           Z
 ---------------------------------------------------------------------
      1          6           0        0.001180   -1.590760   -0.000000
      2          1           0       -0.846011   -0.902538    0.000000
      3          1           0       -0.387319   -2.607376    0.000000
      4          1           0        0.606835   -1.433241    0.889943
      5          1           0        0.606835   -1.433241   -0.889943
      6          5           0        0.001180    1.985228    0.000000
      7          1           0       -0.589174    2.063999    1.030518
      8          1           0       -0.589174    2.063999   -1.030518
      9          1           0        1.185034    1.866819   -0.000000
 ---------------------------------------------------------------------

 SCF Done:  E(RHF) =  -66.6192328070     A.U. after    2 cycles

 The electronic state is 1-A'.
 Alpha  occ. eigenvalues --  -11.22408  -7.62572  -0.94546  -0.69834  -0.55491
 Alpha  occ. eigenvalues --   -0.55347  -0.55059  -0.49687  -0.49685
 Alpha virt. eigenvalues --    0.03332   0.03816   0.05497   0.05580   0.06118
 Alpha virt. eigenvalues --    0.07546   0.07662   0.09725   0.10590   0.10750
 Alpha virt. eigenvalues --    0.10863   0.15611   0.15721   0.16528   0.18830

 Mulliken charges:
               1
     1  C    0.628039
     2  H   -0.156343
     3  H   -0.203128
     4  H   -0.137624
     5  H   -0.137624
     6  B   -0.846795
     7  H    0.286713
     8  H    0.286713
     9  H    0.280048
 Sum of Mulliken charges =  -0.00000

 Dipole moment (field-independent basis, Debye):
    X=              0.0137    Y=             -0.1592    Z=              0.0000  Tot=              0.1598

 Test job not archived.
 1\1\GINC-SE332\SP\RHF\Aug-CC-pVDZ\C1H7B1\OHZDE\08-Apr-2025\0\\#t hf au
 g-cc-pvdz iop(5/13=1,5/36=2,99/5=2) pseudo=read geom=check guess=(read
 ,tcheck) scf=(maxcycle=1)\\title\\0,1\C,0,0.00494546,0.,1.78907988\H,0
 ,0.84998181,0.,1.09821431\H,0,0.39661879,0.,2.80447715\H,0,-0.60119901
 ,-0.88994299,1.63345454\H,0,-0.60119901,0.88994299,1.63345454\B,0,-0.0
 0622794,0.,-1.78689023\H,0,0.58387651,-1.030518,-1.86750572\H,0,0.5838
 7651,1.030518,-1.86750572\H,0,-1.18970625,0.,-1.66478264\\Version=ES64
 L-G16RevC.01\State=1-A'\HF=-66.6192328\RMSD=1.945e-03\Dipole=-0.005177

 Normal termination of Gaussian 16 at Tue Apr  8 19:09:47 2025.
