 Gaussian 16, Revision C.01,

 ----------------------------------------------------------------------
 #t hf aug-cc-pvdz symm=none int=(grid=ultrafine) guess=(read,tcheck) s
 table=(opt,rrhf)
 ----------------------------------------------------------------------
 -----
 title
 -----
 Symbolic Z-matrix:
 Charge =  0 Multiplicity = 1

 SCF Done:  E(RHF) =  -185.776415313     A.U. after   11 cycles
 Normal termination of Gaussian 16 at Tue Apr  8 19:06:44 2025.
 Gaussian 16:  ES64L-G16RevC.01  3-Jul-2019

 ----------------------------------------------------------------------
 #t hf aug-cc-pvdz iop(5/13=1,5/36=2,99/5=2) pseudo=read geom=check gue
 ss=(read,tcheck) scf=(maxcycle=1)
 ----------------------------------------------------------------------
 -----
 title
 -----
 Structure from the checkpoint file:  "A21x12_03_HCN-dimer_1p5_mol1.chk"
 Charge =  0 Multiplicity = 1

                         Standard orientation:
 ---------------------------------------------------------------------
 Center     Atomic      Atomic             Coordinates (Angstroms)
 Number     Number       Type             X           Y           Z
 ---------------------------------------------------------------------
      1          1           0        0.000000    0.000000   -4.911389
      2          6           0        0.000000    0.000000   -3.842675
      3          7           0        0.000000    0.000000   -2.687683
      4          1           0        0.000000    0.000000    1.765354
      5          6           0        0.000000    0.000000    2.839677
      6          7           0        0.000000    0.000000    3.996829
 ---------------------------------------------------------------------

 SCF Done:  E(RHF) =  -185.833574022     A.U. after    2 cycles

 The electronic state is 1-SG.
 Alpha  occ. eigenvalues --  -15.67919 -15.66147 -11.31926 -11.30137  -1.21856
 Alpha  occ. eigenvalues --   -1.19922  -0.81975  -0.79892  -0.58288  -0.56356
 Alpha  occ. eigenvalues --   -0.50517  -0.50517  -0.48622  -0.48622
 Alpha virt. eigenvalues --    0.02328   0.04337   0.07644   0.07644   0.08363
 Alpha virt. eigenvalues --    0.09124   0.09124   0.10782   0.15120   0.15120
 Alpha virt. eigenvalues --    0.15147   0.16600   0.16600   0.16628   0.18883

 Mulliken charges:
               1
     1  H   -0.015861
     2  C    0.164364
     3  N   -0.148243
     4  H   -0.008530
     5  C    0.276465
     6  N   -0.268194
 Sum of Mulliken charges =   0.00000

 Dipole moment (field-independent basis, Debye):
    X=              0.0000    Y=             -0.0000    Z=             -6.5857  Tot=              6.5857

 Test job not archived.
 1\1\GINC-SE184\SP\RHF\Aug-CC-pVDZ\C2H2N2\OHZDE\08-Apr-2025\0\\#t hf au
 g-cc-pvdz iop(5/13=1,5/36=2,99/5=2) pseudo=read geom=check guess=(read
 ,tcheck) scf=(maxcycle=1)\\title\\0,1\H,0,0.,0.,4.96924369\C,0,0.,0.,3
 .90053039\N,0,0.,0.,2.74553854\H,0,0.,0.,-1.70749865\C,0,0.,0.,-2.7818
 2197\N,0,0.,0.,-3.93897429\\Version=ES64L-G16RevC.01\State=1-SG\HF=-18
 5.833574\RMSD=2.012e-03\Dipole=0.,0.,2.5910008\Quadrupole=-1.2143897,-
 1.2143897,2.4287794,0.,0.,0.\PG=C*V [C*(H1C1N1H1C1N1)]\\@

 Normal termination of Gaussian 16 at Tue Apr  8 19:06:45 2025.
