 Gaussian 16, Revision C.01,

 ----------------------------------------------------------------------
 #t hf aug-cc-pvdz symm=none int=(grid=ultrafine) guess=(read,tcheck) s
 table=(opt,rrhf)
 ----------------------------------------------------------------------
 -----
 title
 -----
 Symbolic Z-matrix:
 Charge =  0 Multiplicity = 1

 SCF Done:  E(RHF) =  -112.411123159     A.U. after   10 cycles
 Normal termination of Gaussian 16 at Tue Apr  8 19:07:45 2025.
 Gaussian 16:  ES64L-G16RevC.01  3-Jul-2019

 ----------------------------------------------------------------------
 #t hf aug-cc-pvdz iop(5/13=1,5/36=2,99/5=2) pseudo=read geom=check gue
 ss=(read,tcheck) scf=(maxcycle=1)
 ----------------------------------------------------------------------
 -----
 title
 -----
 Structure from the checkpoint file:  "A21x12_05_ammonia-dimer_1p9_mol1.chk"
 Charge =  0 Multiplicity = 1

                         Standard orientation:
 ---------------------------------------------------------------------
 Center     Atomic      Atomic             Coordinates (Angstroms)
 Number     Number       Type             X           Y           Z
 ---------------------------------------------------------------------
      1          7           0       -0.000000    3.039057    0.000000
      2          1           0       -0.180337    3.618173    0.811060
      3          1           0       -0.180337    3.618173   -0.811060
      4          1           0       -0.700575    2.305331    0.000000
      5          7           0       -0.000000   -3.039057    0.000000
      6          1           0        0.180337   -3.618173    0.811060
      7          1           0        0.700575   -2.305331    0.000000
      8          1           0        0.180337   -3.618173   -0.811060
 ---------------------------------------------------------------------

 SCF Done:  E(RHF) =  -112.452179720     A.U. after    2 cycles

 The electronic state is 1-AG.
 Alpha  occ. eigenvalues --  -15.60708 -15.60708  -1.10733  -1.10732  -0.62471
 Alpha  occ. eigenvalues --   -0.62456  -0.62391  -0.62390  -0.42131  -0.42127
 Alpha virt. eigenvalues --    0.03591   0.04384   0.05291   0.06282   0.06348
 Alpha virt. eigenvalues --    0.07300   0.15000   0.17509   0.19224   0.19683
 Alpha virt. eigenvalues --    0.19960   0.20701   0.20714   0.20737   0.29254

 Mulliken charges:
               1
     1  N   -0.089735
     2  H    0.027759
     3  H    0.027759
     4  H    0.034217
     5  N   -0.089735
     6  H    0.027759
     7  H    0.034217
     8  H    0.027759
 Sum of Mulliken charges =  -0.00000

 Dipole moment (field-independent basis, Debye):
    X=             -0.0000    Y=             -0.0000    Z=              0.0000  Tot=              0.0000

 Test job not archived.
 1\1\GINC-SE100\SP\RHF\Aug-CC-pVDZ\H6N2\OHZDE\08-Apr-2025\0\\#t hf aug-
 cc-pvdz iop(5/13=1,5/36=2,99/5=2) pseudo=read geom=check guess=(read,t
 check) scf=(maxcycle=1)\\title\\0,1\N,0,-0.03872201,-3.03881004,0.\H,0
 ,0.13422193,-3.62017699,0.81105976\H,0,0.13422193,-3.62017699,-0.81105
 976\H,0,0.67114508,-2.31406979,0.\N,0,0.03872201,3.03881004,0.\H,0,-0.
 13422193,3.62017699,0.81105976\H,0,-0.67114508,2.31406979,0.\H,0,-0.13
 422193,3.62017699,-0.81105976\\Version=ES64L-G16RevC.01\State=1-AG\HF=
 -112.4521797\RMSD=8.809e-04\Dipole=0.,0.,0.\Quadrupole=-4.0603267,4.52

 Normal termination of Gaussian 16 at Tue Apr  8 19:07:46 2025.
