 Gaussian 16, Revision C.01,

 ----------------------------------------------------------------------
 #t hf aug-cc-pvdz symm=none int=(grid=ultrafine) guess=(read,tcheck) s
 table=(opt,rrhf)
 ----------------------------------------------------------------------
 -----
 title
 -----
 Symbolic Z-matrix:
 Charge =  0 Multiplicity = 1

 SCF Done:  E(RHF) =  -119.436950875     A.U. after   10 cycles
 Normal termination of Gaussian 16 at Tue Apr  8 19:09:51 2025.
 Gaussian 16:  ES64L-G16RevC.01  3-Jul-2019

 ----------------------------------------------------------------------
 #t hf aug-cc-pvdz iop(5/13=1,5/36=2,99/5=2) pseudo=read geom=check gue
 ss=(read,tcheck) scf=(maxcycle=1)
 ----------------------------------------------------------------------
 -----
 title
 -----
 Structure from the checkpoint file:  "A21x12_17_methane-ethane_1p2_mol1.chk"
 Charge =  0 Multiplicity = 1

                         Standard orientation:
 ---------------------------------------------------------------------
 Center     Atomic      Atomic             Coordinates (Angstroms)
 Number     Number       Type             X           Y           Z
 ---------------------------------------------------------------------
      1          1           0       -2.379876   -0.453166   -0.888281
      2          6           0       -2.864006   -0.051538   -0.000001
      3          1           0       -3.915305   -0.332676   -0.000001
      4          1           0       -2.776803    1.033213    0.000001
      5          1           0       -2.379876   -0.453168    0.888289
      6          1           0        0.864078    1.063825   -0.880429
      7          1           0        2.316932   -1.006795   -0.881002
      8          6           0        1.441339    0.777233    0.000000
      9          6           0        1.740662   -0.719984   -0.000002
     10          1           0        2.361952    1.362901    0.000001
     11          1           0        0.819921   -1.305421   -0.000002
     12          1           0        0.864077    1.063822    0.880431
     13          1           0        2.316931   -1.006798    0.881008
 ---------------------------------------------------------------------

 SCF Done:  E(RHF) =  -119.483384887     A.U. after    2 cycles

 The electronic state is 1-A.
 Alpha  occ. eigenvalues --  -11.22164 -11.22107 -11.21854  -1.01110  -0.93995
 Alpha  occ. eigenvalues --   -0.84010  -0.59923  -0.59881  -0.54774  -0.54736
 Alpha  occ. eigenvalues --   -0.54734  -0.51204  -0.48831  -0.48805
 Alpha virt. eigenvalues --    0.03471   0.04512   0.04998   0.05182   0.06555
 Alpha virt. eigenvalues --    0.07354   0.07702   0.08640   0.08713   0.09859
 Alpha virt. eigenvalues --    0.13362   0.14557   0.14601   0.15820   0.15887

 Mulliken charges:
               1
     1  H   -0.151506
     2  C    0.615546
     3  H   -0.178910
     4  H   -0.137291
     5  H   -0.151486
     6  H   -0.071176
     7  H   -0.076412
     8  C    0.267469
     9  C    0.234162
    10  H   -0.105725
    11  H   -0.097103
    12  H   -0.071176
    13  H   -0.076393
 Sum of Mulliken charges =   0.00000

 Dipole moment (field-independent basis, Debye):
    X=             -0.0095    Y=              0.0064    Z=             -0.0000  Tot=              0.0115

 Test job not archived.
 1\1\GINC-SE462\SP\RHF\Aug-CC-pVDZ\C3H10\OHZDE\08-Apr-2025\0\\#t hf aug
 -cc-pvdz iop(5/13=1,5/36=2,99/5=2) pseudo=read geom=check guess=(read,
 tcheck) scf=(maxcycle=1)\\title\\0,1\H,0,-0.88828045,-0.45623218,1.739
 72715\C,0,-0.00000045,-0.05865218,2.22718715\H,0,-0.00000045,-0.348542
 18,3.27610715\H,0,-0.00000045,1.02678782,2.14902715\H,0,0.88828955,-0.
 45623218,1.73972715\H,0,-0.88043051,1.08774038,-1.4914714\H,0,-0.88100
 051,-0.97069962,-2.9615314\C,0,-0.00000051,0.80597038,-2.0711014\C,0,-
 0.00000051,-0.68869962,-2.3828914\H,0,-0.00000051,1.39929038,-2.986801

 Normal termination of Gaussian 16 at Tue Apr  8 19:09:53 2025.
