 Gaussian 16, Revision C.01,

 ----------------------------------------------------------------------
 #t hf aug-cc-pvdz symm=none int=(grid=ultrafine) guess=(read,tcheck) s
 table=(opt,rrhf)
 ----------------------------------------------------------------------
 -----
 title
 -----
 Symbolic Z-matrix:
 Charge =  0 Multiplicity = 1

 SCF Done:  E(RHF) =  -152.086344972     A.U. after   10 cycles
 Normal termination of Gaussian 16 at Tue Apr  8 19:05:45 2025.
 Gaussian 16:  ES64L-G16RevC.01  3-Jul-2019

 ----------------------------------------------------------------------
 #t hf aug-cc-pvdz iop(5/13=1,5/36=2,99/5=2) pseudo=read geom=check gue
 ss=(read,tcheck) scf=(maxcycle=1)
 ----------------------------------------------------------------------
 -----
 title
 -----
 Structure from the checkpoint file:  "A21x12_02_water-dimer_1p3_mol1.chk"
 Charge =  0 Multiplicity = 1

                         Standard orientation:
 ---------------------------------------------------------------------
 Center     Atomic      Atomic             Coordinates (Angstroms)
 Number     Number       Type             X           Y           Z
 ---------------------------------------------------------------------
      1          8           0       -0.001687    1.962410    0.000000
      2          1           0        0.893748    2.302168    0.000000
      3          1           0        0.099976    1.002957    0.000000
      4          8           0       -0.001687   -1.834016   -0.000000
      5          1           0       -0.483366   -2.166142    0.760178
      6          1           0       -0.483366   -2.166142   -0.760178
 ---------------------------------------------------------------------

 SCF Done:  E(RHF) =  -152.138740017     A.U. after    2 cycles

 The electronic state is 1-A'.
 Alpha  occ. eigenvalues --  -20.59390 -20.56744  -1.32774  -1.30021  -0.74665
 Alpha  occ. eigenvalues --   -0.71914  -0.61518  -0.58754  -0.54296  -0.51610
 Alpha virt. eigenvalues --    0.02971   0.05194   0.05570   0.08740   0.16049
 Alpha virt. eigenvalues --    0.17933   0.20021   0.21278   0.22532   0.23198
 Alpha virt. eigenvalues --    0.24800   0.26402   0.28634   0.31787   0.34431

 Mulliken charges:
               1
     1  O   -0.277799
     2  H    0.134280
     3  H    0.143185
     4  O   -0.306998
     5  H    0.153666
     6  H    0.153666
 Sum of Mulliken charges =   0.00000

 Dipole moment (field-independent basis, Debye):
    X=              0.0386    Y=             -2.4606    Z=             -0.0000  Tot=              2.4609

 Test job not archived.
 1\1\GINC-SE452\SP\RHF\Aug-CC-pVDZ\H4O2\OHZDE\08-Apr-2025\0\\#t hf aug-
 cc-pvdz iop(5/13=1,5/36=2,99/5=2) pseudo=read geom=check guess=(read,t
 check) scf=(maxcycle=1)\\title\\0,1\O,0,-0.07000004,0.,1.93286933\H,0,
 0.81273337,0.,2.30438098\H,0,0.0658542,0.,0.97765736\O,0,0.065548,0.,-
 1.86113608\H,0,-0.40396515,-0.76017841,-2.2102485\H,0,-0.40396515,0.76
 017841,-2.2102485\\Version=ES64L-G16RevC.01\State=1-A'\HF=-152.13874\R
 MSD=2.028e-03\Dipole=0.0497514,0.,-0.9669322\Quadrupole=-0.4253739,-0.
 0635461,0.48892,0.,6.0693579,0.\PG=CS [SG(H2O2),X(H2)]\\@

 Normal termination of Gaussian 16 at Tue Apr  8 19:05:46 2025.
