 Gaussian 16, Revision C.01,

 ----------------------------------------------------------------------
 #t hf aug-cc-pvdz symm=none int=(grid=ultrafine) guess=(read,tcheck) s
 table=(opt,rrhf)
 ----------------------------------------------------------------------
 -----
 title
 -----
 Symbolic Z-matrix:
 Charge =  0 Multiplicity = 1

 SCF Done:  E(RHF) =  -185.777017338     A.U. after   11 cycles
 Normal termination of Gaussian 16 at Tue Apr  8 19:06:44 2025.
 Gaussian 16:  ES64L-G16RevC.01  3-Jul-2019

 ----------------------------------------------------------------------
 #t hf aug-cc-pvdz iop(5/13=1,5/36=2,99/5=2) pseudo=read geom=check gue
 ss=(read,tcheck) scf=(maxcycle=1)
 ----------------------------------------------------------------------
 -----
 title
 -----
 Structure from the checkpoint file:  "A21x12_03_HCN-dimer_1p4_mol1.chk"
 Charge =  0 Multiplicity = 1

                         Standard orientation:
 ---------------------------------------------------------------------
 Center     Atomic      Atomic             Coordinates (Angstroms)
 Number     Number       Type             X           Y           Z
 ---------------------------------------------------------------------
      1          1           0        0.000000    0.000000   -4.688613
      2          6           0        0.000000    0.000000   -3.619900
      3          7           0        0.000000    0.000000   -2.464908
      4          1           0        0.000000    0.000000    1.542578
      5          6           0        0.000000    0.000000    2.616902
      6          7           0        0.000000    0.000000    3.774054
 ---------------------------------------------------------------------

 SCF Done:  E(RHF) =  -185.834171345     A.U. after    2 cycles

 The electronic state is 1-SG.
 Alpha  occ. eigenvalues --  -15.68094 -15.65999 -11.32119 -11.29988  -1.22035
 Alpha  occ. eigenvalues --   -1.19785  -0.82135  -0.79708  -0.58514  -0.56226
 Alpha  occ. eigenvalues --   -0.50698  -0.50698  -0.48487  -0.48487
 Alpha virt. eigenvalues --    0.02267   0.04567   0.07508   0.07508   0.08558
 Alpha virt. eigenvalues --    0.09220   0.09220   0.11163   0.15143   0.15224
 Alpha virt. eigenvalues --    0.15224   0.16563   0.16763   0.16763   0.19193

 Mulliken charges:
               1
     1  H   -0.018832
     2  C    0.150377
     3  N   -0.131121
     4  H   -0.014908
     5  C    0.286253
     6  N   -0.271769
 Sum of Mulliken charges =  -0.00000

 Dipole moment (field-independent basis, Debye):
    X=              0.0000    Y=             -0.0000    Z=             -6.6342  Tot=              6.6342

 Test job not archived.
 1\1\GINC-SE105\SP\RHF\Aug-CC-pVDZ\C2H2N2\OHZDE\08-Apr-2025\0\\#t hf au
 g-cc-pvdz iop(5/13=1,5/36=2,99/5=2) pseudo=read geom=check guess=(read
 ,tcheck) scf=(maxcycle=1)\\title\\0,1\H,0,0.,0.,4.74646825\C,0,0.,0.,3
 .67775495\N,0,0.,0.,2.5227631\H,0,0.,0.,-1.48472322\C,0,0.,0.,-2.55904
 654\N,0,0.,0.,-3.71619886\\Version=ES64L-G16RevC.01\State=1-SG\HF=-185
 .8341713\RMSD=2.042e-03\Dipole=0.,0.,2.6100765\Quadrupole=-1.2247226,-
 1.2247226,2.4494453,0.,0.,0.\PG=C*V [C*(H1C1N1H1C1N1)]\\@

 Normal termination of Gaussian 16 at Tue Apr  8 19:06:46 2025.
