 Gaussian 16, Revision C.01,

 ----------------------------------------------------------------------
 #t hf aug-cc-pvdz symm=none int=(grid=ultrafine) guess=(read,tcheck) s
 table=(opt,rrhf)
 ----------------------------------------------------------------------
 -----
 title
 -----
 Symbolic Z-matrix:
 Charge =  0 Multiplicity = 1

 SCF Done:  E(RHF) =  -156.087224551     A.U. after   10 cycles
 Normal termination of Gaussian 16 at Tue Apr  8 19:08:55 2025.
 Gaussian 16:  ES64L-G16RevC.01  3-Jul-2019

 ----------------------------------------------------------------------
 #t hf aug-cc-pvdz iop(5/13=1,5/36=2,99/5=2) pseudo=read geom=check gue
 ss=(read,tcheck) scf=(maxcycle=1)
 ----------------------------------------------------------------------
 -----
 title
 -----
 Structure from the checkpoint file:  "A21x12_14_ethene-dimer_1p6_mol1.chk"
 Charge =  0 Multiplicity = 1

                         Standard orientation:
 ---------------------------------------------------------------------
 Center     Atomic      Atomic             Coordinates (Angstroms)
 Number     Number       Type             X           Y           Z
 ---------------------------------------------------------------------
      1          1           0       -0.924445    1.231722   -3.049422
      2          1           0        0.924445    1.231722   -3.049422
      3          1           0        0.924445   -1.231722   -3.049422
      4          1           0       -0.924445   -1.231722   -3.049422
      5          6           0        0.000000   -0.667288   -3.048794
      6          6           0        0.000000    0.667288   -3.048794
      7          1           0        0.000000   -1.233449    3.972876
      8          1           0        0.000000   -1.225471    2.121320
      9          1           0        0.000000    1.225471    2.121320
     10          1           0        0.000000    1.233449    3.972876
     11          6           0        0.000000    0.667117    3.049568
     12          6           0       -0.000000   -0.667117    3.049568
 ---------------------------------------------------------------------

 SCF Done:  E(RHF) =  -156.141390931     A.U. after    2 cycles

 The electronic state is 1-A1.
 Alpha  occ. eigenvalues --  -11.24440 -11.24275 -11.24166 -11.24001  -1.02898
 Alpha  occ. eigenvalues --   -1.02656  -0.79426  -0.79126  -0.64841  -0.64629
 Alpha  occ. eigenvalues --   -0.59222  -0.58904  -0.51117  -0.50880  -0.38060
 Alpha  occ. eigenvalues --   -0.37806
 Alpha virt. eigenvalues --    0.03577   0.04511   0.04615   0.05112   0.05764
 Alpha virt. eigenvalues --    0.07019   0.07044   0.07948   0.10415   0.11628
 Alpha virt. eigenvalues --    0.12335   0.12439   0.13115   0.14650   0.15345

 Mulliken charges:
               1
     1  H   -0.261177
     2  H   -0.261177
     3  H   -0.261177
     4  H   -0.261177
     5  C    0.521979
     6  C    0.521979
     7  H   -0.264714
     8  H   -0.258499
     9  H   -0.258499
    10  H   -0.264714
    11  C    0.523589
    12  C    0.523589
 Sum of Mulliken charges =  -0.00000

 Dipole moment (field-independent basis, Debye):
    X=             -0.0000    Y=              0.0000    Z=             -0.0362  Tot=              0.0362

 Test job not archived.
 1\1\GINC-SE144\SP\RHF\Aug-CC-pVDZ\C4H8\OHZDE\08-Apr-2025\0\\#t hf aug-
 cc-pvdz iop(5/13=1,5/36=2,99/5=2) pseudo=read geom=check guess=(read,t
 check) scf=(maxcycle=1)\\title\\0,1\H,0,0.9244451,-1.23172221,-3.04958
 613\H,0,-0.9244451,-1.23172221,-3.04958613\H,0,-0.9244451,1.23172221,-
 3.04958613\H,0,0.9244451,1.23172221,-3.04958613\C,0,0.,0.66728778,-3.0
 489582\C,0,0.,-0.66728778,-3.0489582\H,0,0.,1.23344948,3.9727113\H,0,0
 .,1.22547148,2.12115537\H,0,0.,-1.22547148,2.12115537\H,0,0.,-1.233449
 48,3.9727113\C,0,0.,-0.66711698,3.0494038\C,0,0.,0.66711698,3.0494038\

 Normal termination of Gaussian 16 at Tue Apr  8 19:08:57 2025.
