 Gaussian 16, Revision C.01,

 ----------------------------------------------------------------------
 #t hf aug-cc-pvdz symm=none int=(grid=ultrafine) guess=(read,tcheck) s
 table=(opt,rrhf)
 ----------------------------------------------------------------------
 -----
 title
 -----
 Symbolic Z-matrix:
 Charge =  0 Multiplicity = 1

 SCF Done:  E(RHF) =  -116.241043229     A.U. after   10 cycles
 Normal termination of Gaussian 16 at Tue Apr  8 19:07:45 2025.
 Gaussian 16:  ES64L-G16RevC.01  3-Jul-2019

 ----------------------------------------------------------------------
 #t hf aug-cc-pvdz iop(5/13=1,5/36=2,99/5=2) pseudo=read geom=check gue
 ss=(read,tcheck) scf=(maxcycle=1)
 ----------------------------------------------------------------------
 -----
 title
 -----
 Structure from the checkpoint file:  "A21x12_08_water-methane_1p8_mol1.chk"
 Charge =  0 Multiplicity = 1

                         Standard orientation:
 ---------------------------------------------------------------------
 Center     Atomic      Atomic             Coordinates (Angstroms)
 Number     Number       Type             X           Y           Z
 ---------------------------------------------------------------------
      1          8           0       -0.003730   -3.312734    0.000000
      2          1           0        0.033680   -3.898449    0.757550
      3          1           0        0.033680   -3.898449   -0.757550
      4          6           0       -0.003730    3.428765    0.000000
      5          1           0       -0.512196    3.801329    0.887590
      6          1           0        1.025772    3.782720   -0.000000
      7          1           0       -0.016520    2.340803    0.000000
      8          1           0       -0.512196    3.801329   -0.887590
 ---------------------------------------------------------------------

 SCF Done:  E(RHF) =  -116.284562117     A.U. after    2 cycles

 The electronic state is 1-A'.
 Alpha  occ. eigenvalues --  -20.58144 -11.21377  -1.31603  -0.93493  -0.73426
 Alpha  occ. eigenvalues --   -0.60205  -0.54304  -0.54231  -0.54217  -0.53014
 Alpha virt. eigenvalues --    0.03352   0.04315   0.05734   0.06683   0.06785
 Alpha virt. eigenvalues --    0.08118   0.15036   0.15060   0.15523   0.17868
 Alpha virt. eigenvalues --    0.19434   0.20172   0.22905   0.24463   0.28858

 Mulliken charges:
               1
     1  O   -0.270519
     2  H    0.134985
     3  H    0.134985
     4  C    0.616946
     5  H   -0.153753
     6  H   -0.153660
     7  H   -0.155231
     8  H   -0.153753
 Sum of Mulliken charges =  -0.00000

 Dipole moment (field-independent basis, Debye):
    X=              0.1316    Y=             -2.0991    Z=              0.0000  Tot=              2.1032

 Test job not archived.
 1\1\GINC-SE247\SP\RHF\Aug-CC-pVDZ\C1H6O1\OHZDE\08-Apr-2025\0\\#t hf au
 g-cc-pvdz iop(5/13=1,5/36=2,99/5=2) pseudo=read geom=check guess=(read
 ,tcheck) scf=(maxcycle=1)\\title\\0,1\O,0,-0.00527852,0.,3.33832075\H,
 0,0.03157148,0.75755,3.92407075\H,0,0.03157148,-0.75755,3.92407075\C,0
 ,0.00116766,0.,-3.40317582\H,0,-0.50694234,0.88759,-3.77622582\H,0,1.0
 3100766,0.,-3.75614582\H,0,-0.01266234,0.,-2.31522582\H,0,-0.50694234,
 -0.88759,-3.77622582\\Version=ES64L-G16RevC.01\State=1-A'\HF=-116.2845
 621\RMSD=1.693e-03\Dipole=0.0509832,0.,0.8258996\Quadrupole=-4.628095,

 Normal termination of Gaussian 16 at Tue Apr  8 19:07:46 2025.
