 Gaussian 16, Revision C.01,

 ----------------------------------------------------------------------
 #t hf aug-cc-pvdz symm=none int=(grid=ultrafine) guess=(read,tcheck) s
 table=(opt,rrhf)
 ----------------------------------------------------------------------
 -----
 title
 -----
 Symbolic Z-matrix:
 Charge =  0 Multiplicity = 1

 SCF Done:  E(RHF) =  -112.411811717     A.U. after   10 cycles
 Normal termination of Gaussian 16 at Tue Apr  8 19:07:44 2025.
 Gaussian 16:  ES64L-G16RevC.01  3-Jul-2019

 ----------------------------------------------------------------------
 #t hf aug-cc-pvdz iop(5/13=1,5/36=2,99/5=2) pseudo=read geom=check gue
 ss=(read,tcheck) scf=(maxcycle=1)
 ----------------------------------------------------------------------
 -----
 title
 -----
 Structure from the checkpoint file:  "A21x12_05_ammonia-dimer_1p5_mol1.chk"
 Charge =  0 Multiplicity = 1

                         Standard orientation:
 ---------------------------------------------------------------------
 Center     Atomic      Atomic             Coordinates (Angstroms)
 Number     Number       Type             X           Y           Z
 ---------------------------------------------------------------------
      1          7           0       -0.000000    2.394002   -0.000000
      2          1           0       -0.183534    2.972113    0.811060
      3          1           0       -0.183534    2.972113   -0.811060
      4          1           0       -0.696511    1.656417   -0.000000
      5          7           0       -0.000000   -2.394002   -0.000000
      6          1           0        0.183534   -2.972113    0.811060
      7          1           0        0.696511   -1.656417   -0.000000
      8          1           0        0.183534   -2.972113   -0.811060
 ---------------------------------------------------------------------

 SCF Done:  E(RHF) =  -112.452859242     A.U. after    2 cycles

 The electronic state is 1-AG.
 Alpha  occ. eigenvalues --  -15.60630 -15.60630  -1.10661  -1.10647  -0.62463
 Alpha  occ. eigenvalues --   -0.62326  -0.62318  -0.62277  -0.42086  -0.42071
 Alpha virt. eigenvalues --    0.03674   0.04555   0.05106   0.06707   0.07137
 Alpha virt. eigenvalues --    0.07453   0.15915   0.18273   0.18662   0.19015
 Alpha virt. eigenvalues --    0.20078   0.20240   0.22093   0.22141   0.29034

 Mulliken charges:
               1
     1  N   -0.095110
     2  H    0.027996
     3  H    0.027996
     4  H    0.039119
     5  N   -0.095110
     6  H    0.027996
     7  H    0.039119
     8  H    0.027996
 Sum of Mulliken charges =  -0.00000

 Dipole moment (field-independent basis, Debye):
    X=             -0.0000    Y=              0.0000    Z=              0.0000  Tot=              0.0000

 Test job not archived.
 1\1\GINC-SE047\SP\RHF\Aug-CC-pVDZ\H6N2\OHZDE\08-Apr-2025\0\\#t hf aug-
 cc-pvdz iop(5/13=1,5/36=2,99/5=2) pseudo=read geom=check guess=(read,t
 check) scf=(maxcycle=1)\\title\\0,1\N,0,-0.04372614,-2.39360257,0.\H,0
 ,0.1292178,-2.97496952,0.81105976\H,0,0.1292178,-2.97496952,-0.8110597
 6\H,0,0.66614095,-1.66886232,0.\N,0,0.04372614,2.39360257,0.\H,0,-0.12
 92178,2.97496952,0.81105976\H,0,-0.66614095,1.66886232,0.\H,0,-0.12921
 78,2.97496952,-0.81105976\\Version=ES64L-G16RevC.01\State=1-AG\HF=-112
 .4528592\RMSD=9.015e-04\Dipole=0.,0.,0.\Quadrupole=-3.6634831,3.715519

 Normal termination of Gaussian 16 at Tue Apr  8 19:07:46 2025.
