 Gaussian 16, Revision C.01,

 ----------------------------------------------------------------------
 #t hf aug-cc-pvdz symm=none int=(grid=ultrafine) guess=(read,tcheck) s
 table=(opt,rrhf)
 ----------------------------------------------------------------------
 -----
 title
 -----
 Symbolic Z-matrix:
 Charge =  0 Multiplicity = 1

 SCF Done:  E(RHF) =  -119.433619936     A.U. after   10 cycles
 Normal termination of Gaussian 16 at Tue Apr  8 19:09:56 2025.
 Gaussian 16:  ES64L-G16RevC.01  3-Jul-2019

 ----------------------------------------------------------------------
 #t hf aug-cc-pvdz iop(5/13=1,5/36=2,99/5=2) pseudo=read geom=check gue
 ss=(read,tcheck) scf=(maxcycle=1)
 ----------------------------------------------------------------------
 -----
 title
 -----
 Structure from the checkpoint file:  "A21x12_18_methane-ethane_0p9_mol1.chk"
 Charge =  0 Multiplicity = 1

                         Standard orientation:
 ---------------------------------------------------------------------
 Center     Atomic      Atomic             Coordinates (Angstroms)
 Number     Number       Type             X           Y           Z
 ---------------------------------------------------------------------
      1          6           0       -2.535896    0.000001    0.000000
      2          1           0       -2.171497   -0.197909    1.006159
      3          1           0       -2.171497   -0.772409   -0.674472
      4          1           0       -2.171496    0.970319   -0.331687
      5          1           0       -3.624136    0.000001    0.000000
      6          6           0        0.645386   -0.000000    0.000000
      7          6           0        2.172176   -0.000000    0.000000
      8          1           0        0.249676    0.764810    0.670181
      9          1           0        0.249676    0.197986   -0.997442
     10          1           0        0.249676   -0.962807    0.327254
     11          1           0        2.566536    0.963199   -0.327332
     12          1           0        2.566536   -0.198115    0.997815
     13          1           0        2.566536   -0.765076   -0.670484
 ---------------------------------------------------------------------

 SCF Done:  E(RHF) =  -119.479554497     A.U. after    2 cycles

 The electronic state is 1-A.
 Alpha  occ. eigenvalues --  -11.22042 -11.21959 -11.21544  -1.01063  -0.93864
 Alpha  occ. eigenvalues --   -0.83959  -0.59878  -0.59878  -0.55057  -0.54593
 Alpha  occ. eigenvalues --   -0.54593  -0.50626  -0.48673  -0.48673
 Alpha virt. eigenvalues --    0.03394   0.04334   0.05205   0.05205   0.06502
 Alpha virt. eigenvalues --    0.07572   0.07572   0.08845   0.08845   0.09786
 Alpha virt. eigenvalues --    0.14530   0.14530   0.14821   0.16597   0.16837

 Mulliken charges:
               1
     1  C    0.770254
     2  H   -0.156782
     3  H   -0.156776
     4  H   -0.156767
     5  H   -0.231968
     6  C    0.248095
     7  C    0.216081
     8  H   -0.140811
     9  H   -0.140796
    10  H   -0.140791
    11  H   -0.036570
    12  H   -0.036588
    13  H   -0.036581
 Sum of Mulliken charges =  -0.00000

 Dipole moment (field-independent basis, Debye):
    X=             -0.0074    Y=             -0.0000    Z=              0.0000  Tot=              0.0074

 Test job not archived.
 1\1\GINC-SE096\SP\RHF\Aug-CC-pVDZ\C3H10\OHZDE\08-Apr-2025\0\\#t hf aug
 -cc-pvdz iop(5/13=1,5/36=2,99/5=2) pseudo=read geom=check guess=(read,
 tcheck) scf=(maxcycle=1)\\title\\0,1\C,0,0.,-0.00000015,-1.97242662\H,
 0,0.39305,-0.94712015,-1.60802662\H,0,0.62371,0.81394985,-1.60802662\H
 ,0,-1.01676,0.13316985,-1.60802662\H,0,0.,-0.00000015,-3.06066662\C,0,
 0.,-0.00000018,1.20885565\C,0,0.,-0.00000018,2.73564565\H,0,-0.61711,-
 0.80824018,0.81314565\H,0,-0.3914,0.93855982,0.81314565\H,0,1.00852,-0
 .13031018,0.81314565\H,0,-1.00892,0.13030982,3.13000565\H,0,0.3916,-0.

 Normal termination of Gaussian 16 at Tue Apr  8 19:09:59 2025.
