 Gaussian 16, Revision C.01,

 ----------------------------------------------------------------------
 #t hf aug-cc-pvdz symm=none int=(grid=ultrafine) guess=(read,tcheck) s
 table=(opt,rrhf)
 ----------------------------------------------------------------------
 -----
 title
 -----
 Symbolic Z-matrix:
 Charge =  0 Multiplicity = 1

 SCF Done:  E(RHF) =  -80.3992680000     A.U. after    8 cycles
 Normal termination of Gaussian 16 at Tue Apr  8 19:10:46 2025.
 Gaussian 16:  ES64L-G16RevC.01  3-Jul-2019

 ----------------------------------------------------------------------
 #t hf aug-cc-pvdz iop(5/13=1,5/36=2,99/5=2) pseudo=read geom=check gue
 ss=(read,tcheck) scf=(maxcycle=1)
 ----------------------------------------------------------------------
 -----
 title
 -----
 Structure from the checkpoint file:  "A21x12_19_methane-dimer_1p7_mol1.chk"
 Charge =  0 Multiplicity = 1

                         Standard orientation:
 ---------------------------------------------------------------------
 Center     Atomic      Atomic             Coordinates (Angstroms)
 Number     Number       Type             X           Y           Z
 ---------------------------------------------------------------------
      1          6           0        0.000000    0.000000    3.092125
      2          1           0        0.000000    1.025482    2.727878
      3          1           0        0.888094   -0.512741    2.727878
      4          1           0       -0.888094   -0.512741    2.727878
      5          1           0        0.000000    0.000000    4.180331
      6          6           0       -0.000000   -0.000000   -3.092125
      7          1           0       -0.000000   -0.000000   -4.180331
      8          1           0       -0.888094    0.512741   -2.727878
      9          1           0       -0.000000   -1.025482   -2.727878
     10          1           0        0.888094    0.512741   -2.727878
 ---------------------------------------------------------------------

 SCF Done:  E(RHF) =  -80.4337049364     A.U. after    2 cycles

 The electronic state is 1-A1G.
 Alpha  occ. eigenvalues --  -11.21832 -11.21832  -0.93970  -0.93968  -0.54766
 Alpha  occ. eigenvalues --   -0.54749  -0.54709  -0.54709  -0.54704  -0.54704
 Alpha virt. eigenvalues --    0.03146   0.04407   0.05768   0.05768   0.06180
 Alpha virt. eigenvalues --    0.07675   0.07675   0.08429   0.12720   0.14348
 Alpha virt. eigenvalues --    0.14348   0.15087   0.15087   0.17617   0.18356

 Mulliken charges:
               1
     1  C    0.624367
     2  H   -0.151018
     3  H   -0.151018
     4  H   -0.151018
     5  H   -0.171312
     6  C    0.624367
     7  H   -0.171312
     8  H   -0.151018
     9  H   -0.151018
    10  H   -0.151018
 Sum of Mulliken charges =  -0.00000

 Dipole moment (field-independent basis, Debye):
    X=             -0.0000    Y=              0.0000    Z=             -0.0000  Tot=              0.0000

 Test job not archived.
 1\1\GINC-SE046\SP\RHF\Aug-CC-pVDZ\C2H8\OHZDE\08-Apr-2025\0\\#t hf aug-
 cc-pvdz iop(5/13=1,5/36=2,99/5=2) pseudo=read geom=check guess=(read,t
 check) scf=(maxcycle=1)\\title\\0,1\C,0,0.,0.,3.09212519\H,0,0.5127411
 5,0.88809373,2.72787805\H,0,0.51274115,-0.88809373,2.72787805\H,0,-1.0
 254823,0.,2.72787805\H,0,0.,0.,4.18033134\C,0,0.,0.,-3.09212519\H,0,0.
 ,0.,-4.18033134\H,0,-0.51274115,0.88809373,-2.72787805\H,0,-0.51274115
 ,-0.88809373,-2.72787805\H,0,1.0254823,0.,-2.72787805\\Version=ES64L-G
 16RevC.01\State=1-A1G\HF=-80.4337049\RMSD=1.485e-03\Dipole=0.,0.,0.\Qu

 Normal termination of Gaussian 16 at Tue Apr  8 19:10:48 2025.
