 Gaussian 16, Revision C.01,

 ----------------------------------------------------------------------
 #t hf aug-cc-pvdz symm=none int=(grid=ultrafine) guess=(read,tcheck) s
 table=(opt,rrhf)
 ----------------------------------------------------------------------
 -----
 title
 -----
 Symbolic Z-matrix:
 Charge =  0 Multiplicity = 1

 SCF Done:  E(RHF) =  -227.771448321     A.U. after   12 cycles
 Normal termination of Gaussian 16 at Tue Apr  8 19:07:53 2025.
 Gaussian 16:  ES64L-G16RevC.01  3-Jul-2019

 ----------------------------------------------------------------------
 #t hf aug-cc-pvdz iop(5/13=1,5/36=2,99/5=2) pseudo=read geom=check gue
 ss=(read,tcheck) scf=(maxcycle=1)
 ----------------------------------------------------------------------
 -----
 title
 -----
 Structure from the checkpoint file:  "A21x12_09_formaldehyde-dimer_1p7_mol1.chk"
 Charge =  0 Multiplicity = 1

                         Standard orientation:
 ---------------------------------------------------------------------
 Center     Atomic      Atomic             Coordinates (Angstroms)
 Number     Number       Type             X           Y           Z
 ---------------------------------------------------------------------
      1          6           0       -0.972798   -2.257560    0.000000
      2          8           0       -2.040798   -1.687533    0.000000
      3          1           0       -0.464263   -2.536180    0.935423
      4          1           0       -0.464263   -2.536180   -0.935423
      5          6           0        1.078231    2.397116    0.000000
      6          8           0        1.905531    1.513361    0.000000
      7          1           0        1.378065    3.456596    0.000000
      8          1           0        0.000000    2.171798    0.000000
 ---------------------------------------------------------------------

 SCF Done:  E(RHF) =  -227.847895336     A.U. after    2 cycles

 The electronic state is 1-A'.
 Alpha  occ. eigenvalues --  -20.59481 -20.59111 -11.35757 -11.35408  -1.37063
 Alpha  occ. eigenvalues --   -1.36669  -0.87196  -0.86916  -0.70637  -0.70125
 Alpha  occ. eigenvalues --   -0.66675  -0.66374  -0.55240  -0.54876  -0.45971
 Alpha  occ. eigenvalues --   -0.45563
 Alpha virt. eigenvalues --    0.03347   0.04120   0.05346   0.06079   0.06806
 Alpha virt. eigenvalues --    0.07384   0.09833   0.10806   0.14597   0.15295
 Alpha virt. eigenvalues --    0.15709   0.16226   0.16808   0.17705   0.21328

 Mulliken charges:
               1
     1  C    0.636470
     2  O   -0.400747
     3  H   -0.118019
     4  H   -0.118019
     5  C    0.636271
     6  O   -0.399916
     7  H   -0.122887
     8  H   -0.113153
 Sum of Mulliken charges =  -0.00000

 Dipole moment (field-independent basis, Debye):
    X=              0.6316    Y=              0.8091    Z=              0.0000  Tot=              1.0264

 Test job not archived.
 1\1\GINC-SE186\SP\RHF\Aug-CC-pVDZ\C2H4O2\OHZDE\08-Apr-2025\0\\#t hf au
 g-cc-pvdz iop(5/13=1,5/36=2,99/5=2) pseudo=read geom=check guess=(read
 ,tcheck) scf=(maxcycle=1)\\title\\0,1\C,0,0.,0.60349119,-2.37128253\O,
 0,0.,-0.59076675,-2.56953298\H,0,0.9354225,1.17652763,-2.28259409\H,0,
 -0.9354225,1.17652763,-2.28259409\C,0,0.,-0.60425645,2.56977764\O,0,0.
 ,0.59013469,2.37260226\H,0,0.,-1.01163151,3.59273533\H,0,0.,-1.3222807
 5,1.73443895\\Version=ES64L-G16RevC.01\State=1-A'\HF=-227.8478953\RMSD
 =2.103e-03\Dipole=0.,0.0032392,0.403803\Quadrupole=0.0626779,-0.057177

 Normal termination of Gaussian 16 at Tue Apr  8 19:07:55 2025.
