 Gaussian 16, Revision C.01,

 ----------------------------------------------------------------------
 #t hf aug-cc-pvdz symm=none int=(grid=ultrafine) guess=(read,tcheck) s
 table=(opt,rrhf)
 ----------------------------------------------------------------------
 -----
 title
 -----
 Symbolic Z-matrix:
 Charge =  0 Multiplicity = 1

 SCF Done:  E(RHF) =  -185.775233827     A.U. after   11 cycles
 Normal termination of Gaussian 16 at Tue Apr  8 19:06:44 2025.
 Gaussian 16:  ES64L-G16RevC.01  3-Jul-2019

 ----------------------------------------------------------------------
 #t hf aug-cc-pvdz iop(5/13=1,5/36=2,99/5=2) pseudo=read geom=check gue
 ss=(read,tcheck) scf=(maxcycle=1)
 ----------------------------------------------------------------------
 -----
 title
 -----
 Structure from the checkpoint file:  "A21x12_03_HCN-dimer_1p9_mol1.chk"
 Charge =  0 Multiplicity = 1

                         Standard orientation:
 ---------------------------------------------------------------------
 Center     Atomic      Atomic             Coordinates (Angstroms)
 Number     Number       Type             X           Y           Z
 ---------------------------------------------------------------------
      1          1           0        0.000000    0.000000   -5.802490
      2          6           0        0.000000    0.000000   -4.733777
      3          7           0        0.000000    0.000000   -3.578785
      4          1           0        0.000000    0.000000    2.656456
      5          6           0        0.000000    0.000000    3.730779
      6          7           0        0.000000    0.000000    4.887931
 ---------------------------------------------------------------------

 SCF Done:  E(RHF) =  -185.832393108     A.U. after    2 cycles

 The electronic state is 1-SG.
 Alpha  occ. eigenvalues --  -15.67517 -15.66495 -11.31480 -11.30477  -1.21440
 Alpha  occ. eigenvalues --   -1.20246  -0.81603  -0.80307  -0.57786  -0.56664
 Alpha  occ. eigenvalues --   -0.50097  -0.50097  -0.48941  -0.48941
 Alpha virt. eigenvalues --    0.02482   0.03633   0.07911   0.07937   0.07937
 Alpha virt. eigenvalues --    0.08898   0.08898   0.09588   0.14972   0.15231
 Alpha virt. eigenvalues --    0.15231   0.16273   0.16273   0.16757   0.18878

 Mulliken charges:
               1
     1  H   -0.004379
     2  C    0.205206
     3  N   -0.200758
     4  H   -0.002332
     5  C    0.243032
     6  N   -0.240769
 Sum of Mulliken charges =   0.00000

 Dipole moment (field-independent basis, Debye):
    X=             -0.0000    Y=              0.0000    Z=             -6.4891  Tot=              6.4891

 Test job not archived.
 1\1\GINC-SE335\SP\RHF\Aug-CC-pVDZ\C2H2N2\OHZDE\08-Apr-2025\0\\#t hf au
 g-cc-pvdz iop(5/13=1,5/36=2,99/5=2) pseudo=read geom=check guess=(read
 ,tcheck) scf=(maxcycle=1)\\title\\0,1\H,0,0.,0.,5.86034543\C,0,0.,0.,4
 .79163213\N,0,0.,0.,3.63664028\H,0,0.,0.,-2.5986004\C,0,0.,0.,-3.67292
 372\N,0,0.,0.,-4.83007604\\Version=ES64L-G16RevC.01\State=1-SG\HF=-185
 .8323931\RMSD=1.920e-03\Dipole=0.,0.,2.5530061\Quadrupole=-1.1903077,-
 1.1903077,2.3806154,0.,0.,0.\PG=C*V [C*(H1C1N1H1C1N1)]\\@

 Normal termination of Gaussian 16 at Tue Apr  8 19:06:45 2025.
