 Gaussian 16, Revision C.01,

 ----------------------------------------------------------------------
 #t hf aug-cc-pvdz symm=none int=(grid=ultrafine) guess=(read,tcheck) s
 table=(opt,rrhf)
 ----------------------------------------------------------------------
 -----
 title
 -----
 Symbolic Z-matrix:
 Charge =  0 Multiplicity = 1

 SCF Done:  E(RHF) =  -153.657930595     A.U. after   11 cycles
 Normal termination of Gaussian 16 at Tue Apr  8 19:08:47 2025.
 Gaussian 16:  ES64L-G16RevC.01  3-Jul-2019

 ----------------------------------------------------------------------
 #t hf aug-cc-pvdz iop(5/13=1,5/36=2,99/5=2) pseudo=read geom=check gue
 ss=(read,tcheck) scf=(maxcycle=1)
 ----------------------------------------------------------------------
 -----
 title
 -----
 Structure from the checkpoint file:  "A21x12_12_ethyne-dimer_1p1_mol1.chk"
 Charge =  0 Multiplicity = 1

                         Standard orientation:
 ---------------------------------------------------------------------
 Center     Atomic      Atomic             Coordinates (Angstroms)
 Number     Number       Type             X           Y           Z
 ---------------------------------------------------------------------
      1          6           0        0.000000    0.603564   -2.399803
      2          1           0        0.000000    1.668476   -2.402364
      3          6           0       -0.000000   -0.603564   -2.399803
      4          1           0       -0.000000   -1.668476   -2.402364
      5          6           0        0.000000   -0.000000    1.796613
      6          1           0        0.000000   -0.000000    0.729680
      7          6           0        0.000000   -0.000000    3.004084
      8          1           0        0.000000   -0.000000    4.068497
 ---------------------------------------------------------------------

 SCF Done:  E(RHF) =  -153.710904320     A.U. after    2 cycles

 The electronic state is 1-A1.
 Alpha  occ. eigenvalues --  -11.26694 -11.26313 -11.25376 -11.24995  -1.03397
 Alpha  occ. eigenvalues --   -1.02070  -0.77552  -0.76255  -0.69146  -0.67841
 Alpha  occ. eigenvalues --   -0.42288  -0.42171  -0.40910  -0.40895
 Alpha virt. eigenvalues --    0.03433   0.03908   0.04157   0.06792   0.09751
 Alpha virt. eigenvalues --    0.10371   0.10421   0.11320   0.11650   0.12490
 Alpha virt. eigenvalues --    0.13745   0.14596   0.14797   0.15357   0.16386

 Mulliken charges:
               1
     1  C    0.278131
     2  H   -0.274902
     3  C    0.278131
     4  H   -0.274902
     5  C    0.340428
     6  H   -0.360114
     7  C    0.271297
     8  H   -0.258069
 Sum of Mulliken charges =  -0.00000

 Dipole moment (field-independent basis, Debye):
    X=              0.0000    Y=              0.0000    Z=             -0.2519  Tot=              0.2519

 Test job not archived.
 1\1\GINC-SE048\SP\RHF\Aug-CC-pVDZ\C4H4\OHZDE\08-Apr-2025\0\\#t hf aug-
 cc-pvdz iop(5/13=1,5/36=2,99/5=2) pseudo=read geom=check guess=(read,t
 check) scf=(maxcycle=1)\\title\\0,1\C,0,0.,0.603564,-2.39992755\H,0,0.
 ,1.66847581,-2.40248927\C,0,0.,-0.603564,-2.39992755\H,0,0.,-1.6684758
 1,-2.40248927\C,0,0.,0.,1.79648851\H,0,0.,0.,0.72955531\C,0,0.,0.,3.00
 395881\H,0,0.,0.,4.06837197\\Version=ES64L-G16RevC.01\State=1-A1\HF=-1
 53.7109043\RMSD=7.737e-03\Dipole=0.,0.,-0.0990855\Quadrupole=-3.711685
 1,1.8444875,1.8671977,0.,0.,0.\PG=C02V [C2(H1C1C1H1),SGV(C2H2)]\\@

 Normal termination of Gaussian 16 at Tue Apr  8 19:08:49 2025.
