 Gaussian 16, Revision C.01,

 ----------------------------------------------------------------------
 #t hf aug-cc-pvdz symm=none int=(grid=ultrafine) guess=(read,tcheck) s
 table=(opt,rrhf)
 ----------------------------------------------------------------------
 -----
 title
 -----
 Symbolic Z-matrix:
 Charge =  0 Multiplicity = 1

 SCF Done:  E(RHF) =  -152.084308933     A.U. after   10 cycles
 Normal termination of Gaussian 16 at Tue Apr  8 19:05:55 2025.
 Gaussian 16:  ES64L-G16RevC.01  3-Jul-2019

 ----------------------------------------------------------------------
 #t hf aug-cc-pvdz iop(5/13=1,5/36=2,99/5=2) pseudo=read geom=check gue
 ss=(read,tcheck) scf=(maxcycle=1)
 ----------------------------------------------------------------------
 -----
 title
 -----
 Structure from the checkpoint file:  "A21x12_02_water-dimer_1p6_mol1.chk"
 Charge =  0 Multiplicity = 1

                         Standard orientation:
 ---------------------------------------------------------------------
 Center     Atomic      Atomic             Coordinates (Angstroms)
 Number     Number       Type             X           Y           Z
 ---------------------------------------------------------------------
      1          8           0       -0.002035    2.400771   -0.000000
      2          1           0        0.891547    2.745375    0.000000
      3          1           0        0.104824    1.441883   -0.000000
      4          8           0       -0.002035   -2.272397    0.000000
      5          1           0       -0.481907   -2.607128    0.760178
      6          1           0       -0.481907   -2.607128   -0.760178
 ---------------------------------------------------------------------

 SCF Done:  E(RHF) =  -152.136889586     A.U. after    2 cycles

 The electronic state is 1-A'.
 Alpha  occ. eigenvalues --  -20.58869 -20.57330  -1.32248  -1.30584  -0.74159
 Alpha  occ. eigenvalues --   -0.72462  -0.60904  -0.59288  -0.53747  -0.52156
 Alpha virt. eigenvalues --    0.03004   0.04889   0.05575   0.08213   0.16392
 Alpha virt. eigenvalues --    0.17653   0.19948   0.21254   0.22322   0.22589
 Alpha virt. eigenvalues --    0.23815   0.24855   0.28410   0.30538   0.33262

 Mulliken charges:
               1
     1  O   -0.275800
     2  H    0.130646
     3  H    0.145914
     4  O   -0.282174
     5  H    0.140707
     6  H    0.140707
 Sum of Mulliken charges =  -0.00000

 Dipole moment (field-independent basis, Debye):
    X=              0.0607    Y=             -2.3529    Z=             -0.0000  Tot=              2.3537

 Test job not archived.
 1\1\GINC-SE195\SP\RHF\Aug-CC-pVDZ\H4O2\OHZDE\08-Apr-2025\0\\#t hf aug-
 cc-pvdz iop(5/13=1,5/36=2,99/5=2) pseudo=read geom=check guess=(read,t
 check) scf=(maxcycle=1)\\title\\0,1\O,0,-0.07300062,0.,2.37137863\H,0,
 0.80973279,0.,2.74289028\H,0,0.06285362,0.,1.41616666\O,0,0.06854857,0
 .,-2.29964538\H,0,-0.40096458,-0.76017841,-2.6487578\H,0,-0.40096458,0
 .76017841,-2.6487578\\Version=ES64L-G16RevC.01\State=1-A'\HF=-152.1368
 896\RMSD=2.015e-03\Dipole=0.051922,0.,-0.9245708\Quadrupole=-0.4801608
 ,-0.1074587,0.5876195,0.,7.1807023,0.\PG=CS [SG(H2O2),X(H2)]\\@

 Normal termination of Gaussian 16 at Tue Apr  8 19:05:57 2025.
