 Gaussian 16, Revision C.01,

 ----------------------------------------------------------------------
 #t hf aug-cc-pvdz symm=none int=(grid=ultrafine) guess=(read,tcheck) s
 table=(opt,rrhf)
 ----------------------------------------------------------------------
 -----
 title
 -----
 Symbolic Z-matrix:
 Charge =  0 Multiplicity = 1

 SCF Done:  E(RHF) =  -92.8869881317     A.U. after   10 cycles
 Normal termination of Gaussian 16 at Tue Apr  8 19:06:43 2025.
 Gaussian 16:  ES64L-G16RevC.01  3-Jul-2019

 ----------------------------------------------------------------------
 #t hf aug-cc-pvdz iop(5/13=1,5/36=2,99/5=2) pseudo=read geom=check gue
 ss=(read,tcheck) scf=(maxcycle=1)
 ----------------------------------------------------------------------
 -----
 title
 -----
 Structure from the checkpoint file:  "A21x12_03_HCN-dimer_1p1_mol3.chk"
 Charge =  0 Multiplicity = 1

                         Standard orientation:
 ---------------------------------------------------------------------
 Center     Atomic      Atomic             Coordinates (Angstroms)
 Number     Number       Type             X           Y           Z
 ---------------------------------------------------------------------
      1          1           0        0.000000    0.000000   -1.576162
      2          6           0        0.000000    0.000000   -0.501839
      3          7           0        0.000000    0.000000    0.655314
 ---------------------------------------------------------------------

 SCF Done:  E(RHF) =  -92.9155043110     A.U. after    2 cycles

 The electronic state is 1-SG.
 Alpha  occ. eigenvalues --  -15.67015 -11.30984  -1.20745  -0.80877  -0.57144
 Alpha  occ. eigenvalues --   -0.49435  -0.49435
 Alpha virt. eigenvalues --    0.02797   0.08352   0.08352   0.08390   0.15538
 Alpha virt. eigenvalues --    0.15830   0.15830   0.18221   0.24539   0.24539
 Alpha virt. eigenvalues --    0.26872   0.33898   0.41283   0.41283   0.43352

 Mulliken charges:
               1
     1  H    0.014601
     2  C    0.217913
     3  N   -0.232515
 Sum of Mulliken charges =  -0.00000

 Dipole moment (field-independent basis, Debye):
    X=             -0.0000    Y=             -0.0000    Z=             -3.2083  Tot=              3.2083

 Test job not archived.
 1\1\GINC-SE098\SP\RHF\Aug-CC-pVDZ\C1H1N1\OHZDE\08-Apr-2025\0\\#t hf au
 g-cc-pvdz iop(5/13=1,5/36=2,99/5=2) pseudo=read geom=check guess=(read
 ,tcheck) scf=(maxcycle=1)\\title\\0,1\H,0,0.,0.,-0.59362147\C,0,0.,0.,
 -1.66794479\N,0,0.,0.,-2.82509711\\Version=ES64L-G16RevC.01\State=1-SG
 \HF=-92.9155043\RMSD=2.638e-03\Dipole=0.,0.,1.2622575\Quadrupole=-0.59
 99413,-0.5999413,1.1998826,0.,0.,0.\PG=C*V [C*(H1C1N1)]\\@

 Normal termination of Gaussian 16 at Tue Apr  8 19:06:44 2025.
