 Gaussian 16, Revision C.01,

 ----------------------------------------------------------------------
 #t hf aug-cc-pvdz symm=none int=(grid=ultrafine) guess=(read,tcheck) s
 table=(opt,rrhf)
 ----------------------------------------------------------------------
 -----
 title
 -----
 Symbolic Z-matrix:
 Charge =  0 Multiplicity = 1

 SCF Done:  E(RHF) =  -185.779160078     A.U. after   11 cycles
 Normal termination of Gaussian 16 at Tue Apr  8 19:06:44 2025.
 Gaussian 16:  ES64L-G16RevC.01  3-Jul-2019

 ----------------------------------------------------------------------
 #t hf aug-cc-pvdz iop(5/13=1,5/36=2,99/5=2) pseudo=read geom=check gue
 ss=(read,tcheck) scf=(maxcycle=1)
 ----------------------------------------------------------------------
 -----
 title
 -----
 Structure from the checkpoint file:  "A21x12_03_HCN-dimer_1p2_mol1.chk"
 Charge =  0 Multiplicity = 1

                         Standard orientation:
 ---------------------------------------------------------------------
 Center     Atomic      Atomic             Coordinates (Angstroms)
 Number     Number       Type             X           Y           Z
 ---------------------------------------------------------------------
      1          1           0        0.000000    0.000000   -4.243062
      2          6           0        0.000000    0.000000   -3.174349
      3          7           0        0.000000    0.000000   -2.019357
      4          1           0        0.000000    0.000000    1.097028
      5          6           0        0.000000    0.000000    2.171351
      6          7           0        0.000000    0.000000    3.328503
 ---------------------------------------------------------------------

 SCF Done:  E(RHF) =  -185.836273137     A.U. after    2 cycles

 The electronic state is 1-SG.
 Alpha  occ. eigenvalues --  -15.68620 -15.65533 -11.32716 -11.29503  -1.22583
 Alpha  occ. eigenvalues --   -1.19358  -0.82628  -0.79125  -0.59258  -0.55814
 Alpha  occ. eigenvalues --   -0.51254  -0.51254  -0.48068  -0.48068
 Alpha virt. eigenvalues --    0.02100   0.05039   0.07142   0.07142   0.09038
 Alpha virt. eigenvalues --    0.09479   0.09479   0.11970   0.14786   0.15618
 Alpha virt. eigenvalues --    0.15618   0.17360   0.17360   0.18126   0.20133

 Mulliken charges:
               1
     1  H   -0.032739
     2  C    0.130320
     3  N   -0.102301
     4  H   -0.062454
     5  C    0.361395
     6  N   -0.294222
 Sum of Mulliken charges =  -0.00000

 Dipole moment (field-independent basis, Debye):
    X=             -0.0000    Y=             -0.0000    Z=             -6.8033  Tot=              6.8033

 Test job not archived.
 1\1\GINC-SE195\SP\RHF\Aug-CC-pVDZ\C2H2N2\OHZDE\08-Apr-2025\0\\#t hf au
 g-cc-pvdz iop(5/13=1,5/36=2,99/5=2) pseudo=read geom=check guess=(read
 ,tcheck) scf=(maxcycle=1)\\title\\0,1\H,0,0.,0.,4.30091738\C,0,0.,0.,3
 .23220408\N,0,0.,0.,2.07721223\H,0,0.,0.,-1.03917235\C,0,0.,0.,-2.1134
 9567\N,0,0.,0.,-3.27064799\\Version=ES64L-G16RevC.01\State=1-SG\HF=-18
 5.8362731\RMSD=2.187e-03\Dipole=0.,0.,2.6766218\Quadrupole=-1.2507763,
 -1.2507763,2.5015526,0.,0.,0.\PG=C*V [C*(H1C1N1H1C1N1)]\\@

 Normal termination of Gaussian 16 at Tue Apr  8 19:06:45 2025.
