 Gaussian 16, Revision C.01,

 ----------------------------------------------------------------------
 #t hf aug-cc-pvdz symm=none int=(grid=ultrafine) guess=(read,tcheck) s
 table=(opt,rrhf)
 ----------------------------------------------------------------------
 -----
 title
 -----
 Symbolic Z-matrix:
 Charge =  0 Multiplicity = 1

 SCF Done:  E(RHF) =  -132.251255810     A.U. after   11 cycles
 Normal termination of Gaussian 16 at Tue Apr  8 19:05:50 2025.
 Gaussian 16:  ES64L-G16RevC.01  3-Jul-2019

 ----------------------------------------------------------------------
 #t hf aug-cc-pvdz iop(5/13=1,5/36=2,99/5=2) pseudo=read geom=check gue
 ss=(read,tcheck) scf=(maxcycle=1)
 ----------------------------------------------------------------------
 -----
 title
 -----
 Structure from the checkpoint file:  "A21x12_01_water-ammonia_1p3_mol1.chk"
 Charge =  0 Multiplicity = 1

                         Standard orientation:
 ---------------------------------------------------------------------
 Center     Atomic      Atomic             Coordinates (Angstroms)
 Number     Number       Type             X           Y           Z
 ---------------------------------------------------------------------
      1          8           0       -0.037956    2.005089    0.000000
      2          1           0        0.849808    2.363941    0.000000
      3          1           0        0.081169    1.042206    0.000000
      4          7           0       -0.037956   -1.833286    0.000000
      5          1           0       -1.036771   -2.003279    0.000000
      6          1           0        0.337566   -2.305286    0.813484
      7          1           0        0.337566   -2.305286   -0.813484
 ---------------------------------------------------------------------

 SCF Done:  E(RHF) =  -132.297893503     A.U. after    2 cycles

 The electronic state is 1-A'.
 Alpha  occ. eigenvalues --  -20.56221 -15.62122  -1.29335  -1.12159  -0.71264
 Alpha  occ. eigenvalues --   -0.63865  -0.63784  -0.58166  -0.51043  -0.43766
 Alpha virt. eigenvalues --    0.03141   0.05177   0.05239   0.05583   0.09051
 Alpha virt. eigenvalues --    0.17368   0.17610   0.18323   0.19234   0.21631
 Alpha virt. eigenvalues --    0.22093   0.23792   0.26390   0.28922   0.28922

 Mulliken charges:
               1
     1  O   -0.280524
     2  H    0.129783
     3  H    0.158030
     4  N   -0.153518
     5  H    0.032633
     6  H    0.056798
     7  H    0.056798
 Sum of Mulliken charges =   0.00000

 Dipole moment (field-independent basis, Debye):
    X=              1.3877    Y=             -2.9408    Z=             -0.0000  Tot=              3.2518

 Test job not archived.
 1\1\GINC-SE028\SP\RHF\Aug-CC-pVDZ\H5N1O1\OHZDE\08-Apr-2025\0\\#t hf au
 g-cc-pvdz iop(5/13=1,5/36=2,99/5=2) pseudo=read geom=check guess=(read
 ,tcheck) scf=(maxcycle=1)\\title\\0,1\O,0,0.,-0.05817157,-1.96830771\H
 ,0,0.,0.82262798,-2.34392942\H,0,0.,0.07918981,-1.00785721\N,0,0.,0.01
 461095,1.86937722\H,0,0.,-0.98080156,2.05827873\H,0,-0.81348351,0.3990
 1477,2.33417143\H,0,0.81348351,0.39901477,2.33417143\\Version=ES64L-G1
 6RevC.01\State=1-A'\HF=-132.2978935\RMSD=1.528e-03\Dipole=0.,0.5678154
 ,1.1464489\Quadrupole=-0.9616247,0.3639087,0.597716,0.,0.,-3.3267383\P

 Normal termination of Gaussian 16 at Tue Apr  8 19:05:54 2025.
