 Gaussian 16, Revision C.01,

 ----------------------------------------------------------------------
 #t hf aug-cc-pvdz symm=none int=(grid=ultrafine) guess=(read,tcheck) s
 table=(opt,rrhf)
 ----------------------------------------------------------------------
 -----
 title
 -----
 Symbolic Z-matrix:
 Charge =  0 Multiplicity = 1

 SCF Done:  E(RHF) =  -40.1995639439     A.U. after    9 cycles
 Normal termination of Gaussian 16 at Tue Apr  8 19:07:44 2025.
 Gaussian 16:  ES64L-G16RevC.01  3-Jul-2019

 ----------------------------------------------------------------------
 #t hf aug-cc-pvdz iop(5/13=1,5/36=2,99/5=2) pseudo=read geom=check gue
 ss=(read,tcheck) scf=(maxcycle=1)
 ----------------------------------------------------------------------
 -----
 title
 -----
 Structure from the checkpoint file:  "A21x12_06_HF-methane_1p2_mol2.chk"
 Charge =  0 Multiplicity = 1

                         Standard orientation:
 ---------------------------------------------------------------------
 Center     Atomic      Atomic             Coordinates (Angstroms)
 Number     Number       Type             X           Y           Z
 ---------------------------------------------------------------------
      1          6           0        0.000000    0.000000    0.003595
      2          1           0        0.000000    1.031868    0.354060
      3          1           0        0.000000    0.000000   -1.083748
      4          1           0        0.893624   -0.515934    0.354060
      5          1           0       -0.893624   -0.515934    0.354060
 ---------------------------------------------------------------------

 SCF Done:  E(RHF) =  -40.2167409993     A.U. after    2 cycles

 The electronic state is 1-A1.
 Alpha  occ. eigenvalues --  -11.21888  -0.93945  -0.54829  -0.54829  -0.54472
 Alpha virt. eigenvalues --    0.03625   0.06374   0.06374   0.06418   0.14584
 Alpha virt. eigenvalues --    0.14647   0.14647   0.17413   0.29909   0.29909
 Alpha virt. eigenvalues --    0.29988   0.30624   0.30624   0.41719   0.43856

 Mulliken charges:
               1
     1  C    0.602524
     2  H   -0.147572
     3  H   -0.159807
     4  H   -0.147572
     5  H   -0.147572
 Sum of Mulliken charges =  -0.00000

 Dipole moment (field-independent basis, Debye):
    X=             -0.0000    Y=             -0.0000    Z=             -0.0131  Tot=              0.0131

 Test job not archived.
 1\1\GINC-SE143\SP\RHF\Aug-CC-pVDZ\C1H4\OHZDE\08-Apr-2025\0\\#t hf aug-
 cc-pvdz iop(5/13=1,5/36=2,99/5=2) pseudo=read geom=check guess=(read,t
 check) scf=(maxcycle=1)\\title\\0,1\C,0,0.,0.,1.59509033\H,0,0.5159337
 8,-0.89362352,1.24462485\H,0,0.,0.,2.68243283\H,0,0.51593378,0.8936235
 2,1.24462485\H,0,-1.03186756,0.,1.24462485\\Version=ES64L-G16RevC.01\S
 tate=1-A1\HF=-40.216741\RMSD=2.038e-03\Dipole=0.,0.,0.0051578\Quadrupo
 le=0.0185704,0.0185704,-0.0371408,0.,0.,0.\PG=C03V [C3(H1C1),3SGV(H1)]
 \\@

 Normal termination of Gaussian 16 at Tue Apr  8 19:07:45 2025.
