 Gaussian 16, Revision C.01,

 ----------------------------------------------------------------------
 #t hf aug-cc-pvdz symm=none int=(grid=ultrafine) guess=(read,tcheck) s
 table=(opt,rrhf)
 ----------------------------------------------------------------------
 -----
 title
 -----
 Symbolic Z-matrix:
 Charge =  0 Multiplicity = 1

 SCF Done:  E(RHF) =  -113.884850215     A.U. after   11 cycles
 Normal termination of Gaussian 16 at Tue Apr  8 19:07:44 2025.
 Gaussian 16:  ES64L-G16RevC.01  3-Jul-2019

 ----------------------------------------------------------------------
 #t hf aug-cc-pvdz iop(5/13=1,5/36=2,99/5=2) pseudo=read geom=check gue
 ss=(read,tcheck) scf=(maxcycle=1)
 ----------------------------------------------------------------------
 -----
 title
 -----
 Structure from the checkpoint file:  "A21x12_09_formaldehyde-dimer_0p9_mol3.chk"
 Charge =  0 Multiplicity = 1

                         Standard orientation:
 ---------------------------------------------------------------------
 Center     Atomic      Atomic             Coordinates (Angstroms)
 Number     Number       Type             X           Y           Z
 ---------------------------------------------------------------------
      1          6           0        0.000113    0.533970   -0.000000
      2          8           0        0.000113   -0.676587    0.000000
      3          1           0       -0.942831    1.102525   -0.000000
      4          1           0        0.941248    1.106346   -0.000000
 ---------------------------------------------------------------------

 SCF Done:  E(RHF) =  -113.923066725     A.U. after    2 cycles

 The electronic state is 1-A'.
 Alpha  occ. eigenvalues --  -20.59353 -11.35667  -1.36907  -0.87127  -0.70539
 Alpha  occ. eigenvalues --   -0.66510  -0.55049  -0.45853
 Alpha virt. eigenvalues --    0.03276   0.05047   0.06559   0.08963   0.14419
 Alpha virt. eigenvalues --    0.15540   0.15985   0.21839   0.25634   0.26339
 Alpha virt. eigenvalues --    0.26367   0.32259   0.34148   0.35586   0.44752

 Mulliken charges:
               1
     1  C    0.619396
     2  O   -0.394253
     3  H   -0.113634
     4  H   -0.111509
 Sum of Mulliken charges =  -0.00000

 Dipole moment (field-independent basis, Debye):
    X=              0.0003    Y=              3.0762    Z=             -0.0000  Tot=              3.0762

 Test job not archived.
 1\1\GINC-SE335\SP\RHF\Aug-CC-pVDZ\C1H2O1\OHZDE\08-Apr-2025\0\\#t hf au
 g-cc-pvdz iop(5/13=1,5/36=2,99/5=2) pseudo=read geom=check guess=(read
 ,tcheck) scf=(maxcycle=1)\\title\\0,1\C,0,0.,-0.60200491,1.55231177\O,
 0,0.,0.59238623,1.35513639\H,0,0.,-1.00937997,2.57526946\H,0,0.,-1.320
 02921,0.71697308\\Version=ES64L-G16RevC.01\State=1-A'\HF=-113.9230667\
 RMSD=2.916e-03\Dipole=0.,-1.1941177,0.1970294\Quadrupole=0.0083122,-0.
 2952617,0.2869495,0.,0.,0.1025244\PG=CS [SG(C1H2O1)]\\@

 Normal termination of Gaussian 16 at Tue Apr  8 19:07:45 2025.
