 Gaussian 16, Revision C.01,

 ----------------------------------------------------------------------
 #t hf aug-cc-pvdz symm=none int=(grid=ultrafine) guess=(read,tcheck) s
 table=(opt,rrhf)
 ----------------------------------------------------------------------
 -----
 title
 -----
 Symbolic Z-matrix:
 Charge =  0 Multiplicity = 1

 SCF Done:  E(RHF) =  -154.082686470     A.U. after   11 cycles
 Normal termination of Gaussian 16 at Tue Apr  8 19:08:48 2025.
 Gaussian 16:  ES64L-G16RevC.01  3-Jul-2019

 ----------------------------------------------------------------------
 #t hf aug-cc-pvdz iop(5/13=1,5/36=2,99/5=2) pseudo=read geom=check gue
 ss=(read,tcheck) scf=(maxcycle=1)
 ----------------------------------------------------------------------
 -----
 title
 -----
 Structure from the checkpoint file:  "A21x12_10_water-ethene_0p9_mol1.chk"
 Charge =  0 Multiplicity = 1

                         Standard orientation:
 ---------------------------------------------------------------------
 Center     Atomic      Atomic             Coordinates (Angstroms)
 Number     Number       Type             X           Y           Z
 ---------------------------------------------------------------------
      1          6           0       -0.041000   -1.140638    0.668062
      2          6           0       -0.041000   -1.140638   -0.668062
      3          1           0       -0.894921   -0.786584   -1.232679
      4          1           0        0.811510   -1.497781   -1.232585
      5          1           0        0.811510   -1.497781    1.232585
      6          1           0       -0.894921   -0.786584    1.232679
      7          1           0        0.804716    2.324893   -0.000000
      8          8           0       -0.041000    1.874084   -0.000000
      9          1           0        0.182114    0.938812   -0.000000
 ---------------------------------------------------------------------

 SCF Done:  E(RHF) =  -154.135303139     A.U. after    2 cycles

 The electronic state is 1-A'.
 Alpha  occ. eigenvalues --  -20.55842 -11.25716 -11.25552  -1.29635  -1.04531
 Alpha  occ. eigenvalues --   -0.80730  -0.71967  -0.65985  -0.60498  -0.58485
 Alpha  occ. eigenvalues --   -0.52437  -0.50886  -0.39664
 Alpha virt. eigenvalues --    0.03381   0.04897   0.05258   0.05585   0.07090
 Alpha virt. eigenvalues --    0.09566   0.10294   0.12291   0.14254   0.14365
 Alpha virt. eigenvalues --    0.17134   0.17518   0.18727   0.20133   0.20266

 Mulliken charges:
               1
     1  C    0.505556
     2  C    0.505556
     3  H   -0.254869
     4  H   -0.259430
     5  H   -0.259430
     6  H   -0.254869
     7  H    0.132587
     8  O   -0.289326
     9  H    0.174226
 Sum of Mulliken charges =  -0.00000

 Dipole moment (field-independent basis, Debye):
    X=              1.7377    Y=             -1.3403    Z=              0.0000  Tot=              2.1946

 Test job not archived.
 1\1\GINC-SE028\SP\RHF\Aug-CC-pVDZ\C2H6O1\OHZDE\08-Apr-2025\0\\#t hf au
 g-cc-pvdz iop(5/13=1,5/36=2,99/5=2) pseudo=read geom=check guess=(read
 ,tcheck) scf=(maxcycle=1)\\title\\0,1\C,0,0.01220325,-0.66806246,1.493
 9437\C,0,0.01220325,0.66806246,1.4939437\H,0,0.87024716,1.23267933,1.1
 5000376\H,0,-0.84446785,1.23258495,1.84098946\H,0,-0.84446785,-1.23258
 495,1.84098946\H,0,0.87024716,-1.23267933,1.15000376\H,0,-0.7925075,0.
 ,-1.98133766\O,0,0.04782322,0.,-1.52056782\H,0,-0.18632669,0.,-0.58799
 672\\Version=ES64L-G16RevC.01\State=1-A'\HF=-154.1353031\RMSD=3.558e-0

 Normal termination of Gaussian 16 at Tue Apr  8 19:08:49 2025.
