 Gaussian 16, Revision C.01,

 ----------------------------------------------------------------------
 #t hf aug-cc-pvdz symm=none int=(grid=ultrafine) guess=(read,tcheck) s
 table=(opt,rrhf)
 ----------------------------------------------------------------------
 -----
 title
 -----
 Symbolic Z-matrix:
 Charge =  0 Multiplicity = 1

 SCF Done:  E(RHF) =  -134.249575349     A.U. after   11 cycles
 Normal termination of Gaussian 16 at Tue Apr  8 19:08:47 2025.
 Gaussian 16:  ES64L-G16RevC.01  3-Jul-2019

 ----------------------------------------------------------------------
 #t hf aug-cc-pvdz iop(5/13=1,5/36=2,99/5=2) pseudo=read geom=check gue
 ss=(read,tcheck) scf=(maxcycle=1)
 ----------------------------------------------------------------------
 -----
 title
 -----
 Structure from the checkpoint file:  "A21x12_13_ammonia-ethene_1p3_mol1.chk"
 Charge =  0 Multiplicity = 1

                         Standard orientation:
 ---------------------------------------------------------------------
 Center     Atomic      Atomic             Coordinates (Angstroms)
 Number     Number       Type             X           Y           Z
 ---------------------------------------------------------------------
      1          7           0       -1.171862   -2.729986    0.000000
      2          1           0       -0.911779   -3.277440    0.811230
      3          1           0       -0.578898   -1.908029    0.000000
      4          1           0       -0.911779   -3.277440   -0.811230
      5          6           0        1.325924    1.645179    0.000000
      6          6           0        0.000000    1.801412    0.000000
      7          1           0       -0.562421    1.865305   -0.923120
      8          1           0       -0.562421    1.865305    0.923120
      9          1           0        1.887393    1.581327    0.923890
     10          1           0        1.887393    1.581327   -0.923890
 ---------------------------------------------------------------------

 SCF Done:  E(RHF) =  -134.297177904     A.U. after    2 cycles

 The electronic state is 1-A'.
 Alpha  occ. eigenvalues --  -15.60463 -11.24627 -11.24462  -1.10543  -1.03071
 Alpha  occ. eigenvalues --   -0.79622  -0.64986  -0.62208  -0.62204  -0.59420
 Alpha  occ. eigenvalues --   -0.51272  -0.41931  -0.38268
 Alpha virt. eigenvalues --    0.03426   0.04609   0.04834   0.05166   0.06676
 Alpha virt. eigenvalues --    0.07263   0.08677   0.10020   0.12617   0.14588
 Alpha virt. eigenvalues --    0.15090   0.16111   0.17298   0.17540   0.20104

 Mulliken charges:
               1
     1  N   -0.078409
     2  H    0.027125
     3  H    0.018870
     4  H    0.027125
     5  C    0.526565
     6  C    0.548667
     7  H   -0.273125
     8  H   -0.273125
     9  H   -0.261847
    10  H   -0.261847
 Sum of Mulliken charges =  -0.00000

 Dipole moment (field-independent basis, Debye):
    X=              1.5634    Y=             -0.2853    Z=              0.0000  Tot=              1.5892

 Test job not archived.
 1\1\GINC-SE338\SP\RHF\Aug-CC-pVDZ\C2H7N1\OHZDE\08-Apr-2025\0\\#t hf au
 g-cc-pvdz iop(5/13=1,5/36=2,99/5=2) pseudo=read geom=check guess=(read
 ,tcheck) scf=(maxcycle=1)\\title\\0,1\N,0,0.,-0.00717242,-2.41352162\H
 ,0,-0.81123,-0.46299242,-2.81299162\H,0,0.,-0.22565242,-1.42383162\H,0
 ,0.81123,-0.46299242,-2.81299162\C,0,0.,-0.56559821,2.59339032\C,0,0.,
 0.71360179,2.21112032\H,0,0.92312,1.25526179,2.04679031\H,0,-0.92312,1
 .25526179,2.04679031\H,0,-0.92389,-1.10636821,2.75738031\H,0,0.92389,-
 1.10636821,2.75738031\\Version=ES64L-G16RevC.01\State=1-A'\HF=-134.297

 Normal termination of Gaussian 16 at Tue Apr  8 19:08:48 2025.
