 Gaussian 16, Revision C.01,

 ----------------------------------------------------------------------
 #t hf aug-cc-pvdz symm=none int=(grid=ultrafine) guess=(read,tcheck) s
 table=(opt,rrhf)
 ----------------------------------------------------------------------
 -----
 title
 -----
 Symbolic Z-matrix:
 Charge =  0 Multiplicity = 1

 SCF Done:  E(RHF) =  -191.928743218     A.U. after   11 cycles
 Normal termination of Gaussian 16 at Tue Apr  8 19:08:48 2025.
 Gaussian 16:  ES64L-G16RevC.01  3-Jul-2019

 ----------------------------------------------------------------------
 #t hf aug-cc-pvdz iop(5/13=1,5/36=2,99/5=2) pseudo=read geom=check gue
 ss=(read,tcheck) scf=(maxcycle=1)
 ----------------------------------------------------------------------
 -----
 title
 -----
 Structure from the checkpoint file:  "A21x12_11_formaldehyde-ethene_1p9_mol1.chk"
 Charge =  0 Multiplicity = 1

                         Standard orientation:
 ---------------------------------------------------------------------
 Center     Atomic      Atomic             Coordinates (Angstroms)
 Number     Number       Type             X           Y           Z
 ---------------------------------------------------------------------
      1          8           0        2.006353    2.972727    0.000000
      2          6           0        0.886463    3.426657    0.000000
      3          1           0        0.000000    2.771893    0.000000
      4          1           0        0.706941    4.514732    0.000000
      5          6           0       -0.732001   -3.067570    0.000000
      6          6           0       -2.028330   -3.386581    0.000000
      7          1           0       -0.180499   -2.927272    0.921130
      8          1           0       -0.180499   -2.927272   -0.921130
      9          1           0       -2.576780   -3.524464   -0.923940
     10          1           0       -2.576780   -3.524464    0.923940
 ---------------------------------------------------------------------

 SCF Done:  E(RHF) =  -191.994085856     A.U. after    2 cycles

 The electronic state is 1-A'.
 Alpha  occ. eigenvalues --  -20.59310 -11.35601 -11.24389 -11.24222  -1.37003
 Alpha  occ. eigenvalues --   -1.02805  -0.87035  -0.79411  -0.70439  -0.66554
 Alpha  occ. eigenvalues --   -0.64703  -0.59232  -0.55108  -0.51011  -0.45743
 Alpha  occ. eigenvalues --   -0.37989
 Alpha virt. eigenvalues --    0.03144   0.04119   0.05071   0.05201   0.06045
 Alpha virt. eigenvalues --    0.06609   0.07387   0.09048   0.10346   0.12849
 Alpha virt. eigenvalues --    0.13427   0.14623   0.14785   0.16301   0.16971

 Mulliken charges:
               1
     1  O   -0.393641
     2  C    0.627997
     3  H   -0.120157
     4  H   -0.114018
     5  C    0.510093
     6  C    0.502224
     7  H   -0.254846
     8  H   -0.254846
     9  H   -0.251402
    10  H   -0.251402
 Sum of Mulliken charges =  -0.00000

 Dipole moment (field-independent basis, Debye):
    X=             -2.8109    Y=              1.1420    Z=             -0.0000  Tot=              3.0340

 Test job not archived.
 1\1\GINC-SE219\SP\RHF\Aug-CC-pVDZ\C3H6O1\OHZDE\08-Apr-2025\0\\#t hf au
 g-cc-pvdz iop(5/13=1,5/36=2,99/5=2) pseudo=read geom=check guess=(read
 ,tcheck) scf=(maxcycle=1)\\title\\0,1\O,0,0.,-0.43886791,-3.55215408\C
 ,0,0.,0.76606209,-3.46078408\H,0,0.,1.26893209,-2.48014408\H,0,0.,1.41
 067209,-4.35555408\C,0,0.,-0.67191886,3.0757765\C,0,0.,0.34736114,3.93
 79265\H,0,0.92113,-1.10351886,2.7048865\H,0,-0.92113,-1.10351886,2.704
 8865\H,0,-0.92394,0.77730114,4.3052965\H,0,0.92394,0.77730114,4.305296
 5\\Version=ES64L-G16RevC.01\State=1-A'\HF=-191.9940859\RMSD=3.012e-03\

 Normal termination of Gaussian 16 at Tue Apr  8 19:08:50 2025.
