 Gaussian 16, Revision C.01,

 ----------------------------------------------------------------------
 #t hf aug-cc-pvdz symm=none int=(grid=ultrafine) guess=(read,tcheck) s
 table=(opt,rrhf)
 ----------------------------------------------------------------------
 -----
 title
 -----
 Symbolic Z-matrix:
 Charge =  0 Multiplicity = 1

 SCF Done:  E(RHF) =  -78.0435079339     A.U. after    9 cycles
 Normal termination of Gaussian 16 at Tue Apr  8 19:08:45 2025.
 Gaussian 16:  ES64L-G16RevC.01  3-Jul-2019

 ----------------------------------------------------------------------
 #t hf aug-cc-pvdz iop(5/13=1,5/36=2,99/5=2) pseudo=read geom=check gue
 ss=(read,tcheck) scf=(maxcycle=1)
 ----------------------------------------------------------------------
 -----
 title
 -----
 Structure from the checkpoint file:  "A21x12_10_water-ethene_1p3_mol2.chk"
 Charge =  0 Multiplicity = 1

                         Standard orientation:
 ---------------------------------------------------------------------
 Center     Atomic      Atomic             Coordinates (Angstroms)
 Number     Number       Type             X           Y           Z
 ---------------------------------------------------------------------
      1          6           0       -0.000014   -0.000424    0.668062
      2          6           0       -0.000014   -0.000424   -0.668062
      3          1           0        0.924394    0.001273   -1.232679
      4          1           0       -0.924310    0.001273   -1.232585
      5          1           0       -0.924310    0.001273    1.232585
      6          1           0        0.924394    0.001273    1.232679
 ---------------------------------------------------------------------

 SCF Done:  E(RHF) =  -78.0705502897     A.U. after    2 cycles

 The electronic state is 1-A'.
 Alpha  occ. eigenvalues --  -11.24386 -11.24222  -1.02766  -0.79365  -0.64739
 Alpha  occ. eigenvalues --   -0.59120  -0.51061  -0.37936
 Alpha virt. eigenvalues --    0.03973   0.05031   0.05135   0.07097   0.10102
 Alpha virt. eigenvalues --    0.12081   0.12742   0.14686   0.17736   0.17818
 Alpha virt. eigenvalues --    0.20615   0.20681   0.22329   0.25055   0.29400

 Mulliken charges:
               1
     1  C    0.500464
     2  C    0.500464
     3  H   -0.250064
     4  H   -0.250400
     5  H   -0.250400
     6  H   -0.250064
 Sum of Mulliken charges =  -0.00000

 Dipole moment (field-independent basis, Debye):
    X=             -0.0001    Y=              0.0053    Z=              0.0000  Tot=              0.0053

 Test job not archived.
 1\1\GINC-SE144\SP\RHF\Aug-CC-pVDZ\C2H4\OHZDE\08-Apr-2025\0\\#t hf aug-
 cc-pvdz iop(5/13=1,5/36=2,99/5=2) pseudo=read geom=check guess=(read,t
 check) scf=(maxcycle=1)\\title\\0,1\C,0,0.01357013,-0.66806246,1.65996
 226\C,0,0.01357013,0.66806246,1.65996226\H,0,0.87161404,1.23267933,1.3
 1602232\H,0,-0.84310097,1.23258495,2.00700802\H,0,-0.84310097,-1.23258
 495,2.00700802\H,0,0.87161404,-1.23267933,1.31602232\\Version=ES64L-G1
 6RevC.01\State=1-A'\HF=-78.0705503\RMSD=4.795e-03\Dipole=0.0007499,0.,
 0.0019648\Quadrupole=0.4928954,1.0337334,-1.5266288,0.,-0.9715906,0.\P

 Normal termination of Gaussian 16 at Tue Apr  8 19:08:47 2025.
