 Gaussian 16, Revision C.01,

 ----------------------------------------------------------------------
 #t hf aug-cc-pvdz symm=none int=(grid=ultrafine) guess=(read,tcheck) s
 table=(opt,rrhf)
 ----------------------------------------------------------------------
 -----
 title
 -----
 Symbolic Z-matrix:
 Charge =  0 Multiplicity = 1

 SCF Done:  E(RHF) =  -92.8872811830     A.U. after   10 cycles
 Normal termination of Gaussian 16 at Tue Apr  8 19:06:43 2025.
 Gaussian 16:  ES64L-G16RevC.01  3-Jul-2019

 ----------------------------------------------------------------------
 #t hf aug-cc-pvdz iop(5/13=1,5/36=2,99/5=2) pseudo=read geom=check gue
 ss=(read,tcheck) scf=(maxcycle=1)
 ----------------------------------------------------------------------
 -----
 title
 -----
 Structure from the checkpoint file:  "A21x12_03_HCN-dimer_0p9_mol2.chk"
 Charge =  0 Multiplicity = 1

                         Standard orientation:
 ---------------------------------------------------------------------
 Center     Atomic      Atomic             Coordinates (Angstroms)
 Number     Number       Type             X           Y           Z
 ---------------------------------------------------------------------
      1          1           0        0.000000    0.000000   -1.569873
      2          6           0        0.000000    0.000000   -0.501159
      3          7           0        0.000000    0.000000    0.653833
 ---------------------------------------------------------------------

 SCF Done:  E(RHF) =  -92.9159106227     A.U. after    2 cycles

 The electronic state is 1-SG.
 Alpha  occ. eigenvalues --  -15.66952 -11.30877  -1.20856  -0.81064  -0.57148
 Alpha  occ. eigenvalues --   -0.49509  -0.49509
 Alpha virt. eigenvalues --    0.02802   0.08357   0.08357   0.08397   0.15536
 Alpha virt. eigenvalues --    0.15856   0.15856   0.18256   0.24565   0.24565
 Alpha virt. eigenvalues --    0.26977   0.33971   0.41356   0.41356   0.43348

 Mulliken charges:
               1
     1  H    0.002351
     2  C    0.230470
     3  N   -0.232821
 Sum of Mulliken charges =   0.00000

 Dipole moment (field-independent basis, Debye):
    X=             -0.0000    Y=              0.0000    Z=             -3.1995  Tot=              3.1995

 Test job not archived.
 1\1\GINC-SE047\SP\RHF\Aug-CC-pVDZ\C1H1N1\OHZDE\08-Apr-2025\0\\#t hf au
 g-cc-pvdz iop(5/13=1,5/36=2,99/5=2) pseudo=read geom=check guess=(read
 ,tcheck) scf=(maxcycle=1)\\title\\0,1\H,0,0.,0.,3.85536651\C,0,0.,0.,2
 .78665321\N,0,0.,0.,1.63166136\\Version=ES64L-G16RevC.01\State=1-SG\HF
 =-92.9159106\RMSD=2.648e-03\Dipole=0.,0.,1.2587645\Quadrupole=-0.58983
 93,-0.5898393,1.1796786,0.,0.,0.\PG=C*V [C*(H1C1N1)]\\@

 Normal termination of Gaussian 16 at Tue Apr  8 19:06:44 2025.
