 Gaussian 16, Revision C.01,

 ----------------------------------------------------------------------
 #t hf aug-cc-pvdz symm=none int=(grid=ultrafine) guess=(read,tcheck) s
 table=(opt,rrhf)
 ----------------------------------------------------------------------
 -----
 title
 -----
 Symbolic Z-matrix:
 Charge =  0 Multiplicity = 1

 SCF Done:  E(RHF) =  -185.774488466     A.U. after   11 cycles
 Normal termination of Gaussian 16 at Tue Apr  8 19:05:53 2025.
 Gaussian 16:  ES64L-G16RevC.01  3-Jul-2019

 ----------------------------------------------------------------------
 #t hf aug-cc-pvdz iop(5/13=1,5/36=2,99/5=2) pseudo=read geom=check gue
 ss=(read,tcheck) scf=(maxcycle=1)
 ----------------------------------------------------------------------
 -----
 title
 -----
 Structure from the checkpoint file:  "A21x12_03_HCN-dimer_0p9_mol1.chk"
 Charge =  0 Multiplicity = 1

                         Standard orientation:
 ---------------------------------------------------------------------
 Center     Atomic      Atomic             Coordinates (Angstroms)
 Number     Number       Type             X           Y           Z
 ---------------------------------------------------------------------
      1          1           0        0.000000    0.000000   -3.574736
      2          6           0        0.000000    0.000000   -2.506023
      3          7           0        0.000000    0.000000   -1.351031
      4          1           0        0.000000    0.000000    0.428701
      5          6           0        0.000000    0.000000    1.503025
      6          7           0        0.000000    0.000000    2.660177
 ---------------------------------------------------------------------

 SCF Done:  E(RHF) =  -185.831744235     A.U. after    2 cycles

 The electronic state is 1-SG.
 Alpha  occ. eigenvalues --  -15.70274 -15.63212 -11.35063 -11.26409  -1.24760
 Alpha  occ. eigenvalues --   -1.17237  -0.84872  -0.78531  -0.61149  -0.53443
 Alpha  occ. eigenvalues --   -0.53443  -0.53416  -0.45988  -0.45988
 Alpha virt. eigenvalues --    0.01544   0.05413   0.06132   0.06132   0.09722
 Alpha virt. eigenvalues --    0.09722   0.09889   0.13216   0.13636   0.16017
 Alpha virt. eigenvalues --    0.16017   0.19527   0.19527   0.19722   0.24107

 Mulliken charges:
               1
     1  H   -0.035548
     2  C   -0.090952
     3  N   -0.034256
     4  H    0.049446
     5  C    0.551549
     6  N   -0.440240
 Sum of Mulliken charges =  -0.00000

 Dipole moment (field-independent basis, Debye):
    X=              0.0000    Y=             -0.0000    Z=             -7.7516  Tot=              7.7516

 Test job not archived.
 1\1\GINC-SE459\SP\RHF\Aug-CC-pVDZ\C2H2N2\OHZDE\08-Apr-2025\0\\#t hf au
 g-cc-pvdz iop(5/13=1,5/36=2,99/5=2) pseudo=read geom=check guess=(read
 ,tcheck) scf=(maxcycle=1)\\title\\0,1\H,0,0.,0.,3.63259107\C,0,0.,0.,2
 .56387777\N,0,0.,0.,1.40888592\H,0,0.,0.,-0.37084604\C,0,0.,0.,-1.4451
 6936\N,0,0.,0.,-2.60232168\\Version=ES64L-G16RevC.01\State=1-SG\HF=-18
 5.8317442\RMSD=2.742e-03\Dipole=0.,0.,3.0497038\Quadrupole=-1.1958904,
 -1.1958904,2.3917809,0.,0.,0.\PG=C*V [C*(H1C1N1H1C1N1)]\\@

 Normal termination of Gaussian 16 at Tue Apr  8 19:05:55 2025.
