 Gaussian 16, Revision C.01,

 ----------------------------------------------------------------------
 #t hf aug-cc-pvdz symm=none int=(grid=ultrafine) guess=(read,tcheck) s
 table=(opt,rrhf)
 ----------------------------------------------------------------------
 -----
 title
 -----
 Symbolic Z-matrix:
 Charge =  0 Multiplicity = 1

 SCF Done:  E(RHF) =  -132.248033442     A.U. after   11 cycles
 Normal termination of Gaussian 16 at Tue Apr  8 19:05:43 2025.
 Gaussian 16:  ES64L-G16RevC.01  3-Jul-2019

 ----------------------------------------------------------------------
 #t hf aug-cc-pvdz iop(5/13=1,5/36=2,99/5=2) pseudo=read geom=check gue
 ss=(read,tcheck) scf=(maxcycle=1)
 ----------------------------------------------------------------------
 -----
 title
 -----
 Structure from the checkpoint file:  "A21x12_01_water-ammonia_1p7_mol1.chk"
 Charge =  0 Multiplicity = 1

                         Standard orientation:
 ---------------------------------------------------------------------
 Center     Atomic      Atomic             Coordinates (Angstroms)
 Number     Number       Type             X           Y           Z
 ---------------------------------------------------------------------
      1          8           0       -0.038329    2.600410    0.000000
      2          1           0        0.847868    2.963116    0.000000
      3          1           0        0.084978    1.638054    0.000000
      4          7           0       -0.038329   -2.428940    0.000000
      5          1           0       -1.036396   -2.603270    0.000000
      6          1           0        0.339240   -2.899303    0.813484
      7          1           0        0.339240   -2.899303   -0.813484
 ---------------------------------------------------------------------

 SCF Done:  E(RHF) =  -132.294865961     A.U. after    2 cycles

 The electronic state is 1-A'.
 Alpha  occ. eigenvalues --  -20.57217 -15.61487  -1.30287  -1.11530  -0.72207
 Alpha  occ. eigenvalues --   -0.63262  -0.63187  -0.59043  -0.51978  -0.42974
 Alpha virt. eigenvalues --    0.03242   0.04871   0.05333   0.05444   0.08329
 Alpha virt. eigenvalues --    0.16697   0.17712   0.18696   0.19176   0.20684
 Alpha virt. eigenvalues --    0.20844   0.23355   0.25084   0.29058   0.29110

 Mulliken charges:
               1
     1  O   -0.279570
     2  H    0.127433
     3  H    0.155068
     4  N   -0.106845
     5  H    0.035326
     6  H    0.034294
     7  H    0.034294
 Sum of Mulliken charges =   0.00000

 Dipole moment (field-independent basis, Debye):
    X=              1.4201    Y=             -2.7437    Z=              0.0000  Tot=              3.0894

 Test job not archived.
 1\1\GINC-SE150\SP\RHF\Aug-CC-pVDZ\H5N1O1\OHZDE\08-Apr-2025\0\\#t hf au
 g-cc-pvdz iop(5/13=1,5/36=2,99/5=2) pseudo=read geom=check guess=(read
 ,tcheck) scf=(maxcycle=1)\\title\\0,1\O,0,0.,-0.05854016,-2.56387146\H
 ,0,0.,0.82225939,-2.93949317\H,0,0.,0.07882122,-1.60342096\N,0,0.,0.01
 497954,2.46494098\H,0,0.,-0.98043297,2.65384249\H,0,-0.81348351,0.3993
 8336,2.92973519\H,0,0.81348351,0.39938336,2.92973519\\Version=ES64L-G1
 6RevC.01\State=1-A'\HF=-132.294866\RMSD=1.451e-03\Dipole=0.,0.5744197,
 1.0711714\Quadrupole=-1.1288171,0.1960092,0.9328078,0.,0.,-4.2481162\P

 Normal termination of Gaussian 16 at Tue Apr  8 19:05:44 2025.
