 Gaussian 16, Revision C.01,

 ----------------------------------------------------------------------
 #t hf aug-cc-pvdz symm=none int=(grid=ultrafine) guess=(read,tcheck) s
 table=(opt,rrhf)
 ----------------------------------------------------------------------
 -----
 title
 -----
 Symbolic Z-matrix:
 Charge =  0 Multiplicity = 1

 SCF Done:  E(RHF) =  -56.2053717660     A.U. after   10 cycles
 Normal termination of Gaussian 16 at Tue Apr  8 19:05:47 2025.
 Gaussian 16:  ES64L-G16RevC.01  3-Jul-2019

 ----------------------------------------------------------------------
 #t hf aug-cc-pvdz iop(5/13=1,5/36=2,99/5=2) pseudo=read geom=check gue
 ss=(read,tcheck) scf=(maxcycle=1)
 ----------------------------------------------------------------------
 -----
 title
 -----
 Structure from the checkpoint file:  "A21x12_01_water-ammonia_1p6_mol3.chk"
 Charge =  0 Multiplicity = 1

                         Standard orientation:
 ---------------------------------------------------------------------
 Center     Atomic      Atomic             Coordinates (Angstroms)
 Number     Number       Type             X           Y           Z
 ---------------------------------------------------------------------
      1          7           0        0.000000    0.114121   -0.000000
      2          1           0       -0.938082   -0.268672   -0.000000
      3          1           0        0.469041   -0.265089    0.813484
      4          1           0        0.469041   -0.265089   -0.813484
 ---------------------------------------------------------------------

 SCF Done:  E(RHF) =  -56.2258947405     A.U. after    2 cycles

 The electronic state is 1-A'.
 Alpha  occ. eigenvalues --  -15.60838  -1.10903  -0.62637  -0.62568  -0.42254
 Alpha virt. eigenvalues --    0.03790   0.05639   0.05643   0.14556   0.19881
 Alpha virt. eigenvalues --    0.19885   0.20076   0.29520   0.29537   0.34134
 Alpha virt. eigenvalues --    0.34559   0.34579   0.47215   0.52782   0.53328

 Mulliken charges:
               1
     1  N   -0.082389
     2  H    0.027796
     3  H    0.027297
     4  H    0.027297
 Sum of Mulliken charges =  -0.00000

 Dipole moment (field-independent basis, Debye):
    X=              0.0021    Y=             -1.6197    Z=             -0.0000  Tot=              1.6197

 Test job not archived.
 1\1\GINC-SE127\SP\RHF\Aug-CC-pVDZ\H3N1\OHZDE\08-Apr-2025\0\\#t hf aug-
 cc-pvdz iop(5/13=1,5/36=2,99/5=2) pseudo=read geom=check guess=(read,t
 check) scf=(maxcycle=1)\\title\\0,1\N,0,0.,0.01433452,1.42270441\H,0,0
 .,-0.98107799,1.61160592\H,0,-0.81348351,0.39873834,1.88749862\H,0,0.8
 1348351,0.39873834,1.88749862\\Version=ES64L-G16RevC.01\State=1-A'\HF=
 -56.2258947\RMSD=1.235e-03\Dipole=0.,-0.1257183,0.6247267\Quadrupole=0
 .7679656,0.6731879,-1.4411536,0.,0.,0.4397354\PG=CS [SG(H1N1),X(H2)]\\
 @

 Normal termination of Gaussian 16 at Tue Apr  8 19:05:48 2025.
