 Gaussian 16, Revision C.01,

 ----------------------------------------------------------------------
 #t hf aug-cc-pvdz symm=none int=(grid=ultrafine) guess=(read,tcheck) s
 table=(opt,rrhf)
 ----------------------------------------------------------------------
 -----
 title
 -----
 Symbolic Z-matrix:
 Charge =  0 Multiplicity = 1

 SCF Done:  E(RHF) =  -76.8282208966     A.U. after    9 cycles
 Normal termination of Gaussian 16 at Tue Apr  8 19:08:45 2025.
 Gaussian 16:  ES64L-G16RevC.01  3-Jul-2019

 ----------------------------------------------------------------------
 #t hf aug-cc-pvdz iop(5/13=1,5/36=2,99/5=2) pseudo=read geom=check gue
 ss=(read,tcheck) scf=(maxcycle=1)
 ----------------------------------------------------------------------
 -----
 title
 -----
 Structure from the checkpoint file:  "A21x12_12_ethyne-dimer_1p3_mol2.chk"
 Charge =  0 Multiplicity = 1

                         Standard orientation:
 ---------------------------------------------------------------------
 Center     Atomic      Atomic             Coordinates (Angstroms)
 Number     Number       Type             X           Y           Z
 ---------------------------------------------------------------------
      1          6           0        0.000000    0.603564   -0.000366
      2          1           0        0.000000    1.668476    0.002196
      3          6           0       -0.000000   -0.603564   -0.000366
      4          1           0       -0.000000   -1.668476    0.002196
 ---------------------------------------------------------------------

 SCF Done:  E(RHF) =  -76.8548375913     A.U. after    2 cycles

 The electronic state is 1-A1.
 Alpha  occ. eigenvalues --  -11.25921 -11.25539  -1.02576  -0.76838  -0.68428
 Alpha  occ. eigenvalues --   -0.41398  -0.41398
 Alpha virt. eigenvalues --    0.03712   0.03961   0.10733   0.10733   0.12046
 Alpha virt. eigenvalues --    0.12046   0.13052   0.13860   0.17715   0.22865
 Alpha virt. eigenvalues --    0.22866   0.25853   0.33119   0.35732   0.38938

 Mulliken charges:
               1
     1  C    0.259089
     2  H   -0.259089
     3  C    0.259089
     4  H   -0.259089
 Sum of Mulliken charges =  -0.00000

 Dipole moment (field-independent basis, Debye):
    X=              0.0000    Y=              0.0000    Z=              0.0058  Tot=              0.0058

 Test job not archived.
 1\1\GINC-SE322\SP\RHF\Aug-CC-pVDZ\C2H2\OHZDE\08-Apr-2025\0\\#t hf aug-
 cc-pvdz iop(5/13=1,5/36=2,99/5=2) pseudo=read geom=check guess=(read,t
 check) scf=(maxcycle=1)\\title\\0,1\C,0,0.,0.603564,-2.18173428\H,0,0.
 ,1.66847581,-2.184296\C,0,0.,-0.603564,-2.18173428\H,0,0.,-1.66847581,
 -2.184296\\Version=ES64L-G16RevC.01\State=1-A1\HF=-76.8548376\RMSD=9.3
 47e-03\Dipole=0.,0.,-0.0022854\Quadrupole=-1.8345604,3.6691079,-1.8345
 475,0.,0.,0.\PG=C02V [SGV(C2H2)]\\@

 Normal termination of Gaussian 16 at Tue Apr  8 19:08:47 2025.
