 Gaussian 16, Revision C.01,

 ----------------------------------------------------------------------
 #t hf aug-cc-pvdz symm=none int=(grid=ultrafine) guess=(read,tcheck) s
 table=(opt,rrhf)
 ----------------------------------------------------------------------
 -----
 title
 -----
 Symbolic Z-matrix:
 Charge =  0 Multiplicity = 1

 SCF Done:  E(RHF) =  -96.4054044038     A.U. after   10 cycles
 Normal termination of Gaussian 16 at Tue Apr  8 19:07:47 2025.
 Gaussian 16:  ES64L-G16RevC.01  3-Jul-2019

 ----------------------------------------------------------------------
 #t hf aug-cc-pvdz iop(5/13=1,5/36=2,99/5=2) pseudo=read geom=check gue
 ss=(read,tcheck) scf=(maxcycle=1)
 ----------------------------------------------------------------------
 -----
 title
 -----
 Structure from the checkpoint file:  "A21x12_07_ammonia-methane_1p2_mol1.chk"
 Charge =  0 Multiplicity = 1

                         Standard orientation:
 ---------------------------------------------------------------------
 Center     Atomic      Atomic             Coordinates (Angstroms)
 Number     Number       Type             X           Y           Z
 ---------------------------------------------------------------------
      1          7           0        0.000000    0.000000    2.279186
      2          1           0        0.000000    0.937310    2.662917
      3          1           0        0.811734   -0.468655    2.662917
      4          1           0       -0.811734   -0.468655    2.662917
      5          1           0        0.000000    0.000000   -1.304312
      6          6           0        0.000000    0.000000   -2.392978
      7          1           0       -0.887701    0.512514   -2.760292
      8          1           0        0.887701    0.512514   -2.760292
      9          1           0       -0.000000   -1.025029   -2.760292
 ---------------------------------------------------------------------

 SCF Done:  E(RHF) =  -96.4430953827     A.U. after    2 cycles

 The electronic state is 1-A1.
 Alpha  occ. eigenvalues --  -15.60970 -11.20731  -1.11064  -0.92855  -0.62683
 Alpha  occ. eigenvalues --   -0.62683  -0.53634  -0.53634  -0.53571  -0.42454
 Alpha virt. eigenvalues --    0.03443   0.04821   0.05361   0.05361   0.07325
 Alpha virt. eigenvalues --    0.07325   0.09053   0.15631   0.15631   0.16106
 Alpha virt. eigenvalues --    0.17676   0.19785   0.19928   0.19928   0.23313

 Mulliken charges:
               1
     1  N   -0.124445
     2  H    0.039386
     3  H    0.039386
     4  H    0.039386
     5  H   -0.129804
     6  C    0.658518
     7  H   -0.174143
     8  H   -0.174143
     9  H   -0.174143
 Sum of Mulliken charges =  -0.00000

 Dipole moment (field-independent basis, Debye):
    X=              0.0000    Y=              0.0000    Z=              1.7625  Tot=              1.7625

 Test job not archived.
 1\1\GINC-SE214\SP\RHF\Aug-CC-pVDZ\C1H7N1\OHZDE\08-Apr-2025\0\\#t hf au
 g-cc-pvdz iop(5/13=1,5/36=2,99/5=2) pseudo=read geom=check guess=(read
 ,tcheck) scf=(maxcycle=1)\\title\\0,1\N,0,0.,0.,2.30242894\H,0,0.93730
 979,0.,2.68615976\H,0,-0.46865489,-0.81173409,2.68615976\H,0,-0.468654
 89,0.81173409,2.68615976\H,0,0.,0.,-1.28106926\C,0,0.,0.,-2.36973504\H
 ,0,0.51251439,0.88770096,-2.73704877\H,0,0.51251439,-0.88770096,-2.737
 04877\H,0,-1.02502878,0.,-2.73704877\\Version=ES64L-G16RevC.01\State=1
 -A1\HF=-96.4430954\RMSD=1.332e-03\Dipole=0.,0.,0.6934044\Quadrupole=-1

 Normal termination of Gaussian 16 at Tue Apr  8 19:07:50 2025.
