 Gaussian 16, Revision C.01,

 ----------------------------------------------------------------------
 #t hf aug-cc-pvdz symm=none int=(grid=ultrafine) guess=(read,tcheck) s
 table=(opt,rrhf)
 ----------------------------------------------------------------------
 -----
 title
 -----
 Symbolic Z-matrix:
 Charge =  0 Multiplicity = 1

 SCF Done:  E(RHF) =  -154.085465703     A.U. after   10 cycles
 Normal termination of Gaussian 16 at Tue Apr  8 19:08:46 2025.
 Gaussian 16:  ES64L-G16RevC.01  3-Jul-2019

 ----------------------------------------------------------------------
 #t hf aug-cc-pvdz iop(5/13=1,5/36=2,99/5=2) pseudo=read geom=check gue
 ss=(read,tcheck) scf=(maxcycle=1)
 ----------------------------------------------------------------------
 -----
 title
 -----
 Structure from the checkpoint file:  "A21x12_10_water-ethene_1p6_mol1.chk"
 Charge =  0 Multiplicity = 1

                         Standard orientation:
 ---------------------------------------------------------------------
 Center     Atomic      Atomic             Coordinates (Angstroms)
 Number     Number       Type             X           Y           Z
 ---------------------------------------------------------------------
      1          6           0       -0.041164   -2.034871    0.668062
      2          6           0       -0.041164   -2.034871   -0.668062
      3          1           0       -0.898142   -1.688284   -1.232679
      4          1           0        0.814432   -2.384560   -1.232585
      5          1           0        0.814432   -2.384560    1.232585
      6          1           0       -0.898142   -1.688284    1.232679
      7          1           0        0.800586    3.762099    0.000000
      8          8           0       -0.041164    3.303926    0.000000
      9          1           0        0.190106    2.370636    0.000000
 ---------------------------------------------------------------------

 SCF Done:  E(RHF) =  -154.138855483     A.U. after    2 cycles

 The electronic state is 1-A'.
 Alpha  occ. eigenvalues --  -20.57865 -11.24846 -11.24682  -1.31207  -1.03239
 Alpha  occ. eigenvalues --   -0.79810  -0.73068  -0.65188  -0.59856  -0.59570
 Alpha  occ. eigenvalues --   -0.52706  -0.51496  -0.38437
 Alpha virt. eigenvalues --    0.03238   0.04723   0.04866   0.05176   0.07039
 Alpha virt. eigenvalues --    0.08204   0.09601   0.12467   0.14521   0.14739
 Alpha virt. eigenvalues --    0.15961   0.17336   0.18810   0.18872   0.20397

 Mulliken charges:
               1
     1  C    0.513488
     2  C    0.513488
     3  H   -0.260017
     4  H   -0.253442
     5  H   -0.253442
     6  H   -0.260017
     7  H    0.131897
     8  O   -0.269408
     9  H    0.137453
 Sum of Mulliken charges =  -0.00000

 Dipole moment (field-independent basis, Debye):
    X=              1.8602    Y=             -0.9280    Z=              0.0000  Tot=              2.0788

 Test job not archived.
 1\1\GINC-SE228\SP\RHF\Aug-CC-pVDZ\C2H6O1\OHZDE\08-Apr-2025\0\\#t hf au
 g-cc-pvdz iop(5/13=1,5/36=2,99/5=2) pseudo=read geom=check guess=(read
 ,tcheck) scf=(maxcycle=1)\\title\\0,1\C,0,0.02177144,-0.66806246,2.656
 07361\C,0,0.02177144,0.66806246,2.65607361\H,0,0.87981535,1.23267933,2
 .31213367\H,0,-0.83489966,1.23258495,3.00311937\H,0,-0.83489966,-1.232
 58495,3.00311937\H,0,0.87981535,-1.23267933,2.31213367\H,0,-0.8020757,
 0.,-3.14346757\O,0,0.03825502,0.,-2.68269773\H,0,-0.19589489,0.,-1.750
 12663\\Version=ES64L-G16RevC.01\State=1-A'\HF=-154.1388555\RMSD=3.356e

 Normal termination of Gaussian 16 at Tue Apr  8 19:08:48 2025.
