 Gaussian 16, Revision C.01,

 ----------------------------------------------------------------------
 #t hf aug-cc-pvdz symm=none int=(grid=ultrafine) guess=(read,tcheck) s
 table=(opt,rrhf)
 ----------------------------------------------------------------------
 -----
 title
 -----
 Symbolic Z-matrix:
 Charge =  0 Multiplicity = 1

 SCF Done:  E(RHF) =  -76.0409017379     A.U. after   10 cycles
 Normal termination of Gaussian 16 at Tue Apr  8 19:05:53 2025.
 Gaussian 16:  ES64L-G16RevC.01  3-Jul-2019

 ----------------------------------------------------------------------
 #t hf aug-cc-pvdz iop(5/13=1,5/36=2,99/5=2) pseudo=read geom=check gue
 ss=(read,tcheck) scf=(maxcycle=1)
 ----------------------------------------------------------------------
 -----
 title
 -----
 Structure from the checkpoint file:  "A21x12_01_water-ammonia_1p5_mol2.chk"
 Charge =  0 Multiplicity = 1

                         Standard orientation:
 ---------------------------------------------------------------------
 Center     Atomic      Atomic             Coordinates (Angstroms)
 Number     Number       Type             X           Y           Z
 ---------------------------------------------------------------------
      1          8           0       -0.000000    0.117417   -0.000000
      2          1           0        0.764421   -0.459264   -0.000000
      3          1           0       -0.764421   -0.480073    0.000000
 ---------------------------------------------------------------------

 SCF Done:  E(RHF) =  -76.0671744011     A.U. after    2 cycles

 The electronic state is 1-A'.
 Alpha  occ. eigenvalues --  -20.58202  -1.31262  -0.73190  -0.59981  -0.52935
 Alpha virt. eigenvalues --    0.03539   0.05815   0.17187   0.19442   0.22164
 Alpha virt. eigenvalues --    0.22924   0.28792   0.33018   0.38573   0.40219
 Alpha virt. eigenvalues --    0.43216   0.53728   0.64625   0.65230   0.81182

 Mulliken charges:
               1
     1  O   -0.274087
     2  H    0.129937
     3  H    0.144150
 Sum of Mulliken charges =  -0.00000

 Dipole moment (field-independent basis, Debye):
    X=              0.0044    Y=             -2.0693    Z=              0.0000  Tot=              2.0693

 Test job not archived.
 1\1\GINC-SE100\SP\RHF\Aug-CC-pVDZ\H2O1\OHZDE\08-Apr-2025\0\\#t hf aug-
 cc-pvdz iop(5/13=1,5/36=2,99/5=2) pseudo=read geom=check guess=(read,t
 check) scf=(maxcycle=1)\\title\\0,1\O,0,0.,-0.05789513,-1.5216349\H,0,
 0.,0.82290442,-1.89725661\H,0,0.,0.07946625,-0.5611844\\Version=ES64L-
 G16RevC.01\State=1-A'\HF=-76.0671744\RMSD=2.824e-03\Dipole=0.,0.706831
 5,0.4039861\Quadrupole=-1.1641093,0.1757566,0.9883527,0.,0.,-0.6423488
 \PG=CS [SG(H2O1)]\\@

 Normal termination of Gaussian 16 at Tue Apr  8 19:05:56 2025.
