 Gaussian 16, Revision C.01,

 ----------------------------------------------------------------------
 #t hf aug-cc-pvdz symm=none int=(grid=ultrafine) guess=(read,tcheck) s
 table=(opt,rrhf)
 ----------------------------------------------------------------------
 -----
 title
 -----
 Symbolic Z-matrix:
 Charge =  0 Multiplicity = 1

 SCF Done:  E(RHF) =  -26.3912152656     A.U. after    8 cycles
 Normal termination of Gaussian 16 at Tue Apr  8 19:09:44 2025.
 Gaussian 16:  ES64L-G16RevC.01  3-Jul-2019

 ----------------------------------------------------------------------
 #t hf aug-cc-pvdz iop(5/13=1,5/36=2,99/5=2) pseudo=read geom=check gue
 ss=(read,tcheck) scf=(maxcycle=1)
 ----------------------------------------------------------------------
 -----
 title
 -----
 Structure from the checkpoint file:  "A21x12_16_borane-methane_0p9_mol3.chk"
 Charge =  0 Multiplicity = 1

                         Standard orientation:
 ---------------------------------------------------------------------
 Center     Atomic      Atomic             Coordinates (Angstroms)
 Number     Number       Type             X           Y           Z
 ---------------------------------------------------------------------
      1          5           0        0.000000    0.004907    0.000000
      2          1           0        0.594768   -0.026286    1.030518
      3          1           0        0.594768   -0.026286   -1.030518
      4          1           0       -1.189536    0.028035   -0.000000
 ---------------------------------------------------------------------

 SCF Done:  E(RHF) =  -26.4023796278     A.U. after    2 cycles

 The electronic state is 1-A'.
 Alpha  occ. eigenvalues --   -7.62757  -0.69957  -0.49862  -0.49842
 Alpha virt. eigenvalues --    0.03361   0.04291   0.05523   0.05524   0.10816
 Alpha virt. eigenvalues --    0.10818   0.11620   0.13938   0.24760   0.24762
 Alpha virt. eigenvalues --    0.24964   0.26209   0.26211   0.36155   0.36157

 Mulliken charges:
               1
     1  B   -0.559924
     2  H    0.186325
     3  H    0.186325
     4  H    0.187275
 Sum of Mulliken charges =  -0.00000

 Dipole moment (field-independent basis, Debye):
    X=             -0.0001    Y=              0.0313    Z=             -0.0000  Tot=              0.0313

 Test job not archived.
 1\1\GINC-SE096\SP\RHF\Aug-CC-pVDZ\B1H3\OHZDE\08-Apr-2025\0\\#t hf aug-
 cc-pvdz iop(5/13=1,5/36=2,99/5=2) pseudo=read geom=check guess=(read,t
 check) scf=(maxcycle=1)\\title\\0,1\B,0,-0.00514783,0.,-1.4885711\H,0,
 0.58495662,-1.030518,-1.56918659\H,0,0.58495662,1.030518,-1.56918659\H
 ,0,-1.18862614,0.,-1.36646351\\Version=ES64L-G16RevC.01\State=1-A'\HF=
 -26.4023796\RMSD=2.331e-03\Dipole=0.000967,0.,0.0122746\Quadrupole=-0.
 5559618,-0.579957,1.1359188,0.,0.1959294,0.\PG=CS [SG(B1H1),X(H2)]\\@

 Normal termination of Gaussian 16 at Tue Apr  8 19:09:46 2025.
