 Gaussian 16, Revision C.01,

 ----------------------------------------------------------------------
 #t hf aug-cc-pvdz symm=none int=(grid=ultrafine) guess=(read,tcheck) s
 table=(opt,rrhf)
 ----------------------------------------------------------------------
 -----
 title
 -----
 Symbolic Z-matrix:
 Charge =  0 Multiplicity = 1

 SCF Done:  E(RHF) =  -156.087114994     A.U. after   11 cycles
 Normal termination of Gaussian 16 at Tue Apr  8 19:08:50 2025.
 Gaussian 16:  ES64L-G16RevC.01  3-Jul-2019

 ----------------------------------------------------------------------
 #t hf aug-cc-pvdz iop(5/13=1,5/36=2,99/5=2) pseudo=read geom=check gue
 ss=(read,tcheck) scf=(maxcycle=1)
 ----------------------------------------------------------------------
 -----
 title
 -----
 Structure from the checkpoint file:  "A21x12_14_ethene-dimer_1p1_mol1.chk"
 Charge =  0 Multiplicity = 1

                         Standard orientation:
 ---------------------------------------------------------------------
 Center     Atomic      Atomic             Coordinates (Angstroms)
 Number     Number       Type             X           Y           Z
 ---------------------------------------------------------------------
      1          1           0       -0.924445    1.231722   -2.096594
      2          1           0        0.924445    1.231722   -2.096594
      3          1           0        0.924445   -1.231722   -2.096594
      4          1           0       -0.924445   -1.231722   -2.096594
      5          6           0        0.000000   -0.667288   -2.095966
      6          6           0        0.000000    0.667288   -2.095966
      7          1           0        0.000000   -1.233449    3.020048
      8          1           0        0.000000   -1.225471    1.168492
      9          1           0        0.000000    1.225471    1.168492
     10          1           0        0.000000    1.233449    3.020048
     11          6           0       -0.000000    0.667117    2.096741
     12          6           0       -0.000000   -0.667117    2.096741
 ---------------------------------------------------------------------

 SCF Done:  E(RHF) =  -156.141055539     A.U. after    2 cycles

 The electronic state is 1-A1.
 Alpha  occ. eigenvalues --  -11.24545 -11.24380 -11.23856 -11.23691  -1.03031
 Alpha  occ. eigenvalues --   -1.02344  -0.79575  -0.78829  -0.64950  -0.64329
 Alpha  occ. eigenvalues --   -0.59351  -0.58620  -0.51232  -0.50576  -0.38208
 Alpha  occ. eigenvalues --   -0.37519
 Alpha virt. eigenvalues --    0.03722   0.04448   0.04887   0.05229   0.06064
 Alpha virt. eigenvalues --    0.06958   0.08004   0.08581   0.11019   0.12333
 Alpha virt. eigenvalues --    0.12830   0.13138   0.14336   0.14336   0.15647

 Mulliken charges:
               1
     1  H   -0.272320
     2  H   -0.272320
     3  H   -0.272320
     4  H   -0.272320
     5  C    0.538643
     6  C    0.538643
     7  H   -0.286160
     8  H   -0.250252
     9  H   -0.250252
    10  H   -0.286160
    11  C    0.542408
    12  C    0.542408
 Sum of Mulliken charges =  -0.00000

 Dipole moment (field-independent basis, Debye):
    X=             -0.0000    Y=              0.0000    Z=             -0.1012  Tot=              0.1012

 Test job not archived.
 1\1\GINC-SE393\SP\RHF\Aug-CC-pVDZ\C4H8\OHZDE\08-Apr-2025\0\\#t hf aug-
 cc-pvdz iop(5/13=1,5/36=2,99/5=2) pseudo=read geom=check guess=(read,t
 check) scf=(maxcycle=1)\\title\\0,1\H,0,0.9244451,-1.23172221,-2.09675
 848\H,0,-0.9244451,-1.23172221,-2.09675848\H,0,-0.9244451,1.23172221,-
 2.09675848\H,0,0.9244451,1.23172221,-2.09675848\C,0,0.,0.66728778,-2.0
 9613055\C,0,0.,-0.66728778,-2.09613055\H,0,0.,1.23344948,3.01988364\H,
 0,0.,1.22547148,1.16832771\H,0,0.,-1.22547148,1.16832771\H,0,0.,-1.233
 44948,3.01988364\C,0,0.,-0.66711698,2.09657614\C,0,0.,0.66711698,2.096

 Normal termination of Gaussian 16 at Tue Apr  8 19:08:52 2025.
