 Gaussian 16, Revision C.01,

 ----------------------------------------------------------------------
 #t hf aug-cc-pvdz symm=none int=(grid=ultrafine) guess=(read,tcheck) s
 table=(opt,rrhf)
 ----------------------------------------------------------------------
 -----
 title
 -----
 Symbolic Z-matrix:
 Charge =  0 Multiplicity = 1

 SCF Done:  E(RHF) =  -152.085463667     A.U. after   10 cycles
 Normal termination of Gaussian 16 at Tue Apr  8 19:05:55 2025.
 Gaussian 16:  ES64L-G16RevC.01  3-Jul-2019

 ----------------------------------------------------------------------
 #t hf aug-cc-pvdz iop(5/13=1,5/36=2,99/5=2) pseudo=read geom=check gue
 ss=(read,tcheck) scf=(maxcycle=1)
 ----------------------------------------------------------------------
 -----
 title
 -----
 Structure from the checkpoint file:  "A21x12_02_water-dimer_1p4_mol1.chk"
 Charge =  0 Multiplicity = 1

                         Standard orientation:
 ---------------------------------------------------------------------
 Center     Atomic      Atomic             Coordinates (Angstroms)
 Number     Number       Type             X           Y           Z
 ---------------------------------------------------------------------
      1          8           0       -0.001820    2.108523    0.000000
      2          1           0        0.892912    2.450128    0.000000
      3          1           0        0.101823    1.149282    0.000000
      4          8           0       -0.001820   -1.980136   -0.000000
      5          1           0       -0.482812   -2.313256    0.760178
      6          1           0       -0.482812   -2.313256   -0.760178
 ---------------------------------------------------------------------

 SCF Done:  E(RHF) =  -152.137952570     A.U. after    2 cycles

 The electronic state is 1-A'.
 Alpha  occ. eigenvalues --  -20.59171 -20.56998  -1.32550  -1.30262  -0.74452
 Alpha  occ. eigenvalues --   -0.72142  -0.61252  -0.58983  -0.54064  -0.51844
 Alpha virt. eigenvalues --    0.02990   0.05085   0.05573   0.08578   0.16201
 Alpha virt. eigenvalues --    0.17829   0.19957   0.21266   0.22468   0.23066
 Alpha virt. eigenvalues --    0.24525   0.25543   0.28523   0.31301   0.34084

 Mulliken charges:
               1
     1  O   -0.278201
     2  H    0.132479
     3  H    0.145016
     4  O   -0.296959
     5  H    0.148832
     6  H    0.148832
 Sum of Mulliken charges =  -0.00000

 Dipole moment (field-independent basis, Debye):
    X=              0.0481    Y=             -2.4130    Z=             -0.0000  Tot=              2.4134

 Test job not archived.
 1\1\GINC-SE104\SP\RHF\Aug-CC-pVDZ\H4O2\OHZDE\08-Apr-2025\0\\#t hf aug-
 cc-pvdz iop(5/13=1,5/36=2,99/5=2) pseudo=read geom=check guess=(read,t
 check) scf=(maxcycle=1)\\title\\0,1\O,0,-0.07100024,0.,2.0790391\H,0,0
 .81173317,0.,2.45055075\H,0,0.064854,0.,1.12382713\O,0,0.06654819,0.,-
 2.00730585\H,0,-0.40296496,-0.76017841,-2.35641827\H,0,-0.40296496,0.7
 6017841,-2.35641827\\Version=ES64L-G16RevC.01\State=1-A'\HF=-152.13795
 26\RMSD=2.017e-03\Dipole=0.0508426,0.,-0.9481602\Quadrupole=-0.4443832
 ,-0.0797546,0.5241378,0.,6.4388919,0.\PG=CS [SG(H2O2),X(H2)]\\@

 Normal termination of Gaussian 16 at Tue Apr  8 19:05:56 2025.
