 Gaussian 16, Revision C.01,

 ----------------------------------------------------------------------
 #t hf aug-cc-pvdz symm=none int=(grid=ultrafine) guess=(read,tcheck) s
 table=(opt,rrhf)
 ----------------------------------------------------------------------
 -----
 title
 -----
 Symbolic Z-matrix:
 Charge =  0 Multiplicity = 1

 SCF Done:  E(RHF) =  -80.3971033951     A.U. after    9 cycles
 Normal termination of Gaussian 16 at Tue Apr  8 19:09:52 2025.
 Gaussian 16:  ES64L-G16RevC.01  3-Jul-2019

 ----------------------------------------------------------------------
 #t hf aug-cc-pvdz iop(5/13=1,5/36=2,99/5=2) pseudo=read geom=check gue
 ss=(read,tcheck) scf=(maxcycle=1)
 ----------------------------------------------------------------------
 -----
 title
 -----
 Structure from the checkpoint file:  "A21x12_19_methane-dimer_0p9_mol1.chk"
 Charge =  0 Multiplicity = 1

                         Standard orientation:
 ---------------------------------------------------------------------
 Center     Atomic      Atomic             Coordinates (Angstroms)
 Number     Number       Type             X           Y           Z
 ---------------------------------------------------------------------
      1          6           0        0.000000    0.000000    1.637142
      2          1           0        0.000000    1.025482    1.272894
      3          1           0        0.888094   -0.512741    1.272894
      4          1           0       -0.888094   -0.512741    1.272894
      5          1           0        0.000000    0.000000    2.725348
      6          6           0       -0.000000   -0.000000   -1.637142
      7          1           0       -0.000000   -0.000000   -2.725348
      8          1           0       -0.888094    0.512741   -1.272894
      9          1           0       -0.000000   -1.025482   -1.272894
     10          1           0        0.888094    0.512741   -1.272894
 ---------------------------------------------------------------------

 SCF Done:  E(RHF) =  -80.4310068323     A.U. after    2 cycles

 The electronic state is 1-A1G.
 Alpha  occ. eigenvalues --  -11.21639 -11.21638  -0.94500  -0.93278  -0.56001
 Alpha  occ. eigenvalues --   -0.55337  -0.55337  -0.53908  -0.53908  -0.53270
 Alpha virt. eigenvalues --    0.03447   0.04583   0.06001   0.06001   0.06880
 Alpha virt. eigenvalues --    0.08339   0.08339   0.09942   0.13225   0.13225
 Alpha virt. eigenvalues --    0.16787   0.16827   0.16827   0.17720   0.20000

 Mulliken charges:
               1
     1  C    0.673623
     2  H   -0.146101
     3  H   -0.146101
     4  H   -0.146101
     5  H   -0.235319
     6  C    0.673623
     7  H   -0.235319
     8  H   -0.146101
     9  H   -0.146101
    10  H   -0.146101
 Sum of Mulliken charges =   0.00000

 Dipole moment (field-independent basis, Debye):
    X=              0.0000    Y=              0.0000    Z=              0.0000  Tot=              0.0000

 Test job not archived.
 1\1\GINC-SE228\SP\RHF\Aug-CC-pVDZ\C2H8\OHZDE\08-Apr-2025\0\\#t hf aug-
 cc-pvdz iop(5/13=1,5/36=2,99/5=2) pseudo=read geom=check guess=(read,t
 check) scf=(maxcycle=1)\\title\\0,1\C,0,0.,0.,1.63714162\H,0,0.5127411
 5,0.88809373,1.27289448\H,0,0.51274115,-0.88809373,1.27289448\H,0,-1.0
 254823,0.,1.27289448\H,0,0.,0.,2.72534777\C,0,0.,0.,-1.63714162\H,0,0.
 ,0.,-2.72534777\H,0,-0.51274115,0.88809373,-1.27289448\H,0,-0.51274115
 ,-0.88809373,-1.27289448\H,0,1.0254823,0.,-1.27289448\\Version=ES64L-G
 16RevC.01\State=1-A1G\HF=-80.4310068\RMSD=1.793e-03\Dipole=0.,0.,0.\Qu

 Normal termination of Gaussian 16 at Tue Apr  8 19:09:53 2025.
