 Gaussian 16, Revision C.01,

 ----------------------------------------------------------------------
 #t hf aug-cc-pvdz symm=none int=(grid=ultrafine) guess=(read,tcheck) s
 table=(opt,rrhf)
 ----------------------------------------------------------------------
 -----
 title
 -----
 Symbolic Z-matrix:
 Charge =  0 Multiplicity = 1

 SCF Done:  E(RHF) =  -227.775062764     A.U. after   12 cycles
 Normal termination of Gaussian 16 at Tue Apr  8 19:07:46 2025.
 Gaussian 16:  ES64L-G16RevC.01  3-Jul-2019

 ----------------------------------------------------------------------
 #t hf aug-cc-pvdz iop(5/13=1,5/36=2,99/5=2) pseudo=read geom=check gue
 ss=(read,tcheck) scf=(maxcycle=1)
 ----------------------------------------------------------------------
 -----
 title
 -----
 Structure from the checkpoint file:  "A21x12_09_formaldehyde-dimer_1p1_mol1.chk"
 Charge =  0 Multiplicity = 1

                         Standard orientation:
 ---------------------------------------------------------------------
 Center     Atomic      Atomic             Coordinates (Angstroms)
 Number     Number       Type             X           Y           Z
 ---------------------------------------------------------------------
      1          6           0       -0.944762   -1.323617    0.000000
      2          8           0       -1.758070   -0.426909    0.000000
      3          1           0       -0.559928   -1.757367    0.935423
      4          1           0       -0.559928   -1.757367   -0.935423
      5          6           0        1.091071    1.419459    0.000000
      6          8           0        1.572004    0.308536    0.000000
      7          1           0        1.730531    2.315835    0.000000
      8          1           0        0.000000    1.570830    0.000000
 ---------------------------------------------------------------------

 SCF Done:  E(RHF) =  -227.850749747     A.U. after    2 cycles

 The electronic state is 1-A'.
 Alpha  occ. eigenvalues --  -20.59692 -20.58343 -11.35749 -11.34952  -1.37374
 Alpha  occ. eigenvalues --   -1.36140  -0.87299  -0.86182  -0.70893  -0.69545
 Alpha  occ. eigenvalues --   -0.67068  -0.65738  -0.55617  -0.54423  -0.46153
 Alpha  occ. eigenvalues --   -0.44938
 Alpha virt. eigenvalues --    0.03430   0.04423   0.05529   0.06572   0.07091
 Alpha virt. eigenvalues --    0.08507   0.10336   0.12175   0.15007   0.15786
 Alpha virt. eigenvalues --    0.15878   0.16449   0.17477   0.18146   0.22048

 Mulliken charges:
               1
     1  C    0.658055
     2  O   -0.428100
     3  H   -0.119197
     4  H   -0.119197
     5  C    0.658948
     6  O   -0.394669
     7  H   -0.155171
     8  H   -0.100667
 Sum of Mulliken charges =   0.00000

 Dipole moment (field-independent basis, Debye):
    X=              0.9670    Y=              0.6005    Z=              0.0000  Tot=              1.1383

 Test job not archived.
 1\1\GINC-SE344\SP\RHF\Aug-CC-pVDZ\C2H4O2\OHZDE\08-Apr-2025\0\\#t hf au
 g-cc-pvdz iop(5/13=1,5/36=2,99/5=2) pseudo=read geom=check guess=(read
 ,tcheck) scf=(maxcycle=1)\\title\\0,1\C,0,0.,0.6015613,-1.49916892\O,0
 ,0.,-0.59269664,-1.69741937\H,0,0.9354225,1.17459774,-1.41048048\H,0,-
 0.9354225,1.17459774,-1.41048048\C,0,0.,-0.60232656,1.69766403\O,0,0.,
 0.59206458,1.50048865\H,0,0.,-1.00970162,2.72062172\H,0,0.,-1.32035086
 ,0.86232534\\Version=ES64L-G16RevC.01\State=1-A'\HF=-227.8507497\RMSD=
 2.195e-03\Dipole=0.,0.0073835,0.4477685\Quadrupole=0.1103999,0.033399,

 Normal termination of Gaussian 16 at Tue Apr  8 19:07:49 2025.
