 Gaussian 16, Revision C.01,

 ----------------------------------------------------------------------
 #t hf aug-cc-pvdz symm=none int=(grid=ultrafine) guess=(read,tcheck) s
 table=(opt,rrhf)
 ----------------------------------------------------------------------
 -----
 title
 -----
 Symbolic Z-matrix:
 Charge =  0 Multiplicity = 1

 SCF Done:  E(RHF) =  -857.253423352     A.U. after   16 cycles
 Normal termination of Gaussian 16 at Tue Apr  8 19:25:02 2025.
 Gaussian 16:  ES64L-G16RevC.01  3-Jul-2019

 ----------------------------------------------------------------------
 #t hf aug-cc-pvdz iop(5/13=1,5/36=2,99/5=2) pseudo=read geom=check gue
 ss=(read,tcheck) scf=(maxcycle=1)
 ----------------------------------------------------------------------
 -----
 title
 -----
 Structure from the checkpoint file:  "ACHC_11_dimer_mol1.chk"
 Charge =  0 Multiplicity = 1

                         Standard orientation:
 ---------------------------------------------------------------------
 Center     Atomic      Atomic             Coordinates (Angstroms)
 Number     Number       Type             X           Y           Z
 ---------------------------------------------------------------------
      1          7           0       -1.347439   -2.016959    0.646446
      2          6           0       -1.379846   -1.314934    1.797105
      3          7           0       -1.495333    0.005278    1.946230
      4          6           0       -1.583656    0.625957    0.757972
      5          6           0       -1.564160    0.032153   -0.509403
      6          6           0       -1.437537   -1.376340   -0.541321
      7          7           0       -1.677098    0.980029   -1.512909
      8          6           0       -1.762939    2.120702   -0.868540
      9          7           0       -1.712488    1.973625    0.505221
     10          1           0       -1.300647   -1.919438    2.702205
     11          7           0       -1.403668   -2.090477   -1.679360
     12          1           0       -1.471778   -1.600087   -2.558100
     13          1           0       -1.310485   -3.110638   -1.651559
     14          1           0       -1.863859    3.097255   -1.331534
     15          1           0       -1.759739    2.703613    1.202212
     16          7           0        1.766261    1.396348    0.915478
     17          6           0        1.733478    1.336504   -0.491832
     18          7           0        1.828387    0.112482   -1.071772
     19          6           0        1.948905   -0.997018   -0.326410
     20          6           0        1.983178   -0.942583    1.117940
     21          6           0        1.887900    0.284199    1.693447
     22          1           0        1.693713    2.320498    1.320311
     23          8           0        1.620554    2.396597   -1.121590
     24          7           0        2.037252   -2.166828   -0.967527
     25          1           0        2.012497   -2.205866   -2.009052
     26          1           0        2.128769   -3.020943   -0.439981
     27          1           0        2.080812   -1.841840    1.720211
     28          1           0        1.903226    0.438345    2.771613
 ---------------------------------------------------------------------

 SCF Done:  E(RHF) =  -857.501573885     A.U. after    2 cycles

 The electronic state is 1-A.
 Alpha  occ. eigenvalues --  -20.50424 -15.68835 -15.67942 -15.66572 -15.65310
 Alpha  occ. eigenvalues --  -15.62279 -15.62267 -15.61436 -15.59633 -11.37463
 Alpha  occ. eigenvalues --  -11.36371 -11.34998 -11.33525 -11.32684 -11.32491
 Alpha  occ. eigenvalues --  -11.32359 -11.25903 -11.25081  -1.33409  -1.32598
 Alpha  occ. eigenvalues --   -1.26372  -1.25822  -1.22403  -1.21402  -1.14585
 Alpha  occ. eigenvalues --   -1.13082  -1.11261  -1.04634  -1.01975  -0.89179
 Alpha  occ. eigenvalues --   -0.88612  -0.86928  -0.86788  -0.82979  -0.77466
 Alpha  occ. eigenvalues --   -0.75639  -0.75434  -0.73670  -0.72035  -0.69185
 Alpha  occ. eigenvalues --   -0.67107  -0.67063  -0.64252  -0.63089  -0.62092
 Alpha  occ. eigenvalues --   -0.60764  -0.60704  -0.60610  -0.58922  -0.58693
 Alpha  occ. eigenvalues --   -0.55870  -0.52744  -0.50177  -0.48262  -0.47634
 Alpha  occ. eigenvalues --   -0.43927  -0.43687  -0.41447  -0.40993  -0.40062
 Alpha  occ. eigenvalues --   -0.37190  -0.36526  -0.34009  -0.29969
 Alpha virt. eigenvalues --    0.02014   0.02208   0.03229   0.04138   0.04776
 Alpha virt. eigenvalues --    0.05513   0.06065   0.06580   0.07049   0.07940
 Alpha virt. eigenvalues --    0.08051   0.09699   0.09777   0.10232   0.11142

 Mulliken charges:
               1
     1  N   -0.598479
     2  C    0.563051
     3  N   -0.571408
     4  C    0.783492
     5  C    0.887171
     6  C    0.611060
     7  N   -1.001050
     8  C    1.028455
     9  N   -0.510551
    10  H   -0.410613
    11  N   -0.271960
    12  H    0.016918
    13  H   -0.032461
    14  H   -0.303680
    15  H   -0.134099
    16  N   -0.441891
    17  C    0.891674
    18  N   -0.724487
    19  C    0.215274
    20  C    1.498337
    21  C    0.458824
    22  H   -0.080039
    23  O   -0.626881
    24  N   -0.208505
    25  H    0.022552
    26  H   -0.006777
    27  H   -0.652292
    28  H   -0.401636
 Sum of Mulliken charges =  -0.00000

 Dipole moment (field-independent basis, Debye):
    X=              0.3291    Y=             -3.3171    Z=              3.7166  Tot=              4.9925

 Test job not archived.
 1\1\GINC-SE098\SP\RHF\Aug-CC-pVDZ\C9H10N8O1\OHZDE\08-Apr-2025\0\\#t hf
  aug-cc-pvdz iop(5/13=1,5/36=2,99/5=2) pseudo=read geom=check guess=(r
 ead,tcheck) scf=(maxcycle=1)\\title\\0,1\N,0,-0.214386,-1.993021,0.000
 158\C,0,-1.483458,-1.537649,0.000039\N,0,-1.896987,-0.269765,-0.000126
 \C,0,-0.859092,0.583332,-0.00013\C,0,0.502351,0.258224,0.000025\C,0,0.
 818987,-1.120415,0.000169\N,0,1.293025,1.395362,-0.000018\C,0,0.430884
 ,2.385528,-0.000191\N,0,-0.88463,1.960299,-0.000268\H,0,-2.247335,-2.3
 17004,0.000055\N,0,2.078153,-1.590279,0.000313\H,0,2.839337,-0.928535,

 Normal termination of Gaussian 16 at Tue Apr  8 19:25:47 2025.
