 Gaussian 16, Revision C.01,

 ----------------------------------------------------------------------
 #t hf aug-cc-pvdz symm=none int=(grid=ultrafine) guess=(read,tcheck) s
 table=(opt,rrhf)
 ----------------------------------------------------------------------
 -----
 title
 -----
 Symbolic Z-matrix:
 Charge =  0 Multiplicity = 1

 SCF Done:  E(RHF) =  -857.235087269     A.U. after   16 cycles
 Normal termination of Gaussian 16 at Tue Apr  8 19:24:06 2025.
 Gaussian 16:  ES64L-G16RevC.01  3-Jul-2019

 ----------------------------------------------------------------------
 #t hf aug-cc-pvdz iop(5/13=1,5/36=2,99/5=2) pseudo=read geom=check gue
 ss=(read,tcheck) scf=(maxcycle=1)
 ----------------------------------------------------------------------
 -----
 title
 -----
 Structure from the checkpoint file:  "ACHC_1_dimer_mol1.chk"
 Charge =  0 Multiplicity = 1

                         Standard orientation:
 ---------------------------------------------------------------------
 Center     Atomic      Atomic             Coordinates (Angstroms)
 Number     Number       Type             X           Y           Z
 ---------------------------------------------------------------------
      1          7           0       -1.358009    1.764235    0.971079
      2          6           0       -1.127246    2.248642   -0.265855
      3          7           0       -1.022088    1.563915   -1.405428
      4          6           0       -1.177977    0.245382   -1.200076
      5          6           0       -1.421117   -0.397274    0.019390
      6          6           0       -1.512580    0.433964    1.160259
      7          7           0       -1.526819   -1.768457   -0.144726
      8          6           0       -1.351844   -1.951774   -1.432940
      9          7           0       -1.136705   -0.774324   -2.124839
     10          1           0       -1.016572    3.333079   -0.317329
     11          7           0       -1.742001   -0.033082    2.399414
     12          1           0       -1.855315   -1.027250    2.526281
     13          1           0       -1.799847    0.609304    3.195767
     14          1           0       -1.367597   -2.912312   -1.938233
     15          1           0       -0.978299   -0.666223   -3.116874
     16          7           0        1.474342   -1.701727    0.202662
     17          6           0        1.397538   -0.804321    1.286149
     18          7           0        1.562546    0.517125    1.021349
     19          6           0        1.790338    0.947310   -0.229304
     20          6           0        1.870305    0.031827   -1.345449
     21          6           0        1.704573   -1.289134   -1.075488
     22          1           0        1.347732   -2.679487    0.428850
     23          8           0        1.184952   -1.265120    2.415580
     24          7           0        1.942690    2.262689   -0.413309
     25          1           0        1.884970    2.922677    0.391672
     26          1           0        2.115199    2.621785   -1.339314
     27          1           0        2.054822    0.381611   -2.357640
     28          1           0        1.745656   -2.062582   -1.841338
 ---------------------------------------------------------------------

 SCF Done:  E(RHF) =  -857.482074517     A.U. after    2 cycles

 The electronic state is 1-A.
 Alpha  occ. eigenvalues --  -20.50248 -15.69517 -15.67573 -15.66108 -15.63870
 Alpha  occ. eigenvalues --  -15.63590 -15.61773 -15.60603 -15.59391 -11.37223
 Alpha  occ. eigenvalues --  -11.36164 -11.34522 -11.33613 -11.33539 -11.32784
 Alpha  occ. eigenvalues --  -11.32190 -11.25916 -11.25160  -1.33680  -1.32843
 Alpha  occ. eigenvalues --   -1.26063  -1.25553  -1.22186  -1.20792  -1.15070
 Alpha  occ. eigenvalues --   -1.12894  -1.10795  -1.04697  -1.02188  -0.89147
 Alpha  occ. eigenvalues --   -0.88594  -0.86880  -0.86659  -0.83678  -0.77190
 Alpha  occ. eigenvalues --   -0.75489  -0.75296  -0.73189  -0.71846  -0.69141
 Alpha  occ. eigenvalues --   -0.66987  -0.66928  -0.65748  -0.63152  -0.62084
 Alpha  occ. eigenvalues --   -0.60788  -0.60711  -0.59695  -0.59030  -0.58606
 Alpha  occ. eigenvalues --   -0.55770  -0.53597  -0.48600  -0.48093  -0.47642
 Alpha  occ. eigenvalues --   -0.43950  -0.43751  -0.42011  -0.40924  -0.39651
 Alpha  occ. eigenvalues --   -0.37401  -0.36304  -0.33371  -0.29911
 Alpha virt. eigenvalues --    0.01135   0.02359   0.03554   0.03939   0.05162
 Alpha virt. eigenvalues --    0.05358   0.06153   0.06565   0.07481   0.07713
 Alpha virt. eigenvalues --    0.08261   0.09266   0.09650   0.10026   0.10880

 Mulliken charges:
               1
     1  N   -0.703118
     2  C    0.784720
     3  N   -0.632375
     4  C    0.711070
     5  C    1.020183
     6  C    0.408174
     7  N   -1.043153
     8  C    0.989578
     9  N   -0.435432
    10  H   -0.402746
    11  N   -0.197306
    12  H    0.023205
    13  H   -0.026452
    14  H   -0.369864
    15  H   -0.143758
    16  N   -0.489828
    17  C    0.755918
    18  N   -0.603168
    19  C    0.533681
    20  C    1.033868
    21  C    0.765900
    22  H   -0.049065
    23  O   -0.646657
    24  N   -0.237454
    25  H    0.028209
    26  H   -0.003773
    27  H   -0.651751
    28  H   -0.418604
 Sum of Mulliken charges =  -0.00000

 Dipole moment (field-independent basis, Debye):
    X=              0.9467    Y=             -0.7755    Z=             -7.5323  Tot=              7.6311

 Test job not archived.
 1\1\GINC-SE335\SP\RHF\Aug-CC-pVDZ\C9H10N8O1\OHZDE\08-Apr-2025\0\\#t hf
  aug-cc-pvdz iop(5/13=1,5/36=2,99/5=2) pseudo=read geom=check guess=(r
 ead,tcheck) scf=(maxcycle=1)\\title\\0,1\N,0,-0.214386,-1.993021,0.000
 158\C,0,-1.483458,-1.537649,0.000039\N,0,-1.896987,-0.269765,-0.000126
 \C,0,-0.859092,0.583332,-0.00013\C,0,0.502351,0.258224,0.000025\C,0,0.
 818987,-1.120415,0.000169\N,0,1.293025,1.395362,-0.000018\C,0,0.430884
 ,2.385528,-0.000191\N,0,-0.88463,1.960299,-0.000268\H,0,-2.247335,-2.3
 17004,0.000055\N,0,2.078153,-1.590279,0.000313\H,0,2.839337,-0.928535,

 Normal termination of Gaussian 16 at Tue Apr  8 19:24:49 2025.
