 Gaussian 16, Revision C.01,

 ----------------------------------------------------------------------
 #t hf aug-cc-pvdz symm=none int=(grid=ultrafine) guess=(read,tcheck) s
 table=(opt,rrhf)
 ----------------------------------------------------------------------
 -----
 title
 -----
 Symbolic Z-matrix:
 Charge =  0 Multiplicity = 1

 SCF Done:  E(RHF) =  -392.672322933     A.U. after   15 cycles
 Normal termination of Gaussian 16 at Tue Apr  8 19:11:17 2025.
 Gaussian 16:  ES64L-G16RevC.01  3-Jul-2019

 ----------------------------------------------------------------------
 #t hf aug-cc-pvdz iop(5/13=1,5/36=2,99/5=2) pseudo=read geom=check gue
 ss=(read,tcheck) scf=(maxcycle=1)
 ----------------------------------------------------------------------
 -----
 title
 -----
 Structure from the checkpoint file:  "ACHC_11_dimer_mol3.chk"
 Charge =  0 Multiplicity = 1

                         Standard orientation:
 ---------------------------------------------------------------------
 Center     Atomic      Atomic             Coordinates (Angstroms)
 Number     Number       Type             X           Y           Z
 ---------------------------------------------------------------------
      1          7           0        1.294824    0.886872    0.000058
      2          6           0        1.177404   -0.517190    0.000004
      3          7           0       -0.074111   -1.043763   -0.000035
      4          6           0       -1.156699   -0.250615   -0.000029
      5          6           0       -1.043194    1.190704    0.000023
      6          6           0        0.210909    1.712726    0.000063
      7          1           0        2.238384    1.251428    0.000092
      8          8           0        2.215145   -1.192644   -0.000009
      9          7           0       -2.356326   -0.840689   -0.000071
     10          1           0       -2.437958   -1.880038   -0.000129
     11          1           0       -3.191610   -0.276335   -0.000072
     12          1           0       -1.920715    1.831706    0.000032
     13          1           0        0.409506    2.783705    0.000106
 ---------------------------------------------------------------------

 SCF Done:  E(RHF) =  -392.790052000     A.U. after    2 cycles

 The electronic state is 1-A.
 Alpha  occ. eigenvalues --  -20.50785 -15.68603 -15.67358 -15.60394 -11.37948
 Alpha  occ. eigenvalues --  -11.37171 -11.34510 -11.26107  -1.33771  -1.26554
 Alpha  occ. eigenvalues --   -1.23103  -1.13799  -1.05521  -0.89985  -0.87638
 Alpha  occ. eigenvalues --   -0.76371  -0.76199  -0.72769  -0.67884  -0.62771
 Alpha  occ. eigenvalues --   -0.62473  -0.61587  -0.59260  -0.54041  -0.49032
 Alpha  occ. eigenvalues --   -0.44304  -0.41758  -0.37916  -0.34656
 Alpha virt. eigenvalues --    0.01737   0.02544   0.04336   0.05982   0.06924
 Alpha virt. eigenvalues --    0.07413   0.09144   0.10565   0.11710   0.12078
 Alpha virt. eigenvalues --    0.12280   0.12872   0.12902   0.13449   0.14965

 Mulliken charges:
               1
     1  N   -0.446430
     2  C    0.675597
     3  N   -0.634464
     4  C    0.489912
     5  C    0.955761
     6  C    0.572534
     7  H   -0.044721
     8  O   -0.554412
     9  N   -0.231303
    10  H    0.033377
    11  H    0.002318
    12  H   -0.527733
    13  H   -0.290435
 Sum of Mulliken charges =  -0.00000

 Dipole moment (field-independent basis, Debye):
    X=             -5.4853    Y=              5.7504    Z=              0.0001  Tot=              7.9471

 Test job not archived.
 1\1\GINC-SE150\SP\RHF\Aug-CC-pVDZ\C4H5N3O1\OHZDE\08-Apr-2025\0\\#t hf
 aug-cc-pvdz iop(5/13=1,5/36=2,99/5=2) pseudo=read geom=check guess=(re
 ad,tcheck) scf=(maxcycle=1)\\title\\0,1\N,0,-1.197258,0.989061,3.40005
 8\C,0,0.193037,1.217664,3.400004\N,0,1.008972,0.132391,3.399965\C,0,0.
 503844,-1.110962,3.399971\C,0,-0.921627,-1.352449,3.400023\C,0,-1.7337
 81,-0.263556,3.400063\H,0,-1.780954,1.8152,3.400092\O,0,0.594965,2.388
 816,3.399991\N,0,1.368706,-2.130425,3.399929\H,0,2.396574,-1.956075,3.
 399871\H,0,1.025139,-3.078136,3.399928\H,0,-1.329225,-2.359817,3.40003

 Normal termination of Gaussian 16 at Tue Apr  8 19:11:21 2025.
