 Gaussian 16, Revision C.01,

 ----------------------------------------------------------------------
 #t hf aug-cc-pvdz symm=none int=(grid=ultrafine) guess=(read,tcheck) s
 table=(opt,rrhf)
 ----------------------------------------------------------------------
 -----
 title
 -----
 Symbolic Z-matrix:
 Charge =  0 Multiplicity = 1

 SCF Done:  E(RHF) =  -857.250969366     A.U. after   16 cycles
 Normal termination of Gaussian 16 at Tue Apr  8 19:21:20 2025.
 Gaussian 16:  ES64L-G16RevC.01  3-Jul-2019

 ----------------------------------------------------------------------
 #t hf aug-cc-pvdz iop(5/13=1,5/36=2,99/5=2) pseudo=read geom=check gue
 ss=(read,tcheck) scf=(maxcycle=1)
 ----------------------------------------------------------------------
 -----
 title
 -----
 Structure from the checkpoint file:  "ACHC_23_dimer_mol1.chk"
 Charge =  0 Multiplicity = 1

                         Standard orientation:
 ---------------------------------------------------------------------
 Center     Atomic      Atomic             Coordinates (Angstroms)
 Number     Number       Type             X           Y           Z
 ---------------------------------------------------------------------
      1          7           0        2.977468    0.314808   -0.943983
      2          6           0        2.654789    1.547062   -0.502016
      3          7           0        1.792535    1.869623    0.462873
      4          6           0        1.227602    0.775390    1.000000
      5          6           0        1.463222   -0.558080    0.645652
      6          6           0        2.399275   -0.776294   -0.392178
      7          7           0        0.703323   -1.426042    1.412100
      8          6           0        0.023697   -0.636940    2.211564
      9          7           0        0.296062    0.703701    2.011823
     10          1           0        3.173025    2.363089   -1.008410
     11          7           0        2.731623   -1.997655   -0.843944
     12          1           0        2.292863   -2.802700   -0.423589
     13          1           0        3.415994   -2.105287   -1.599084
     14          1           0       -0.686804   -0.965955    2.963322
     15          1           0       -0.102775    1.490490    2.504573
     16          7           0       -2.752462   -1.055343    0.171795
     17          6           0       -1.809403   -1.185038   -0.866954
     18          7           0       -1.270125   -0.046226   -1.372773
     19          6           0       -1.626251    1.156901   -0.896599
     20          6           0       -2.593250    1.296950    0.169038
     21          6           0       -3.129930    0.154798    0.671776
     22          1           0       -3.137672   -1.919598    0.529404
     23          8           0       -1.523914   -2.323510   -1.261314
     24          7           0       -1.053111    2.233597   -1.443891
     25          1           0       -0.355817    2.132391   -2.212297
     26          1           0       -1.296516    3.153570   -1.111329
     27          1           0       -2.880665    2.271844    0.553616
     28          1           0       -3.866027    0.146502    1.474601
 ---------------------------------------------------------------------

 SCF Done:  E(RHF) =  -857.499250275     A.U. after    2 cycles

 The electronic state is 1-A.
 Alpha  occ. eigenvalues --  -20.50495 -15.69040 -15.68412 -15.66694 -15.64154
 Alpha  occ. eigenvalues --  -15.62862 -15.61664 -15.60619 -15.60016 -11.37645
 Alpha  occ. eigenvalues --  -11.36811 -11.34442 -11.34319 -11.33015 -11.32200
 Alpha  occ. eigenvalues --  -11.31808 -11.26095 -11.25536  -1.33555  -1.32685
 Alpha  occ. eigenvalues --   -1.26142  -1.25688  -1.22786  -1.20676  -1.14575
 Alpha  occ. eigenvalues --   -1.13389  -1.10639  -1.05409  -1.01710  -0.89766
 Alpha  occ. eigenvalues --   -0.88274  -0.87314  -0.86389  -0.83123  -0.76989
 Alpha  occ. eigenvalues --   -0.76200  -0.75898  -0.73047  -0.72367  -0.68861
 Alpha  occ. eigenvalues --   -0.67509  -0.66688  -0.64143  -0.62795  -0.62607
 Alpha  occ. eigenvalues --   -0.61445  -0.61105  -0.60429  -0.59016  -0.58667
 Alpha  occ. eigenvalues --   -0.54601  -0.53711  -0.48993  -0.48585  -0.47991
 Alpha  occ. eigenvalues --   -0.44003  -0.43472  -0.41471  -0.41084  -0.39500
 Alpha  occ. eigenvalues --   -0.37488  -0.35955  -0.34374  -0.29769
 Alpha virt. eigenvalues --    0.01065   0.02343   0.03478   0.03952   0.05061
 Alpha virt. eigenvalues --    0.05076   0.06122   0.06513   0.07145   0.07425
 Alpha virt. eigenvalues --    0.08182   0.08640   0.09686   0.10320   0.10947

 Mulliken charges:
               1
     1  N   -0.544112
     2  C    0.547412
     3  N   -0.550788
     4  C    0.725369
     5  C    0.820670
     6  C    0.350925
     7  N   -0.951795
     8  C    1.089370
     9  N   -0.278577
    10  H   -0.387715
    11  N   -0.172002
    12  H    0.021551
    13  H   -0.024182
    14  H   -0.396074
    15  H   -0.161689
    16  N   -0.372904
    17  C    0.743635
    18  N   -0.639209
    19  C    0.472897
    20  C    0.999298
    21  C    0.561713
    22  H   -0.081480
    23  O   -0.604833
    24  N   -0.236613
    25  H    0.036969
    26  H    0.002813
    27  H   -0.602012
    28  H   -0.368635
 Sum of Mulliken charges =  -0.00000

 Dipole moment (field-independent basis, Debye):
    X=             -4.2017    Y=              4.7778    Z=              4.6630  Tot=              7.8883

 Test job not archived.
 1\1\GINC-SE365\SP\RHF\Aug-CC-pVDZ\C9H10N8O1\OHZDE\08-Apr-2025\0\\#t hf
  aug-cc-pvdz iop(5/13=1,5/36=2,99/5=2) pseudo=read geom=check guess=(r
 ead,tcheck) scf=(maxcycle=1)\\title\\0,1\N,0,-0.214386,-1.993021,0.000
 158\C,0,-1.483458,-1.537649,0.000039\N,0,-1.896987,-0.269765,-0.000126
 \C,0,-0.859092,0.583332,-0.00013\C,0,0.502351,0.258224,0.000025\C,0,0.
 818987,-1.120415,0.000169\N,0,1.293025,1.395362,-0.000018\C,0,0.430884
 ,2.385528,-0.000191\N,0,-0.88463,1.960299,-0.000268\H,0,-2.247335,-2.3
 17004,0.000055\N,0,2.078153,-1.590279,0.000313\H,0,2.839337,-0.928535,

 Normal termination of Gaussian 16 at Tue Apr  8 19:21:54 2025.
