 Gaussian 16, Revision C.01,

 ----------------------------------------------------------------------
 #t hf aug-cc-pvdz symm=none int=(grid=ultrafine) guess=(read,tcheck) s
 table=(opt,rrhf)
 ----------------------------------------------------------------------
 -----
 title
 -----
 Symbolic Z-matrix:
 Charge =  0 Multiplicity = 1

 SCF Done:  E(RHF) =  -857.257053475     A.U. after   16 cycles
 Normal termination of Gaussian 16 at Tue Apr  8 19:22:34 2025.
 Gaussian 16:  ES64L-G16RevC.01  3-Jul-2019

 ----------------------------------------------------------------------
 #t hf aug-cc-pvdz iop(5/13=1,5/36=2,99/5=2) pseudo=read geom=check gue
 ss=(read,tcheck) scf=(maxcycle=1)
 ----------------------------------------------------------------------
 -----
 title
 -----
 Structure from the checkpoint file:  "ACHC_8_dimer_mol1.chk"
 Charge =  0 Multiplicity = 1

                         Standard orientation:
 ---------------------------------------------------------------------
 Center     Atomic      Atomic             Coordinates (Angstroms)
 Number     Number       Type             X           Y           Z
 ---------------------------------------------------------------------
      1          7           0       -2.272941    1.616470    1.185473
      2          6           0       -2.246965    2.152051   -0.051615
      3          7           0       -2.232161    1.509785   -1.220294
      4          6           0       -2.246427    0.177629   -1.046629
      5          6           0       -2.273322   -0.516158    0.168755
      6          6           0       -2.286995    0.273173    1.342498
      7          7           0       -2.281416   -1.886494   -0.032148
      8          6           0       -2.259929   -2.019367   -1.338134
      9          7           0       -2.238139   -0.809541   -2.006898
     10          1           0       -2.237327    3.243024   -0.075836
     11          7           0       -2.312846   -0.245061    2.582271
     12          1           0       -2.323057   -1.248385    2.684957
     13          1           0       -2.321798    0.368338    3.403152
     14          1           0       -2.258641   -2.963797   -1.873159
     15          1           0       -2.219600   -0.661563   -3.006232
     16          7           0        2.722198   -1.576254   -0.031192
     17          6           0        2.709887   -0.718218    1.086307
     18          7           0        2.725201    0.619222    0.852669
     19          6           0        2.751113    1.100913   -0.399682
     20          6           0        2.763864    0.226024   -1.550633
     21          6           0        2.748462   -1.111134   -1.311770
     22          1           0        2.710329   -2.567051    0.172246
     23          8           0        2.685899   -1.225831    2.215420
     24          7           0        2.764924    2.429048   -0.551858
     25          1           0        2.755706    3.059757    0.278222
     26          1           0        2.784430    2.826448   -1.478080
     27          1           0        2.784852    0.617501   -2.564157
     28          1           0        2.756053   -1.857329   -2.105225
 ---------------------------------------------------------------------

 SCF Done:  E(RHF) =  -857.505918877     A.U. after    2 cycles

 The electronic state is 1-A.
 Alpha  occ. eigenvalues --  -20.50462 -15.69603 -15.68268 -15.66902 -15.64809
 Alpha  occ. eigenvalues --  -15.63562 -15.62053 -15.61033 -15.60002 -11.37611
 Alpha  occ. eigenvalues --  -11.36781 -11.34916 -11.34208 -11.33643 -11.32824
 Alpha  occ. eigenvalues --  -11.32192 -11.26197 -11.25815  -1.33432  -1.33285
 Alpha  occ. eigenvalues --   -1.26218  -1.26153  -1.22731  -1.21249  -1.15193
 Alpha  occ. eigenvalues --   -1.13394  -1.11124  -1.05191  -1.02285  -0.89635
 Alpha  occ. eigenvalues --   -0.88794  -0.87261  -0.86899  -0.83680  -0.77505
 Alpha  occ. eigenvalues --   -0.76015  -0.75849  -0.73595  -0.72384  -0.69397
 Alpha  occ. eigenvalues --   -0.67503  -0.67256  -0.63467  -0.63320  -0.62454
 Alpha  occ. eigenvalues --   -0.62098  -0.61264  -0.61032  -0.59090  -0.58936
 Alpha  occ. eigenvalues --   -0.55122  -0.53604  -0.49231  -0.48715  -0.48597
 Alpha  occ. eigenvalues --   -0.44016  -0.43975  -0.41762  -0.41375  -0.39903
 Alpha  occ. eigenvalues --   -0.37483  -0.36337  -0.34331  -0.30494
 Alpha virt. eigenvalues --    0.01196   0.02327   0.03268   0.03847   0.04682
 Alpha virt. eigenvalues --    0.04949   0.05936   0.06144   0.07202   0.07333
 Alpha virt. eigenvalues --    0.07631   0.09056   0.09576   0.09741   0.10674

 Mulliken charges:
               1
     1  N   -0.594480
     2  C    0.682269
     3  N   -0.586935
     4  C    0.613012
     5  C    0.659115
     6  C    0.483090
     7  N   -0.911301
     8  C    1.103606
     9  N   -0.497864
    10  H   -0.354153
    11  N   -0.206072
    12  H    0.017104
    13  H   -0.013060
    14  H   -0.295426
    15  H   -0.100743
    16  N   -0.533464
    17  C    0.742120
    18  N   -0.657920
    19  C    0.512051
    20  C    1.027264
    21  C    0.718279
    22  H   -0.046321
    23  O   -0.582849
    24  N   -0.257313
    25  H    0.034772
    26  H    0.001119
    27  H   -0.601867
    28  H   -0.354034
 Sum of Mulliken charges =  -0.00000

 Dipole moment (field-independent basis, Debye):
    X=              0.1209    Y=             -0.6220    Z=             -8.2275  Tot=              8.2519

 Test job not archived.
 1\1\GINC-SE046\SP\RHF\Aug-CC-pVDZ\C9H10N8O1\OHZDE\08-Apr-2025\0\\#t hf
  aug-cc-pvdz iop(5/13=1,5/36=2,99/5=2) pseudo=read geom=check guess=(r
 ead,tcheck) scf=(maxcycle=1)\\title\\0,1\N,0,-0.214386,-1.993021,0.000
 158\C,0,-1.483458,-1.537649,0.000039\N,0,-1.896987,-0.269765,-0.000126
 \C,0,-0.859092,0.583332,-0.00013\C,0,0.502351,0.258224,0.000025\C,0,0.
 818987,-1.120415,0.000169\N,0,1.293025,1.395362,-0.000018\C,0,0.430884
 ,2.385528,-0.000191\N,0,-0.88463,1.960299,-0.000268\H,0,-2.247335,-2.3
 17004,0.000055\N,0,2.078153,-1.590279,0.000313\H,0,2.839337,-0.928535,

 Normal termination of Gaussian 16 at Tue Apr  8 19:23:12 2025.
