 Gaussian 16, Revision C.01,

 ----------------------------------------------------------------------
 #t hf aug-cc-pvdz symm=none int=(grid=ultrafine) guess=(read,tcheck) s
 table=(opt,rrhf)
 ----------------------------------------------------------------------
 -----
 title
 -----
 Symbolic Z-matrix:
 Charge =  0 Multiplicity = 1

 SCF Done:  E(RHF) =  -464.584520054     A.U. after   15 cycles
 Normal termination of Gaussian 16 at Tue Apr  8 19:11:56 2025.
 Gaussian 16:  ES64L-G16RevC.01  3-Jul-2019

 ----------------------------------------------------------------------
 #t hf aug-cc-pvdz iop(5/13=1,5/36=2,99/5=2) pseudo=read geom=check gue
 ss=(read,tcheck) scf=(maxcycle=1)
 ----------------------------------------------------------------------
 -----
 title
 -----
 Structure from the checkpoint file:  "ACHC_13_dimer_mol2.chk"
 Charge =  0 Multiplicity = 1

                         Standard orientation:
 ---------------------------------------------------------------------
 Center     Atomic      Atomic             Coordinates (Angstroms)
 Number     Number       Type             X           Y           Z
 ---------------------------------------------------------------------
      1          7           0       -1.934417    0.534298    0.000156
      2          6           0       -1.287433    1.717227    0.000037
      3          7           0        0.029298    1.928781   -0.000128
      4          6           0        0.710811    0.770964   -0.000132
      5          6           0        0.178162   -0.523449    0.000023
      6          6           0       -1.232929   -0.622082    0.000167
      7          7           0        1.178672   -1.481170   -0.000020
      8          6           0        2.290744   -0.783308   -0.000193
      9          7           0        2.075030    0.582293   -0.000270
     10          1           0       -1.938666    2.592897    0.000053
     11          7           0       -1.892689   -1.792974    0.000311
     12          1           0       -1.357221   -2.647714    0.000352
     13          1           0       -2.917268   -1.813536    0.000505
     14          1           0        3.293182   -1.199625   -0.000274
     15          1           0        2.772586    1.313270   -0.000410
 ---------------------------------------------------------------------

 SCF Done:  E(RHF) =  -464.716734138     A.U. after    2 cycles

 The electronic state is 1-A.
 Alpha  occ. eigenvalues --  -15.69592 -15.65486 -15.63619 -15.62206 -15.61383
 Alpha  occ. eigenvalues --  -11.35268 -11.33742 -11.32973 -11.32340 -11.26415
 Alpha  occ. eigenvalues --   -1.33383  -1.26540  -1.21629  -1.15363  -1.11419
 Alpha  occ. eigenvalues --   -1.02485  -0.89042  -0.87097  -0.83750  -0.77800
 Alpha  occ. eigenvalues --   -0.73977  -0.69672  -0.67532  -0.63579  -0.63522
 Alpha  occ. eigenvalues --   -0.61318  -0.59235  -0.55487  -0.49524  -0.48720
 Alpha  occ. eigenvalues --   -0.44214  -0.42015  -0.40138  -0.36577  -0.30748
 Alpha virt. eigenvalues --    0.02486   0.03380   0.04047   0.05625   0.06593
 Alpha virt. eigenvalues --    0.07278   0.09336   0.09978   0.10782   0.11504
 Alpha virt. eigenvalues --    0.12821   0.12993   0.13629   0.13873   0.14208

 Mulliken charges:
               1
     1  N   -0.613574
     2  C    0.633099
     3  N   -0.574981
     4  C    0.496052
     5  C    0.787188
     6  C    0.461502
     7  N   -0.916456
     8  C    1.004387
     9  N   -0.456507
    10  H   -0.307405
    11  N   -0.184305
    12  H    0.012466
    13  H   -0.015403
    14  H   -0.233961
    15  H   -0.092103
 Sum of Mulliken charges =  -0.00000

 Dipole moment (field-independent basis, Debye):
    X=              2.1025    Y=             -1.1729    Z=              0.0000  Tot=              2.4075

 Test job not archived.
 1\1\GINC-SE247\SP\RHF\Aug-CC-pVDZ\C5H5N5\OHZDE\08-Apr-2025\0\\#t hf au
 g-cc-pvdz iop(5/13=1,5/36=2,99/5=2) pseudo=read geom=check guess=(read
 ,tcheck) scf=(maxcycle=1)\\title\\0,1\N,0,-0.214386,-1.993021,0.000158
 \C,0,-1.483458,-1.537649,0.000039\N,0,-1.896987,-0.269765,-0.000126\C,
 0,-0.859092,0.583332,-0.00013\C,0,0.502351,0.258224,0.000025\C,0,0.818
 987,-1.120415,0.000169\N,0,1.293025,1.395362,-0.000018\C,0,0.430884,2.
 385528,-0.000191\N,0,-0.88463,1.960299,-0.000268\H,0,-2.247335,-2.3170
 04,0.000055\N,0,2.078153,-1.590279,0.000313\H,0,2.839337,-0.928535,0.0

 Normal termination of Gaussian 16 at Tue Apr  8 19:12:03 2025.
