 Gaussian 16, Revision C.01,

 ----------------------------------------------------------------------
 #t hf aug-cc-pvdz symm=none int=(grid=ultrafine) guess=(read,tcheck) s
 table=(opt,rrhf)
 ----------------------------------------------------------------------
 -----
 title
 -----
 Symbolic Z-matrix:
 Charge =  0 Multiplicity = 1

 SCF Done:  E(RHF) =  -857.254245211     A.U. after   16 cycles
 Normal termination of Gaussian 16 at Tue Apr  8 19:24:07 2025.
 Gaussian 16:  ES64L-G16RevC.01  3-Jul-2019

 ----------------------------------------------------------------------
 #t hf aug-cc-pvdz iop(5/13=1,5/36=2,99/5=2) pseudo=read geom=check gue
 ss=(read,tcheck) scf=(maxcycle=1)
 ----------------------------------------------------------------------
 -----
 title
 -----
 Structure from the checkpoint file:  "ACHC_52_dimer_mol1.chk"
 Charge =  0 Multiplicity = 1

                         Standard orientation:
 ---------------------------------------------------------------------
 Center     Atomic      Atomic             Coordinates (Angstroms)
 Number     Number       Type             X           Y           Z
 ---------------------------------------------------------------------
      1          7           0       -1.833075    1.222639    1.365066
      2          6           0       -1.757991    2.012600    0.275006
      3          7           0       -1.614138    1.638827   -0.997054
      4          6           0       -1.544816    0.301813   -1.109248
      5          6           0       -1.607894   -0.637776   -0.073672
      6          6           0       -1.761561   -0.121645    1.234341
      7          7           0       -1.503109   -1.931032   -0.558189
      8          6           0       -1.379513   -1.778220   -1.856299
      9          7           0       -1.397421   -0.453468   -2.251402
     10          1           0       -1.825169    3.082034    0.481645
     11          7           0       -1.837960   -0.895264    2.330675
     12          1           0       -1.783224   -1.896165    2.218841
     13          1           0       -1.949237   -0.474433    3.258416
     14          1           0       -1.272328   -2.583770   -2.575885
     15          1           0       -1.318720   -0.093013   -3.192035
     16          7           0        2.305471   -1.387742   -0.161900
     17          6           0        1.868110   -0.822052    1.052139
     18          7           0        1.636975    0.515705    1.075571
     19          6           0        1.820177    1.267164   -0.021164
     20          6           0        2.268749    0.693017   -1.269932
     21          6           0        2.498632   -0.645675   -1.288369
     22          1           0        2.469781   -2.385780   -0.150541
     23          8           0        1.718520   -1.569949    2.027544
     24          7           0        1.572439    2.577186    0.077633
     25          1           0        1.248962    2.991002    0.978204
     26          1           0        1.699178    3.172451   -0.725978
     27          1           0        2.416667    1.302751   -2.157216
     28          1           0        2.838298   -1.178806   -2.175406
 ---------------------------------------------------------------------

 SCF Done:  E(RHF) =  -857.502553215     A.U. after    2 cycles

 The electronic state is 1-A.
 Alpha  occ. eigenvalues --  -20.50369 -15.69274 -15.68050 -15.66413 -15.63894
 Alpha  occ. eigenvalues --  -15.63215 -15.61635 -15.60505 -15.59685 -11.37449
 Alpha  occ. eigenvalues --  -11.36483 -11.34326 -11.34006 -11.33243 -11.32427
 Alpha  occ. eigenvalues --  -11.31911 -11.25702 -11.25622  -1.33365  -1.32862
 Alpha  occ. eigenvalues --   -1.25917  -1.25644  -1.22467  -1.20615  -1.14733
 Alpha  occ. eigenvalues --   -1.13095  -1.10595  -1.04977  -1.01845  -0.89391
 Alpha  occ. eigenvalues --   -0.88317  -0.87002  -0.86477  -0.83306  -0.76968
 Alpha  occ. eigenvalues --   -0.75793  -0.75571  -0.73002  -0.72079  -0.68896
 Alpha  occ. eigenvalues --   -0.67203  -0.66714  -0.63765  -0.62864  -0.62288
 Alpha  occ. eigenvalues --   -0.61310  -0.61035  -0.60479  -0.58788  -0.58765
 Alpha  occ. eigenvalues --   -0.54789  -0.53295  -0.48692  -0.48352  -0.48235
 Alpha  occ. eigenvalues --   -0.43887  -0.43615  -0.41288  -0.41121  -0.39463
 Alpha  occ. eigenvalues --   -0.37294  -0.35898  -0.34146  -0.29845
 Alpha virt. eigenvalues --    0.01203   0.02409   0.03348   0.04025   0.05076
 Alpha virt. eigenvalues --    0.05314   0.06210   0.06344   0.07332   0.07592
 Alpha virt. eigenvalues --    0.08267   0.09091   0.09684   0.09929   0.10942

 Mulliken charges:
               1
     1  N   -0.637568
     2  C    0.721754
     3  N   -0.577442
     4  C    0.540047
     5  C    1.055406
     6  C    0.378588
     7  N   -0.987142
     8  C    0.989187
     9  N   -0.417219
    10  H   -0.393233
    11  N   -0.199213
    12  H    0.018410
    13  H   -0.021640
    14  H   -0.334047
    15  H   -0.130771
    16  N   -0.518544
    17  C    0.743838
    18  N   -0.632379
    19  C    0.632493
    20  C    0.932703
    21  C    0.739094
    22  H   -0.073106
    23  O   -0.618058
    24  N   -0.243137
    25  H    0.031928
    26  H   -0.001097
    27  H   -0.626675
    28  H   -0.372176
 Sum of Mulliken charges =   0.00000

 Dipole moment (field-independent basis, Debye):
    X=              1.6426    Y=              1.1548    Z=             -7.6065  Tot=              7.8671

 Test job not archived.
 1\1\GINC-SE460\SP\RHF\Aug-CC-pVDZ\C9H10N8O1\OHZDE\08-Apr-2025\0\\#t hf
  aug-cc-pvdz iop(5/13=1,5/36=2,99/5=2) pseudo=read geom=check guess=(r
 ead,tcheck) scf=(maxcycle=1)\\title\\0,1\N,0,-0.214386,-1.993021,0.000
 158\C,0,-1.483458,-1.537649,0.000039\N,0,-1.896987,-0.269765,-0.000126
 \C,0,-0.859092,0.583332,-0.00013\C,0,0.502351,0.258224,0.000025\C,0,0.
 818987,-1.120415,0.000169\N,0,1.293025,1.395362,-0.000018\C,0,0.430884
 ,2.385528,-0.000191\N,0,-0.88463,1.960299,-0.000268\H,0,-2.247335,-2.3
 17004,0.000055\N,0,2.078153,-1.590279,0.000313\H,0,2.839337,-0.928535,

 Normal termination of Gaussian 16 at Tue Apr  8 19:24:49 2025.
