 Gaussian 16, Revision C.01,

 ----------------------------------------------------------------------
 #t hf aug-cc-pvdz symm=none int=(grid=ultrafine) guess=(read,tcheck) s
 table=(opt,rrhf)
 ----------------------------------------------------------------------
 -----
 title
 -----
 Symbolic Z-matrix:
 Charge =  0 Multiplicity = 1

 SCF Done:  E(RHF) =  -857.250249449     A.U. after   16 cycles
 Normal termination of Gaussian 16 at Tue Apr  8 19:24:18 2025.
 Gaussian 16:  ES64L-G16RevC.01  3-Jul-2019

 ----------------------------------------------------------------------
 #t hf aug-cc-pvdz iop(5/13=1,5/36=2,99/5=2) pseudo=read geom=check gue
 ss=(read,tcheck) scf=(maxcycle=1)
 ----------------------------------------------------------------------
 -----
 title
 -----
 Structure from the checkpoint file:  "ACHC_21_dimer_mol1.chk"
 Charge =  0 Multiplicity = 1

                         Standard orientation:
 ---------------------------------------------------------------------
 Center     Atomic      Atomic             Coordinates (Angstroms)
 Number     Number       Type             X           Y           Z
 ---------------------------------------------------------------------
      1          7           0        2.539897    0.505740   -1.141114
      2          6           0        2.276482    1.658619   -0.493510
      3          7           0        1.609720    1.819849    0.650155
      4          6           0        1.189178    0.642242    1.141464
      5          6           0        1.386932   -0.625847    0.582834
      6          6           0        2.109120   -0.671184   -0.632605
      7          7           0        0.813709   -1.616283    1.363026
      8          6           0        0.281488   -0.963486    2.370157
      9          7           0        0.474086    0.403446    2.293987
     10          1           0        2.664608    2.554339   -0.981308
     11          7           0        2.379824   -1.811605   -1.290200
     12          1           0        2.052633   -2.682161   -0.899837
     13          1           0        2.907158   -1.793713   -2.168712
     14          1           0       -0.260500   -1.415264    3.194990
     15          1           0        0.157712    1.104707    2.949008
     16          7           0       -2.410550   -1.122240    0.190308
     17          6           0       -1.684027   -1.079339   -1.016134
     18          7           0       -1.283751    0.137444   -1.466452
     19          6           0       -1.572546    1.255671   -0.782899
     20          6           0       -2.317599    1.218623    0.455570
     21          6           0       -2.715837   -0.000973    0.901973
     22          1           0       -2.695835   -2.041321    0.501932
     23          8           0       -1.450334   -2.146781   -1.598456
     24          7           0       -1.145464    2.417517   -1.287882
     25          1           0       -0.608205    2.444014   -2.180944
     26          1           0       -1.344071    3.277794   -0.801391
     27          1           0       -2.550725    2.124932    1.008003
     28          1           0       -3.281548   -0.142116    1.822019
 ---------------------------------------------------------------------

 SCF Done:  E(RHF) =  -857.498550776     A.U. after    2 cycles

 The electronic state is 1-A.
 Alpha  occ. eigenvalues --  -20.50404 -15.69255 -15.68091 -15.66447 -15.64106
 Alpha  occ. eigenvalues --  -15.63204 -15.61739 -15.60677 -15.59754 -11.37480
 Alpha  occ. eigenvalues --  -11.36565 -11.34435 -11.34173 -11.33284 -11.32426
 Alpha  occ. eigenvalues --  -11.31964 -11.25755 -11.25748  -1.33452  -1.32873
 Alpha  occ. eigenvalues --   -1.25955  -1.25766  -1.22534  -1.20745  -1.14798
 Alpha  occ. eigenvalues --   -1.13154  -1.10724  -1.05118  -1.01917  -0.89507
 Alpha  occ. eigenvalues --   -0.88422  -0.87079  -0.86548  -0.83363  -0.77096
 Alpha  occ. eigenvalues --   -0.75909  -0.75649  -0.73136  -0.72148  -0.69001
 Alpha  occ. eigenvalues --   -0.67287  -0.66819  -0.64350  -0.62961  -0.62389
 Alpha  occ. eigenvalues --   -0.61179  -0.60866  -0.60585  -0.58857  -0.58823
 Alpha  occ. eigenvalues --   -0.54932  -0.53471  -0.48653  -0.48563  -0.48238
 Alpha  occ. eigenvalues --   -0.43909  -0.43677  -0.41449  -0.41205  -0.39596
 Alpha  occ. eigenvalues --   -0.37374  -0.36013  -0.34141  -0.29873
 Alpha virt. eigenvalues --    0.01076   0.02348   0.03494   0.03944   0.05088
 Alpha virt. eigenvalues --    0.05177   0.06256   0.06357   0.07258   0.07464
 Alpha virt. eigenvalues --    0.08176   0.08736   0.09647   0.10014   0.10914

 Mulliken charges:
               1
     1  N   -0.585969
     2  C    0.620281
     3  N   -0.572209
     4  C    0.670207
     5  C    1.010481
     6  C    0.406753
     7  N   -1.015419
     8  C    0.989108
     9  N   -0.313596
    10  H   -0.396842
    11  N   -0.196482
    12  H    0.020312
    13  H   -0.022834
    14  H   -0.385364
    15  H   -0.155242
    16  N   -0.402033
    17  C    0.720943
    18  N   -0.709280
    19  C    0.607070
    20  C    0.948642
    21  C    0.699787
    22  H   -0.083906
    23  O   -0.620524
    24  N   -0.227935
    25  H    0.026349
    26  H   -0.001776
    27  H   -0.633262
    28  H   -0.397260
 Sum of Mulliken charges =  -0.00000

 Dipole moment (field-independent basis, Debye):
    X=             -3.1788    Y=              4.0310    Z=              5.9110  Tot=              7.8290

 Test job not archived.
 1\1\GINC-SE342\SP\RHF\Aug-CC-pVDZ\C9H10N8O1\OHZDE\08-Apr-2025\0\\#t hf
  aug-cc-pvdz iop(5/13=1,5/36=2,99/5=2) pseudo=read geom=check guess=(r
 ead,tcheck) scf=(maxcycle=1)\\title\\0,1\N,0,-0.214386,-1.993021,0.000
 158\C,0,-1.483458,-1.537649,0.000039\N,0,-1.896987,-0.269765,-0.000126
 \C,0,-0.859092,0.583332,-0.00013\C,0,0.502351,0.258224,0.000025\C,0,0.
 818987,-1.120415,0.000169\N,0,1.293025,1.395362,-0.000018\C,0,0.430884
 ,2.385528,-0.000191\N,0,-0.88463,1.960299,-0.000268\H,0,-2.247335,-2.3
 17004,0.000055\N,0,2.078153,-1.590279,0.000313\H,0,2.839337,-0.928535,

 Normal termination of Gaussian 16 at Tue Apr  8 19:25:00 2025.
