 Gaussian 16, Revision C.01,

 ----------------------------------------------------------------------
 #t hf aug-cc-pvdz symm=none int=(grid=ultrafine) guess=(read,tcheck) s
 table=(opt,rrhf)
 ----------------------------------------------------------------------
 -----
 title
 -----
 Symbolic Z-matrix:
 Charge =  0 Multiplicity = 1

 SCF Done:  E(RHF) =  -857.253680696     A.U. after   16 cycles
 Normal termination of Gaussian 16 at Tue Apr  8 19:25:10 2025.
 Gaussian 16:  ES64L-G16RevC.01  3-Jul-2019

 ----------------------------------------------------------------------
 #t hf aug-cc-pvdz iop(5/13=1,5/36=2,99/5=2) pseudo=read geom=check gue
 ss=(read,tcheck) scf=(maxcycle=1)
 ----------------------------------------------------------------------
 -----
 title
 -----
 Structure from the checkpoint file:  "ACHC_12_dimer_mol1.chk"
 Charge =  0 Multiplicity = 1

                         Standard orientation:
 ---------------------------------------------------------------------
 Center     Atomic      Atomic             Coordinates (Angstroms)
 Number     Number       Type             X           Y           Z
 ---------------------------------------------------------------------
      1          7           0        1.382249    1.763685    1.130903
      2          6           0        1.442024    0.780049    2.051118
      3          7           0        1.550990   -0.532103    1.839172
      4          6           0        1.600028   -0.813191    0.526318
      5          6           0        1.548918    0.097292   -0.535582
      6          6           0        1.432913    1.463246   -0.186849
      7          7           0        1.625209   -0.548436   -1.758473
      8          6           0        1.720254   -1.819714   -1.444572
      9          7           0        1.710548   -2.044561   -0.080480
     10          1           0        1.393827    1.121111    3.086616
     11          7           0        1.372137    2.455188   -1.091631
     12          1           0        1.410939    2.217068   -2.070967
     13          1           0        1.288111    3.430951   -0.789952
     14          1           0        1.799849   -2.637317   -2.154074
     15          1           0        1.771881   -2.934083    0.394811
     16          7           0       -1.802362   -1.102228    1.204068
     17          6           0       -1.751031   -1.395067   -0.173172
     18          7           0       -1.816394   -0.352686   -1.040776
     19          6           0       -1.925895    0.909065   -0.596844
     20          6           0       -1.979078    1.216383    0.814897
     21          6           0       -1.913342    0.170220    1.678901
     22          1           0       -1.751712   -1.897472    1.827147
     23          8           0       -1.649654   -2.580083   -0.517560
     24          7           0       -1.984928    1.883622   -1.510104
     25          1           0       -1.946541    1.661806   -2.528060
     26          1           0       -2.067391    2.843412   -1.213124
     27          1           0       -2.067761    2.238579    1.172916
     28          1           0       -1.944855    0.289547    2.761123
 ---------------------------------------------------------------------

 SCF Done:  E(RHF) =  -857.501942538     A.U. after    2 cycles

 The electronic state is 1-A.
 Alpha  occ. eigenvalues --  -20.50501 -15.68438 -15.67762 -15.66699 -15.65522
 Alpha  occ. eigenvalues --  -15.62328 -15.62265 -15.61357 -15.59645 -11.37494
 Alpha  occ. eigenvalues --  -11.36417 -11.35020 -11.33468 -11.32679 -11.32406
 Alpha  occ. eigenvalues --  -11.32301 -11.25919 -11.25106  -1.33414  -1.32456
 Alpha  occ. eigenvalues --   -1.26364  -1.25888  -1.22368  -1.21502  -1.14503
 Alpha  occ. eigenvalues --   -1.13123  -1.11207  -1.04619  -1.01967  -0.89197
 Alpha  occ. eigenvalues --   -0.88574  -0.86950  -0.86722  -0.82767  -0.77470
 Alpha  occ. eigenvalues --   -0.75634  -0.75356  -0.73724  -0.72101  -0.69241
 Alpha  occ. eigenvalues --   -0.67182  -0.67055  -0.64133  -0.63046  -0.62145
 Alpha  occ. eigenvalues --   -0.60794  -0.60693  -0.60585  -0.58853  -0.58750
 Alpha  occ. eigenvalues --   -0.55728  -0.53194  -0.49865  -0.48263  -0.47705
 Alpha  occ. eigenvalues --   -0.44018  -0.43724  -0.41649  -0.40920  -0.40034
 Alpha  occ. eigenvalues --   -0.37137  -0.36759  -0.33440  -0.30194
 Alpha virt. eigenvalues --    0.01779   0.02515   0.03551   0.04015   0.04968
 Alpha virt. eigenvalues --    0.05467   0.05684   0.06963   0.07325   0.07684
 Alpha virt. eigenvalues --    0.08271   0.09218   0.09554   0.10733   0.10892

 Mulliken charges:
               1
     1  N   -0.598689
     2  C    0.641646
     3  N   -0.622897
     4  C    0.797288
     5  C    0.970329
     6  C    0.367989
     7  N   -1.050010
     8  C    1.091179
     9  N   -0.467021
    10  H   -0.398414
    11  N   -0.215587
    12  H    0.013363
    13  H   -0.031476
    14  H   -0.331223
    15  H   -0.124990
    16  N   -0.465373
    17  C    0.825182
    18  N   -0.683311
    19  C    0.333000
    20  C    1.275609
    21  C    0.671384
    22  H   -0.077867
    23  O   -0.638871
    24  N   -0.238597
    25  H    0.018551
    26  H   -0.001653
    27  H   -0.658261
    28  H   -0.401282
 Sum of Mulliken charges =   0.00000

 Dipole moment (field-independent basis, Debye):
    X=             -0.3500    Y=              4.7498    Z=              1.7247  Tot=              5.0654

 Test job not archived.
 1\1\GINC-SE186\SP\RHF\Aug-CC-pVDZ\C9H10N8O1\OHZDE\08-Apr-2025\0\\#t hf
  aug-cc-pvdz iop(5/13=1,5/36=2,99/5=2) pseudo=read geom=check guess=(r
 ead,tcheck) scf=(maxcycle=1)\\title\\0,1\N,0,-0.214386,-1.993021,0.000
 158\C,0,-1.483458,-1.537649,0.000039\N,0,-1.896987,-0.269765,-0.000126
 \C,0,-0.859092,0.583332,-0.00013\C,0,0.502351,0.258224,0.000025\C,0,0.
 818987,-1.120415,0.000169\N,0,1.293025,1.395362,-0.000018\C,0,0.430884
 ,2.385528,-0.000191\N,0,-0.88463,1.960299,-0.000268\H,0,-2.247335,-2.3
 17004,0.000055\N,0,2.078153,-1.590279,0.000313\H,0,2.839337,-0.928535,

 Normal termination of Gaussian 16 at Tue Apr  8 19:25:55 2025.
