 Gaussian 16, Revision C.01,

 ----------------------------------------------------------------------
 #t hf aug-cc-pvdz symm=none int=(grid=ultrafine) guess=(read,tcheck) s
 table=(opt,rrhf)
 ----------------------------------------------------------------------
 -----
 title
 -----
 Symbolic Z-matrix:
 Charge =  0 Multiplicity = 1

 SCF Done:  E(RHF) =  -857.251278231     A.U. after   16 cycles
 Normal termination of Gaussian 16 at Tue Apr  8 19:25:00 2025.
 Gaussian 16:  ES64L-G16RevC.01  3-Jul-2019

 ----------------------------------------------------------------------
 #t hf aug-cc-pvdz iop(5/13=1,5/36=2,99/5=2) pseudo=read geom=check gue
 ss=(read,tcheck) scf=(maxcycle=1)
 ----------------------------------------------------------------------
 -----
 title
 -----
 Structure from the checkpoint file:  "ACHC_9_dimer_mol1.chk"
 Charge =  0 Multiplicity = 1

                         Standard orientation:
 ---------------------------------------------------------------------
 Center     Atomic      Atomic             Coordinates (Angstroms)
 Number     Number       Type             X           Y           Z
 ---------------------------------------------------------------------
      1          7           0       -1.478451    2.003234    0.418440
      2          6           0       -1.419734    2.000274   -0.928575
      3          7           0       -1.427936    0.945672   -1.744837
      4          6           0       -1.505844   -0.205326   -1.056263
      5          6           0       -1.572779   -0.355948    0.333721
      6          6           0       -1.556569    0.835390    1.096186
      7          7           0       -1.644012   -1.691364    0.694052
      8          6           0       -1.620761   -2.334131   -0.450512
      9          7           0       -1.538041   -1.492719   -1.544395
     10          1           0       -1.358700    2.989969   -1.384297
     11          7           0       -1.614363    0.855311    2.438771
     12          1           0       -1.672334   -0.022790    2.931604
     13          1           0       -1.599533    1.744705    2.947635
     14          1           0       -1.660558   -3.412713   -0.565753
     15          1           0       -1.506426   -1.755874   -2.519414
     16          7           0        1.803606   -1.613078   -0.176728
     17          6           0        1.780842   -0.886987    1.030522
     18          7           0        1.840465    0.467171    0.951341
     19          6           0        1.918171    1.086387   -0.236772
     20          6           0        1.941933    0.347328   -1.479154
     21          6           0        1.882070   -1.007136   -1.394753
     22          1           0        1.757981   -2.619677   -0.087937
     23          8           0        1.708120   -1.518066    2.093345
     24          7           0        1.973534    2.422136   -0.236155
     25          1           0        1.956367    2.954884    0.659832
     26          1           0        2.032489    2.920952   -1.110169
     27          1           0        2.004884    0.850092   -2.440503
     28          1           0        1.893279   -1.658666   -2.267576
 ---------------------------------------------------------------------

 SCF Done:  E(RHF) =  -857.499354326     A.U. after    2 cycles

 The electronic state is 1-A.
 Alpha  occ. eigenvalues --  -20.50161 -15.69596 -15.67877 -15.66420 -15.64483
 Alpha  occ. eigenvalues --  -15.63263 -15.62136 -15.61052 -15.59644 -11.37271
 Alpha  occ. eigenvalues --  -11.36344 -11.34839 -11.33674 -11.33338 -11.32758
 Alpha  occ. eigenvalues --  -11.32373 -11.26071 -11.25287  -1.33416  -1.32935
 Alpha  occ. eigenvalues --   -1.26221  -1.25720  -1.22334  -1.21091  -1.15013
 Alpha  occ. eigenvalues --   -1.13026  -1.11112  -1.04710  -1.02202  -0.89225
 Alpha  occ. eigenvalues --   -0.88727  -0.86921  -0.86850  -0.83590  -0.77406
 Alpha  occ. eigenvalues --   -0.75636  -0.75403  -0.73462  -0.71976  -0.69258
 Alpha  occ. eigenvalues --   -0.67118  -0.67077  -0.64481  -0.63233  -0.62011
 Alpha  occ. eigenvalues --   -0.60873  -0.60847  -0.60736  -0.59165  -0.58568
 Alpha  occ. eigenvalues --   -0.55596  -0.52927  -0.49325  -0.48558  -0.47983
 Alpha  occ. eigenvalues --   -0.43933  -0.43655  -0.41574  -0.41009  -0.39958
 Alpha  occ. eigenvalues --   -0.37578  -0.36123  -0.33758  -0.30302
 Alpha virt. eigenvalues --    0.01316   0.02289   0.03629   0.03921   0.04841
 Alpha virt. eigenvalues --    0.05446   0.05464   0.07054   0.07338   0.07547
 Alpha virt. eigenvalues --    0.08399   0.09419   0.09531   0.09806   0.10962

 Mulliken charges:
               1
     1  N   -0.604709
     2  C    0.628499
     3  N   -0.591379
     4  C    0.726868
     5  C    0.952811
     6  C    0.503626
     7  N   -0.934093
     8  C    0.890867
     9  N   -0.447829
    10  H   -0.412677
    11  N   -0.225276
    12  H    0.021990
    13  H   -0.026162
    14  H   -0.358229
    15  H   -0.129766
    16  N   -0.439747
    17  C    0.831432
    18  N   -0.735678
    19  C    0.641850
    20  C    1.013613
    21  C    0.691058
    22  H   -0.078472
    23  O   -0.628616
    24  N   -0.231087
    25  H    0.023343
    26  H   -0.008018
    27  H   -0.632979
    28  H   -0.441240
 Sum of Mulliken charges =  -0.00000

 Dipole moment (field-independent basis, Debye):
    X=              0.1753    Y=              0.1774    Z=             -6.7198  Tot=              6.7244

 Test job not archived.
 1\1\GINC-SE109\SP\RHF\Aug-CC-pVDZ\C9H10N8O1\OHZDE\08-Apr-2025\0\\#t hf
  aug-cc-pvdz iop(5/13=1,5/36=2,99/5=2) pseudo=read geom=check guess=(r
 ead,tcheck) scf=(maxcycle=1)\\title\\0,1\N,0,-0.214386,-1.993021,0.000
 158\C,0,-1.483458,-1.537649,0.000039\N,0,-1.896987,-0.269765,-0.000126
 \C,0,-0.859092,0.583332,-0.00013\C,0,0.502351,0.258224,0.000025\C,0,0.
 818987,-1.120415,0.000169\N,0,1.293025,1.395362,-0.000018\C,0,0.430884
 ,2.385528,-0.000191\N,0,-0.88463,1.960299,-0.000268\H,0,-2.247335,-2.3
 17004,0.000055\N,0,2.078153,-1.590279,0.000313\H,0,2.839337,-0.928535,

 Normal termination of Gaussian 16 at Tue Apr  8 19:25:45 2025.
