 Gaussian 16, Revision C.01,

 ----------------------------------------------------------------------
 #t hf aug-cc-pvdz symm=none int=(grid=ultrafine) guess=(read,tcheck) s
 table=(opt,rrhf)
 ----------------------------------------------------------------------
 -----
 title
 -----
 Symbolic Z-matrix:
 Charge =  0 Multiplicity = 1

 SCF Done:  E(RHF) =  -115.059868479     A.U. after   11 cycles
 Normal termination of Gaussian 16 at Tue Apr  8 22:16:08 2025.
 Gaussian 16:  ES64L-G16RevC.01  3-Jul-2019

 ----------------------------------------------------------------------
 #t hf aug-cc-pvdz iop(5/13=1,5/36=2,99/5=2) pseudo=read geom=check gue
 ss=(read,tcheck) scf=(maxcycle=1)
 ----------------------------------------------------------------------
 -----
 title
 -----
 Structure from the checkpoint file:  "AlcoholCONF_1_2_mol1.chk"
 Charge =  0 Multiplicity = 1

                         Standard orientation:
 ---------------------------------------------------------------------
 Center     Atomic      Atomic             Coordinates (Angstroms)
 Number     Number       Type             X           Y           Z
 ---------------------------------------------------------------------
      1          6           0        0.666866    0.018356   -0.000001
      2          1           0        1.078602   -0.461984   -0.883947
      3          8           0       -0.748412   -0.124226   -0.000002
      4          1           0       -1.144013    0.746055    0.000002
      5          1           0        0.972933    1.061606    0.000013
      6          1           0        1.078576   -0.462000    0.883954
 ---------------------------------------------------------------------

 SCF Done:  E(RHF) =  -115.100173349     A.U. after    2 cycles

 The electronic state is 1-A.
 Alpha  occ. eigenvalues --  -20.57042 -11.28239  -1.31847  -0.92847  -0.70545
 Alpha  occ. eigenvalues --   -0.62885  -0.60670  -0.51435  -0.46371
 Alpha virt. eigenvalues --    0.03353   0.05257   0.06084   0.06309   0.11480
 Alpha virt. eigenvalues --    0.14354   0.14921   0.17039   0.21117   0.22408
 Alpha virt. eigenvalues --    0.23598   0.26708   0.29334   0.32231   0.35845

 Mulliken charges:
               1
     1  C    0.824238
     2  H   -0.132913
     3  O   -0.505444
     4  H    0.126768
     5  H   -0.179744
     6  H   -0.132905
 Sum of Mulliken charges =   0.00000

 Dipole moment (field-independent basis, Debye):
    X=              0.9983    Y=              1.6742    Z=              0.0000  Tot=              1.9492

 Test job not archived.
 1\1\GINC-SE036\SP\RHF\Aug-CC-pVDZ\C1H4O1\OHZDE\08-Apr-2025\0\\#t hf au
 g-cc-pvdz iop(5/13=1,5/36=2,99/5=2) pseudo=read geom=check guess=(read
 ,tcheck) scf=(maxcycle=1)\\title\\0,1\C,0,-0.7295,0.01696,0.00455\H,0,
 -1.11588,-0.45765,0.90292\O,0,0.69028,-0.06969,-0.003\H,0,1.05111,0.81
 525,-0.02693\H,0,-1.07662,1.04703,-0.0181\H,0,-1.12787,-0.50055,-0.864
 42\\Version=ES64L-G16RevC.01\State=1-A\HF=-115.1001733\RMSD=2.304e-03\
 Dipole=-0.4185005,0.6424908,-0.0127465\Quadrupole=-0.1478101,0.7090303
 ,-0.5612202,1.644901,-0.0427605,-0.0420452\PG=C01 [X(C1H4O1)]\\@

 Normal termination of Gaussian 16 at Tue Apr  8 22:16:10 2025.
