 Gaussian 16, Revision C.01,

 ----------------------------------------------------------------------
 #t hf aug-cc-pvdz symm=none int=(grid=ultrafine) guess=(read,tcheck) s
 table=(opt,rrhf)
 ----------------------------------------------------------------------
 -----
 title
 -----
 Symbolic Z-matrix:
 Charge =  0 Multiplicity = 1

 SCF Done:  E(RHF) =  -193.135272969     A.U. after   12 cycles
 Normal termination of Gaussian 16 at Tue Apr  8 22:16:11 2025.
 Gaussian 16:  ES64L-G16RevC.01  3-Jul-2019

 ----------------------------------------------------------------------
 #t hf aug-cc-pvdz iop(5/13=1,5/36=2,99/5=2) pseudo=read geom=check gue
 ss=(read,tcheck) scf=(maxcycle=1)
 ----------------------------------------------------------------------
 -----
 title
 -----
 Structure from the checkpoint file:  "AlcoholCONF_4_13_mol1.chk"
 Charge =  0 Multiplicity = 1

                         Standard orientation:
 ---------------------------------------------------------------------
 Center     Atomic      Atomic             Coordinates (Angstroms)
 Number     Number       Type             X           Y           Z
 ---------------------------------------------------------------------
      1          6           0       -1.427534   -0.573867   -0.024281
      2          1           0       -1.159262   -1.146247   -0.906839
      3          1           0       -2.500178   -0.396824   -0.040685
      4          6           0       -0.681381    0.752110    0.024661
      5          1           0       -0.995744    1.360537   -0.821379
      6          6           0        0.856942    0.617655    0.002109
      7          1           0        1.262551    1.112866   -0.874639
      8          8           0        1.337893   -0.717366   -0.091575
      9          1           0        1.110507   -1.178119    0.717975
     10          1           0        1.287822    1.105862    0.877257
     11          1           0       -0.981622    1.296077    0.919030
     12          1           0       -1.215380   -1.190607    0.846950
 ---------------------------------------------------------------------

 SCF Done:  E(RHF) =  -193.199409623     A.U. after    2 cycles

 The electronic state is 1-A.
 Alpha  occ. eigenvalues --  -20.56682 -11.28077 -11.22928 -11.22281  -1.31808
 Alpha  occ. eigenvalues --   -1.03984  -0.92569  -0.80878  -0.69759  -0.63883
 Alpha  occ. eigenvalues --   -0.62872  -0.58510  -0.53612  -0.51857  -0.50293
 Alpha  occ. eigenvalues --   -0.46387  -0.44624
 Alpha virt. eigenvalues --    0.03387   0.04695   0.04844   0.05277   0.06979
 Alpha virt. eigenvalues --    0.07257   0.07878   0.08266   0.11522   0.13898
 Alpha virt. eigenvalues --    0.14881   0.15250   0.15968   0.16556   0.17202

 Mulliken charges:
               1
     1  C    0.438333
     2  H   -0.052636
     3  H   -0.123341
     4  C   -0.071611
     5  H   -0.053007
     6  C    0.763069
     7  H   -0.204480
     8  O   -0.529742
     9  H    0.145549
    10  H   -0.106035
    11  H   -0.109802
    12  H   -0.096297
 Sum of Mulliken charges =  -0.00000

 Dipole moment (field-independent basis, Debye):
    X=             -1.0576    Y=              0.7688    Z=              1.2922  Tot=              1.8383

 Test job not archived.
 1\1\GINC-SE365\SP\RHF\Aug-CC-pVDZ\C3H8O1\OHZDE\08-Apr-2025\0\\#t hf au
 g-cc-pvdz iop(5/13=1,5/36=2,99/5=2) pseudo=read geom=check guess=(read
 ,tcheck) scf=(maxcycle=1)\\title\\0,1\C,0,-1.4743,0.57323,0.0138\H,0,-
 1.19627,1.15082,0.88992\H,0,-2.54861,0.40734,0.0365\C,0,-0.74194,-0.76
 071,-0.0263\H,0,-1.05872,-1.35818,0.82662\C,0,0.79776,-0.64182,-0.0116
 9\H,0,1.2022,-1.13318,0.86776\O,0,1.29272,0.689,0.06771\H,0,1.06644,1.
 14469,-0.74501\H,0,1.21973,-1.14234,-0.88422\H,0,-1.0517,-1.30967,-0.9
 1435\H,0,-1.25975,1.17983,-0.86394\\Version=ES64L-G16RevC.01\State=1-A

 Normal termination of Gaussian 16 at Tue Apr  8 22:16:14 2025.
