 Gaussian 16, Revision C.01,

 ----------------------------------------------------------------------
 #t hf aug-cc-pvdz symm=none int=(grid=ultrafine) guess=(read,tcheck) s
 table=(opt,rrhf)
 ----------------------------------------------------------------------
 -----
 title
 -----
 Symbolic Z-matrix:
 Charge =  0 Multiplicity = 1

 SCF Done:  E(RHF) =  -115.061684158     A.U. after   11 cycles
 Normal termination of Gaussian 16 at Tue Apr  8 22:16:08 2025.
 Gaussian 16:  ES64L-G16RevC.01  3-Jul-2019

 ----------------------------------------------------------------------
 #t hf aug-cc-pvdz iop(5/13=1,5/36=2,99/5=2) pseudo=read geom=check gue
 ss=(read,tcheck) scf=(maxcycle=1)
 ----------------------------------------------------------------------
 -----
 title
 -----
 Structure from the checkpoint file:  "AlcoholCONF_1_2_mol2.chk"
 Charge =  0 Multiplicity = 1

                         Standard orientation:
 ---------------------------------------------------------------------
 Center     Atomic      Atomic             Coordinates (Angstroms)
 Number     Number       Type             X           Y           Z
 ---------------------------------------------------------------------
      1          6           0        0.664999   -0.020037    0.000001
      2          1           0        1.021604   -0.541567   -0.887450
      3          8           0       -0.746793    0.121822   -0.000002
      4          1           0       -1.135835   -0.753747    0.000014
      5          1           0        1.076978    0.982502   -0.000006
      6          1           0        1.021604   -0.541543    0.887454
 ---------------------------------------------------------------------

 SCF Done:  E(RHF) =  -115.101916643     A.U. after    2 cycles

 The electronic state is 1-A.
 Alpha  occ. eigenvalues --  -20.57204 -11.28207  -1.32002  -0.92812  -0.70500
 Alpha  occ. eigenvalues --   -0.63040  -0.60586  -0.51402  -0.46565
 Alpha virt. eigenvalues --    0.03398   0.05237   0.05815   0.06546   0.11442
 Alpha virt. eigenvalues --    0.13970   0.15292   0.17146   0.20619   0.22136
 Alpha virt. eigenvalues --    0.24142   0.28064   0.28109   0.32505   0.33738

 Mulliken charges:
               1
     1  C    0.828502
     2  H   -0.130697
     3  O   -0.492160
     4  H    0.120176
     5  H   -0.195101
     6  H   -0.130721
 Sum of Mulliken charges =  -0.00000

 Dipole moment (field-independent basis, Debye):
    X=              0.9949    Y=             -1.6103    Z=              0.0000  Tot=              1.8928

 Test job not archived.
 1\1\GINC-SE099\SP\RHF\Aug-CC-pVDZ\C1H4O1\OHZDE\08-Apr-2025\0\\#t hf au
 g-cc-pvdz iop(5/13=1,5/36=2,99/5=2) pseudo=read geom=check guess=(read
 ,tcheck) scf=(maxcycle=1)\\title\\0,1\C,0,-0.72722,-0.02974,0.00436\H,
 0,-1.09164,-0.51041,0.91149\O,0,0.68743,0.07952,-0.00599\H,0,1.05636,-
 0.80419,0.02439\H,0,-1.11618,0.98135,-0.03056\H,0,-1.09965,-0.57474,-0
 .86223\\Version=ES64L-G16RevC.01\State=1-A\HF=-115.1019166\RMSD=2.323e
 -03\Dipole=-0.4057791,-0.6239473,0.0244545\Quadrupole=-0.1081026,0.694
 8013,-0.5866987,-1.7132881,0.0599752,-0.0387795\PG=C01 [X(C1H4O1)]\\@

 Normal termination of Gaussian 16 at Tue Apr  8 22:16:09 2025.
