 Gaussian 16, Revision C.01,

 ----------------------------------------------------------------------
 #t hf aug-cc-pvdz symm=none int=(grid=ultrafine) guess=(read,tcheck) s
 table=(opt,rrhf)
 ----------------------------------------------------------------------
 -----
 title
 -----
 Symbolic Z-matrix:
 Charge =  0 Multiplicity = 1

 SCF Done:  E(RHF) =  -193.147162491     A.U. after   12 cycles
 Normal termination of Gaussian 16 at Tue Apr  8 22:16:13 2025.
 Gaussian 16:  ES64L-G16RevC.01  3-Jul-2019

 ----------------------------------------------------------------------
 #t hf aug-cc-pvdz iop(5/13=1,5/36=2,99/5=2) pseudo=read geom=check gue
 ss=(read,tcheck) scf=(maxcycle=1)
 ----------------------------------------------------------------------
 -----
 title
 -----
 Structure from the checkpoint file:  "AlcoholCONF_3_4_mol1.chk"
 Charge =  0 Multiplicity = 1

                         Standard orientation:
 ---------------------------------------------------------------------
 Center     Atomic      Atomic             Coordinates (Angstroms)
 Number     Number       Type             X           Y           Z
 ---------------------------------------------------------------------
      1          6           0        0.000002    0.047012    0.357671
      2          8           0       -0.000006    1.354757   -0.230637
      3          1           0       -0.000010    2.008559    0.468780
      4          6           0       -1.253842   -0.677558   -0.083820
      5          1           0       -1.273772   -0.735390   -1.170150
      6          1           0       -2.141902   -0.145612    0.246598
      7          1           0       -1.279574   -1.688201    0.318793
      8          6           0        1.253848   -0.677547   -0.083822
      9          1           0        1.273795   -0.735363   -1.170147
     10          1           0        2.141893   -0.145606    0.246622
     11          1           0        1.279579   -1.688193    0.318782
     12          1           0       -0.000007    0.140314    1.445642
 ---------------------------------------------------------------------

 SCF Done:  E(RHF) =  -193.211402341     A.U. after    2 cycles

 The electronic state is 1-A.
 Alpha  occ. eigenvalues --  -20.56406 -11.28744 -11.21840 -11.21832  -1.31619
 Alpha  occ. eigenvalues --   -1.03961  -0.93343  -0.80041  -0.72124  -0.61573
 Alpha  occ. eigenvalues --   -0.60613  -0.57033  -0.54099  -0.53131  -0.51178
 Alpha  occ. eigenvalues --   -0.47374  -0.44749
 Alpha virt. eigenvalues --    0.03339   0.04730   0.04934   0.05281   0.07057
 Alpha virt. eigenvalues --    0.07497   0.07526   0.08136   0.12477   0.13355
 Alpha virt. eigenvalues --    0.14529   0.15796   0.16212   0.17020   0.17475

 Mulliken charges:
               1
     1  C   -0.051515
     2  O   -0.575442
     3  H    0.134270
     4  C    0.423381
     5  H   -0.006205
     6  H   -0.082700
     7  H   -0.013252
     8  C    0.423413
     9  H   -0.006209
    10  H   -0.082713
    11  H   -0.013246
    12  H   -0.149784
 Sum of Mulliken charges =  -0.00000

 Dipole moment (field-independent basis, Debye):
    X=              0.0000    Y=             -0.4427    Z=              1.8029  Tot=              1.8564

 Test job not archived.
 1\1\GINC-SE159\SP\RHF\Aug-CC-pVDZ\C3H8O1\OHZDE\08-Apr-2025\0\\#t hf au
 g-cc-pvdz iop(5/13=1,5/36=2,99/5=2) pseudo=read geom=check guess=(read
 ,tcheck) scf=(maxcycle=1)\\title\\0,1\C,0,-0.00065,0.00746,-0.36923\O,
 0,0.03982,-1.30784,0.20055\H,0,0.05848,-1.95143,-0.50803\C,0,-1.27513,
 0.68747,0.0839\H,0,-1.29508,0.72937,1.17096\H,0,-2.14722,0.1336,-0.252
 97\H,0,-1.33205,1.70244,-0.30437\C,0,1.23141,0.76334,0.081\H,0,1.25132
 ,0.80643,1.16801\H,0,2.13461,0.26322,-0.25795\H,0,1.22593,1.77987,-0.3
 0732\H,0,0.00044,-0.07047,-1.45841\\Version=ES64L-G16RevC.01\State=1-A

 Normal termination of Gaussian 16 at Tue Apr  8 22:16:18 2025.
