 Gaussian 16, Revision C.01,

 ----------------------------------------------------------------------
 #t hf aug-cc-pvdz symm=none int=(grid=ultrafine) guess=(read,tcheck) s
 table=(opt,rrhf)
 ----------------------------------------------------------------------
 -----
 title
 -----
 Symbolic Z-matrix:
 Charge =  0 Multiplicity = 1

 SCF Done:  E(RHF) =  -193.138527668     A.U. after   12 cycles
 Normal termination of Gaussian 16 at Tue Apr  8 22:16:12 2025.
 Gaussian 16:  ES64L-G16RevC.01  3-Jul-2019

 ----------------------------------------------------------------------
 #t hf aug-cc-pvdz iop(5/13=1,5/36=2,99/5=2) pseudo=read geom=check gue
 ss=(read,tcheck) scf=(maxcycle=1)
 ----------------------------------------------------------------------
 -----
 title
 -----
 Structure from the checkpoint file:  "AlcoholCONF_4_20_mol1.chk"
 Charge =  0 Multiplicity = 1

                         Standard orientation:
 ---------------------------------------------------------------------
 Center     Atomic      Atomic             Coordinates (Angstroms)
 Number     Number       Type             X           Y           Z
 ---------------------------------------------------------------------
      1          6           0        1.539620   -0.487328    0.108571
      2          1           0        1.929217   -1.019417   -0.754132
      3          6           0        0.604601    0.662019   -0.292479
      4          1           0        0.493844    0.707389   -1.374085
      5          1           0        1.024157    1.616907    0.022441
      6          6           0       -0.779342    0.532530    0.311551
      7          8           0       -1.494783   -0.586607   -0.195526
      8          1           0       -1.002297   -1.380195    0.025799
      9          1           0       -1.387124    1.397431    0.059442
     10          1           0       -0.708275    0.478538    1.401739
     11          1           0        2.389656   -0.130638    0.683125
     12          1           0        1.029809   -1.220496    0.734021
 ---------------------------------------------------------------------

 SCF Done:  E(RHF) =  -193.202722051     A.U. after    2 cycles

 The electronic state is 1-A.
 Alpha  occ. eigenvalues --  -20.56692 -11.28058 -11.23053 -11.22998  -1.31836
 Alpha  occ. eigenvalues --   -1.04616  -0.92754  -0.81442  -0.70408  -0.64584
 Alpha  occ. eigenvalues --   -0.60809  -0.59308  -0.55360  -0.52087  -0.49452
 Alpha  occ. eigenvalues --   -0.47695  -0.44825
 Alpha virt. eigenvalues --    0.03506   0.04538   0.04927   0.05228   0.07082
 Alpha virt. eigenvalues --    0.07335   0.07508   0.08145   0.12113   0.14087
 Alpha virt. eigenvalues --    0.14474   0.15278   0.15533   0.16831   0.16963

 Mulliken charges:
               1
     1  C    0.427940
     2  H   -0.050143
     3  C   -0.056024
     4  H   -0.088830
     5  H   -0.032366
     6  C    0.838720
     7  O   -0.552331
     8  H    0.160931
     9  H   -0.190913
    10  H   -0.113551
    11  H   -0.090974
    12  H   -0.252459
 Sum of Mulliken charges =  -0.00000

 Dipole moment (field-independent basis, Debye):
    X=              1.8350    Y=              0.1440    Z=              0.8137  Tot=              2.0124

 Test job not archived.
 1\1\GINC-SE071\SP\RHF\Aug-CC-pVDZ\C3H8O1\OHZDE\08-Apr-2025\0\\#t hf au
 g-cc-pvdz iop(5/13=1,5/36=2,99/5=2) pseudo=read geom=check guess=(read
 ,tcheck) scf=(maxcycle=1)\\title\\0,1\C,0,-1.57452,-0.56012,-0.13399\H
 ,0,-1.94197,-1.115,0.72406\C,0,-0.70161,0.63348,0.27765\H,0,-0.60006,0
 .67977,1.36012\H,0,-1.16715,1.56718,-0.03618\C,0,0.69087,0.57701,-0.31
 794\O,0,1.45905,-0.50653,0.1893\H,0,1.0089,-1.32314,-0.03835\H,0,1.252
 35,1.47056,-0.05848\H,0,0.62945,0.52416,-1.40877\H,0,-2.43797,-0.24458
 ,-0.7126\H,0,-1.02423,-1.26377,-0.75904\\Version=ES64L-G16RevC.01\Stat

 Normal termination of Gaussian 16 at Tue Apr  8 22:16:15 2025.
