 Gaussian 16, Revision C.01,

 ----------------------------------------------------------------------
 #t hf aug-cc-pvdz symm=none int=(grid=ultrafine) guess=(read,tcheck) s
 table=(opt,rrhf)
 ----------------------------------------------------------------------
 -----
 title
 -----
 Symbolic Z-matrix:
 Charge =  0 Multiplicity = 1

 SCF Done:  E(RHF) =  -193.144327222     A.U. after   12 cycles
 Normal termination of Gaussian 16 at Tue Apr  8 22:16:12 2025.
 Gaussian 16:  ES64L-G16RevC.01  3-Jul-2019

 ----------------------------------------------------------------------
 #t hf aug-cc-pvdz iop(5/13=1,5/36=2,99/5=2) pseudo=read geom=check gue
 ss=(read,tcheck) scf=(maxcycle=1)
 ----------------------------------------------------------------------
 -----
 title
 -----
 Structure from the checkpoint file:  "AlcoholCONF_4_15_mol1.chk"
 Charge =  0 Multiplicity = 1

                         Standard orientation:
 ---------------------------------------------------------------------
 Center     Atomic      Atomic             Coordinates (Angstroms)
 Number     Number       Type             X           Y           Z
 ---------------------------------------------------------------------
      1          6           0        1.879589   -0.129098    0.018361
      2          1           0        1.998977   -0.692381    0.941991
      3          1           0        2.677834    0.606758   -0.027899
      4          6           0        0.511605    0.532100   -0.045664
      5          1           0        0.400588    1.236943    0.780591
      6          6           0       -0.602494   -0.491662    0.024317
      7          1           0       -0.514711   -1.074619    0.945477
      8          8           0       -1.897217    0.083210   -0.085066
      9          1           0       -2.012421    0.692663    0.647255
     10          1           0       -0.523197   -1.185302   -0.810069
     11          1           0        0.403427    1.102058   -0.967235
     12          1           0        2.015036   -0.819847   -0.811662
 ---------------------------------------------------------------------

 SCF Done:  E(RHF) =  -193.208664127     A.U. after    2 cycles

 The electronic state is 1-A.
 Alpha  occ. eigenvalues --  -20.56787 -11.28041 -11.23034 -11.22759  -1.31859
 Alpha  occ. eigenvalues --   -1.05129  -0.91744  -0.82104  -0.70211  -0.64283
 Alpha  occ. eigenvalues --   -0.60917  -0.59487  -0.55209  -0.50804  -0.50740
 Alpha  occ. eigenvalues --   -0.47673  -0.44808
 Alpha virt. eigenvalues --    0.03463   0.04418   0.04801   0.05196   0.07227
 Alpha virt. eigenvalues --    0.07279   0.07628   0.08411   0.11539   0.13760
 Alpha virt. eigenvalues --    0.15028   0.15472   0.15672   0.16817   0.17067

 Mulliken charges:
               1
     1  C    0.361822
     2  H   -0.057727
     3  H   -0.098502
     4  C   -0.030087
     5  H   -0.121268
     6  C    0.813778
     7  H   -0.143541
     8  O   -0.554438
     9  H    0.135800
    10  H   -0.203190
    11  H   -0.045870
    12  H   -0.056778
 Sum of Mulliken charges =   0.00000

 Dipole moment (field-independent basis, Debye):
    X=              1.4865    Y=              0.4189    Z=              1.2343  Tot=              1.9771

 Test job not archived.
 1\1\GINC-SE339\SP\RHF\Aug-CC-pVDZ\C3H8O1\OHZDE\08-Apr-2025\0\\#t hf au
 g-cc-pvdz iop(5/13=1,5/36=2,99/5=2) pseudo=read geom=check guess=(read
 ,tcheck) scf=(maxcycle=1)\\title\\0,1\C,0,-1.95289,0.13356,0.01479\H,0
 ,-2.07752,0.71653,0.92542\H,0,-2.75155,-0.60244,-0.02078\C,0,-0.58518,
 -0.53001,-0.0265\H,0,-0.48004,-1.21715,0.81529\C,0,0.52946,0.49407,0.0
 2863\H,0,0.43647,1.09663,0.93657\O,0,1.82428,-0.0841,-0.06031\H,0,1.93
 429,-0.67788,0.68556\H,0,0.45608,1.16981,-0.82085\H,0,-0.47178,-1.1196
 ,-0.935\H,0,-2.08245,0.80655,-0.83062\\Version=ES64L-G16RevC.01\State=

 Normal termination of Gaussian 16 at Tue Apr  8 22:16:15 2025.
