 Gaussian 16, Revision C.01,

 ----------------------------------------------------------------------
 #t hf aug-cc-pvdz symm=none int=(grid=ultrafine) guess=(read,tcheck) s
 table=(opt,rrhf)
 ----------------------------------------------------------------------
 -----
 title
 -----
 Symbolic Z-matrix:
 Charge =  0 Multiplicity = 1

 SCF Done:  E(RHF) =  -274.430229954     A.U. after   11 cycles
 Normal termination of Gaussian 16 at Tue Apr  8 22:17:55 2025.
 Gaussian 16:  ES64L-G16RevC.01  3-Jul-2019

 ----------------------------------------------------------------------
 #t hf aug-cc-pvdz iop(5/13=1,5/36=2,99/5=2) pseudo=read geom=check gue
 ss=(read,tcheck) scf=(maxcycle=1)
 ----------------------------------------------------------------------
 -----
 title
 -----
 Structure from the checkpoint file:  "AlkAtom19_12_mol1.chk"
 Charge =  0 Multiplicity = 1

                         Standard orientation:
 ---------------------------------------------------------------------
 Center     Atomic      Atomic             Coordinates (Angstroms)
 Number     Number       Type             X           Y           Z
 ---------------------------------------------------------------------
      1          6           0       -2.223705   -0.502453    0.272279
      2          1           0       -2.190337   -0.604336    1.361136
      3          1           0       -2.255742   -1.521228   -0.125243
      4          6           0       -0.943981    0.184455   -0.207392
      5          1           0       -0.975338    0.278518   -1.298374
      6          1           0       -0.923943    1.204745    0.184773
      7          6           0        0.329089   -0.560430    0.197503
      8          1           0        0.387904   -0.611004    1.290959
      9          1           0        0.249780   -1.596374   -0.147579
     10          6           0        1.640954    0.031158   -0.341575
     11          1           0        1.542887    0.113641   -1.430328
     12          6           0        2.814476   -0.908266   -0.049403
     13          1           0        3.747342   -0.516604   -0.458362
     14          1           0        2.952773   -1.034196    1.027404
     15          1           0        2.649082   -1.897312   -0.479868
     16          6           0        1.924764    1.431454    0.210945
     17          1           0        1.137158    2.140379   -0.043141
     18          1           0        2.012998    1.406435    1.300317
     19          1           0        2.861787    1.825040   -0.186558
     20          6           0       -3.495641    0.241443   -0.130289
     21          1           0       -4.389290   -0.273924    0.224158
     22          1           0       -3.509538    1.251503    0.284060
     23          1           0       -3.573259    0.330556   -1.215766
 ---------------------------------------------------------------------

 SCF Done:  E(RHF) =  -274.519368115     A.U. after    2 cycles

 The electronic state is 1-A.
 Alpha  occ. eigenvalues --  -11.22977 -11.22346 -11.22061 -11.21974 -11.21882
 Alpha  occ. eigenvalues --  -11.21681 -11.21645  -1.08570  -1.04194  -0.96134
 Alpha  occ. eigenvalues --   -0.92255  -0.86395  -0.79217  -0.76173  -0.64911
 Alpha  occ. eigenvalues --   -0.61918  -0.60090  -0.59264  -0.56653  -0.54502
 Alpha  occ. eigenvalues --   -0.53393  -0.52827  -0.50007  -0.49763  -0.47855
 Alpha  occ. eigenvalues --   -0.46563  -0.45515  -0.45013  -0.43738
 Alpha virt. eigenvalues --    0.03565   0.03990   0.04393   0.04529   0.05792
 Alpha virt. eigenvalues --    0.06095   0.06361   0.06637   0.07300   0.08025
 Alpha virt. eigenvalues --    0.08393   0.08734   0.09247   0.10853   0.11369

 Mulliken charges:
               1
     1  C    0.371582
     2  H   -0.145842
     3  H   -0.173281
     4  C    0.055300
     5  H   -0.197736
     6  H   -0.258148
     7  C    0.497675
     8  H   -0.162541
     9  H   -0.179764
    10  C   -1.287579
    11  H   -0.208449
    12  C    0.932432
    13  H   -0.057467
    14  H   -0.023838
    15  H   -0.092894
    16  C    0.793788
    17  H   -0.096020
    18  H   -0.039256
    19  H   -0.092216
    20  C    0.606439
    21  H   -0.065286
    22  H   -0.091322
    23  H   -0.085578
 Sum of Mulliken charges =  -0.00000

 Dipole moment (field-independent basis, Debye):
    X=             -0.0288    Y=             -0.0290    Z=             -0.0775  Tot=              0.0876

 Test job not archived.
 1\1\GINC-SE086\SP\RHF\Aug-CC-pVDZ\C7H16\OHZDE\08-Apr-2025\0\\#t hf aug
 -cc-pvdz iop(5/13=1,5/36=2,99/5=2) pseudo=read geom=check guess=(read,
 tcheck) scf=(maxcycle=1)\\title\\0,1\C,0,-2.223705,-0.502453,0.272279\
 H,0,-2.190337,-0.604336,1.361136\H,0,-2.255742,-1.521228,-0.125243\C,0
 ,-0.943981,0.184455,-0.207392\H,0,-0.975338,0.278518,-1.298374\H,0,-0.
 923943,1.204745,0.184773\C,0,0.329089,-0.56043,0.197503\H,0,0.387904,-
 0.611004,1.290959\H,0,0.24978,-1.596374,-0.147579\C,0,1.640954,0.03115
 8,-0.341575\H,0,1.542887,0.113641,-1.430328\C,0,2.814476,-0.908266,-0.

 Normal termination of Gaussian 16 at Tue Apr  8 22:18:06 2025.
