 Gaussian 16, Revision C.01,

 ----------------------------------------------------------------------
 #t hf aug-cc-pvdz symm=none int=(grid=ultrafine) guess=(read,tcheck) s
 table=(opt,rrhf)
 ----------------------------------------------------------------------
 -----
 title
 -----
 Symbolic Z-matrix:
 Charge =  0 Multiplicity = 1

 SCF Done:  E(RHF) =  -274.428249510     A.U. after   12 cycles
 Normal termination of Gaussian 16 at Tue Apr  8 22:17:59 2025.
 Gaussian 16:  ES64L-G16RevC.01  3-Jul-2019

 ----------------------------------------------------------------------
 #t hf aug-cc-pvdz iop(5/13=1,5/36=2,99/5=2) pseudo=read geom=check gue
 ss=(read,tcheck) scf=(maxcycle=1)
 ----------------------------------------------------------------------
 -----
 title
 -----
 Structure from the checkpoint file:  "AlkAtom19_16_mol1.chk"
 Charge =  0 Multiplicity = 1

                         Standard orientation:
 ---------------------------------------------------------------------
 Center     Atomic      Atomic             Coordinates (Angstroms)
 Number     Number       Type             X           Y           Z
 ---------------------------------------------------------------------
      1          6           0        1.382083    1.004589    0.000000
      2          1           0        1.838156    0.534367    0.874097
      3          1           0        1.838156    0.534367   -0.874097
      4          6           0       -0.128744    0.758657    0.000000
      5          1           0       -0.560865    1.258825   -0.873638
      6          1           0       -0.560865    1.258825    0.873638
      7          6           0       -0.616963   -0.709861    0.000000
      8          6           0       -0.128744   -1.449918   -1.255413
      9          1           0       -0.536699   -2.462012   -1.288109
     10          1           0        0.957932   -1.533995   -1.280986
     11          1           0       -0.446893   -0.934416   -2.164084
     12          6           0       -2.154131   -0.696002    0.000000
     13          1           0       -2.542626   -0.183102    0.882098
     14          1           0       -2.554912   -1.711469    0.000000
     15          1           0       -2.542626   -0.183102   -0.882098
     16          6           0       -0.128744   -1.449918    1.255413
     17          1           0       -0.536699   -2.462012    1.288109
     18          1           0       -0.446893   -0.934416    2.164084
     19          1           0        0.957932   -1.533995    1.280986
     20          6           0        1.725331    2.494198    0.000000
     21          1           0        1.316043    2.993582    0.880457
     22          1           0        2.804289    2.654502    0.000000
     23          1           0        1.316043    2.993582   -0.880457
 ---------------------------------------------------------------------

 SCF Done:  E(RHF) =  -274.516851753     A.U. after    2 cycles

 The electronic state is 1-A'.
 Alpha  occ. eigenvalues --  -11.23756 -11.22264 -11.21957 -11.21893 -11.21569
 Alpha  occ. eigenvalues --  -11.21568 -11.21557  -1.09869  -1.02813  -0.92451
 Alpha  occ. eigenvalues --   -0.92420  -0.91389  -0.80934  -0.72667  -0.63745
 Alpha  occ. eigenvalues --   -0.62471  -0.59969  -0.59773  -0.56297  -0.54533
 Alpha  occ. eigenvalues --   -0.54129  -0.51295  -0.51084  -0.50972  -0.48737
 Alpha  occ. eigenvalues --   -0.47247  -0.44935  -0.44327  -0.43633
 Alpha virt. eigenvalues --    0.03487   0.04171   0.04497   0.04620   0.06156
 Alpha virt. eigenvalues --    0.06189   0.06310   0.06785   0.06792   0.08399
 Alpha virt. eigenvalues --    0.08728   0.09057   0.09297   0.09600   0.11121

 Mulliken charges:
               1
     1  C    0.229257
     2  H   -0.150543
     3  H   -0.150543
     4  C    0.954654
     5  H   -0.177199
     6  H   -0.177199
     7  C   -4.579284
     8  C    1.257390
     9  H   -0.035358
    10  H   -0.088422
    11  H   -0.007859
    12  C    1.544895
    13  H   -0.026313
    14  H   -0.035498
    15  H   -0.026313
    16  C    1.257390
    17  H   -0.035358
    18  H   -0.007859
    19  H   -0.088422
    20  C    0.569457
    21  H   -0.080902
    22  H   -0.065070
    23  H   -0.080902
 Sum of Mulliken charges =  -0.00000

 Dipole moment (field-independent basis, Debye):
    X=              0.0652    Y=             -0.0238    Z=             -0.0000  Tot=              0.0694

 Test job not archived.
 1\1\GINC-SE099\SP\RHF\Aug-CC-pVDZ\C7H16\OHZDE\08-Apr-2025\0\\#t hf aug
 -cc-pvdz iop(5/13=1,5/36=2,99/5=2) pseudo=read geom=check guess=(read,
 tcheck) scf=(maxcycle=1)\\title\\0,1\C,0,1.382083,1.004589,0.\H,0,1.83
 8156,0.534367,0.874097\H,0,1.838156,0.534367,-0.874097\C,0,-0.128744,0
 .758657,0.\H,0,-0.560865,1.258825,-0.873638\H,0,-0.560865,1.258825,0.8
 73638\C,0,-0.616963,-0.709861,0.\C,0,-0.128744,-1.449918,-1.255413\H,0
 ,-0.536699,-2.462012,-1.288109\H,0,0.957932,-1.533995,-1.280986\H,0,-0
 .446893,-0.934416,-2.164084\C,0,-2.154131,-0.696002,0.\H,0,-2.542626,-

 Normal termination of Gaussian 16 at Tue Apr  8 22:18:07 2025.
