 Gaussian 16, Revision C.01,

 ----------------------------------------------------------------------
 #t hf aug-cc-pvdz symm=none int=(grid=ultrafine) guess=(read,tcheck) s
 table=(opt,rrhf)
 ----------------------------------------------------------------------
 -----
 title
 -----
 Symbolic Z-matrix:
 Charge =  0 Multiplicity = 1

 SCF Done:  E(RHF) =  -313.470418977     A.U. after   11 cycles
 Normal termination of Gaussian 16 at Tue Apr  8 22:18:25 2025.
 Gaussian 16:  ES64L-G16RevC.01  3-Jul-2019

 ----------------------------------------------------------------------
 #t hf aug-cc-pvdz iop(5/13=1,5/36=2,99/5=2) pseudo=read geom=check gue
 ss=(read,tcheck) scf=(maxcycle=1)
 ----------------------------------------------------------------------
 -----
 title
 -----
 Structure from the checkpoint file:  "AlkIsod14_6_mol2.chk"
 Charge =  0 Multiplicity = 1

                         Standard orientation:
 ---------------------------------------------------------------------
 Center     Atomic      Atomic             Coordinates (Angstroms)
 Number     Number       Type             X           Y           Z
 ---------------------------------------------------------------------
      1          6           0       -0.162804    1.957862    0.000000
      2          1           0       -0.816690    2.044788    0.874380
      3          1           0       -0.816690    2.044788   -0.874380
      4          6           0        0.498460    0.579577    0.000000
      5          1           0        1.151912    0.493203   -0.874479
      6          1           0        1.151912    0.493203    0.874479
      7          6           0       -0.498460   -0.579577    0.000000
      8          1           0       -1.151912   -0.493203   -0.874479
      9          1           0       -1.151912   -0.493203    0.874479
     10          6           0        0.162804   -1.957862    0.000000
     11          1           0        0.816690   -2.044788    0.874380
     12          1           0        0.816690   -2.044788   -0.874380
     13          6           0       -0.832656   -3.117803    0.000000
     14          1           0       -1.485721   -3.031747   -0.873746
     15          1           0       -1.485721   -3.031747    0.873746
     16          6           0       -0.162804   -4.490823    0.000000
     17          1           0        0.469428   -4.621287    0.880573
     18          1           0       -0.900043   -5.294738    0.000000
     19          1           0        0.469428   -4.621287   -0.880573
     20          6           0        0.832656    3.117803    0.000000
     21          1           0        1.485721    3.031747   -0.873746
     22          1           0        1.485721    3.031747    0.873746
     23          6           0        0.162804    4.490823    0.000000
     24          1           0       -0.469428    4.621287    0.880573
     25          1           0        0.900043    5.294738    0.000000
     26          1           0       -0.469428    4.621287   -0.880573
 ---------------------------------------------------------------------

 SCF Done:  E(RHF) =  -313.571732616     A.U. after    2 cycles

 The electronic state is 1-AG.
 Alpha  occ. eigenvalues --  -11.22321 -11.22321 -11.22111 -11.22087 -11.22054
 Alpha  occ. eigenvalues --  -11.22022 -11.21861 -11.21861  -1.08099  -1.05251
 Alpha  occ. eigenvalues --   -1.00638  -0.94566  -0.87609  -0.81226  -0.78574
 Alpha  occ. eigenvalues --   -0.78310  -0.65812  -0.63214  -0.59890  -0.59286
 Alpha  occ. eigenvalues --   -0.57603  -0.56969  -0.54711  -0.53476  -0.50449
 Alpha  occ. eigenvalues --   -0.49828  -0.49536  -0.47436  -0.46906  -0.46044
 Alpha  occ. eigenvalues --   -0.45829  -0.45792  -0.43301
 Alpha virt. eigenvalues --    0.03664   0.03702   0.04380   0.04567   0.05175
 Alpha virt. eigenvalues --    0.05601   0.05796   0.06668   0.07103   0.07712
 Alpha virt. eigenvalues --    0.07879   0.08311   0.09435   0.10400   0.10563

 Mulliken charges:
               1
     1  C    0.162535
     2  H   -0.197092
     3  H   -0.197092
     4  C    0.100435
     5  H   -0.200841
     6  H   -0.200841
     7  C    0.100435
     8  H   -0.200841
     9  H   -0.200841
    10  C    0.162535
    11  H   -0.197092
    12  H   -0.197092
    13  C    0.479290
    14  H   -0.169368
    15  H   -0.169368
    16  C    0.652412
    17  H   -0.094825
    18  H   -0.070420
    19  H   -0.094825
    20  C    0.479290
    21  H   -0.169368
    22  H   -0.169368
    23  C    0.652412
    24  H   -0.094825
    25  H   -0.070420
    26  H   -0.094825
 Sum of Mulliken charges =  -0.00000

 Dipole moment (field-independent basis, Debye):
    X=             -0.0000    Y=             -0.0000    Z=             -0.0000  Tot=              0.0000

 Test job not archived.
 1\1\GINC-SE159\SP\RHF\Aug-CC-pVDZ\C8H18\OHZDE\08-Apr-2025\0\\#t hf aug
 -cc-pvdz iop(5/13=1,5/36=2,99/5=2) pseudo=read geom=check guess=(read,
 tcheck) scf=(maxcycle=1)\\title\\0,1\C,0,-0.162804,1.957862,0.\H,0,-0.
 81669,2.044788,0.87438\H,0,-0.81669,2.044788,-0.87438\C,0,0.49846,0.57
 9577,0.\H,0,1.151912,0.493203,-0.874479\H,0,1.151912,0.493203,0.874479
 \C,0,-0.49846,-0.579577,0.\H,0,-1.151912,-0.493203,-0.874479\H,0,-1.15
 1912,-0.493203,0.874479\C,0,0.162804,-1.957862,0.\H,0,0.81669,-2.04478
 8,0.87438\H,0,0.81669,-2.044788,-0.87438\C,0,-0.832656,-3.117803,0.\H,

 Normal termination of Gaussian 16 at Tue Apr  8 22:18:38 2025.
