 Gaussian 16, Revision C.01,

 ----------------------------------------------------------------------
 #t hf aug-cc-pvdz symm=none int=(grid=ultrafine) guess=(read,tcheck) s
 table=(opt,rrhf)
 ----------------------------------------------------------------------
 -----
 title
 -----
 Symbolic Z-matrix:
 Charge =  0 Multiplicity = 1

 SCF Done:  E(RHF) =  -235.389323177     A.U. after   11 cycles
 Normal termination of Gaussian 16 at Tue Apr  8 22:17:49 2025.
 Gaussian 16:  ES64L-G16RevC.01  3-Jul-2019

 ----------------------------------------------------------------------
 #t hf aug-cc-pvdz iop(5/13=1,5/36=2,99/5=2) pseudo=read geom=check gue
 ss=(read,tcheck) scf=(maxcycle=1)
 ----------------------------------------------------------------------
 -----
 title
 -----
 Structure from the checkpoint file:  "AlkIsomer11_7_mol1.chk"
 Charge =  0 Multiplicity = 1

                         Standard orientation:
 ---------------------------------------------------------------------
 Center     Atomic      Atomic             Coordinates (Angstroms)
 Number     Number       Type             X           Y           Z
 ---------------------------------------------------------------------
      1          6           0       -0.332728   -0.121350    2.575521
      2          1           0       -1.063912   -0.932242    2.551099
      3          1           0        0.640901   -0.559786    2.794486
      4          1           0       -0.590828    0.528927    3.412444
      5          6           0       -0.332728    0.658684    1.260911
      6          1           0       -1.299837    1.157066    1.150568
      7          1           0        0.414324    1.458052    1.310992
      8          6           0       -0.075942   -0.183404    0.000000
      9          1           0       -0.804036   -1.004805   -0.000000
     10          6           0       -0.332728    0.658684   -1.260911
     11          1           0        0.414324    1.458052   -1.310992
     12          1           0       -1.299837    1.157066   -1.150568
     13          6           0       -0.332728   -0.121350   -2.575521
     14          1           0       -0.590828    0.528927   -3.412444
     15          1           0        0.640901   -0.559786   -2.794486
     16          1           0       -1.063912   -0.932242   -2.551099
     17          6           0        1.327529   -0.797769    0.000000
     18          1           0        2.089957   -0.013988    0.000000
     19          1           0        1.494365   -1.423101    0.876573
     20          1           0        1.494365   -1.423101   -0.876573
 ---------------------------------------------------------------------

 SCF Done:  E(RHF) =  -235.466475020     A.U. after    2 cycles

 The electronic state is 1-A'.
 Alpha  occ. eigenvalues --  -11.22785 -11.22207 -11.22197 -11.21832 -11.21831
 Alpha  occ. eigenvalues --  -11.21573  -1.08516  -1.00708  -0.95748  -0.88634
 Alpha  occ. eigenvalues --   -0.81836  -0.75865  -0.63889  -0.62228  -0.59395
 Alpha  occ. eigenvalues --   -0.57577  -0.55141  -0.54107  -0.52479  -0.50945
 Alpha  occ. eigenvalues --   -0.49368  -0.47724  -0.45455  -0.44724  -0.44140
 Alpha virt. eigenvalues --    0.03615   0.04261   0.04526   0.04767   0.06259
 Alpha virt. eigenvalues --    0.06298   0.06729   0.06826   0.07386   0.08906
 Alpha virt. eigenvalues --    0.08959   0.09335   0.09767   0.11749   0.13842

 Mulliken charges:
               1
     1  C    0.499970
     2  H   -0.071243
     3  H   -0.115091
     4  H   -0.063183
     5  C    0.540913
     6  H   -0.165621
     7  H   -0.125688
     8  C   -1.134017
     9  H   -0.275884
    10  C    0.540913
    11  H   -0.125688
    12  H   -0.165621
    13  C    0.499970
    14  H   -0.063183
    15  H   -0.115091
    16  H   -0.071243
    17  C    0.690475
    18  H   -0.049559
    19  H   -0.115565
    20  H   -0.115565
 Sum of Mulliken charges =  -0.00000

 Dipole moment (field-independent basis, Debye):
    X=             -0.0809    Y=              0.0354    Z=              0.0000  Tot=              0.0883

 Test job not archived.
 1\1\GINC-SE398\SP\RHF\Aug-CC-pVDZ\C6H14\OHZDE\08-Apr-2025\0\\#t hf aug
 -cc-pvdz iop(5/13=1,5/36=2,99/5=2) pseudo=read geom=check guess=(read,
 tcheck) scf=(maxcycle=1)\\title\\0,1\C,0,-0.332728,-0.12135,2.575521\H
 ,0,-1.063912,-0.932242,2.551099\H,0,0.640901,-0.559786,2.794486\H,0,-0
 .590828,0.528927,3.412444\C,0,-0.332728,0.658684,1.260911\H,0,-1.29983
 7,1.157066,1.150568\H,0,0.414324,1.458052,1.310992\C,0,-0.075942,-0.18
 3404,0.\H,0,-0.804036,-1.004805,0.\C,0,-0.332728,0.658684,-1.260911\H,
 0,0.414324,1.458052,-1.310992\H,0,-1.299837,1.157066,-1.150568\C,0,-0.

 Normal termination of Gaussian 16 at Tue Apr  8 22:17:53 2025.
