 Gaussian 16, Revision C.01,

 ----------------------------------------------------------------------
 #t hf aug-cc-pvdz symm=none int=(grid=ultrafine) guess=(read,tcheck) s
 table=(opt,rrhf)
 ----------------------------------------------------------------------
 -----
 title
 -----
 Symbolic Z-matrix:
 Charge =  0 Multiplicity = 1

 SCF Done:  E(RHF) =  -196.352767030     A.U. after   11 cycles
 Normal termination of Gaussian 16 at Tue Apr  8 22:17:31 2025.
 Gaussian 16:  ES64L-G16RevC.01  3-Jul-2019

 ----------------------------------------------------------------------
 #t hf aug-cc-pvdz iop(5/13=1,5/36=2,99/5=2) pseudo=read geom=check gue
 ss=(read,tcheck) scf=(maxcycle=1)
 ----------------------------------------------------------------------
 -----
 title
 -----
 Structure from the checkpoint file:  "AlkIsomer11_2_mol1.chk"
 Charge =  0 Multiplicity = 1

                         Standard orientation:
 ---------------------------------------------------------------------
 Center     Atomic      Atomic             Coordinates (Angstroms)
 Number     Number       Type             X           Y           Z
 ---------------------------------------------------------------------
      1          6           0       -1.732520   -0.825958   -0.014263
      2          1           0       -1.632654   -1.853327   -0.368339
      3          1           0       -1.914580   -0.862324    1.062815
      4          1           0       -2.618015   -0.394676   -0.483962
      5          6           0       -0.479826   -0.002843   -0.326868
      6          1           0       -0.341364   -0.003790   -1.414473
      7          6           0        0.764362   -0.654721    0.296340
      8          1           0        0.771229   -1.713876    0.023800
      9          1           0        0.668545   -0.624776    1.387049
     10          6           0        2.097043   -0.031778   -0.117649
     11          1           0        2.187352    1.002398    0.215260
     12          1           0        2.934810   -0.584672    0.309156
     13          1           0        2.214892   -0.041761   -1.203393
     14          6           0       -0.666711    1.449732    0.121089
     15          1           0       -0.787728    1.506790    1.206063
     16          1           0        0.181157    2.077458   -0.152585
     17          1           0       -1.557733    1.885958   -0.333288
 ---------------------------------------------------------------------

 SCF Done:  E(RHF) =  -196.417964331     A.U. after    2 cycles

 The electronic state is 1-A.
 Alpha  occ. eigenvalues --  -11.22981 -11.22249 -11.21861 -11.21704 -11.21673
 Alpha  occ. eigenvalues --   -1.07916  -0.98549  -0.92284  -0.85131  -0.76064
 Alpha  occ. eigenvalues --   -0.63567  -0.60828  -0.59065  -0.56733  -0.53584
 Alpha  occ. eigenvalues --   -0.53153  -0.50562  -0.49293  -0.45803  -0.45577
 Alpha  occ. eigenvalues --   -0.44834
 Alpha virt. eigenvalues --    0.03660   0.04457   0.04745   0.04834   0.06630
 Alpha virt. eigenvalues --    0.06707   0.07044   0.07151   0.07573   0.09238
 Alpha virt. eigenvalues --    0.09665   0.09947   0.13508   0.14318   0.14775

 Mulliken charges:
               1
     1  C    0.796526
     2  H   -0.094360
     3  H   -0.014616
     4  H   -0.068986
     5  C   -1.350104
     6  H   -0.174824
     7  C    0.498143
     8  H   -0.136905
     9  H   -0.125812
    10  C    0.409818
    11  H   -0.108276
    12  H   -0.068079
    13  H   -0.070014
    14  C    0.729063
    15  H   -0.028833
    16  H   -0.119444
    17  H   -0.073296
 Sum of Mulliken charges =  -0.00000

 Dipole moment (field-independent basis, Debye):
    X=              0.0311    Y=             -0.0392    Z=             -0.0753  Tot=              0.0904

 Test job not archived.
 1\1\GINC-SE058\SP\RHF\Aug-CC-pVDZ\C5H12\OHZDE\08-Apr-2025\0\\#t hf aug
 -cc-pvdz iop(5/13=1,5/36=2,99/5=2) pseudo=read geom=check guess=(read,
 tcheck) scf=(maxcycle=1)\\title\\0,1\C,0,-1.732561,-0.825763,-0.019573
 \H,0,-1.634022,-1.847963,-0.388664\H,0,-1.910585,-0.877524,1.057549\H,
 0,-2.619809,-0.387861,-0.479742\C,0,-0.481047,0.001802,-0.325076\H,0,-
 0.34666,0.016402,-1.413094\C,0,0.765467,-0.658847,0.28409\H,0,0.771313
 ,-1.714,-0.003579\H,0,0.673736,-0.644495,1.375467\C,0,2.096588,-0.0299
 81,-0.125945\H,0,2.188143,0.999337,0.221366\H,0,2.935948,-0.588872,0.2

 Normal termination of Gaussian 16 at Tue Apr  8 22:17:36 2025.
