 Gaussian 16, Revision C.01,

 ----------------------------------------------------------------------
 #t hf aug-cc-pvdz symm=none int=(grid=ultrafine) guess=(read,tcheck) s
 table=(opt,rrhf)
 ----------------------------------------------------------------------
 -----
 title
 -----
 Symbolic Z-matrix:
 Charge =  0 Multiplicity = 1

 SCF Done:  E(RHF) =  -235.388223870     A.U. after   11 cycles
 Normal termination of Gaussian 16 at Tue Apr  8 22:17:44 2025.
 Gaussian 16:  ES64L-G16RevC.01  3-Jul-2019

 ----------------------------------------------------------------------
 #t hf aug-cc-pvdz iop(5/13=1,5/36=2,99/5=2) pseudo=read geom=check gue
 ss=(read,tcheck) scf=(maxcycle=1)
 ----------------------------------------------------------------------
 -----
 title
 -----
 Structure from the checkpoint file:  "AlkIsomer11_6_mol1.chk"
 Charge =  0 Multiplicity = 1

                         Standard orientation:
 ---------------------------------------------------------------------
 Center     Atomic      Atomic             Coordinates (Angstroms)
 Number     Number       Type             X           Y           Z
 ---------------------------------------------------------------------
      1          6           0       -0.231425    0.739197   -0.000000
      2          1           0       -1.328653    0.732002   -0.000000
      3          6           0        0.231425   -0.739197   -0.000000
      4          1           0        1.328653   -0.732002   -0.000000
      5          6           0       -0.231425   -1.496131    1.250811
      6          1           0        0.179825   -1.077166    2.167609
      7          1           0       -1.321376   -1.479009    1.333715
      8          1           0        0.077206   -2.541463    1.202345
      9          6           0       -0.231425   -1.496131   -1.250811
     10          1           0        0.179825   -1.077166   -2.167609
     11          1           0        0.077206   -2.541463   -1.202345
     12          1           0       -1.321376   -1.479009   -1.333715
     13          6           0        0.231425    1.496131   -1.250811
     14          1           0        1.321376    1.479009   -1.333715
     15          1           0       -0.179825    1.077166   -2.167609
     16          1           0       -0.077206    2.541463   -1.202345
     17          6           0        0.231425    1.496131    1.250811
     18          1           0       -0.179825    1.077166    2.167609
     19          1           0        1.321376    1.479009    1.333715
     20          1           0       -0.077206    2.541463    1.202345
 ---------------------------------------------------------------------

 SCF Done:  E(RHF) =  -235.465196722     A.U. after    2 cycles

 The electronic state is 1-AG.
 Alpha  occ. eigenvalues --  -11.23013 -11.22963 -11.21626 -11.21625 -11.21618
 Alpha  occ. eigenvalues --  -11.21617  -1.09054  -1.00464  -0.93481  -0.90682
 Alpha  occ. eigenvalues --   -0.82990  -0.75022  -0.62678  -0.62349  -0.59310
 Alpha  occ. eigenvalues --   -0.58082  -0.54622  -0.54068  -0.52851  -0.51094
 Alpha  occ. eigenvalues --   -0.50065  -0.48219  -0.45427  -0.44635  -0.43900
 Alpha virt. eigenvalues --    0.03686   0.04377   0.04560   0.04725   0.06324
 Alpha virt. eigenvalues --    0.06487   0.06908   0.06915   0.07059   0.08639
 Alpha virt. eigenvalues --    0.09335   0.09363   0.09421   0.11932   0.13049

 Mulliken charges:
               1
     1  C   -1.038703
     2  H   -0.209248
     3  C   -1.038703
     4  H   -0.209248
     5  C    0.821300
     6  H   -0.108502
     7  H   -0.021294
     8  H   -0.067528
     9  C    0.821300
    10  H   -0.108502
    11  H   -0.067528
    12  H   -0.021294
    13  C    0.821300
    14  H   -0.021294
    15  H   -0.108502
    16  H   -0.067528
    17  C    0.821300
    18  H   -0.108502
    19  H   -0.021294
    20  H   -0.067528
 Sum of Mulliken charges =  -0.00000

 Dipole moment (field-independent basis, Debye):
    X=              0.0000    Y=              0.0000    Z=              0.0000  Tot=              0.0000

 Test job not archived.
 1\1\GINC-SE332\SP\RHF\Aug-CC-pVDZ\C6H14\OHZDE\08-Apr-2025\0\\#t hf aug
 -cc-pvdz iop(5/13=1,5/36=2,99/5=2) pseudo=read geom=check guess=(read,
 tcheck) scf=(maxcycle=1)\\title\\0,1\C,0,0.341702,-0.695133,0.\H,0,1.4
 24935,-0.520295,0.\C,0,-0.341702,0.695133,0.\H,0,-1.424935,0.520295,0.
 \C,0,0.,1.513924,1.250811\H,0,-0.342372,1.037017,2.167609\H,0,1.079758
 ,1.663618,1.333715\H,0,-0.464798,2.499792,1.202345\C,0,0.,1.513924,-1.
 250811\H,0,-0.342372,1.037017,-2.167609\H,0,-0.464798,2.499792,-1.2023
 45\H,0,1.079758,1.663618,-1.333715\C,0,0.,-1.513924,-1.250811\H,0,-1.0

 Normal termination of Gaussian 16 at Tue Apr  8 22:17:49 2025.
