 Gaussian 16, Revision C.01,

 ----------------------------------------------------------------------
 #t hf aug-cc-pvdz symm=none int=(grid=ultrafine) guess=(read,tcheck) s
 table=(opt,rrhf)
 ----------------------------------------------------------------------
 -----
 title
 -----
 Symbolic Z-matrix:
 Charge =  0 Multiplicity = 1

 SCF Done:  E(RHF) =  -637.023874057     A.U. after   17 cycles
 Normal termination of Gaussian 16 at Tue Apr  8 20:56:44 2025.
 Gaussian 16:  ES64L-G16RevC.01  3-Jul-2019

 ----------------------------------------------------------------------
 #t hf aug-cc-pvdz iop(5/13=1,5/36=2,99/5=2) pseudo=read geom=check gue
 ss=(read,tcheck) scf=(maxcycle=1)
 ----------------------------------------------------------------------
 -----
 title
 -----
 Structure from the checkpoint file:  "ANI1ccx_1814_conf1_mol2.chk"
 Charge =  0 Multiplicity = 1

                         Standard orientation:
 ---------------------------------------------------------------------
 Center     Atomic      Atomic             Coordinates (Angstroms)
 Number     Number       Type             X           Y           Z
 ---------------------------------------------------------------------
      1          6           0        1.606910    1.205431    0.023717
      2          6           0        2.970040    0.606597   -0.051494
      3          6           0        0.848448   -1.103119    0.006630
      4          6           0       -1.230669   -0.993998    0.000034
      5          6           0       -2.613169   -1.269921    0.000277
      6          6           0       -3.489949   -0.193699   -0.040970
      7          6           0       -3.014880    1.138789   -0.027927
      8          6           0       -1.662540    1.394980    0.003337
      9          6           0       -0.801106    0.336303    0.049690
     10          1           0       -1.339250    2.407810   -0.036339
     11          1           0       -3.664520    2.006779    0.124981
     12          1           0       -4.565709   -0.304945   -0.029194
     13          1           0        3.780730    1.308612   -0.062401
     14          1           0        2.430122   -2.436359    0.241147
     15          1           0       -2.967248   -2.286781    0.036442
     16          7           0        0.608610    0.224287    0.117231
     17          7           0        3.183451   -0.656679   -0.027652
     18          7           0        2.154651   -1.474579   -0.005510
     19          7           0       -0.192665   -1.882710   -0.061032
     20          8           0        1.296130    2.388061   -0.026957
 ---------------------------------------------------------------------

 SCF Done:  E(RHF) =  -637.207172761     A.U. after    2 cycles

 The electronic state is 1-A.
 Alpha  occ. eigenvalues --  -20.58582 -15.74400 -15.73992 -15.72378 -15.63163
 Alpha  occ. eigenvalues --  -11.41874 -11.39752 -11.32338 -11.29132 -11.28617
 Alpha  occ. eigenvalues --  -11.25256 -11.24953 -11.24819 -11.24339  -1.42093
 Alpha  occ. eigenvalues --   -1.37648  -1.33306  -1.20453  -1.16107  -1.13081
 Alpha  occ. eigenvalues --   -1.03787  -1.01371  -0.94456  -0.92003  -0.86306
 Alpha  occ. eigenvalues --   -0.84633  -0.78890  -0.78590  -0.72542  -0.71109
 Alpha  occ. eigenvalues --   -0.69921  -0.67314  -0.66453  -0.63633  -0.62390
 Alpha  occ. eigenvalues --   -0.61204  -0.60245  -0.58200  -0.54896  -0.53660
 Alpha  occ. eigenvalues --   -0.51847  -0.49103  -0.46879  -0.45950  -0.45462
 Alpha  occ. eigenvalues --   -0.40229  -0.33941  -0.30233
 Alpha virt. eigenvalues --    0.02893   0.03455   0.03595   0.04856   0.05182
 Alpha virt. eigenvalues --    0.05739   0.07060   0.07169   0.09053   0.09688
 Alpha virt. eigenvalues --    0.10200   0.10604   0.11146   0.11702   0.12187

 Mulliken charges:
               1
     1  C    0.178549
     2  C    0.961953
     3  C   -0.139124
     4  C   -0.604924
     5  C    1.664735
     6  C    0.709583
     7  C    0.050253
     8  C    1.092222
     9  C    0.743834
    10  H   -0.599667
    11  H   -0.436658
    12  H   -0.453341
    13  H   -0.251813
    14  H    0.014013
    15  H   -0.523245
    16  N   -0.780680
    17  N   -0.407539
    18  N   -0.132151
    19  N   -0.619212
    20  O   -0.466788
 Sum of Mulliken charges =  -0.00000

 Dipole moment (field-independent basis, Debye):
    X=              1.4614    Y=             -1.6590    Z=              0.6639  Tot=              2.3084

 Test job not archived.
 1\1\GINC-SE343\SP\RHF\Aug-CC-pVDZ\C9H6N4O1\OHZDE\08-Apr-2025\0\\#t hf
 aug-cc-pvdz iop(5/13=1,5/36=2,99/5=2) pseudo=read geom=check guess=(re
 ad,tcheck) scf=(maxcycle=1)\\title\\0,1\C,0,1.60691,1.20543,0.0237172\
 C,0,2.97004,0.606595,-0.0514939\C,0,0.848447,-1.10312,0.00663044\C,0,-
 1.23067,-0.993998,0.000034\C,0,-2.61317,-1.26992,0.00027684\C,0,-3.489
 95,-0.193698,-0.0409704\C,0,-3.01488,1.13879,-0.027927\C,0,-1.66254,1.
 39498,0.0033366\C,0,-0.801107,0.336303,0.0496899\H,0,-1.33925,2.40781,
 -0.0363387\H,0,-3.66452,2.00678,0.124981\H,0,-4.56571,-0.304943,-0.029

 Normal termination of Gaussian 16 at Tue Apr  8 20:57:01 2025.
