 Gaussian 16, Revision C.01,

 ----------------------------------------------------------------------
 #t hf aug-cc-pvdz symm=none int=(grid=ultrafine) guess=(read,tcheck) s
 table=(opt,rrhf)
 ----------------------------------------------------------------------
 -----
 title
 -----
 Symbolic Z-matrix:
 Charge =  0 Multiplicity = 1

 SCF Done:  E(RHF) =  -487.415409031     A.U. after   14 cycles
 Normal termination of Gaussian 16 at Tue Apr  8 21:56:22 2025.
 Gaussian 16:  ES64L-G16RevC.01  3-Jul-2019

 ----------------------------------------------------------------------
 #t hf aug-cc-pvdz iop(5/13=1,5/36=2,99/5=2) pseudo=read geom=check gue
 ss=(read,tcheck) scf=(maxcycle=1)
 ----------------------------------------------------------------------
 -----
 title
 -----
 Structure from the checkpoint file:  "ANI1ccx_877_conf2_mol1.chk"
 Charge =  0 Multiplicity = 1

                         Standard orientation:
 ---------------------------------------------------------------------
 Center     Atomic      Atomic             Coordinates (Angstroms)
 Number     Number       Type             X           Y           Z
 ---------------------------------------------------------------------
      1          6           0        0.893860   -1.131578   -0.051768
      2          6           0       -0.569222   -1.412521    0.105360
      3          6           0       -1.434350   -0.193122   -0.055466
      4          6           0        0.534218    1.333612    0.032217
      5          1           0       -0.811071   -2.114561   -0.654812
      6          1           0       -0.713051   -1.817601    1.085240
      7          1           0       -1.378154    1.806978   -0.206040
      8          1           0        2.290769    0.294311    0.014829
      9          7           0       -0.808957    1.022119   -0.261321
     10          7           0        1.310449    0.207867   -0.050157
     11          8           0        1.744953   -1.965896   -0.022306
     12          8           0       -2.675460   -0.274529    0.090596
     13          8           0        0.999760    2.445753    0.151595
 ---------------------------------------------------------------------

 SCF Done:  E(RHF) =  -487.564727313     A.U. after    2 cycles

 The electronic state is 1-A.
 Alpha  occ. eigenvalues --  -20.59357 -20.59263 -20.58932 -15.71362 -15.70448
 Alpha  occ. eigenvalues --  -11.45728 -11.42905 -11.42055 -11.30612  -1.43096
 Alpha  occ. eigenvalues --   -1.41123  -1.37748  -1.28044  -1.22336  -1.09800
 Alpha  occ. eigenvalues --   -0.93511  -0.89943  -0.84011  -0.79281  -0.72381
 Alpha  occ. eigenvalues --   -0.71621  -0.70644  -0.68665  -0.65255  -0.65166
 Alpha  occ. eigenvalues --   -0.64101  -0.61758  -0.55526  -0.53033  -0.51602
 Alpha  occ. eigenvalues --   -0.47361  -0.47007  -0.46095
 Alpha virt. eigenvalues --    0.02862   0.04161   0.04504   0.04522   0.07154
 Alpha virt. eigenvalues --    0.08752   0.09233   0.09474   0.09813   0.11173
 Alpha virt. eigenvalues --    0.12549   0.13154   0.13333   0.14030   0.14262

 Mulliken charges:
               1
     1  C    0.598507
     2  C   -0.016597
     3  C    0.768927
     4  C    0.801279
     5  H    0.106624
     6  H    0.122569
     7  H   -0.099353
     8  H   -0.096632
     9  N   -0.348956
    10  N   -0.359546
    11  O   -0.481751
    12  O   -0.567610
    13  O   -0.427463
 Sum of Mulliken charges =  -0.00000

 Dipole moment (field-independent basis, Debye):
    X=              0.1983    Y=             -0.6612    Z=             -0.1988  Tot=              0.7183

 Test job not archived.
 1\1\GINC-SE365\SP\RHF\Aug-CC-pVDZ\C4H4N2O3\OHZDE\08-Apr-2025\0\\#t hf
 aug-cc-pvdz iop(5/13=1,5/36=2,99/5=2) pseudo=read geom=check guess=(re
 ad,tcheck) scf=(maxcycle=1)\\title\\0,1\C,0,0.893858,-1.13158,-0.05176
 82\C,0,-0.569224,-1.41252,0.10536\C,0,-1.43435,-0.19312,-0.0554658\C,0
 ,0.534221,1.33361,0.0322168\H,0,-0.811075,-2.11456,-0.654812\H,0,-0.71
 3054,-1.8176,1.08524\H,0,-1.37815,1.80698,-0.20604\H,0,2.29077,0.29430
 6,0.0148286\N,0,-0.808954,1.02212,-0.261321\N,0,1.31045,0.207864,-0.05
 01571\O,0,1.74495,-1.9659,-0.0223063\O,0,-2.67546,-0.274524,0.0905957\

 Normal termination of Gaussian 16 at Tue Apr  8 21:56:27 2025.
