 Gaussian 16, Revision C.01,

 ----------------------------------------------------------------------
 #t hf aug-cc-pvdz symm=none int=(grid=ultrafine) guess=(read,tcheck) s
 table=(opt,rrhf)
 ----------------------------------------------------------------------
 -----
 title
 -----
 Symbolic Z-matrix:
 Charge =  0 Multiplicity = 1

 SCF Done:  E(RHF) =  -380.197064547     A.U. after   12 cycles
 Normal termination of Gaussian 16 at Tue Apr  8 20:58:20 2025.
 Gaussian 16:  ES64L-G16RevC.01  3-Jul-2019

 ----------------------------------------------------------------------
 #t hf aug-cc-pvdz iop(5/13=1,5/36=2,99/5=2) pseudo=read geom=check gue
 ss=(read,tcheck) scf=(maxcycle=1)
 ----------------------------------------------------------------------
 -----
 title
 -----
 Structure from the checkpoint file:  "ANI1ccx_1843_conf194_mol1.chk"
 Charge =  0 Multiplicity = 1

                         Standard orientation:
 ---------------------------------------------------------------------
 Center     Atomic      Atomic             Coordinates (Angstroms)
 Number     Number       Type             X           Y           Z
 ---------------------------------------------------------------------
      1          1           0       -0.274590    1.492270    0.327654
      2          1           0        0.535142    2.037300    1.625100
      3          1           0       -2.085291    0.352380   -0.408286
      4          1           0       -1.744801    1.448830   -1.325700
      5          1           0       -2.475151   -1.801000    0.318755
      6          1           0       -0.939267   -1.465940    0.131218
      7          1           0        1.376579   -1.216210    0.048235
      8          1           0        0.532280   -0.485584    1.056930
      9          1           0        3.183289   -0.225854   -0.257659
     10          1           0        1.921359    0.645335   -0.515144
     11          8           0        0.652087    1.410520    0.789884
     12          8           0       -1.873891    1.294970   -0.390623
     13          8           0       -1.863741   -1.292790   -0.242661
     14          8           0        0.659270   -1.432750    0.707850
     15          8           0        2.422579   -0.077641   -0.989588
 ---------------------------------------------------------------------

 SCF Done:  E(RHF) =  -380.320956565     A.U. after    2 cycles

 The electronic state is 1-A.
 Alpha  occ. eigenvalues --  -20.60447 -20.59842 -20.57525 -20.57202 -20.57017
 Alpha  occ. eigenvalues --   -1.32748  -1.30805  -1.29919  -1.29107  -1.27900
 Alpha  occ. eigenvalues --   -0.73809  -0.72803  -0.71638  -0.69977  -0.68890
 Alpha  occ. eigenvalues --   -0.64897  -0.62237  -0.61362  -0.59728  -0.57636
 Alpha  occ. eigenvalues --   -0.53766  -0.53045  -0.52428  -0.51869  -0.51272
 Alpha virt. eigenvalues --    0.02731   0.04565   0.05024   0.05403   0.07691
 Alpha virt. eigenvalues --    0.08034   0.08320   0.09179   0.10079   0.11462
 Alpha virt. eigenvalues --    0.16038   0.17556   0.19194   0.19585   0.20133

 Mulliken charges:
               1
     1  H    0.378426
     2  H    0.272090
     3  H    0.242844
     4  H    0.181211
     5  H    0.178741
     6  H    0.308195
     7  H    0.249010
     8  H    0.273506
     9  H    0.283990
    10  H    0.228879
    11  O   -0.659815
    12  O   -0.424430
    13  O   -0.450434
    14  O   -0.560207
    15  O   -0.502005
 Sum of Mulliken charges =  -0.00000

 Dipole moment (field-independent basis, Debye):
    X=              0.0935    Y=              1.7174    Z=              1.9689  Tot=              2.6144

 Test job not archived.
 1\1\GINC-SE362\SP\RHF\Aug-CC-pVDZ\H10O5\OHZDE\08-Apr-2025\0\\#t hf aug
 -cc-pvdz iop(5/13=1,5/36=2,99/5=2) pseudo=read geom=check guess=(read,
 tcheck) scf=(maxcycle=1)\\title\\0,1\H,0,-0.274589,1.49227,0.327654\H,
 0,0.535143,2.0373,1.6251\H,0,-2.08529,0.35238,-0.408286\H,0,-1.7448,1.
 44883,-1.3257\H,0,-2.47515,-1.801,0.318755\H,0,-0.939266,-1.46594,0.13
 1218\H,0,1.37658,-1.21621,0.048235\H,0,0.532281,-0.485584,1.05693\H,0,
 3.18329,-0.225854,-0.257659\H,0,1.92136,0.645335,-0.515144\O,0,0.65208
 8,1.41052,0.789884\O,0,-1.87389,1.29497,-0.390623\O,0,-1.86374,-1.2927

 Normal termination of Gaussian 16 at Tue Apr  8 20:58:23 2025.
