 Gaussian 16, Revision C.01,

 ----------------------------------------------------------------------
 #t hf aug-cc-pvdz symm=none int=(grid=ultrafine) guess=(read,tcheck) s
 table=(opt,rrhf)
 ----------------------------------------------------------------------
 -----
 title
 -----
 Symbolic Z-matrix:
 Charge =  0 Multiplicity = 1

 SCF Done:  E(RHF) =  -869.519198600     A.U. after   15 cycles
 Normal termination of Gaussian 16 at Tue Apr  8 21:28:43 2025.
 Gaussian 16:  ES64L-G16RevC.01  3-Jul-2019

 ----------------------------------------------------------------------
 #t hf aug-cc-pvdz iop(5/13=1,5/36=2,99/5=2) pseudo=read geom=check gue
 ss=(read,tcheck) scf=(maxcycle=1)
 ----------------------------------------------------------------------
 -----
 title
 -----
 Structure from the checkpoint file:  "ANI1ccx_185_conf10_mol2.chk"
 Charge =  0 Multiplicity = 1

                         Standard orientation:
 ---------------------------------------------------------------------
 Center     Atomic      Atomic             Coordinates (Angstroms)
 Number     Number       Type             X           Y           Z
 ---------------------------------------------------------------------
      1          6           0       -0.726866    2.117310   -0.441158
      2          6           0        3.138749   -1.488622   -0.865187
      3          6           0        2.683639   -0.139629   -0.311366
      4          6           0        0.914806   -1.307471    1.100830
      5          6           0        1.298609   -0.051396    0.269007
      6          6           0        2.906420    1.037648   -1.255350
      7          6           0       -2.886241   -0.815691    0.434286
      8          6           0       -2.308081    0.109678   -0.408760
      9          6           0       -2.177710    1.569581   -0.269522
     10          6           0       -0.034946    1.909400    0.971308
     11          6           0       -1.920412   -1.823469   -1.244170
     12          1           0        3.300849   -0.004478    0.606770
     13          1           0        0.195732   -3.075201    1.017790
     14          1           0        2.477228   -1.780302   -1.646530
     15          1           0        3.145138   -2.241442   -0.073411
     16          1           0        4.165209   -1.419413   -1.284120
     17          1           0        2.717210    2.002688   -0.805160
     18          1           0        2.259600    0.921710   -2.140800
     19          1           0        3.970800    1.031778   -1.545950
     20          1           0        0.508695   -0.073244   -0.466213
     21          1           0       -1.632402   -2.642010   -1.838090
     22          1           0       -2.758442   -2.929809    0.321106
     23          1           0       -3.390831   -0.687785    1.380720
     24          1           0       -2.484470    1.858871    0.739985
     25          1           0       -2.839780    2.043731   -0.990153
     26          1           0       -0.869530    3.210310   -0.464756
     27          1           0       -0.151813    2.496590   -2.296900
     28          1           0       -0.396080    0.921243   -2.061070
     29          1           0        1.231930    1.038599    2.025420
     30          7           0        0.001994    1.749810   -1.648760
     31          7           0       -1.664761   -0.547536   -1.412350
     32          7           0       -2.574842   -2.019649   -0.098450
     33          7           0        1.110100    1.113739    1.059120
     34          8           0        0.872308   -1.293011    2.287080
     35          8           0       -0.546469    2.510630    1.896680
     36          8           0        0.563626   -2.398921    0.359355
 ---------------------------------------------------------------------

 SCF Done:  E(RHF) =  -869.778333957     A.U. after    2 cycles

 The electronic state is 1-A.
 Alpha  occ. eigenvalues --  -20.63593 -20.57347 -20.53753 -15.70058 -15.63385
 Alpha  occ. eigenvalues --  -15.61836 -15.59444 -11.39970 -11.35898 -11.31732
 Alpha  occ. eigenvalues --  -11.28655 -11.27926 -11.27551 -11.26677 -11.23944
 Alpha  occ. eigenvalues --  -11.23683 -11.22452 -11.20773  -1.43169  -1.34706
 Alpha  occ. eigenvalues --   -1.33975  -1.33622  -1.21431  -1.17048  -1.14511
 Alpha  occ. eigenvalues --   -1.07548  -1.04868  -0.98122  -0.96672  -0.92672
 Alpha  occ. eigenvalues --   -0.88755  -0.84168  -0.83966  -0.79251  -0.78638
 Alpha  occ. eigenvalues --   -0.77697  -0.74165  -0.72808  -0.71552  -0.67729
 Alpha  occ. eigenvalues --   -0.67379  -0.66574  -0.65461  -0.64205  -0.62487
 Alpha  occ. eigenvalues --   -0.61848  -0.61653  -0.60812  -0.59770  -0.59255
 Alpha  occ. eigenvalues --   -0.57891  -0.56155  -0.55067  -0.54033  -0.53617
 Alpha  occ. eigenvalues --   -0.52298  -0.51966  -0.50062  -0.49531  -0.48774
 Alpha  occ. eigenvalues --   -0.46488  -0.45495  -0.44715  -0.43287  -0.40818
 Alpha  occ. eigenvalues --   -0.39899  -0.37147  -0.32357
 Alpha virt. eigenvalues --    0.01478   0.03143   0.03460   0.03917   0.04845
 Alpha virt. eigenvalues --    0.05066   0.05752   0.06130   0.06648   0.07067
 Alpha virt. eigenvalues --    0.07537   0.08324   0.08578   0.08909   0.09194

 Mulliken charges:
               1
     1  C    0.166113
     2  C    0.840039
     3  C   -0.896650
     4  C    0.730644
     5  C   -0.068619
     6  C    1.113502
     7  C    1.129481
     8  C   -0.448709
     9  C    0.405147
    10  C    0.658257
    11  C    0.874492
    12  H   -0.032132
    13  H    0.282664
    14  H   -0.031228
    15  H    0.052566
    16  H   -0.043527
    17  H   -0.073395
    18  H    0.096210
    19  H   -0.102763
    20  H   -0.330363
    21  H   -0.483838
    22  H   -0.105284
    23  H   -0.404224
    24  H    0.068481
    25  H   -0.037063
    26  H   -0.046280
    27  H   -0.085104
    28  H    0.193330
    29  H   -0.070953
    30  N   -0.210989
    31  N   -0.568570
    32  N   -0.398820
    33  N   -0.302110
    34  O   -0.493992
    35  O   -0.673846
    36  O   -0.702466
 Sum of Mulliken charges =  -0.00000

 Dipole moment (field-independent basis, Debye):
    X=             -2.0524    Y=             -5.2631    Z=             -2.8442  Tot=              6.3247

 Test job not archived.
 1\1\GINC-SE364\SP\RHF\Aug-CC-pVDZ\C11H18N4O3\OHZDE\08-Apr-2025\0\\#t h
 f aug-cc-pvdz iop(5/13=1,5/36=2,99/5=2) pseudo=read geom=check guess=(
 read,tcheck) scf=(maxcycle=1)\\title\\0,1\C,0,-0.726866,2.11731,-0.441
 158\C,0,3.13875,-1.48862,-0.865187\C,0,2.68364,-0.139627,-0.311366\C,0
 ,0.914807,-1.30747,1.10083\C,0,1.29861,-0.0513951,0.269007\C,0,2.90642
 ,1.03765,-1.25535\C,0,-2.88624,-0.815692,0.434286\C,0,-2.30808,0.10967
 7,-0.40876\C,0,-2.17771,1.56958,-0.269522\C,0,-0.0349465,1.9094,0.9713
 08\C,0,-1.92041,-1.82347,-1.24417\H,0,3.30085,-0.00447575,0.60677\H,0,

 Normal termination of Gaussian 16 at Tue Apr  8 21:29:49 2025.
