 Gaussian 16, Revision C.01,

 ----------------------------------------------------------------------
 #t hf aug-cc-pvdz symm=none int=(grid=ultrafine) guess=(read,tcheck) s
 table=(opt,rrhf)
 ----------------------------------------------------------------------
 -----
 title
 -----
 Symbolic Z-matrix:
 Charge =  0 Multiplicity = 1

 SCF Done:  E(RHF) =  -798.771377535     A.U. after   14 cycles
 Normal termination of Gaussian 16 at Tue Apr  8 22:13:33 2025.
 Gaussian 16:  ES64L-G16RevC.01  3-Jul-2019

 ----------------------------------------------------------------------
 #t hf aug-cc-pvdz iop(5/13=1,5/36=2,99/5=2) pseudo=read geom=check gue
 ss=(read,tcheck) scf=(maxcycle=1)
 ----------------------------------------------------------------------
 -----
 title
 -----
 Structure from the checkpoint file:  "ANI1ccx_86_conf3_mol1.chk"
 Charge =  0 Multiplicity = 1

                         Standard orientation:
 ---------------------------------------------------------------------
 Center     Atomic      Atomic             Coordinates (Angstroms)
 Number     Number       Type             X           Y           Z
 ---------------------------------------------------------------------
      1          6           0       -1.745500   -0.501497   -0.626817
      2          6           0        2.124869    0.921268    0.835144
      3          6           0        2.084331   -1.036719   -0.817465
      4          6           0        1.264700   -0.043700    0.011496
      5          6           0       -1.209032    2.511459   -1.088710
      6          6           0        3.116550    0.239330    1.707260
      7          6           0       -3.703010    0.274164    0.758237
      8          6           0       -2.739510    0.670187   -0.367961
      9          6           0       -0.999119   -0.926536    0.679447
     10          6           0       -2.050621    1.943969    0.021720
     11          1           0       -0.421057    1.830920   -1.341930
     12          1           0        3.387270    0.318477   -0.897905
     13          1           0        3.833050   -0.398450    1.043530
     14          1           0        3.695129    1.000362    2.264590
     15          1           0        2.619400   -0.426314    2.459510
     16          1           0        3.166118    2.512422    0.235660
     17          1           0        1.459459    1.540381    1.431830
     18          1           0        0.760548    0.514772   -0.725768
     19          1           0        0.648637   -1.299780    1.639260
     20          1           0       -0.699905    3.459209   -0.852862
     21          1           0       -1.411191    1.745739    0.897402
     22          1           0       -2.770952    2.740928    0.352955
     23          1           0       -3.263250    0.235899    1.739220
     24          1           0       -4.489371    1.013537    0.831984
     25          1           0       -4.217050   -0.663569    0.539084
     26          1           0       -3.371300    0.792737   -1.247240
     27          1           0       -1.051720   -0.223378   -1.471120
     28          1           0       -2.111199   -2.266192   -1.675540
     29          1           0       -2.820139   -2.213682   -0.171600
     30          1           0       -1.770502    2.598369   -1.997100
     31          7           0       -2.595419   -1.677442   -1.004070
     32          7           0        0.315439   -0.690187    0.874951
     33          8           0        2.740289    1.764402   -0.193273
     34          8           0       -1.679629   -1.624301    1.422910
     35          8           0        1.762511   -2.188729   -0.967520
     36          8           0        3.167570   -0.520188   -1.365140
 ---------------------------------------------------------------------

 SCF Done:  E(RHF) =  -799.016081964     A.U. after    2 cycles

 The electronic state is 1-A.
 Alpha  occ. eigenvalues --  -20.63331 -20.62407 -20.56662 -20.53567 -15.67089
 Alpha  occ. eigenvalues --  -15.59265 -11.40421 -11.36920 -11.34688 -11.32296
 Alpha  occ. eigenvalues --  -11.28437 -11.28432 -11.23430 -11.23297 -11.22656
 Alpha  occ. eigenvalues --  -11.19926  -1.43686  -1.37801  -1.35421  -1.33593
 Alpha  occ. eigenvalues --   -1.23108  -1.14333  -1.08991  -1.07495  -1.00583
 Alpha  occ. eigenvalues --   -0.98591  -0.92190  -0.88218  -0.86064  -0.85231
 Alpha  occ. eigenvalues --   -0.82094  -0.79967  -0.75584  -0.73387  -0.70828
 Alpha  occ. eigenvalues --   -0.69599  -0.68568  -0.67354  -0.65922  -0.64969
 Alpha  occ. eigenvalues --   -0.64395  -0.63583  -0.62449  -0.60967  -0.59739
 Alpha  occ. eigenvalues --   -0.59023  -0.58251  -0.56504  -0.55943  -0.54380
 Alpha  occ. eigenvalues --   -0.54152  -0.53605  -0.52065  -0.51845  -0.50092
 Alpha  occ. eigenvalues --   -0.49567  -0.48093  -0.47466  -0.46208  -0.45635
 Alpha  occ. eigenvalues --   -0.43375  -0.41623  -0.37348
 Alpha virt. eigenvalues --    0.01269   0.03224   0.03535   0.04149   0.05052
 Alpha virt. eigenvalues --    0.05221   0.05315   0.06175   0.06322   0.07171
 Alpha virt. eigenvalues --    0.07327   0.07669   0.07900   0.08489   0.09305

 Mulliken charges:
               1
     1  C    0.412532
     2  C    0.569105
     3  C    0.625582
     4  C    0.531045
     5  C    0.933992
     6  C    0.316363
     7  C    1.149463
     8  C   -0.770873
     9  C    0.320239
    10  C    0.629917
    11  H   -0.778449
    12  H    0.348026
    13  H    0.089132
    14  H   -0.030332
    15  H    0.051736
    16  H    0.197222
    17  H   -0.173909
    18  H   -0.336416
    19  H   -0.075704
    20  H    0.005707
    21  H   -0.096327
    22  H   -0.134507
    23  H   -0.110958
    24  H   -0.174260
    25  H   -0.057791
    26  H   -0.322647
    27  H   -0.282756
    28  H   -0.044233
    29  H    0.144357
    30  H    0.002539
    31  N   -0.293778
    32  N   -0.354938
    33  O   -0.731903
    34  O   -0.574244
    35  O   -0.492338
    36  O   -0.490593
 Sum of Mulliken charges =  -0.00000

 Dipole moment (field-independent basis, Debye):
    X=              4.1947    Y=              6.4669    Z=              2.5229  Tot=              8.1105

 Test job not archived.
 1\1\GINC-SE398\SP\RHF\Aug-CC-pVDZ\C10H20N2O4\OHZDE\08-Apr-2025\0\\#t h
 f aug-cc-pvdz iop(5/13=1,5/36=2,99/5=2) pseudo=read geom=check guess=(
 read,tcheck) scf=(maxcycle=1)\\title\\0,1\C,0,-1.7455,-0.501496,-0.626
 817\C,0,2.12487,0.921267,0.835144\C,0,2.08433,-1.03672,-0.817465\C,0,1
 .2647,-0.0437007,0.0114962\C,0,-1.20903,2.51146,-1.08871\C,0,3.11655,0
 .239328,1.70726\C,0,-3.70301,0.274167,0.758237\C,0,-2.73951,0.670189,-
 0.367961\C,0,-0.99912,-0.926535,0.679447\C,0,-2.05062,1.94397,0.021719
 9\H,0,-0.421056,1.83092,-1.34193\H,0,3.38727,0.318475,-0.897905\H,0,3.

 Normal termination of Gaussian 16 at Tue Apr  8 22:14:30 2025.
