 Gaussian 16, Revision C.01,

 ----------------------------------------------------------------------
 #t hf aug-cc-pvdz symm=none int=(grid=ultrafine) guess=(read,tcheck) s
 table=(opt,rrhf)
 ----------------------------------------------------------------------
 -----
 title
 -----
 Symbolic Z-matrix:
 Charge =  0 Multiplicity = 1

 SCF Done:  E(RHF) =  -756.569805665     A.U. after   14 cycles
 Normal termination of Gaussian 16 at Tue Apr  8 19:37:13 2025.
 Gaussian 16:  ES64L-G16RevC.01  3-Jul-2019

 ----------------------------------------------------------------------
 #t hf aug-cc-pvdz iop(5/13=1,5/36=2,99/5=2) pseudo=read geom=check gue
 ss=(read,tcheck) scf=(maxcycle=1)
 ----------------------------------------------------------------------
 -----
 title
 -----
 Structure from the checkpoint file:  "ANI1ccx_1435_conf17_mol2.chk"
 Charge =  0 Multiplicity = 1

                         Standard orientation:
 ---------------------------------------------------------------------
 Center     Atomic      Atomic             Coordinates (Angstroms)
 Number     Number       Type             X           Y           Z
 ---------------------------------------------------------------------
      1          6           0       -1.729711   -0.650062    0.380153
      2          6           0       -0.369370   -0.534093   -0.161425
      3          6           0       -2.795681   -0.147493   -0.640030
      4          6           0       -4.150031   -0.363396   -0.108598
      5          6           0        1.960959   -0.182382    0.503495
      6          6           0        1.899259    1.298731    0.225126
      7          6           0        2.773539   -0.962538   -0.492608
      8          1           0        2.868628    2.784221   -0.285810
      9          1           0        2.001300   -2.641509    0.075601
     10          1           0        2.308269   -0.770934   -1.459330
     11          1           0        3.865209   -0.638853   -0.554533
     12          1           0        2.388239   -0.283377    1.518920
     13          1           0        0.264202   -0.783261    1.678890
     14          1           0       -4.396610   -1.403441    0.063915
     15          1           0       -4.354681    0.237658    0.745899
     16          1           0       -4.859311   -0.036307   -0.890707
     17          1           0       -1.736811    1.278460   -1.406010
     18          1           0       -2.655931   -0.716494   -1.580140
     19          1           0       -1.950090   -1.717750    0.520112
     20          1           0       -2.686971   -0.282941    2.153750
     21          1           0       -1.803131    0.915678    1.574600
     22          7           0       -1.816931   -0.082787    1.701170
     23          7           0        0.628622   -0.762018    0.726180
     24          8           0       -0.112040   -0.321928   -1.337530
     25          8           0       -2.585011    1.228009   -0.912283
     26          8           0        1.019129    2.032081    0.598972
     27          8           0        2.865600   -2.352889   -0.186189
     28          8           0        3.003829    1.817211   -0.335878
 ---------------------------------------------------------------------

 SCF Done:  E(RHF) =  -756.802803665     A.U. after    2 cycles

 The electronic state is 1-A.
 Alpha  occ. eigenvalues --  -20.64125 -20.57765 -20.57577 -20.56958 -20.55640
 Alpha  occ. eigenvalues --  -15.66171 -15.62777 -11.41668 -11.37376 -11.31949
 Alpha  occ. eigenvalues --  -11.29867 -11.29560 -11.28610 -11.22933  -1.44824
 Alpha  occ. eigenvalues --   -1.37556  -1.33936  -1.32995  -1.32134  -1.22757
 Alpha  occ. eigenvalues --   -1.18716  -1.05770  -1.03771  -0.96413  -0.90442
 Alpha  occ. eigenvalues --   -0.86390  -0.81346  -0.78443  -0.75384  -0.73619
 Alpha  occ. eigenvalues --   -0.73229  -0.71520  -0.70820  -0.69575  -0.66924
 Alpha  occ. eigenvalues --   -0.65951  -0.63983  -0.63509  -0.62334  -0.61449
 Alpha  occ. eigenvalues --   -0.59302  -0.57802  -0.57295  -0.56319  -0.54192
 Alpha  occ. eigenvalues --   -0.53234  -0.52834  -0.51250  -0.50187  -0.49039
 Alpha  occ. eigenvalues --   -0.48163  -0.47775  -0.45126  -0.42880  -0.40164
 Alpha virt. eigenvalues --    0.02640   0.03247   0.03829   0.03999   0.05182
 Alpha virt. eigenvalues --    0.05816   0.05863   0.06637   0.07506   0.07730
 Alpha virt. eigenvalues --    0.08051   0.08427   0.08966   0.09752   0.11691

 Mulliken charges:
               1
     1  C    0.217449
     2  C    0.383648
     3  C    0.580851
     4  C    0.715703
     5  C   -0.026775
     6  C    0.826306
     7  C    1.101256
     8  H    0.222330
     9  H    0.155905
    10  H   -0.058706
    11  H    0.000845
    12  H   -0.115992
    13  H    0.049275
    14  H   -0.005083
    15  H   -0.125904
    16  H    0.033206
    17  H    0.221520
    18  H   -0.240560
    19  H   -0.114879
    20  H   -0.008533
    21  H    0.141344
    22  N   -0.382569
    23  N   -0.660810
    24  O   -0.597996
    25  O   -0.681566
    26  O   -0.520589
    27  O   -0.543502
    28  O   -0.566175
 Sum of Mulliken charges =   0.00000

 Dipole moment (field-independent basis, Debye):
    X=             -1.1114    Y=             -0.6517    Z=              2.7544  Tot=              3.0408

 Test job not archived.
 1\1\GINC-SE096\SP\RHF\Aug-CC-pVDZ\C7H14N2O5\OHZDE\08-Apr-2025\0\\#t hf
  aug-cc-pvdz iop(5/13=1,5/36=2,99/5=2) pseudo=read geom=check guess=(r
 ead,tcheck) scf=(maxcycle=1)\\title\\0,1\C,0,-1.72971,-0.650062,0.3801
 53\C,0,-0.369369,-0.534093,-0.161425\C,0,-2.79568,-0.147492,-0.64003\C
 ,0,-4.15003,-0.363395,-0.108598\C,0,1.96096,-0.182383,0.503495\C,0,1.8
 9926,1.29873,0.225126\C,0,2.77354,-0.962539,-0.492608\H,0,2.86863,2.78
 422,-0.28581\H,0,2.0013,-2.64151,0.075601\H,0,2.30827,-0.770935,-1.459
 33\H,0,3.86521,-0.638854,-0.554533\H,0,2.38824,-0.283378,1.51892\H,0,0

 Normal termination of Gaussian 16 at Tue Apr  8 19:37:42 2025.
