 Gaussian 16, Revision C.01,

 ----------------------------------------------------------------------
 #t hf aug-cc-pvdz symm=none int=(grid=ultrafine) guess=(read,tcheck) s
 table=(opt,rrhf)
 ----------------------------------------------------------------------
 -----
 title
 -----
 Symbolic Z-matrix:
 Charge =  0 Multiplicity = 1

 SCF Done:  E(RHF) =  -468.181345595     A.U. after   15 cycles
 Normal termination of Gaussian 16 at Tue Apr  8 21:47:41 2025.
 Gaussian 16:  ES64L-G16RevC.01  3-Jul-2019

 ----------------------------------------------------------------------
 #t hf aug-cc-pvdz iop(5/13=1,5/36=2,99/5=2) pseudo=read geom=check gue
 ss=(read,tcheck) scf=(maxcycle=1)
 ----------------------------------------------------------------------
 -----
 title
 -----
 Structure from the checkpoint file:  "ANI1ccx_646_conf3_mol2.chk"
 Charge =  0 Multiplicity = 1

                         Standard orientation:
 ---------------------------------------------------------------------
 Center     Atomic      Atomic             Coordinates (Angstroms)
 Number     Number       Type             X           Y           Z
 ---------------------------------------------------------------------
      1          6           0        1.356551    0.015477    0.013006
      2          6           0       -0.803622    0.748061    0.003684
      3          6           0       -0.754816   -0.782833    0.023242
      4          1           0        0.813296    2.022200    0.063713
      5          7           0        0.505494    1.071050    0.173215
      6          8           0        2.552121    0.010154   -0.130179
      7          8           0       -1.800449    1.429572   -0.094003
      8          8           0       -1.720420   -1.466269   -0.027014
      9          8           0        0.576195   -1.148930    0.061721
 ---------------------------------------------------------------------

 SCF Done:  E(RHF) =  -468.326888830     A.U. after    2 cycles

 The electronic state is 1-A.
 Alpha  occ. eigenvalues --  -20.70667 -20.63900 -20.62868 -20.62654 -15.75149
 Alpha  occ. eigenvalues --  -11.50310 -11.46259 -11.44812  -1.52606  -1.44299
 Alpha  occ. eigenvalues --   -1.42100  -1.39883  -1.30383  -1.01155  -0.94743
 Alpha  occ. eigenvalues --   -0.90258  -0.79733  -0.76689  -0.73784  -0.73415
 Alpha  occ. eigenvalues --   -0.71338  -0.68893  -0.64442  -0.63269  -0.59452
 Alpha  occ. eigenvalues --   -0.55172  -0.54297  -0.50326  -0.49795
 Alpha virt. eigenvalues --    0.02210   0.02472   0.06021   0.06548   0.07155
 Alpha virt. eigenvalues --    0.09661   0.10508   0.10879   0.11162   0.12170
 Alpha virt. eigenvalues --    0.13566   0.13968   0.14463   0.15765   0.18115

 Mulliken charges:
               1
     1  C    0.803608
     2  C    0.479525
     3  C    0.630976
     4  H   -0.017755
     5  N   -0.226689
     6  O   -0.357934
     7  O   -0.396743
     8  O   -0.330818
     9  O   -0.584170
 Sum of Mulliken charges =  -0.00000

 Dipole moment (field-independent basis, Debye):
    X=              1.5780    Y=              2.5304    Z=              0.3886  Tot=              3.0073

 Test job not archived.
 1\1\GINC-SE044\SP\RHF\Aug-CC-pVDZ\C3H1N1O4\OHZDE\08-Apr-2025\0\\#t hf
 aug-cc-pvdz iop(5/13=1,5/36=2,99/5=2) pseudo=read geom=check guess=(re
 ad,tcheck) scf=(maxcycle=1)\\title\\0,1\C,0,1.35655,0.015478,0.0130055
 \C,0,-0.803623,0.74806,0.00368365\C,0,-0.754816,-0.782834,0.0232424\H,
 0,0.813294,2.0222,0.0637129\N,0,0.505493,1.07105,0.173215\O,0,2.55212,
 0.0101557,-0.130179\O,0,-1.80045,1.42957,-0.0940035\O,0,-1.72042,-1.46
 627,-0.0270144\O,0,0.576195,-1.14893,0.0617209\\Version=ES64L-G16RevC.
 01\State=1-A\HF=-468.3268888\RMSD=3.767e-03\Dipole=0.6208426,0.9955255

 Normal termination of Gaussian 16 at Tue Apr  8 21:47:44 2025.
