 Gaussian 16, Revision C.01,

 ----------------------------------------------------------------------
 #t hf aug-cc-pvdz symm=none int=(grid=ultrafine) guess=(read,tcheck) s
 table=(opt,rrhf)
 ----------------------------------------------------------------------
 -----
 title
 -----
 Symbolic Z-matrix:
 Charge =  0 Multiplicity = 1

 SCF Done:  E(RHF) =  -528.658053643     A.U. after   15 cycles
 Normal termination of Gaussian 16 at Tue Apr  8 22:15:59 2025.
 Gaussian 16:  ES64L-G16RevC.01  3-Jul-2019

 ----------------------------------------------------------------------
 #t hf aug-cc-pvdz iop(5/13=1,5/36=2,99/5=2) pseudo=read geom=check gue
 ss=(read,tcheck) scf=(maxcycle=1)
 ----------------------------------------------------------------------
 -----
 title
 -----
 Structure from the checkpoint file:  "ANI1ccx_998_conf129_mol1.chk"
 Charge =  0 Multiplicity = 1

                         Standard orientation:
 ---------------------------------------------------------------------
 Center     Atomic      Atomic             Coordinates (Angstroms)
 Number     Number       Type             X           Y           Z
 ---------------------------------------------------------------------
      1          6           0       -0.572490    0.008271   -0.183652
      2          6           0       -2.073900   -0.325931   -0.186442
      3          6           0        0.196620   -0.423100    1.139740
      4          6           0        1.497820    0.283119    1.261310
      5          6           0        2.131260   -0.300411    0.062778
      6          1           0       -3.683560    0.350749    0.443965
      7          1           0        3.028120    1.535619   -0.543696
      8          1           0        2.581310    0.302607   -1.929000
      9          1           0        1.164430    1.289169    1.085080
     10          1           0        2.103730    0.538966    2.065090
     11          1           0        0.245760   -1.455900    1.102150
     12          1           0       -0.497112   -0.018368    2.050930
     13          1           0       -0.095515   -0.494625   -1.150980
     14          1           0        0.322329    1.702600   -0.942536
     15          1           0       -1.355599    1.915190   -0.620538
     16          7           0       -0.479644    1.461220   -0.431420
     17          7           0        2.468800    0.678515   -0.916887
     18          8           0       -2.555141   -1.309749   -0.640075
     19          8           0        2.174099   -1.418171   -0.285511
     20          8           0       -2.720690    0.715941    0.339995
 ---------------------------------------------------------------------

 SCF Done:  E(RHF) =  -528.823021210     A.U. after    2 cycles

 The electronic state is 1-A.
 Alpha  occ. eigenvalues --  -20.64285 -20.57368 -20.55135 -15.64836 -15.59699
 Alpha  occ. eigenvalues --  -11.40240 -11.36508 -11.29820 -11.25845 -11.23927
 Alpha  occ. eigenvalues --   -1.44074  -1.39140  -1.34555  -1.16781  -1.13848
 Alpha  occ. eigenvalues --   -1.07181  -0.96174  -0.87588  -0.80006  -0.77094
 Alpha  occ. eigenvalues --   -0.74579  -0.71679  -0.70659  -0.68229  -0.66846
 Alpha  occ. eigenvalues --   -0.65948  -0.64548  -0.63785  -0.59082  -0.58091
 Alpha  occ. eigenvalues --   -0.56105  -0.54003  -0.51541  -0.50794  -0.48234
 Alpha  occ. eigenvalues --   -0.46678  -0.43383  -0.41402  -0.37102
 Alpha virt. eigenvalues --    0.02584   0.03326   0.03678   0.04955   0.05810
 Alpha virt. eigenvalues --    0.06523   0.07251   0.07861   0.08315   0.08661
 Alpha virt. eigenvalues --    0.10231   0.11122   0.12156   0.13311   0.13758

 Mulliken charges:
               1
     1  C    0.011951
     2  C    0.745869
     3  C   -0.014230
     4  C    0.889982
     5  C    0.594604
     6  H    0.292128
     7  H    0.171887
     8  H    0.107565
     9  H   -0.131298
    10  H   -0.186600
    11  H   -0.224009
    12  H    0.242447
    13  H    0.127136
    14  H    0.020183
    15  H   -0.009535
    16  N   -0.308055
    17  N   -0.752245
    18  O   -0.457353
    19  O   -0.494803
    20  O   -0.625623
 Sum of Mulliken charges =  -0.00000

 Dipole moment (field-independent basis, Debye):
    X=              0.6880    Y=              4.6445    Z=              0.9822  Tot=              4.7968

 Test job not archived.
 1\1\GINC-SE435\SP\RHF\Aug-CC-pVDZ\C5H10N2O3\OHZDE\08-Apr-2025\0\\#t hf
  aug-cc-pvdz iop(5/13=1,5/36=2,99/5=2) pseudo=read geom=check guess=(r
 ead,tcheck) scf=(maxcycle=1)\\title\\0,1\C,0,-0.57249,0.00827144,-0.18
 3652\C,0,-2.0739,-0.325931,-0.186442\C,0,0.19662,-0.4231,1.13974\C,0,1
 .49782,0.28312,1.26131\C,0,2.13126,-0.30041,0.0627778\H,0,-3.68356,0.3
 50748,0.443965\H,0,3.02812,1.53562,-0.543696\H,0,2.58131,0.302608,-1.9
 29\H,0,1.16443,1.28917,1.08508\H,0,2.10373,0.538967,2.06509\H,0,0.2457
 61,-1.4559,1.10215\H,0,-0.497112,-0.0183674,2.05093\H,0,-0.0955152,-0.

 Normal termination of Gaussian 16 at Tue Apr  8 22:16:10 2025.
