 Gaussian 16, Revision C.01,

 ----------------------------------------------------------------------
 #t hf aug-cc-pvdz symm=none int=(grid=ultrafine) guess=(read,tcheck) s
 table=(opt,rrhf)
 ----------------------------------------------------------------------
 -----
 title
 -----
 Symbolic Z-matrix:
 Charge =  0 Multiplicity = 1

 SCF Done:  E(RHF) =  -351.485217948     A.U. after   15 cycles
 Normal termination of Gaussian 16 at Tue Apr  8 21:18:26 2025.
 Gaussian 16:  ES64L-G16RevC.01  3-Jul-2019

 ----------------------------------------------------------------------
 #t hf aug-cc-pvdz iop(5/13=1,5/36=2,99/5=2) pseudo=read geom=check gue
 ss=(read,tcheck) scf=(maxcycle=1)
 ----------------------------------------------------------------------
 -----
 title
 -----
 Structure from the checkpoint file:  "ANI1ccx_371_conf8_mol1.chk"
 Charge =  0 Multiplicity = 1

                         Standard orientation:
 ---------------------------------------------------------------------
 Center     Atomic      Atomic             Coordinates (Angstroms)
 Number     Number       Type             X           Y           Z
 ---------------------------------------------------------------------
      1          6           0        0.779998    0.004369   -0.007166
      2          1           0        0.153959    2.046331    0.155244
      3          7           0       -0.078175    1.036261   -0.000728
      4          7           0       -1.360679    0.611909   -0.022713
      5          7           0       -1.420809   -0.626364   -0.007331
      6          8           0        1.988631   -0.060489   -0.016271
      7          8           0       -0.090669   -1.092659    0.029165
 ---------------------------------------------------------------------

 SCF Done:  E(RHF) =  -351.589573399     A.U. after    2 cycles

 The electronic state is 1-A.
 Alpha  occ. eigenvalues --  -20.69587 -20.58955 -15.80527 -15.79196 -15.76332
 Alpha  occ. eigenvalues --  -11.46995  -1.55025  -1.39473  -1.34377  -1.23546
 Alpha  occ. eigenvalues --   -0.95080  -0.93109  -0.81280  -0.75773  -0.70277
 Alpha  occ. eigenvalues --   -0.67825  -0.60826  -0.58987  -0.58187  -0.56903
 Alpha  occ. eigenvalues --   -0.48955  -0.44268
 Alpha virt. eigenvalues --    0.02187   0.07837   0.08120   0.08872   0.09473
 Alpha virt. eigenvalues --    0.11755   0.12306   0.12683   0.15281   0.16430
 Alpha virt. eigenvalues --    0.17021   0.18671   0.19064   0.20848   0.24012

 Mulliken charges:
               1
     1  C    0.813725
     2  H    0.075490
     3  N   -0.098898
     4  N    0.051350
     5  N    0.125512
     6  O   -0.386244
     7  O   -0.580936
 Sum of Mulliken charges =   0.00000

 Dipole moment (field-independent basis, Debye):
    X=             -1.7163    Y=              3.4782    Z=              0.2673  Tot=              3.8878

 Test job not archived.
 1\1\GINC-SE132\SP\RHF\Aug-CC-pVDZ\C1H1N3O2\OHZDE\08-Apr-2025\0\\#t hf
 aug-cc-pvdz iop(5/13=1,5/36=2,99/5=2) pseudo=read geom=check guess=(re
 ad,tcheck) scf=(maxcycle=1)\\title\\0,1\C,0,0.779997,0.00436906,-0.007
 1661\H,0,0.153957,2.04633,0.155244\N,0,-0.0781768,1.03626,-0.00072817\
 N,0,-1.36068,0.611908,-0.0227126\N,0,-1.42081,-0.626365,-0.00733133\O,
 0,1.98863,-0.0604888,-0.0162708\O,0,-0.0906702,-1.09266,0.0291655\\Ver
 sion=ES64L-G16RevC.01\State=1-A\HF=-351.5895734\RMSD=3.370e-03\Dipole=
 -0.6752321,1.3684268,0.1051646\Quadrupole=-6.44552,4.3651647,2.0803554

 Normal termination of Gaussian 16 at Tue Apr  8 21:18:29 2025.
