 Gaussian 16, Revision C.01,

 ----------------------------------------------------------------------
 #t hf aug-cc-pvdz symm=none int=(grid=ultrafine) guess=(read,tcheck) s
 table=(opt,rrhf)
 ----------------------------------------------------------------------
 -----
 title
 -----
 Symbolic Z-matrix:
 Charge =  0 Multiplicity = 1

 SCF Done:  E(RHF) =  -299.987104187     A.U. after   13 cycles
 Normal termination of Gaussian 16 at Tue Apr  8 21:37:35 2025.
 Gaussian 16:  ES64L-G16RevC.01  3-Jul-2019

 ----------------------------------------------------------------------
 #t hf aug-cc-pvdz iop(5/13=1,5/36=2,99/5=2) pseudo=read geom=check gue
 ss=(read,tcheck) scf=(maxcycle=1)
 ----------------------------------------------------------------------
 -----
 title
 -----
 Structure from the checkpoint file:  "ANI1ccx_426_conf1_mol1.chk"
 Charge =  0 Multiplicity = 1

                         Standard orientation:
 ---------------------------------------------------------------------
 Center     Atomic      Atomic             Coordinates (Angstroms)
 Number     Number       Type             X           Y           Z
 ---------------------------------------------------------------------
      1          6           0       -1.453050   -0.048930    0.234235
      2          1           0        1.891990   -1.267569    0.528926
      3          1           0        2.915480   -1.136200   -0.760103
      4          1           0        2.050370    1.062730    0.688301
      5          1           0        1.286710    0.577216   -0.723453
      6          1           0       -2.588790   -1.508238   -0.059531
      7          1           0       -0.898060   -0.745571    0.882312
      8          7           0        2.633940   -0.706876    0.113901
      9          7           0        2.153710    0.584289   -0.194814
     10          8           0       -2.582340   -0.555946   -0.229110
     11          8           0       -1.099280    1.077111    0.054676
 ---------------------------------------------------------------------

 SCF Done:  E(RHF) =  -300.084991089     A.U. after    2 cycles

 The electronic state is 1-A.
 Alpha  occ. eigenvalues --  -20.65875 -20.58807 -15.63413 -15.62168 -11.42232
 Alpha  occ. eigenvalues --   -1.45727  -1.36418  -1.21887  -0.97291  -0.89475
 Alpha  occ. eigenvalues --   -0.82559  -0.70398  -0.68457  -0.67602  -0.66235
 Alpha  occ. eigenvalues --   -0.62732  -0.59281  -0.52596  -0.49824  -0.42439
 Alpha  occ. eigenvalues --   -0.37220
 Alpha virt. eigenvalues --    0.01443   0.04308   0.04446   0.05983   0.06977
 Alpha virt. eigenvalues --    0.07937   0.09859   0.11534   0.12968   0.14567
 Alpha virt. eigenvalues --    0.15215   0.17172   0.17403   0.18623   0.19635

 Mulliken charges:
               1
     1  C    0.810303
     2  H    0.015429
     3  H    0.074584
     4  H    0.063056
     5  H    0.059376
     6  H    0.202501
     7  H   -0.186445
     8  N   -0.133441
     9  N   -0.084109
    10  O   -0.401905
    11  O   -0.419350
 Sum of Mulliken charges =  -0.00000

 Dipole moment (field-independent basis, Debye):
    X=             -2.5930    Y=             -5.0261    Z=              0.9674  Tot=              5.7377

 Test job not archived.
 1\1\GINC-SE041\SP\RHF\Aug-CC-pVDZ\C1H6N2O2\OHZDE\08-Apr-2025\0\\#t hf
 aug-cc-pvdz iop(5/13=1,5/36=2,99/5=2) pseudo=read geom=check guess=(re
 ad,tcheck) scf=(maxcycle=1)\\title\\0,1\C,0,-1.45305,-0.0489318,0.2342
 35\H,0,1.89199,-1.26757,0.528926\H,0,2.91548,-1.1362,-0.760103\H,0,2.0
 5037,1.06273,0.688301\H,0,1.28671,0.577215,-0.723453\H,0,-2.58879,-1.5
 0824,-0.059531\H,0,-0.89806,-0.745572,0.882312\N,0,2.63394,-0.706876,0
 .113901\N,0,2.15371,0.584289,-0.194814\O,0,-2.58234,-0.555948,-0.22911
 \O,0,-1.09928,1.07711,0.0546764\\Version=ES64L-G16RevC.01\State=1-A\HF

 Normal termination of Gaussian 16 at Tue Apr  8 21:37:38 2025.
