 Gaussian 16, Revision C.01,

 ----------------------------------------------------------------------
 #t hf aug-cc-pvdz symm=none int=(grid=ultrafine) guess=(read,tcheck) s
 table=(opt,rrhf)
 ----------------------------------------------------------------------
 -----
 title
 -----
 Symbolic Z-matrix:
 Charge =  0 Multiplicity = 1

 SCF Done:  E(RHF) =  -538.506569086     A.U. after   16 cycles
 Normal termination of Gaussian 16 at Tue Apr  8 21:50:48 2025.
 Gaussian 16:  ES64L-G16RevC.01  3-Jul-2019

 ----------------------------------------------------------------------
 #t hf aug-cc-pvdz iop(5/13=1,5/36=2,99/5=2) pseudo=read geom=check gue
 ss=(read,tcheck) scf=(maxcycle=1)
 ----------------------------------------------------------------------
 -----
 title
 -----
 Structure from the checkpoint file:  "ANI1ccx_716_conf3_mol1.chk"
 Charge =  0 Multiplicity = 1

                         Standard orientation:
 ---------------------------------------------------------------------
 Center     Atomic      Atomic             Coordinates (Angstroms)
 Number     Number       Type             X           Y           Z
 ---------------------------------------------------------------------
      1          6           0       -0.742434    0.449828    0.533068
      2          6           0       -1.764461   -0.463995   -0.136404
      3          6           0        0.690865    0.104188    0.297052
      4          1           0       -2.106470    1.921781    0.493360
      5          1           0       -1.040400    2.039480   -0.742877
      6          1           0       -0.956656    0.283824    1.623440
      7          1           0       -0.717308   -1.995130    0.357712
      8          1           0        1.436970    1.991990   -0.275406
      9          7           0       -1.064250    1.856700    0.267074
     10          7           0        1.260969   -1.095730    0.309030
     11          7           0        2.540339   -0.872552   -0.114748
     12          7           0        2.717890    0.343936   -0.409411
     13          7           0        1.549380    1.001700   -0.171004
     14          8           0       -1.581691   -1.763019   -0.010569
     15          8           0       -2.762090    0.085463   -0.587571
 ---------------------------------------------------------------------

 SCF Done:  E(RHF) =  -538.662237045     A.U. after    2 cycles

 The electronic state is 1-A.
 Alpha  occ. eigenvalues --  -20.65227 -20.58483 -15.75830 -15.74405 -15.73620
 Alpha  occ. eigenvalues --  -15.69101 -15.66117 -11.43080 -11.37844 -11.34684
 Alpha  occ. eigenvalues --   -1.47293  -1.45065  -1.35486  -1.24546  -1.21654
 Alpha  occ. eigenvalues --   -1.17198  -1.00937  -0.90674  -0.90007  -0.87626
 Alpha  occ. eigenvalues --   -0.80411  -0.76867  -0.72333  -0.70534  -0.68655
 Alpha  occ. eigenvalues --   -0.66150  -0.63513  -0.62393  -0.60715  -0.56679
 Alpha  occ. eigenvalues --   -0.51827  -0.50308  -0.49562  -0.47741  -0.47035
 Alpha  occ. eigenvalues --   -0.45467  -0.42287
 Alpha virt. eigenvalues --    0.02348   0.02890   0.04343   0.05157   0.07308
 Alpha virt. eigenvalues --    0.08429   0.09429   0.09969   0.10613   0.11705
 Alpha virt. eigenvalues --    0.12216   0.12994   0.13325   0.13892   0.14343

 Mulliken charges:
               1
     1  C    0.177760
     2  C    0.718852
     3  C    0.910271
     4  H    0.163670
     5  H    0.063093
     6  H    0.128026
     7  H    0.224075
     8  H   -0.018880
     9  N   -0.412833
    10  N   -0.502976
    11  N   -0.211617
    12  N   -0.157089
    13  N   -0.141681
    14  O   -0.444846
    15  O   -0.495825
 Sum of Mulliken charges =  -0.00000

 Dipole moment (field-independent basis, Debye):
    X=             -0.0088    Y=              3.1553    Z=              1.3932  Tot=              3.4492

 Test job not archived.
 1\1\GINC-SE250\SP\RHF\Aug-CC-pVDZ\C3H5N5O2\OHZDE\08-Apr-2025\0\\#t hf
 aug-cc-pvdz iop(5/13=1,5/36=2,99/5=2) pseudo=read geom=check guess=(re
 ad,tcheck) scf=(maxcycle=1)\\title\\0,1\C,0,-0.742434,0.449828,0.53306
 8\C,0,-1.76446,-0.463996,-0.136404\C,0,0.690865,0.104188,0.297052\H,0,
 -2.10647,1.92178,0.49336\H,0,-1.0404,2.03948,-0.742877\H,0,-0.956656,0
 .283824,1.62344\H,0,-0.717307,-1.99513,0.357712\H,0,1.43697,1.99199,-0
 .275406\N,0,-1.06425,1.8567,0.267074\N,0,1.26097,-1.09573,0.30903\N,0,
 2.54034,-0.872551,-0.114748\N,0,2.71789,0.343937,-0.409411\N,0,1.54938

 Normal termination of Gaussian 16 at Tue Apr  8 21:50:55 2025.
