 Gaussian 16, Revision C.01,

 ----------------------------------------------------------------------
 #t hf aug-cc-pvdz symm=none int=(grid=ultrafine) guess=(read,tcheck) s
 table=(opt,rrhf)
 ----------------------------------------------------------------------
 -----
 title
 -----
 Symbolic Z-matrix:
 Charge =  0 Multiplicity = 1

 SCF Done:  E(RHF) =  -353.615669122     A.U. after   14 cycles
 Normal termination of Gaussian 16 at Tue Apr  8 21:48:55 2025.
 Gaussian 16:  ES64L-G16RevC.01  3-Jul-2019

 ----------------------------------------------------------------------
 #t hf aug-cc-pvdz iop(5/13=1,5/36=2,99/5=2) pseudo=read geom=check gue
 ss=(read,tcheck) scf=(maxcycle=1)
 ----------------------------------------------------------------------
 -----
 title
 -----
 Structure from the checkpoint file:  "ANI1ccx_675_conf4_mol1.chk"
 Charge =  0 Multiplicity = 1

                         Standard orientation:
 ---------------------------------------------------------------------
 Center     Atomic      Atomic             Coordinates (Angstroms)
 Number     Number       Type             X           Y           Z
 ---------------------------------------------------------------------
      1          6           0        0.821730   -0.071573   -0.020767
      2          6           0       -1.058549    1.139443   -0.032580
      3          6           0       -1.104373   -1.060937    0.022868
      4          1           0        2.495171    0.789534    0.328704
      5          1           0       -1.507947    2.100004    0.050757
      6          1           0       -1.682904   -1.979716    0.111646
      7          7           0        0.298399    1.116731   -0.035453
      8          7           0       -1.755111    0.060245    0.039992
      9          7           0        0.179563   -1.206149   -0.056850
     10          8           0        2.210359   -0.093401    0.007244
 ---------------------------------------------------------------------

 SCF Done:  E(RHF) =  -353.720345772     A.U. after    2 cycles

 The electronic state is 1-A.
 Alpha  occ. eigenvalues --  -20.62374 -15.64942 -15.64897 -15.64344 -11.41075
 Alpha  occ. eigenvalues --  -11.36117 -11.35488  -1.40491  -1.34155  -1.21076
 Alpha  occ. eigenvalues --   -1.19063  -0.95837  -0.92356  -0.79894  -0.77800
 Alpha  occ. eigenvalues --   -0.69837  -0.66333  -0.64027  -0.60914  -0.57386
 Alpha  occ. eigenvalues --   -0.56730  -0.45387  -0.44353  -0.43915  -0.43153
 Alpha virt. eigenvalues --    0.03196   0.03798   0.04378   0.06404   0.07299
 Alpha virt. eigenvalues --    0.09340   0.10260   0.10775   0.11337   0.12886
 Alpha virt. eigenvalues --    0.13522   0.13989   0.14847   0.15489   0.16110

 Mulliken charges:
               1
     1  C    0.633272
     2  C    0.771846
     3  C    0.620158
     4  H    0.165702
     5  H   -0.269862
     6  H   -0.238257
     7  N   -0.450363
     8  N   -0.362625
     9  N   -0.339826
    10  O   -0.530046
 Sum of Mulliken charges =  -0.00000

 Dipole moment (field-independent basis, Debye):
    X=             -0.9674    Y=              1.6008    Z=              0.6097  Tot=              1.9673

 Test job not archived.
 1\1\GINC-SE247\SP\RHF\Aug-CC-pVDZ\C3H3N3O1\OHZDE\08-Apr-2025\0\\#t hf
 aug-cc-pvdz iop(5/13=1,5/36=2,99/5=2) pseudo=read geom=check guess=(re
 ad,tcheck) scf=(maxcycle=1)\\title\\0,1\C,0,0.821731,-0.0715727,-0.020
 7667\C,0,-1.05855,1.13944,-0.0325797\C,0,-1.10437,-1.06094,0.0228677\H
 ,0,2.49517,0.789537,0.328704\H,0,-1.50795,2.1,0.0507566\H,0,-1.6829,-1
 .97972,0.111646\N,0,0.298398,1.11673,-0.0354531\N,0,-1.75511,0.0602405
 ,0.0399917\N,0,0.179566,-1.20615,-0.0568503\O,0,2.21036,-0.0933986,0.0
 0724356\\Version=ES64L-G16RevC.01\State=1-A\HF=-353.7203458\RMSD=2.309

 Normal termination of Gaussian 16 at Tue Apr  8 21:48:59 2025.
