 Gaussian 16, Revision C.01,

 ----------------------------------------------------------------------
 #t hf aug-cc-pvdz symm=none int=(grid=ultrafine) guess=(read,tcheck) s
 table=(opt,rrhf)
 ----------------------------------------------------------------------
 -----
 title
 -----
 Symbolic Z-matrix:
 Charge =  0 Multiplicity = 1

 SCF Done:  E(RHF) =  -380.202739841     A.U. after   11 cycles
 Normal termination of Gaussian 16 at Tue Apr  8 20:58:23 2025.
 Gaussian 16:  ES64L-G16RevC.01  3-Jul-2019

 ----------------------------------------------------------------------
 #t hf aug-cc-pvdz iop(5/13=1,5/36=2,99/5=2) pseudo=read geom=check gue
 ss=(read,tcheck) scf=(maxcycle=1)
 ----------------------------------------------------------------------
 -----
 title
 -----
 Structure from the checkpoint file:  "ANI1ccx_1843_conf189_mol1.chk"
 Charge =  0 Multiplicity = 1

                         Standard orientation:
 ---------------------------------------------------------------------
 Center     Atomic      Atomic             Coordinates (Angstroms)
 Number     Number       Type             X           Y           Z
 ---------------------------------------------------------------------
      1          1           0       -1.285920   -1.188259   -0.097848
      2          1           0       -0.516766   -2.611219    0.049606
      3          1           0       -1.732649    0.908393   -0.322541
      4          1           0       -2.623120    0.298683    0.764226
      5          1           0        0.526800    2.476260   -0.346863
      6          1           0        0.408638    1.298321    0.617583
      7          1           0        1.833110   -0.126421    0.401773
      8          1           0        0.613855   -0.584014    1.169441
      9          1           0        0.967871    0.394025   -1.093989
     10          1           0        0.926592   -1.139310   -0.941488
     11          8           0       -0.433417   -1.630719    0.136715
     12          8           0       -2.353790    0.181673   -0.131947
     13          8           0       -0.000745    1.742221   -0.146049
     14          8           0        1.364410    0.100165    1.244341
     15          8           0        1.533740   -0.359147   -1.128049
 ---------------------------------------------------------------------

 SCF Done:  E(RHF) =  -380.327918343     A.U. after    2 cycles

 The electronic state is 1-A.
 Alpha  occ. eigenvalues --  -20.60393 -20.59523 -20.57610 -20.55597 -20.54057
 Alpha  occ. eigenvalues --   -1.34980  -1.33519  -1.32933  -1.30492  -1.26280
 Alpha  occ. eigenvalues --   -0.77443  -0.76486  -0.75543  -0.73145  -0.69376
 Alpha  occ. eigenvalues --   -0.65899  -0.63666  -0.61155  -0.60848  -0.56956
 Alpha  occ. eigenvalues --   -0.54934  -0.54175  -0.53461  -0.50049  -0.48172
 Alpha virt. eigenvalues --    0.02733   0.04310   0.04957   0.06884   0.07316
 Alpha virt. eigenvalues --    0.07971   0.08186   0.08738   0.09052   0.10730
 Alpha virt. eigenvalues --    0.16092   0.18299   0.19091   0.20907   0.21163

 Mulliken charges:
               1
     1  H    0.314448
     2  H    0.246480
     3  H    0.235598
     4  H    0.172372
     5  H    0.158325
     6  H    0.286704
     7  H    0.343532
     8  H    0.275877
     9  H    0.184350
    10  H    0.307955
    11  O   -0.586271
    12  O   -0.409641
    13  O   -0.481325
    14  O   -0.574937
    15  O   -0.473467
 Sum of Mulliken charges =   0.00000

 Dipole moment (field-independent basis, Debye):
    X=             -2.5396    Y=             -0.7562    Z=              0.2560  Tot=              2.6622

 Test job not archived.
 1\1\GINC-SE221\SP\RHF\Aug-CC-pVDZ\H10O5\OHZDE\08-Apr-2025\0\\#t hf aug
 -cc-pvdz iop(5/13=1,5/36=2,99/5=2) pseudo=read geom=check guess=(read,
 tcheck) scf=(maxcycle=1)\\title\\0,1\H,0,-1.28592,-1.18826,-0.0978494\
 H,0,-0.516765,-2.61122,0.0496044\H,0,-1.73265,0.908391,-0.322542\H,0,-
 2.62312,0.298681,0.764225\H,0,0.526799,2.47626,-0.346864\H,0,0.408637,
 1.29832,0.617582\H,0,1.83311,-0.126421,0.401772\H,0,0.613855,-0.584014
 ,1.16944\H,0,0.967871,0.394025,-1.09399\H,0,0.926592,-1.13931,-0.94148
 9\O,0,-0.433416,-1.63072,0.136714\O,0,-2.35379,0.181671,-0.131948\O,0,

 Normal termination of Gaussian 16 at Tue Apr  8 20:58:26 2025.
