 Gaussian 16, Revision C.01,

 ----------------------------------------------------------------------
 #t hf aug-cc-pvdz symm=none int=(grid=ultrafine) guess=(read,tcheck) s
 table=(opt,rrhf)
 ----------------------------------------------------------------------
 -----
 title
 -----
 Symbolic Z-matrix:
 Charge =  0 Multiplicity = 1

 SCF Done:  E(RHF) =  -334.008700939     A.U. after   14 cycles
 Normal termination of Gaussian 16 at Tue Apr  8 21:37:49 2025.
 Gaussian 16:  ES64L-G16RevC.01  3-Jul-2019

 ----------------------------------------------------------------------
 #t hf aug-cc-pvdz iop(5/13=1,5/36=2,99/5=2) pseudo=read geom=check gue
 ss=(read,tcheck) scf=(maxcycle=1)
 ----------------------------------------------------------------------
 -----
 title
 -----
 Structure from the checkpoint file:  "ANI1ccx_431_conf1_mol1.chk"
 Charge =  0 Multiplicity = 1

                         Standard orientation:
 ---------------------------------------------------------------------
 Center     Atomic      Atomic             Coordinates (Angstroms)
 Number     Number       Type             X           Y           Z
 ---------------------------------------------------------------------
      1          6           0        0.799977    0.011535   -0.001241
      2          1           0       -1.160293    0.784324   -1.136590
      3          1           0       -1.940065    1.214542    0.240928
      4          1           0        0.525042    1.897242    0.643760
      5          1           0        0.575544   -1.928677   -0.500348
      6          1           0       -1.942185   -1.139198   -0.279522
      7          1           0       -1.253616   -0.973593    1.243330
      8          7           0       -1.137806    1.415465   -0.360768
      9          7           0        0.003857    1.059570    0.413793
     10          7           0        0.024659   -1.076150   -0.369581
     11          7           0       -1.151254   -1.394165    0.304670
     12          8           0        2.027440    0.005388   -0.015114
 ---------------------------------------------------------------------

 SCF Done:  E(RHF) =  -334.109305444     A.U. after    2 cycles

 The electronic state is 1-A.
 Alpha  occ. eigenvalues --  -20.54760 -15.68246 -15.67877 -15.67298 -15.66953
 Alpha  occ. eigenvalues --  -11.40284  -1.37362  -1.28542  -1.25254  -1.07236
 Alpha  occ. eigenvalues --   -1.03282  -0.84757  -0.74453  -0.70714  -0.69970
 Alpha  occ. eigenvalues --   -0.68549  -0.63929  -0.62876  -0.58664  -0.51370
 Alpha  occ. eigenvalues --   -0.49154  -0.43392  -0.40700  -0.39834
 Alpha virt. eigenvalues --    0.02450   0.03517   0.04384   0.04634   0.07492
 Alpha virt. eigenvalues --    0.07612   0.11652   0.11955   0.12771   0.14868
 Alpha virt. eigenvalues --    0.15477   0.16279   0.16549   0.17726   0.18391

 Mulliken charges:
               1
     1  C    0.729766
     2  H    0.044616
     3  H    0.118008
     4  H    0.018890
     5  H    0.024756
     6  H    0.065023
     7  H    0.067563
     8  N   -0.082224
     9  N   -0.185588
    10  N   -0.200385
    11  N   -0.100180
    12  O   -0.500246
 Sum of Mulliken charges =   0.00000

 Dipole moment (field-independent basis, Debye):
    X=             -4.3577    Y=             -0.1246    Z=              0.4277  Tot=              4.3804

 Test job not archived.
 1\1\GINC-SE074\SP\RHF\Aug-CC-pVDZ\C1H6N4O1\OHZDE\08-Apr-2025\0\\#t hf
 aug-cc-pvdz iop(5/13=1,5/36=2,99/5=2) pseudo=read geom=check guess=(re
 ad,tcheck) scf=(maxcycle=1)\\title\\0,1\C,0,0.799977,0.0115318,-0.0012
 4068\H,0,-1.16029,0.784329,-1.13659\H,0,-1.94006,1.21455,0.240928\H,0,
 0.52505,1.89724,0.64376\H,0,0.575535,-1.92868,-0.500348\H,0,-1.94219,-
 1.13919,-0.279522\H,0,-1.25362,-0.973588,1.24333\N,0,-1.1378,1.41547,-
 0.360768\N,0,0.0038616,1.05957,0.413793\N,0,0.0246542,-1.07615,-0.3695
 81\N,0,-1.15126,-1.39416,0.30467\O,0,2.02744,0.00537882,-0.0151145\\Ve

 Normal termination of Gaussian 16 at Tue Apr  8 21:37:53 2025.
