 Gaussian 16, Revision C.01,

 ----------------------------------------------------------------------
 #t hf aug-cc-pvdz symm=none int=(grid=ultrafine) guess=(read,tcheck) s
 table=(opt,rrhf)
 ----------------------------------------------------------------------
 -----
 title
 -----
 Symbolic Z-matrix:
 Charge =  0 Multiplicity = 1

 SCF Done:  E(RHF) =  -381.957204494     A.U. after   13 cycles

 1\1\GINC-SE072\Stability\RHF\Aug-CC-pVDZ\C4H10O3\OHZDE\08-Apr-2025\0\\
 #t hf aug-cc-pvdz symm=none int=(grid=ultrafine) guess=(read,tcheck) s
 table=(opt,rrhf)\\title\\0,1\C,0,-2.12706,1.32137,-0.584857\C,0,-2.425
 9,-0.0433755,0.234272\C,0,-1.27418,-1.05514,0.0281584\C,0,0.0979934,-0
 .42118,0.191272\H,0,1.85713,-0.586589,-0.392304\H,0,-1.38979,-1.51741,
 -0.923432\H,0,-1.34285,-1.88814,0.741933\H,0,-3.33939,-0.47892,-0.1833
 15\H,0,-2.66978,0.119825,1.28765\H,0,-1.97369,1.01906,-1.62738\H,0,-1.
 22298,1.74378,-0.147704\H,0,-2.98366,2.04922,-0.522398\H,0,3.79939,1.3

 Normal termination of Gaussian 16 at Tue Apr  8 21:53:23 2025.
 Gaussian 16:  ES64L-G16RevC.01  3-Jul-2019

 ----------------------------------------------------------------------
 #t hf aug-cc-pvdz iop(5/13=1,5/36=2,99/5=2) pseudo=read geom=check gue
 ss=(read,tcheck) scf=(maxcycle=1)
 ----------------------------------------------------------------------
 -----
 title
 -----
 Structure from the checkpoint file:  "ANI1ccx_813_conf2_mol2.chk"
 Charge =  0 Multiplicity = 1

                         Standard orientation:
 ---------------------------------------------------------------------
 Center     Atomic      Atomic             Coordinates (Angstroms)
 Number     Number       Type             X           Y           Z
 ---------------------------------------------------------------------
      1          6           0       -2.127059    1.321372   -0.584857
      2          6           0       -2.425900   -0.043374    0.234272
      3          6           0       -1.274181   -1.055139    0.028158
      4          6           0        0.097993   -0.421179    0.191272
      5          1           0        1.857130   -0.586589   -0.392304
      6          1           0       -1.389791   -1.517409   -0.923432
      7          1           0       -1.342851   -1.888139    0.741933
      8          1           0       -3.339390   -0.478918   -0.183315
      9          1           0       -2.669780    0.119827    1.287650
     10          1           0       -1.973690    1.019062   -1.627380
     11          1           0       -1.222979    1.743781   -0.147704
     12          1           0       -2.983659    2.049222   -0.522398
     13          1           0        3.799391    1.301789    0.395792
     14          1           0        4.223680    0.161103   -0.608192
     15          8           0        3.498160    0.564618   -0.129712
     16          8           0        1.021839   -1.108730   -0.506142
     17          8           0        0.407103    0.452386    0.981639
 ---------------------------------------------------------------------

 SCF Done:  E(RHF) =  -382.080200996     A.U. after    2 cycles

 The electronic state is 1-A.
 Alpha  occ. eigenvalues --  -20.60409 -20.59780 -20.54744 -11.38649 -11.24551
 Alpha  occ. eigenvalues --  -11.23762 -11.22594  -1.40449  -1.33346  -1.30234
 Alpha  occ. eigenvalues --   -1.05511  -0.94723  -0.84859  -0.77693  -0.76755
 Alpha  occ. eigenvalues --   -0.70291  -0.68507  -0.65058  -0.62310  -0.60573
 Alpha  occ. eigenvalues --   -0.58196  -0.55914  -0.54997  -0.54245  -0.49630
 Alpha  occ. eigenvalues --   -0.48702  -0.47817  -0.46766  -0.44442
 Alpha virt. eigenvalues --    0.03001   0.04087   0.05014   0.05287   0.05865
 Alpha virt. eigenvalues --    0.06139   0.07590   0.07864   0.08858   0.09160
 Alpha virt. eigenvalues --    0.12170   0.14022   0.14607   0.15460   0.15735

 Mulliken charges:
               1
     1  C    0.395023
     2  C    0.263177
     3  C    0.082643
     4  C    0.499411
     5  H    0.186330
     6  H   -0.162293
     7  H    0.075345
     8  H   -0.038085
     9  H   -0.191213
    10  H   -0.073641
    11  H   -0.035893
    12  H   -0.039684
    13  H    0.166001
    14  H    0.174489
    15  O   -0.350012
    16  O   -0.435304
    17  O   -0.516293
 Sum of Mulliken charges =  -0.00000

 Dipole moment (field-independent basis, Debye):
    X=              1.7960    Y=             -0.3674    Z=             -1.2390  Tot=              2.2126

 Test job not archived.
 1\1\GINC-SE072\SP\RHF\Aug-CC-pVDZ\C4H10O3\OHZDE\08-Apr-2025\0\\#t hf a
 ug-cc-pvdz iop(5/13=1,5/36=2,99/5=2) pseudo=read geom=check guess=(rea
 d,tcheck) scf=(maxcycle=1)\\title\\0,1\C,0,-2.12706,1.32137,-0.584857\
 C,0,-2.4259,-0.0433755,0.234272\C,0,-1.27418,-1.05514,0.0281584\C,0,0.
 0979934,-0.42118,0.191272\H,0,1.85713,-0.586589,-0.392304\H,0,-1.38979
 ,-1.51741,-0.923432\H,0,-1.34285,-1.88814,0.741933\H,0,-3.33939,-0.478
 92,-0.183315\H,0,-2.66978,0.119825,1.28765\H,0,-1.97369,1.01906,-1.627
 38\H,0,-1.22298,1.74378,-0.147704\H,0,-2.98366,2.04922,-0.522398\H,0,3

 Normal termination of Gaussian 16 at Tue Apr  8 21:53:29 2025.
