 Gaussian 16, Revision C.01,

 ----------------------------------------------------------------------
 #t hf aug-cc-pvdz symm=none int=(grid=ultrafine) guess=(read,tcheck) s
 table=(opt,rrhf)
 ----------------------------------------------------------------------
 -----
 title
 -----
 Symbolic Z-matrix:
 Charge =  0 Multiplicity = 1

 SCF Done:  E(RHF) =  -908.379440737     A.U. after   14 cycles
 Normal termination of Gaussian 16 at Tue Apr  8 20:59:21 2025.
 Gaussian 16:  ES64L-G16RevC.01  3-Jul-2019

 ----------------------------------------------------------------------
 #t hf aug-cc-pvdz iop(5/13=1,5/36=2,99/5=2) pseudo=read geom=check gue
 ss=(read,tcheck) scf=(maxcycle=1)
 ----------------------------------------------------------------------
 -----
 title
 -----
 Structure from the checkpoint file:  "ANI1ccx_1761_conf6_mol1.chk"
 Charge =  0 Multiplicity = 1

                         Standard orientation:
 ---------------------------------------------------------------------
 Center     Atomic      Atomic             Coordinates (Angstroms)
 Number     Number       Type             X           Y           Z
 ---------------------------------------------------------------------
      1          6           0        2.241960   -0.088017   -0.683709
      2          6           0       -2.946981    0.885947    0.894531
      3          6           0       -2.071090   -0.147621    1.601519
      4          6           0       -1.872679   -1.531011   -0.552528
      5          6           0       -2.208122    1.950488    0.083025
      6          6           0        3.976140   -0.706224    1.075419
      7          6           0        3.198409    0.387196    0.377457
      8          6           0        1.129440   -0.996044   -0.121644
      9          6           0       -1.166040   -1.002001    0.711023
     10          1           0       -0.914405   -1.962801    1.206759
     11          1           0       -3.136439   -2.684042   -1.130981
     12          1           0       -0.601610    2.920139    0.029378
     13          1           0       -3.673181    0.401477    0.201939
     14          1           0       -3.570351    1.401808    1.669239
     15          1           0       -2.760370   -0.829138    2.149849
     16          1           0       -1.399121    0.304084    2.355299
     17          1           0        0.052427    0.534760   -0.030141
     18          1           0        4.738000   -0.306948    1.749999
     19          1           0        4.537300   -1.305567    0.323143
     20          1           0        3.319531   -1.407948    1.598979
     21          1           0        4.842549    0.812927   -0.616027
     22          1           0        2.670889    0.975388    1.141259
     23          1           0        2.791350   -0.720962   -1.414111
     24          1           0        2.285878    1.721041   -1.648611
     25          1           0        1.084279    0.714841   -2.183191
     26          7           0        1.564349    1.055131   -1.343761
     27          7           0        0.029061   -0.376781    0.331641
     28          8           0        1.247631   -2.242709   -0.005355
     29          8           0        4.134029    1.325263   -0.176990
     30          8           0       -1.746640   -1.181871   -1.667201
     31          8           0       -2.677962    2.596158   -0.821423
     32          8           0       -1.004212    2.231959    0.585771
     33          8           0       -2.841199   -2.458022   -0.243371
 ---------------------------------------------------------------------

 SCF Done:  E(RHF) =  -908.656741573     A.U. after    2 cycles

 The electronic state is 1-A.
 Alpha  occ. eigenvalues --  -20.63763 -20.62492 -20.58934 -20.58156 -20.57041
 Alpha  occ. eigenvalues --  -20.53611 -15.64595 -15.63517 -11.40997 -11.40351
 Alpha  occ. eigenvalues --  -11.36851 -11.31236 -11.31046 -11.29820 -11.28109
 Alpha  occ. eigenvalues --  -11.27578 -11.23867  -1.44643  -1.44354  -1.34389
 Alpha  occ. eigenvalues --   -1.33954  -1.33504  -1.33282  -1.22919  -1.17525
 Alpha  occ. eigenvalues --   -1.09422  -1.04139  -1.01402  -0.93932  -0.90889
 Alpha  occ. eigenvalues --   -0.86450  -0.84672  -0.81863  -0.79200  -0.74347
 Alpha  occ. eigenvalues --   -0.72997  -0.72781  -0.71596  -0.69405  -0.68440
 Alpha  occ. eigenvalues --   -0.68046  -0.67963  -0.66885  -0.65873  -0.64151
 Alpha  occ. eigenvalues --   -0.63053  -0.61877  -0.61384  -0.60274  -0.59810
 Alpha  occ. eigenvalues --   -0.58246  -0.56392  -0.54791  -0.54554  -0.54266
 Alpha  occ. eigenvalues --   -0.53901  -0.52223  -0.51825  -0.50120  -0.49880
 Alpha  occ. eigenvalues --   -0.48446  -0.47795  -0.47015  -0.44148  -0.41963
 Alpha  occ. eigenvalues --   -0.40233
 Alpha virt. eigenvalues --    0.02751   0.03056   0.03730   0.03959   0.04848
 Alpha virt. eigenvalues --    0.05154   0.05943   0.06254   0.06509   0.07198
 Alpha virt. eigenvalues --    0.07441   0.07803   0.08231   0.09450   0.09992

 Mulliken charges:
               1
     1  C    0.598612
     2  C    0.050472
     3  C    0.549368
     4  C    0.715417
     5  C    0.670672
     6  C    0.628388
     7  C    0.145739
     8  C    0.513830
     9  C   -0.242235
    10  H   -0.046268
    11  H    0.192397
    12  H    0.252425
    13  H    0.079263
    14  H    0.077560
    15  H   -0.016814
    16  H   -0.010171
    17  H   -0.025518
    18  H   -0.021814
    19  H   -0.032335
    20  H   -0.044829
    21  H    0.215328
    22  H   -0.246408
    23  H   -0.026348
    24  H    0.052106
    25  H    0.115347
    26  N   -0.470129
    27  N   -0.092774
    28  O   -0.687114
    29  O   -0.660143
    30  O   -0.473113
    31  O   -0.517853
    32  O   -0.640921
    33  O   -0.602138
 Sum of Mulliken charges =  -0.00000

 Dipole moment (field-independent basis, Debye):
    X=              1.0386    Y=              0.8048    Z=              1.8179  Tot=              2.2431

 Test job not archived.
 1\1\GINC-SE143\SP\RHF\Aug-CC-pVDZ\C9H16N2O6\OHZDE\08-Apr-2025\0\\#t hf
  aug-cc-pvdz iop(5/13=1,5/36=2,99/5=2) pseudo=read geom=check guess=(r
 ead,tcheck) scf=(maxcycle=1)\\title\\0,1\C,0,2.24196,-0.0880187,-0.683
 708\C,0,-2.94698,0.885949,0.894532\C,0,-2.07109,-0.14762,1.60152\C,0,-
 1.87268,-1.53101,-0.552527\C,0,-2.20812,1.95049,0.083026\C,0,3.97614,-
 0.706226,1.07542\C,0,3.19841,0.387194,0.377458\C,0,1.12944,-0.996045,-
 0.121643\C,0,-1.16604,-1.002,0.711024\H,0,-0.914406,-1.9628,1.20676\H,
 0,-3.13644,-2.68404,-1.13098\H,0,-0.601608,2.92014,0.029379\H,0,-3.673

 Normal termination of Gaussian 16 at Tue Apr  8 21:00:13 2025.
