 Gaussian 16, Revision C.01,

 ----------------------------------------------------------------------
 #t hf aug-cc-pvdz symm=none int=(grid=ultrafine) guess=(read,tcheck) s
 table=(opt,rrhf)
 ----------------------------------------------------------------------
 -----
 title
 -----
 Symbolic Z-matrix:
 Charge =  0 Multiplicity = 1

 SCF Done:  E(RHF) =  -332.532573447     A.U. after   16 cycles
 Normal termination of Gaussian 16 at Tue Apr  8 21:47:53 2025.
 Gaussian 16:  ES64L-G16RevC.01  3-Jul-2019

 ----------------------------------------------------------------------
 #t hf aug-cc-pvdz iop(5/13=1,5/36=2,99/5=2) pseudo=read geom=check gue
 ss=(read,tcheck) scf=(maxcycle=1)
 ----------------------------------------------------------------------
 -----
 title
 -----
 Structure from the checkpoint file:  "ANI1ccx_658_conf3_mol1.chk"
 Charge =  0 Multiplicity = 1

                         Standard orientation:
 ---------------------------------------------------------------------
 Center     Atomic      Atomic             Coordinates (Angstroms)
 Number     Number       Type             X           Y           Z
 ---------------------------------------------------------------------
      1          6           0       -1.803669   -0.027240   -0.060688
      2          6           0       -0.297255   -0.089254   -0.239375
      3          6           0        1.747001   -0.673466    0.105550
      4          1           0        2.727101   -1.195119    0.447564
      5          1           0        2.421950    1.385211    0.273201
      6          7           0       -2.948219   -0.011593    0.197643
      7          7           0        0.548715   -1.138089   -0.105868
      8          7           0        1.589960    0.693693    0.057395
      9          7           0        0.377329    1.105941   -0.085412
 ---------------------------------------------------------------------

 SCF Done:  E(RHF) =  -332.623778938     A.U. after    2 cycles

 The electronic state is 1-A.
 Alpha  occ. eigenvalues --  -15.77088 -15.72010 -15.66982 -15.66165 -11.37383
 Alpha  occ. eigenvalues --  -11.37080 -11.31692  -1.43045  -1.21500  -1.19275
 Alpha  occ. eigenvalues --   -1.11687  -0.90608  -0.87282  -0.79373  -0.69934
 Alpha  occ. eigenvalues --   -0.67940  -0.67030  -0.55892  -0.53211  -0.50416
 Alpha  occ. eigenvalues --   -0.48051  -0.47261  -0.45282  -0.38141
 Alpha virt. eigenvalues --    0.01143   0.03469   0.06330   0.07034   0.09154
 Alpha virt. eigenvalues --    0.09456   0.10613   0.10764   0.12291   0.12777
 Alpha virt. eigenvalues --    0.13994   0.14123   0.15254   0.15792   0.15872

 Mulliken charges:
               1
     1  C   -0.352579
     2  C    0.964949
     3  C    0.566433
     4  H    0.001284
     5  H    0.125879
     6  N   -0.130252
     7  N   -0.525014
     8  N   -0.171355
     9  N   -0.479346
 Sum of Mulliken charges =  -0.00000

 Dipole moment (field-independent basis, Debye):
    X=              7.2904    Y=              0.8651    Z=              0.4885  Tot=              7.3578

 Test job not archived.
 1\1\GINC-SE328\SP\RHF\Aug-CC-pVDZ\C3H2N4\OHZDE\08-Apr-2025\0\\#t hf au
 g-cc-pvdz iop(5/13=1,5/36=2,99/5=2) pseudo=read geom=check guess=(read
 ,tcheck) scf=(maxcycle=1)\\title\\0,1\C,0,-1.80367,-0.0272406,-0.06068
 79\C,0,-0.297256,-0.089255,-0.239375\C,0,1.747,-0.673467,0.10555\H,0,2
 .7271,-1.19512,0.447564\H,0,2.42195,1.38521,0.273201\N,0,-2.94822,-0.0
 115936,0.197643\N,0,0.548714,-1.13809,-0.105868\N,0,1.58996,0.693692,0
 .0573953\N,0,0.377329,1.10594,-0.0854116\\Version=ES64L-G16RevC.01\Sta
 te=1-A\HF=-332.6237789\RMSD=4.003e-03\Dipole=2.8682565,0.340352,0.1921

 Normal termination of Gaussian 16 at Tue Apr  8 21:47:57 2025.
