 Gaussian 16, Revision C.01,

 ----------------------------------------------------------------------
 #t hf aug-cc-pvdz symm=none int=(grid=ultrafine) guess=(read,tcheck) s
 table=(opt,rrhf)
 ----------------------------------------------------------------------
 -----
 title
 -----
 Symbolic Z-matrix:
 Charge =  0 Multiplicity = 1

 SCF Done:  E(RHF) =  -869.309850160     A.U. after   15 cycles
 Normal termination of Gaussian 16 at Tue Apr  8 20:11:46 2025.
 Gaussian 16:  ES64L-G16RevC.01  3-Jul-2019

 ----------------------------------------------------------------------
 #t hf aug-cc-pvdz iop(5/13=1,5/36=2,99/5=2) pseudo=read geom=check gue
 ss=(read,tcheck) scf=(maxcycle=1)
 ----------------------------------------------------------------------
 -----
 title
 -----
 Structure from the checkpoint file:  "ANI1ccx_1593_conf7_mol1.chk"
 Charge =  0 Multiplicity = 1

                         Standard orientation:
 ---------------------------------------------------------------------
 Center     Atomic      Atomic             Coordinates (Angstroms)
 Number     Number       Type             X           Y           Z
 ---------------------------------------------------------------------
      1          6           0        1.765229    1.129153    0.333952
      2          6           0        0.573034    1.951751   -0.112712
      3          6           0        2.264230    0.310131   -0.859850
      4          6           0        2.537502   -1.119826   -0.424122
      5          6           0       -0.984786   -0.039493   -0.070955
      6          6           0       -1.916969   -0.383630   -1.283789
      7          6           0       -1.620319   -0.342970    1.266571
      8          6           0       -2.833261    0.623803    1.584931
      9          1           0       -1.979077   -1.997112   -0.382690
     10          1           0       -3.620961    0.715726    0.805736
     11          1           0       -2.453902    1.608917    1.775611
     12          1           0       -3.460290    0.270906    2.486231
     13          1           0       -2.723357   -1.913463    1.692361
     14          1           0       -0.861964   -0.114621    2.062551
     15          1           0       -0.103911   -0.687054   -0.212654
     16          1           0       -1.350702    1.910849   -0.592770
     17          1           0        3.776013   -2.210895    0.510700
     18          1           0        1.565640    0.255865   -1.734169
     19          1           0        3.181389    0.720485   -1.234999
     20          1           0        2.499208    1.848754    0.662832
     21          1           0        2.178251   -0.290446    1.735041
     22          1           0        1.298049    0.966826    2.313341
     23          7           0        1.388410    0.355074    1.515911
     24          7           0       -0.639963    1.354890   -0.178681
     25          8           0        0.723247    3.098361   -0.358885
     26          8           0        1.706633   -2.035107   -0.505413
     27          8           0        3.674682   -1.281875    0.249743
     28          8           0       -2.268620    0.420405   -2.114599
     29          8           0       -1.858028   -1.770882    1.299721
     30          8           0       -2.214348   -1.659402   -1.302049
 ---------------------------------------------------------------------

 SCF Done:  E(RHF) =  -869.575713297     A.U. after    2 cycles

 The electronic state is 1-A.
 Alpha  occ. eigenvalues --  -20.65867 -20.61793 -20.60982 -20.58289 -20.55575
 Alpha  occ. eigenvalues --  -20.54106 -15.64497 -15.63931 -11.42860 -11.39244
 Alpha  occ. eigenvalues --  -11.36265 -11.32659 -11.30396 -11.30087 -11.28746
 Alpha  occ. eigenvalues --  -11.26378  -1.45473  -1.42177  -1.38067  -1.36360
 Alpha  occ. eigenvalues --   -1.33533  -1.32412  -1.22492  -1.19105  -1.06468
 Alpha  occ. eigenvalues --   -1.05123  -0.97224  -0.94629  -0.87119  -0.85814
 Alpha  occ. eigenvalues --   -0.83120  -0.79605  -0.76841  -0.74319  -0.73794
 Alpha  occ. eigenvalues --   -0.71277  -0.70802  -0.69030  -0.68063  -0.67666
 Alpha  occ. eigenvalues --   -0.66440  -0.65551  -0.64953  -0.63483  -0.61878
 Alpha  occ. eigenvalues --   -0.61389  -0.59675  -0.58674  -0.58336  -0.57188
 Alpha  occ. eigenvalues --   -0.56542  -0.55487  -0.54667  -0.52064  -0.50753
 Alpha  occ. eigenvalues --   -0.49935  -0.49327  -0.48519  -0.45203  -0.44027
 Alpha  occ. eigenvalues --   -0.41907  -0.39753
 Alpha virt. eigenvalues --    0.02015   0.02667   0.03539   0.04091   0.05011
 Alpha virt. eigenvalues --    0.05686   0.06102   0.06692   0.07507   0.07821
 Alpha virt. eigenvalues --    0.08278   0.08435   0.09191   0.10013   0.10672

 Mulliken charges:
               1
     1  C    0.139113
     2  C    0.553977
     3  C    0.594916
     4  C    0.702580
     5  C    0.159401
     6  C    0.798036
     7  C    0.337239
     8  C    0.722727
     9  H    0.359243
    10  H   -0.082893
    11  H   -0.118729
    12  H   -0.018018
    13  H    0.239106
    14  H   -0.084227
    15  H   -0.247948
    16  H   -0.061133
    17  H    0.203449
    18  H    0.006300
    19  H   -0.130833
    20  H   -0.271003
    21  H    0.170852
    22  H    0.023550
    23  N   -0.269743
    24  N   -0.353858
    25  O   -0.488231
    26  O   -0.552726
    27  O   -0.541398
    28  O   -0.517966
    29  O   -0.782177
    30  O   -0.489607
 Sum of Mulliken charges =  -0.00000

 Dipole moment (field-independent basis, Debye):
    X=              2.8315    Y=             -2.2851    Z=              6.4654  Tot=              7.4189

 Test job not archived.
 1\1\GINC-SE029\SP\RHF\Aug-CC-pVDZ\C8H14N2O6\OHZDE\08-Apr-2025\0\\#t hf
  aug-cc-pvdz iop(5/13=1,5/36=2,99/5=2) pseudo=read geom=check guess=(r
 ead,tcheck) scf=(maxcycle=1)\\title\\0,1\C,0,1.76523,1.12915,0.333951\
 C,0,0.573036,1.95175,-0.112713\C,0,2.26423,0.310128,-0.859851\C,0,2.53
 75,-1.11983,-0.424123\C,0,-0.984786,-0.0394926,-0.0709553\C,0,-1.91697
 ,-0.383628,-1.28379\C,0,-1.62032,-0.342968,1.26657\C,0,-2.83326,0.6238
 06,1.58493\H,0,-1.97908,-1.99711,-0.382691\H,0,-3.62096,0.71573,0.8057
 35\H,0,-2.4539,1.60892,1.77561\H,0,-3.46029,0.27091,2.48623\H,0,-2.723

 Normal termination of Gaussian 16 at Tue Apr  8 20:12:27 2025.
