 Gaussian 16, Revision C.01,

 ----------------------------------------------------------------------
 #t hf aug-cc-pvdz symm=none int=(grid=ultrafine) guess=(read,tcheck) s
 table=(opt,rrhf)
 ----------------------------------------------------------------------
 -----
 title
 -----
 Symbolic Z-matrix:
 Charge =  0 Multiplicity = 1

 SCF Done:  E(RHF) =  -636.066952274     A.U. after   15 cycles
 Normal termination of Gaussian 16 at Tue Apr  8 19:37:37 2025.
 Gaussian 16:  ES64L-G16RevC.01  3-Jul-2019

 ----------------------------------------------------------------------
 #t hf aug-cc-pvdz iop(5/13=1,5/36=2,99/5=2) pseudo=read geom=check gue
 ss=(read,tcheck) scf=(maxcycle=1)
 ----------------------------------------------------------------------
 -----
 title
 -----
 Structure from the checkpoint file:  "ANI1ccx_1499_conf8_mol1.chk"
 Charge =  0 Multiplicity = 1

                         Standard orientation:
 ---------------------------------------------------------------------
 Center     Atomic      Atomic             Coordinates (Angstroms)
 Number     Number       Type             X           Y           Z
 ---------------------------------------------------------------------
      1          6           0        0.645355    1.491290   -0.034602
      2          6           0       -2.027011    0.013352    1.122630
      3          6           0       -2.107981   -0.239190   -1.051940
      4          6           0        1.319499    0.144585    0.033475
      5          6           0        2.772639    0.120818    0.173113
      6          6           0        3.069718   -1.188971    0.073684
      7          6           0        0.914012   -1.154450   -0.107510
      8          1           0       -0.027954   -1.618910   -0.000235
      9          1           0        3.997428   -1.727571    0.092770
     10          1           0        3.536719    0.908497    0.175619
     11          1           0       -1.944151   -0.059210   -2.120060
     12          1           0       -1.857881    0.431232    2.102710
     13          1           0       -1.199010    2.525981   -0.292458
     14          7           0       -0.689336    1.581920   -0.289012
     15          7           0       -1.603461    0.576852   -0.044658
     16          7           0       -2.858731   -0.966193    0.815067
     17          7           0       -2.858031   -1.154759   -0.549864
     18          8           0        1.310860    2.484970    0.029549
     19          8           0        1.944688   -1.966141   -0.121070
 ---------------------------------------------------------------------

 SCF Done:  E(RHF) =  -636.255046877     A.U. after    2 cycles

 The electronic state is 1-A.
 Alpha  occ. eigenvalues --  -20.66746 -20.56790 -15.75481 -15.73073 -15.66907
 Alpha  occ. eigenvalues --  -15.66828 -11.40526 -11.34408 -11.33777 -11.33748
 Alpha  occ. eigenvalues --  -11.31718 -11.27730 -11.26524  -1.46151  -1.41285
 Alpha  occ. eigenvalues --   -1.38881  -1.28953  -1.12660  -1.10828  -1.09887
 Alpha  occ. eigenvalues --   -1.04180  -0.91791  -0.87003  -0.85746  -0.82525
 Alpha  occ. eigenvalues --   -0.81736  -0.79523  -0.75652  -0.70219  -0.68655
 Alpha  occ. eigenvalues --   -0.67558  -0.66107  -0.65676  -0.62860  -0.61978
 Alpha  occ. eigenvalues --   -0.61382  -0.60652  -0.56329  -0.50049  -0.48845
 Alpha  occ. eigenvalues --   -0.47564  -0.44183  -0.42769  -0.42296  -0.38822
 Alpha  occ. eigenvalues --   -0.35043
 Alpha virt. eigenvalues --    0.02525   0.03033   0.03148   0.04803   0.05225
 Alpha virt. eigenvalues --    0.06632   0.07830   0.08469   0.09398   0.09789
 Alpha virt. eigenvalues --    0.10356   0.10716   0.11389   0.11646   0.12035

 Mulliken charges:
               1
     1  C    0.516296
     2  C    0.732738
     3  C    0.839372
     4  C   -0.266288
     5  C    0.782546
     6  C    0.717338
     7  C    0.698794
     8  H   -0.580591
     9  H   -0.367049
    10  H   -0.419979
    11  H   -0.252043
    12  H   -0.301488
    13  H    0.094905
    14  N   -0.331444
    15  N    0.024976
    16  N   -0.561424
    17  N   -0.424475
    18  O   -0.465122
    19  O   -0.437062
 Sum of Mulliken charges =   0.00000

 Dipole moment (field-independent basis, Debye):
    X=              1.5403    Y=              1.7209    Z=             -0.3276  Tot=              2.3327

 Test job not archived.
 1\1\GINC-SE366\SP\RHF\Aug-CC-pVDZ\C7H6N4O2\OHZDE\08-Apr-2025\0\\#t hf
 aug-cc-pvdz iop(5/13=1,5/36=2,99/5=2) pseudo=read geom=check guess=(re
 ad,tcheck) scf=(maxcycle=1)\\title\\0,1\C,0,0.645355,1.49129,-0.034602
 4\C,0,-2.02701,0.013351,1.12263\C,0,-2.10798,-0.239191,-1.05194\C,0,1.
 3195,0.144585,0.0334754\C,0,2.77264,0.120819,0.173113\C,0,3.06972,-1.1
 8897,0.0736837\C,0,0.914013,-1.15445,-0.10751\H,0,-0.0279524,-1.61891,
 -0.00023477\H,0,3.99743,-1.72757,0.0927703\H,0,3.53672,0.908498,0.1756
 19\H,0,-1.94415,-0.0592107,-2.12006\H,0,-1.85788,0.431231,2.10271\H,0,

 Normal termination of Gaussian 16 at Tue Apr  8 19:37:49 2025.
