 Gaussian 16, Revision C.01,

 ----------------------------------------------------------------------
 #t hf aug-cc-pvdz symm=none int=(grid=ultrafine) guess=(read,tcheck) s
 table=(opt,rrhf)
 ----------------------------------------------------------------------
 -----
 title
 -----
 Symbolic Z-matrix:
 Charge =  0 Multiplicity = 1

 SCF Done:  E(RHF) =  -556.260474912     A.U. after   17 cycles
 Normal termination of Gaussian 16 at Tue Apr  8 19:20:46 2025.
 Gaussian 16:  ES64L-G16RevC.01  3-Jul-2019

 ----------------------------------------------------------------------
 #t hf aug-cc-pvdz iop(5/13=1,5/36=2,99/5=2) pseudo=read geom=check gue
 ss=(read,tcheck) scf=(maxcycle=1)
 ----------------------------------------------------------------------
 -----
 title
 -----
 Structure from the checkpoint file:  "ANI1ccx_1294_conf3_mol2.chk"
 Charge =  0 Multiplicity = 1

                         Standard orientation:
 ---------------------------------------------------------------------
 Center     Atomic      Atomic             Coordinates (Angstroms)
 Number     Number       Type             X           Y           Z
 ---------------------------------------------------------------------
      1          6           0        0.863357    1.272570   -0.041056
      2          6           0        2.677370   -0.150744    0.110426
      3          6           0        0.685179   -1.162820    0.000650
      4          6           0       -1.340330   -0.293953   -0.135345
      5          6           0       -2.633600    0.410897    0.040295
      6          6           0        0.029142    0.121431    0.009607
      7          1           0       -0.629524    2.649550   -0.090458
      8          1           0        1.071209    3.224891   -0.005791
      9          1           0        3.773430   -0.236619    0.181541
     10          1           0       -2.193729   -2.177171   -0.244006
     11          7           0        0.377165    2.483680   -0.119433
     12          7           0        2.182130    1.100771   -0.048777
     13          7           0        2.038561   -1.316059    0.151176
     14          7           0       -0.160803   -2.216910   -0.021569
     15          7           0       -1.349149   -1.646571   -0.158889
     16          7           0       -3.617630    0.931524    0.233384
 ---------------------------------------------------------------------

 SCF Done:  E(RHF) =  -556.414882379     A.U. after    2 cycles

 The electronic state is 1-A.
 Alpha  occ. eigenvalues --  -15.77425 -15.68693 -15.68652 -15.67989 -15.63133
 Alpha  occ. eigenvalues --  -15.62553 -11.38492 -11.38082 -11.33724 -11.33295
 Alpha  occ. eigenvalues --  -11.33117 -11.29350  -1.39609  -1.30655  -1.24874
 Alpha  occ. eigenvalues --   -1.23797  -1.15379  -1.11015  -1.09052  -0.94929
 Alpha  occ. eigenvalues --   -0.90176  -0.86118  -0.82689  -0.77168  -0.74580
 Alpha  occ. eigenvalues --   -0.70533  -0.67830  -0.66920  -0.65516  -0.60498
 Alpha  occ. eigenvalues --   -0.60040  -0.58676  -0.54252  -0.52881  -0.50881
 Alpha  occ. eigenvalues --   -0.50016  -0.46111  -0.41927  -0.41014  -0.39391
 Alpha  occ. eigenvalues --   -0.32758
 Alpha virt. eigenvalues --    0.02491   0.02909   0.03793   0.04272   0.05967
 Alpha virt. eigenvalues --    0.06188   0.07886   0.08389   0.09675   0.10620
 Alpha virt. eigenvalues --    0.11426   0.11497   0.12200   0.12678   0.12828

 Mulliken charges:
               1
     1  C    0.343591
     2  C    0.548087
     3  C    0.744113
     4  C    1.141387
     5  C   -0.703189
     6  C    0.369399
     7  H    0.029726
     8  H    0.026302
     9  H   -0.296212
    10  H   -0.018955
    11  N   -0.144547
    12  N   -0.589343
    13  N   -0.569387
    14  N   -0.525166
    15  N   -0.330451
    16  N   -0.025353
 Sum of Mulliken charges =   0.00000

 Dipole moment (field-independent basis, Debye):
    X=             -1.7381    Y=              2.4520    Z=             -0.5053  Tot=              3.0477

 Test job not archived.
 1\1\GINC-SE132\SP\RHF\Aug-CC-pVDZ\C6H4N6\OHZDE\08-Apr-2025\0\\#t hf au
 g-cc-pvdz iop(5/13=1,5/36=2,99/5=2) pseudo=read geom=check guess=(read
 ,tcheck) scf=(maxcycle=1)\\title\\0,1\C,0,0.863358,1.27257,-0.0410558\
 C,0,2.67737,-0.150745,0.110426\C,0,0.685178,-1.16282,0.00065032\C,0,-1
 .34033,-0.293952,-0.135345\C,0,-2.6336,0.410898,0.0402953\C,0,0.029142
 1,0.121431,0.00960736\H,0,-0.629523,2.64955,-0.0904578\H,0,1.07121,3.2
 2489,-0.0057913\H,0,3.77343,-0.236621,0.181541\H,0,-2.19373,-2.17717,-
 0.244006\N,0,0.377166,2.48368,-0.119433\N,0,2.18213,1.10077,-0.0487773

 Normal termination of Gaussian 16 at Tue Apr  8 19:20:56 2025.
