 Gaussian 16, Revision C.01,

 ----------------------------------------------------------------------
 #t hf aug-cc-pvdz symm=none int=(grid=ultrafine) guess=(read,tcheck) s
 table=(opt,rrhf)
 ----------------------------------------------------------------------
 -----
 title
 -----
 Symbolic Z-matrix:
 Charge =  0 Multiplicity = 1

 SCF Done:  E(RHF) =  -555.307793647     A.U. after   17 cycles
 Normal termination of Gaussian 16 at Tue Apr  8 21:58:55 2025.
 Gaussian 16:  ES64L-G16RevC.01  3-Jul-2019

 ----------------------------------------------------------------------
 #t hf aug-cc-pvdz iop(5/13=1,5/36=2,99/5=2) pseudo=read geom=check gue
 ss=(read,tcheck) scf=(maxcycle=1)
 ----------------------------------------------------------------------
 -----
 title
 -----
 Structure from the checkpoint file:  "ANI1ccx_886_conf17_mol1.chk"
 Charge =  0 Multiplicity = 1

                         Standard orientation:
 ---------------------------------------------------------------------
 Center     Atomic      Atomic             Coordinates (Angstroms)
 Number     Number       Type             X           Y           Z
 ---------------------------------------------------------------------
      1          6           0        1.277650    0.701422    0.003275
      2          6           0       -0.942863    0.704430    0.022209
      3          6           0       -0.930836   -0.737360   -0.019528
      4          6           0        1.340821   -0.733242   -0.075830
      5          1           0        3.207980    1.069651   -0.705854
      6          1           0        2.430420    2.279771    0.032498
      7          1           0        3.141691   -0.740525    0.709864
      8          1           0        2.609971   -2.212329    0.208140
      9          7           0        2.513390    1.288151    0.034880
     10          7           0        0.185296    1.421550    0.023352
     11          7           0       -2.204660    1.097900    0.006473
     12          7           0       -2.187939   -1.095660    0.029461
     13          7           0        0.246867   -1.485230   -0.079922
     14          7           0        2.588831   -1.228109    0.007234
     15          8           0       -2.981399    0.000215    0.003033
 ---------------------------------------------------------------------

 SCF Done:  E(RHF) =  -555.464777369     A.U. after    2 cycles

 The electronic state is 1-A.
 Alpha  occ. eigenvalues --  -20.70504 -15.70494 -15.70330 -15.68514 -15.68342
 Alpha  occ. eigenvalues --  -15.67504 -15.67217 -11.38885 -11.38786 -11.33312
 Alpha  occ. eigenvalues --  -11.32983  -1.50533  -1.34419  -1.26731  -1.24261
 Alpha  occ. eigenvalues --   -1.19545  -1.14017  -1.12228  -0.96431  -0.89173
 Alpha  occ. eigenvalues --   -0.86039  -0.79067  -0.78706  -0.73812  -0.71005
 Alpha  occ. eigenvalues --   -0.70197  -0.68647  -0.68307  -0.63495  -0.61579
 Alpha  occ. eigenvalues --   -0.55285  -0.54021  -0.52218  -0.50462  -0.47038
 Alpha  occ. eigenvalues --   -0.46347  -0.42277  -0.37126  -0.36164
 Alpha virt. eigenvalues --    0.01310   0.01772   0.02930   0.04345   0.05780
 Alpha virt. eigenvalues --    0.08269   0.08360   0.09825   0.10363   0.10838
 Alpha virt. eigenvalues --    0.12750   0.12892   0.13056   0.13220   0.13634

 Mulliken charges:
               1
     1  C    0.595872
     2  C    0.767700
     3  C    0.823538
     4  C    0.583186
     5  H    0.074860
     6  H   -0.008215
     7  H    0.102747
     8  H   -0.003018
     9  N   -0.323424
    10  N   -0.486833
    11  N   -0.315578
    12  N   -0.310744
    13  N   -0.578717
    14  N   -0.320152
    15  O   -0.601221
 Sum of Mulliken charges =   0.00000

 Dipole moment (field-independent basis, Debye):
    X=              8.4062    Y=              0.3600    Z=              0.1460  Tot=              8.4151

 Test job not archived.
 1\1\GINC-SE102\SP\RHF\Aug-CC-pVDZ\C4H4N6O1\OHZDE\08-Apr-2025\0\\#t hf
 aug-cc-pvdz iop(5/13=1,5/36=2,99/5=2) pseudo=read geom=check guess=(re
 ad,tcheck) scf=(maxcycle=1)\\title\\0,1\C,0,1.27765,0.701421,0.0032748
 \C,0,-0.942863,0.70443,0.0222091\C,0,-0.930837,-0.73736,-0.0195279\C,0
 ,1.34082,-0.733243,-0.0758304\H,0,3.20798,1.06965,-0.705854\H,0,2.4304
 2,2.27977,0.0324978\H,0,3.14169,-0.740526,0.709864\H,0,2.60997,-2.2123
 3,0.20814\N,0,2.51339,1.28815,0.0348799\N,0,0.185296,1.42155,0.0233517
 \N,0,-2.20466,1.0979,0.00647288\N,0,-2.18794,-1.09566,0.0294611\N,0,0.

 Normal termination of Gaussian 16 at Tue Apr  8 21:59:04 2025.
