 Gaussian 16, Revision C.01,

 ----------------------------------------------------------------------
 #t hf aug-cc-pvdz symm=none int=(grid=ultrafine) guess=(read,tcheck) s
 table=(opt,rrhf)
 ----------------------------------------------------------------------
 -----
 title
 -----
 Symbolic Z-matrix:
 Charge =  0 Multiplicity = 1

 SCF Done:  E(RHF) =  -489.698096873     A.U. after   14 cycles
 Normal termination of Gaussian 16 at Tue Apr  8 22:12:05 2025.
 Gaussian 16:  ES64L-G16RevC.01  3-Jul-2019

 ----------------------------------------------------------------------
 #t hf aug-cc-pvdz iop(5/13=1,5/36=2,99/5=2) pseudo=read geom=check gue
 ss=(read,tcheck) scf=(maxcycle=1)
 ----------------------------------------------------------------------
 -----
 title
 -----
 Structure from the checkpoint file:  "ANI1ccx_957_conf21_mol1.chk"
 Charge =  0 Multiplicity = 1

                         Standard orientation:
 ---------------------------------------------------------------------
 Center     Atomic      Atomic             Coordinates (Angstroms)
 Number     Number       Type             X           Y           Z
 ---------------------------------------------------------------------
      1          6           0       -0.728431    0.633414   -0.330734
      2          6           0       -1.195381   -0.781122   -0.208816
      3          6           0        0.502138    0.971275    0.531586
      4          6           0        1.788239    0.133928    0.284207
      5          1           0       -2.562031   -0.026603    0.767127
      6          1           0        3.148669   -0.291682   -1.136470
      7          1           0        0.245607    0.707842    1.597360
      8          1           0        0.764681    2.064350    0.420376
      9          1           0        2.126189    0.985131   -1.595200
     10          1           0       -2.540091    1.529220   -0.584508
     11          1           0       -1.807222    1.938020    0.786216
     12          1           0       -0.355487    0.727044   -1.342080
     13          7           0       -1.671621    1.704520   -0.160805
     14          7           0        2.294969    0.204822   -0.960354
     15          8           0        2.204989   -0.676741    1.120740
     16          8           0       -0.603918   -1.695580   -0.738757
     17          8           0       -2.298961   -0.970638    0.527743
 ---------------------------------------------------------------------

 SCF Done:  E(RHF) =  -489.848040093     A.U. after    2 cycles

 The electronic state is 1-A.
 Alpha  occ. eigenvalues --  -20.64414 -20.56320 -20.54009 -15.65834 -15.65334
 Alpha  occ. eigenvalues --  -11.40261 -11.37735 -11.31311 -11.28556  -1.43200
 Alpha  occ. eigenvalues --   -1.34049  -1.33254  -1.22439  -1.18770  -1.04751
 Alpha  occ. eigenvalues --   -0.93798  -0.83407  -0.81529  -0.77309  -0.74725
 Alpha  occ. eigenvalues --   -0.70993  -0.69234  -0.66495  -0.65808  -0.63638
 Alpha  occ. eigenvalues --   -0.61546  -0.59641  -0.58164  -0.54702  -0.53221
 Alpha  occ. eigenvalues --   -0.50076  -0.48605  -0.44429  -0.43376  -0.42102
 Alpha virt. eigenvalues --    0.02005   0.02703   0.03656   0.04623   0.06076
 Alpha virt. eigenvalues --    0.06539   0.06735   0.08526   0.10522   0.10927
 Alpha virt. eigenvalues --    0.11545   0.12097   0.13197   0.13527   0.14049

 Mulliken charges:
               1
     1  C    0.520396
     2  C    0.721282
     3  C   -0.041546
     4  C    0.587658
     5  H    0.233762
     6  H   -0.049435
     7  H    0.039492
     8  H    0.090842
     9  H    0.011102
    10  H   -0.070872
    11  H    0.035260
    12  H   -0.160676
    13  N   -0.215633
    14  N   -0.108080
    15  O   -0.583369
    16  O   -0.486880
    17  O   -0.523304
 Sum of Mulliken charges =  -0.00000

 Dipole moment (field-independent basis, Debye):
    X=             -1.9681    Y=              6.8106    Z=             -1.7931  Tot=              7.3125

 Test job not archived.
 1\1\GINC-SE029\SP\RHF\Aug-CC-pVDZ\C4H8N2O3\OHZDE\08-Apr-2025\0\\#t hf
 aug-cc-pvdz iop(5/13=1,5/36=2,99/5=2) pseudo=read geom=check guess=(re
 ad,tcheck) scf=(maxcycle=1)\\title\\0,1\C,0,-0.72843,0.633414,-0.33073
 4\C,0,-1.19538,-0.781122,-0.208816\C,0,0.502139,0.971275,0.531586\C,0,
 1.78824,0.133928,0.284207\H,0,-2.56203,-0.026603,0.767127\H,0,3.14867,
 -0.291682,-1.13647\H,0,0.245608,0.707842,1.59736\H,0,0.764683,2.06435,
 0.420376\H,0,2.12619,0.985131,-1.5952\H,0,-2.54009,1.52922,-0.584508\H
 ,0,-1.80722,1.93802,0.786216\H,0,-0.355486,0.727044,-1.34208\N,0,-1.67

 Normal termination of Gaussian 16 at Tue Apr  8 22:12:13 2025.
