 Gaussian 16, Revision C.01,

 ----------------------------------------------------------------------
 #t hf aug-cc-pvdz symm=none int=(grid=ultrafine) guess=(read,tcheck) s
 table=(opt,rrhf)
 ----------------------------------------------------------------------
 -----
 title
 -----
 Symbolic Z-matrix:
 Charge =  0 Multiplicity = 1

 SCF Done:  E(RHF) =  -350.926049310     A.U. after   14 cycles
 Normal termination of Gaussian 16 at Tue Apr  8 21:44:55 2025.
 Gaussian 16:  ES64L-G16RevC.01  3-Jul-2019

 ----------------------------------------------------------------------
 #t hf aug-cc-pvdz iop(5/13=1,5/36=2,99/5=2) pseudo=read geom=check gue
 ss=(read,tcheck) scf=(maxcycle=1)
 ----------------------------------------------------------------------
 -----
 title
 -----
 Structure from the checkpoint file:  "ANI1ccx_542_conf4_mol2.chk"
 Charge =  0 Multiplicity = 1

                         Standard orientation:
 ---------------------------------------------------------------------
 Center     Atomic      Atomic             Coordinates (Angstroms)
 Number     Number       Type             X           Y           Z
 ---------------------------------------------------------------------
      1          6           0       -1.080430   -0.030445    0.006183
      2          6           0        1.074110   -0.026435   -0.012403
      3          1           0       -3.036460    0.275177    0.144573
      4          1           0       -2.645980   -1.134960   -0.674961
      5          1           0        2.655030   -0.920089    0.830107
      6          1           0        3.053420    0.237013   -0.211488
      7          1           0        0.029630   -1.868430   -0.097200
      8          7           0       -2.379500   -0.498456    0.096346
      9          7           0       -0.702405    1.208160   -0.026608
     10          7           0        0.693983    1.220780    0.013856
     11          7           0        2.388220   -0.522198   -0.082279
     12          7           0       -0.002828   -0.872203    0.005299
 ---------------------------------------------------------------------

 SCF Done:  E(RHF) =  -351.027586916     A.U. after    2 cycles

 The electronic state is 1-A.
 Alpha  occ. eigenvalues --  -15.68939 -15.65409 -15.65386 -15.63042 -15.62573
 Alpha  occ. eigenvalues --  -11.34954 -11.34836  -1.36618  -1.21674  -1.18368
 Alpha  occ. eigenvalues --   -1.15480  -1.02223  -0.83785  -0.82988  -0.75473
 Alpha  occ. eigenvalues --   -0.69398  -0.68957  -0.64111  -0.62972  -0.61421
 Alpha  occ. eigenvalues --   -0.51009  -0.46091  -0.45629  -0.42258  -0.41185
 Alpha  occ. eigenvalues --   -0.31973
 Alpha virt. eigenvalues --    0.02170   0.02747   0.04710   0.04945   0.07310
 Alpha virt. eigenvalues --    0.09362   0.11062   0.11904   0.12043   0.14028
 Alpha virt. eigenvalues --    0.14799   0.15608   0.16843   0.17523   0.17702

 Mulliken charges:
               1
     1  C    0.869799
     2  C    0.877571
     3  H    0.055453
     4  H    0.045650
     5  H    0.069653
     6  H    0.049092
     7  H   -0.081639
     8  N   -0.340438
     9  N   -0.407180
    10  N   -0.414945
    11  N   -0.366639
    12  N   -0.356376
 Sum of Mulliken charges =  -0.00000

 Dipole moment (field-independent basis, Debye):
    X=             -0.1359    Y=             -4.7974    Z=             -0.1226  Tot=              4.8009

 Test job not archived.
 1\1\GINC-SE071\SP\RHF\Aug-CC-pVDZ\C2H5N5\OHZDE\08-Apr-2025\0\\#t hf au
 g-cc-pvdz iop(5/13=1,5/36=2,99/5=2) pseudo=read geom=check guess=(read
 ,tcheck) scf=(maxcycle=1)\\title\\0,1\C,0,-1.08043,-0.030445,0.0061829
 \C,0,1.07411,-0.0264347,-0.0124027\H,0,-3.03646,0.275177,0.144573\H,0,
 -2.64598,-1.13496,-0.674961\H,0,2.65503,-0.920089,0.830107\H,0,3.05342
 ,0.237014,-0.211488\H,0,0.0296303,-1.86843,-0.0971999\N,0,-2.3795,-0.4
 98456,0.0963455\N,0,-0.702405,1.20816,-0.0266085\N,0,0.693983,1.22078,
 0.0138556\N,0,2.38822,-0.522198,-0.0822792\N,0,-0.00282805,-0.872203,0

 Normal termination of Gaussian 16 at Tue Apr  8 21:45:00 2025.
