 Gaussian 16, Revision C.01,

 ----------------------------------------------------------------------
 #t hf aug-cc-pvdz symm=none int=(grid=ultrafine) guess=(read,tcheck) s
 table=(opt,rrhf)
 ----------------------------------------------------------------------
 -----
 title
 -----
 Symbolic Z-matrix:
 Charge =  0 Multiplicity = 1

 SCF Done:  E(RHF) =  -785.608324492     A.U. after   14 cycles
 Normal termination of Gaussian 16 at Tue Apr  8 19:23:18 2025.
 Gaussian 16:  ES64L-G16RevC.01  3-Jul-2019

 ----------------------------------------------------------------------
 #t hf aug-cc-pvdz iop(5/13=1,5/36=2,99/5=2) pseudo=read geom=check gue
 ss=(read,tcheck) scf=(maxcycle=1)
 ----------------------------------------------------------------------
 -----
 title
 -----
 Structure from the checkpoint file:  "ANI1ccx_1221_conf10_mol1.chk"
 Charge =  0 Multiplicity = 1

                         Standard orientation:
 ---------------------------------------------------------------------
 Center     Atomic      Atomic             Coordinates (Angstroms)
 Number     Number       Type             X           Y           Z
 ---------------------------------------------------------------------
      1          6           0        1.562849    2.766671    0.248767
      2          6           0       -0.017490    0.956415    0.015912
      3          6           0       -1.499540   -0.705854   -0.265383
      4          6           0       -3.918680   -0.229006   -0.255403
      5          6           0        0.697171   -1.214289   -0.213274
      6          6           0        3.071331   -1.792388   -0.056313
      7          1           0        2.719880   -0.510628    1.409041
      8          1           0        3.750821   -2.652288   -0.182833
      9          1           0        3.459451   -1.032968   -0.755217
     10          1           0        1.512112   -2.995519   -0.930617
     11          1           0       -4.797420   -0.814202   -0.593382
     12          1           0       -3.288140    0.887642    1.154881
     13          1           0       -3.000509   -2.097231   -0.394309
     14          1           0       -0.428336    2.818510   -0.306353
     15          1           0        1.436418    3.827591    0.535891
     16          1           0        2.184599    2.253282    0.997928
     17          1           0        2.301879    1.666532   -1.101059
     18          1           0       -3.784850    0.646781   -0.939270
     19          7           0        0.176303    2.274031    0.342033
     20          7           0       -1.349270    0.618086    0.058090
     21          7           0       -2.777779   -1.113911   -0.477185
     22          7           0       -0.535605   -1.628370   -0.429074
     23          7           0        1.705761   -2.147369   -0.311772
     24          7           0        1.030090    0.114349   -0.083859
     25          8           0       -4.040410    0.241033    1.083071
     26          8           0        2.102949    2.612692   -1.058689
     27          8           0        3.289181   -1.291788    1.297101
 ---------------------------------------------------------------------

 SCF Done:  E(RHF) =  -785.842602350     A.U. after    2 cycles

 The electronic state is 1-A.
 Alpha  occ. eigenvalues --  -20.58435 -20.58002 -20.57702 -15.67315 -15.66076
 Alpha  occ. eigenvalues --  -15.65781 -15.63928 -15.63312 -15.62612 -11.40065
 Alpha  occ. eigenvalues --  -11.39306 -11.39195 -11.34527 -11.33937 -11.33926
 Alpha  occ. eigenvalues --   -1.35260  -1.34040  -1.32969  -1.31876  -1.25341
 Alpha  occ. eigenvalues --   -1.24674  -1.17443  -1.13862  -1.13272  -0.96639
 Alpha  occ. eigenvalues --   -0.94640  -0.92027  -0.86048  -0.83781  -0.78862
 Alpha  occ. eigenvalues --   -0.75640  -0.73220  -0.71528  -0.69943  -0.69363
 Alpha  occ. eigenvalues --   -0.68290  -0.66332  -0.64972  -0.64026  -0.63000
 Alpha  occ. eigenvalues --   -0.62315  -0.60329  -0.59471  -0.58787  -0.55969
 Alpha  occ. eigenvalues --   -0.54090  -0.53406  -0.51703  -0.50308  -0.48978
 Alpha  occ. eigenvalues --   -0.48429  -0.48204  -0.44418  -0.43272  -0.41706
 Alpha  occ. eigenvalues --   -0.37966  -0.37686
 Alpha virt. eigenvalues --    0.02641   0.03170   0.03306   0.04181   0.05350
 Alpha virt. eigenvalues --    0.05516   0.06167   0.06706   0.07299   0.08397
 Alpha virt. eigenvalues --    0.09060   0.09401   0.09554   0.10942   0.11140

 Mulliken charges:
               1
     1  C    1.159632
     2  C    0.944010
     3  C    0.316249
     4  C    1.105991
     5  C    0.581372
     6  C    1.297815
     7  H    0.171967
     8  H   -0.241057
     9  H   -0.176738
    10  H    0.009340
    11  H   -0.203259
    12  H    0.225090
    13  H   -0.072858
    14  H    0.089455
    15  H   -0.212969
    16  H   -0.136495
    17  H    0.193997
    18  H   -0.113430
    19  N   -0.472509
    20  N   -0.681071
    21  N   -0.403609
    22  N   -0.415837
    23  N   -0.580262
    24  N   -0.733439
    25  O   -0.573833
    26  O   -0.516273
    27  O   -0.561280
 Sum of Mulliken charges =  -0.00000

 Dipole moment (field-independent basis, Debye):
    X=             -0.0357    Y=             -1.0265    Z=             -2.7680  Tot=              2.9524

 Test job not archived.
 1\1\GINC-SE187\SP\RHF\Aug-CC-pVDZ\C6H12N6O3\OHZDE\08-Apr-2025\0\\#t hf
  aug-cc-pvdz iop(5/13=1,5/36=2,99/5=2) pseudo=read geom=check guess=(r
 ead,tcheck) scf=(maxcycle=1)\\title\\0,1\C,0,1.56285,2.76667,0.248766\
 C,0,-0.0174895,0.956414,0.0159111\C,0,-1.49954,-0.705854,-0.265384\C,0
 ,-3.91868,-0.229005,-0.255404\C,0,0.69717,-1.21429,-0.213275\C,0,3.071
 33,-1.79239,-0.0563135\H,0,2.71988,-0.51063,1.40904\H,0,3.75082,-2.652
 29,-0.182834\H,0,3.45945,-1.03297,-0.755218\H,0,1.51211,-2.99552,-0.93
 0618\H,0,-4.79742,-0.8142,-0.593383\H,0,-3.28814,0.887643,1.15488\H,0,

 Normal termination of Gaussian 16 at Tue Apr  8 19:23:47 2025.
