 Gaussian 16, Revision C.01,

 ----------------------------------------------------------------------
 #t hf aug-cc-pvdz symm=none int=(grid=ultrafine) guess=(read,tcheck) s
 table=(opt,rrhf)
 ----------------------------------------------------------------------
 -----
 title
 -----
 Symbolic Z-matrix:
 Charge =  0 Multiplicity = 1

 SCF Done:  E(RHF) =  -489.711502908     A.U. after   14 cycles
 Normal termination of Gaussian 16 at Tue Apr  8 22:11:41 2025.
 Gaussian 16:  ES64L-G16RevC.01  3-Jul-2019

 ----------------------------------------------------------------------
 #t hf aug-cc-pvdz iop(5/13=1,5/36=2,99/5=2) pseudo=read geom=check gue
 ss=(read,tcheck) scf=(maxcycle=1)
 ----------------------------------------------------------------------
 -----
 title
 -----
 Structure from the checkpoint file:  "ANI1ccx_957_conf12_mol2.chk"
 Charge =  0 Multiplicity = 1

                         Standard orientation:
 ---------------------------------------------------------------------
 Center     Atomic      Atomic             Coordinates (Angstroms)
 Number     Number       Type             X           Y           Z
 ---------------------------------------------------------------------
      1          6           0       -0.496017    0.186551   -0.294547
      2          6           0       -1.888640   -0.219065    0.084478
      3          6           0        0.623856   -0.528612    0.575399
      4          6           0        2.077750   -0.320492    0.072220
      5          1           0       -3.443720   -0.970416   -0.720171
      6          1           0        1.614810    1.623839   -0.342799
      7          1           0        0.428464   -0.086024    1.563619
      8          1           0        0.552196   -1.683231    0.563426
      9          1           0        3.312690    1.114319   -0.587514
     10          1           0       -0.965204    2.119819   -0.859060
     11          1           0       -0.524993    2.013009    0.677532
     12          1           0       -0.369920   -0.129658   -1.305041
     13          7           0       -0.318926    1.645799   -0.250146
     14          7           0        2.423840    0.928755   -0.159807
     15          8           0        2.834530   -1.290181    0.024489
     16          8           0       -2.538300    0.191427    1.003929
     17          8           0       -2.451280   -0.992974   -0.871623
 ---------------------------------------------------------------------

 SCF Done:  E(RHF) =  -489.862112701     A.U. after    2 cycles

 The electronic state is 1-A.
 Alpha  occ. eigenvalues --  -20.64319 -20.58567 -20.52790 -15.65558 -15.64299
 Alpha  occ. eigenvalues --  -11.41549 -11.36248 -11.31564 -11.27637  -1.44505
 Alpha  occ. eigenvalues --   -1.34389  -1.33534  -1.20887  -1.17577  -1.03574
 Alpha  occ. eigenvalues --   -0.94793  -0.82640  -0.78919  -0.74993  -0.73472
 Alpha  occ. eigenvalues --   -0.71349  -0.69946  -0.66941  -0.65895  -0.63436
 Alpha  occ. eigenvalues --   -0.61755  -0.58469  -0.57816  -0.53875  -0.52543
 Alpha  occ. eigenvalues --   -0.50698  -0.50354  -0.44166  -0.43251  -0.41251
 Alpha virt. eigenvalues --    0.02338   0.03318   0.04169   0.04607   0.05964
 Alpha virt. eigenvalues --    0.07164   0.07607   0.08061   0.09859   0.11384
 Alpha virt. eigenvalues --    0.11811   0.12325   0.13116   0.13835   0.14510

 Mulliken charges:
               1
     1  C    0.528289
     2  C    0.625570
     3  C    0.142234
     4  C    0.548803
     5  H    0.216066
     6  H    0.255327
     7  H    0.059482
     8  H    0.092804
     9  H   -0.038118
    10  H    0.025629
    11  H    0.099893
    12  H   -0.279253
    13  N   -0.521716
    14  N   -0.185772
    15  O   -0.557385
    16  O   -0.474089
    17  O   -0.537765
 Sum of Mulliken charges =  -0.00000

 Dipole moment (field-independent basis, Debye):
    X=             -3.2643    Y=              3.8302    Z=             -1.9686  Tot=              5.4038

 Test job not archived.
 1\1\GINC-SE092\SP\RHF\Aug-CC-pVDZ\C4H8N2O3\OHZDE\08-Apr-2025\0\\#t hf
 aug-cc-pvdz iop(5/13=1,5/36=2,99/5=2) pseudo=read geom=check guess=(re
 ad,tcheck) scf=(maxcycle=1)\\title\\0,1\C,0,-0.496017,0.186552,-0.2945
 46\C,0,-1.88864,-0.219064,0.0844785\C,0,0.623856,-0.528611,0.5754\C,0,
 2.07775,-0.320491,0.0722205\H,0,-3.44372,-0.970416,-0.72017\H,0,1.6148
 1,1.62384,-0.342798\H,0,0.428464,-0.0860236,1.56362\H,0,0.552196,-1.68
 323,0.563427\H,0,3.31269,1.11432,-0.587513\H,0,-0.965204,2.11982,-0.85
 9059\H,0,-0.524993,2.01301,0.677533\H,0,-0.36992,-0.129657,-1.30504\N,

 Normal termination of Gaussian 16 at Tue Apr  8 22:11:49 2025.
