 Gaussian 16, Revision C.01,

 ----------------------------------------------------------------------
 #t hf aug-cc-pvdz symm=none int=(grid=ultrafine) guess=(read,tcheck) s
 table=(opt,rrhf)
 ----------------------------------------------------------------------
 -----
 title
 -----
 Symbolic Z-matrix:
 Charge =  0 Multiplicity = 1

 SCF Done:  E(RHF) =  -660.938919000     A.U. after   17 cycles
 Normal termination of Gaussian 16 at Tue Apr  8 20:16:05 2025.
 Gaussian 16:  ES64L-G16RevC.01  3-Jul-2019

 ----------------------------------------------------------------------
 #t hf aug-cc-pvdz iop(5/13=1,5/36=2,99/5=2) pseudo=read geom=check gue
 ss=(read,tcheck) scf=(maxcycle=1)
 ----------------------------------------------------------------------
 -----
 title
 -----
 Structure from the checkpoint file:  "ANI1ccx_1675_conf1_mol2.chk"
 Charge =  0 Multiplicity = 1

                         Standard orientation:
 ---------------------------------------------------------------------
 Center     Atomic      Atomic             Coordinates (Angstroms)
 Number     Number       Type             X           Y           Z
 ---------------------------------------------------------------------
      1          6           0        1.467009   -1.097322    0.472170
      2          6           0       -0.741339   -0.818631   -0.149731
      3          6           0       -1.955771   -1.505810   -0.157268
      4          6           0       -3.126171   -0.777702   -0.079726
      5          6           0       -3.123720    0.596357    0.081778
      6          6           0       -1.894330    1.275490    0.224461
      7          6           0       -0.713506    0.552722    0.063599
      8          6           0        1.701990    0.413915    0.135955
      9          1           0        1.706881    2.607158   -0.305083
     10          1           0       -1.858599    2.375750    0.491419
     11          1           0       -4.097410    1.097371    0.114265
     12          1           0        1.171909   -1.311731    1.501660
     13          1           0       -1.940681   -2.589840   -0.292429
     14          1           0        3.222989   -1.031702   -0.269764
     15          1           0       -4.094771   -1.270429   -0.161404
     16          7           0        0.578838    1.150309    0.148929
     17          8           0        0.716919    2.468549   -0.229379
     18          8           0        2.625219   -1.750682    0.058406
     19          8           0        0.390676   -1.563211   -0.316055
     20          8           0        2.786290    0.874988   -0.221546
 ---------------------------------------------------------------------

 SCF Done:  E(RHF) =  -661.137703437     A.U. after    2 cycles

 The electronic state is 1-A.
 Alpha  occ. eigenvalues --  -20.65066 -20.62633 -20.59739 -20.59005 -15.75057
 Alpha  occ. eigenvalues --  -11.40557 -11.39537 -11.33377 -11.32302 -11.28156
 Alpha  occ. eigenvalues --  -11.26582 -11.26438 -11.26262  -1.45432  -1.42139
 Alpha  occ. eigenvalues --   -1.37348  -1.33457  -1.20852  -1.15314  -1.03990
 Alpha  occ. eigenvalues --   -1.03530  -0.95171  -0.90330  -0.87091  -0.81344
 Alpha  occ. eigenvalues --   -0.80381  -0.75663  -0.73727  -0.72324  -0.69754
 Alpha  occ. eigenvalues --   -0.68232  -0.67512  -0.65892  -0.64074  -0.62075
 Alpha  occ. eigenvalues --   -0.61231  -0.59371  -0.57148  -0.56414  -0.54797
 Alpha  occ. eigenvalues --   -0.53357  -0.52037  -0.51682  -0.47858  -0.44741
 Alpha  occ. eigenvalues --   -0.35434  -0.33541
 Alpha virt. eigenvalues --    0.02964   0.03738   0.03983   0.04921   0.05770
 Alpha virt. eigenvalues --    0.05925   0.07185   0.08339   0.08967   0.09595
 Alpha virt. eigenvalues --    0.09696   0.10459   0.11652   0.12516   0.13090

 Mulliken charges:
               1
     1  C    1.091105
     2  C   -0.207372
     3  C    0.491076
     4  C    0.637280
     5  C    0.430647
     6  C    0.685200
     7  C    1.036593
     8  C    0.323840
     9  H    0.247183
    10  H   -0.406842
    11  H   -0.428034
    12  H   -0.106825
    13  H   -0.503672
    14  H    0.226335
    15  H   -0.431582
    16  N   -0.509640
    17  O   -0.628147
    18  O   -0.566108
    19  O   -0.784939
    20  O   -0.596099
 Sum of Mulliken charges =  -0.00000

 Dipole moment (field-independent basis, Debye):
    X=             -3.0609    Y=              1.0380    Z=              1.5230  Tot=              3.5729

 Test job not archived.
 1\1\GINC-SE367\SP\RHF\Aug-CC-pVDZ\C8H7N1O4\OHZDE\08-Apr-2025\0\\#t hf
 aug-cc-pvdz iop(5/13=1,5/36=2,99/5=2) pseudo=read geom=check guess=(re
 ad,tcheck) scf=(maxcycle=1)\\title\\0,1\C,0,1.46701,-1.09732,0.47217\C
 ,0,-0.741338,-0.818631,-0.149731\C,0,-1.95577,-1.50581,-0.157268\C,0,-
 3.12617,-0.777703,-0.0797259\C,0,-3.12372,0.596356,0.0817777\C,0,-1.89
 433,1.27549,0.224461\C,0,-0.713506,0.552722,0.0635993\C,0,1.70199,0.41
 3917,0.135955\H,0,1.70688,2.60716,-0.305083\H,0,-1.8586,2.37575,0.4914
 19\H,0,-4.09741,1.09737,0.114265\H,0,1.17191,-1.31173,1.50166\H,0,-1.9

 Normal termination of Gaussian 16 at Tue Apr  8 20:16:19 2025.
