 Gaussian 16, Revision C.01,

 ----------------------------------------------------------------------
 #t hf aug-cc-pvdz symm=none int=(grid=ultrafine) guess=(read,tcheck) s
 table=(opt,rrhf)
 ----------------------------------------------------------------------
 -----
 title
 -----
 Symbolic Z-matrix:
 Charge =  0 Multiplicity = 1

 SCF Done:  E(RHF) =  -598.849603276     A.U. after   15 cycles

 1\1\GINC-SE179\Stability\RHF\Aug-CC-pVDZ\C7H12N6\OHZDE\08-Apr-2025\0\\
 #t hf aug-cc-pvdz symm=none int=(grid=ultrafine) guess=(read,tcheck) s
 table=(opt,rrhf)\\title\\0,1\C,0,-3.74147,-1.24649,-0.146392\C,0,-1.73
 633,0.101912,0.0967246\C,0,-0.0265956,1.56349,0.0463738\C,0,0.891903,0
 .517411,-0.100195\C,0,3.09258,-0.439287,-0.355029\C,0,2.54227,-1.60683
 ,0.470427\C,0,0.346948,-0.753731,-0.0414907\H,0,0.652826,-2.66694,0.16
 5775\H,0,3.16906,-2.49668,0.258347\H,0,2.53805,-1.31357,1.52134\H,0,3.
 05915,-0.783319,-1.3801\H,0,4.11777,-0.32195,-0.0956948\H,0,2.58726,1.

 Normal termination of Gaussian 16 at Tue Apr  8 19:31:47 2025.
 Gaussian 16:  ES64L-G16RevC.01  3-Jul-2019

 ----------------------------------------------------------------------
 #t hf aug-cc-pvdz iop(5/13=1,5/36=2,99/5=2) pseudo=read geom=check gue
 ss=(read,tcheck) scf=(maxcycle=1)
 ----------------------------------------------------------------------
 -----
 title
 -----
 Structure from the checkpoint file:  "ANI1ccx_1410_conf5_mol2.chk"
 Charge =  0 Multiplicity = 1

                         Standard orientation:
 ---------------------------------------------------------------------
 Center     Atomic      Atomic             Coordinates (Angstroms)
 Number     Number       Type             X           Y           Z
 ---------------------------------------------------------------------
      1          6           0       -3.741470   -1.246491   -0.146392
      2          6           0       -1.736330    0.101912    0.096724
      3          6           0       -0.026596    1.563490    0.046374
      4          6           0        0.891903    0.517411   -0.100195
      5          6           0        3.092580   -0.439286   -0.355029
      6          6           0        2.542270   -1.606829    0.470427
      7          6           0        0.346948   -0.753731   -0.041491
      8          1           0        0.652827   -2.666940    0.165775
      9          1           0        3.169061   -2.496679    0.258347
     10          1           0        2.538050   -1.313569    1.521340
     11          1           0        3.059150   -0.783318   -1.380100
     12          1           0        4.117770   -0.321949   -0.095695
     13          1           0        2.587260    1.472731   -0.737790
     14          1           0        1.258200    2.917950    0.686544
     15          1           0       -0.287067    3.508740    0.267087
     16          1           0       -3.624430    0.844353   -0.142532
     17          1           0       -4.814270   -1.076361    0.054705
     18          1           0       -3.541049   -1.871790   -1.065750
     19          1           0       -3.405909   -1.874530    0.670727
     20          7           0       -3.103240    0.008104   -0.024250
     21          7           0       -1.320440    1.385840    0.091052
     22          7           0        0.491167    2.856800    0.046893
     23          7           0        2.300820    0.727204   -0.113257
     24          7           0        1.195920   -1.856440   -0.070826
     25          7           0       -0.982147   -1.001150    0.066794
 ---------------------------------------------------------------------

 SCF Done:  E(RHF) =  -599.024847700     A.U. after    2 cycles

 The electronic state is 1-A.
 Alpha  occ. eigenvalues --  -15.63362 -15.62915 -15.62323 -15.62287 -15.60201
 Alpha  occ. eigenvalues --  -15.59594 -11.34903 -11.32384 -11.32187 -11.27826
 Alpha  occ. eigenvalues --  -11.26183 -11.25610 -11.24654  -1.29717  -1.23951
 Alpha  occ. eigenvalues --   -1.21914  -1.17659  -1.14188  -1.11112  -1.02649
 Alpha  occ. eigenvalues --   -0.95484  -0.92247  -0.87578  -0.83085  -0.79268
 Alpha  occ. eigenvalues --   -0.76297  -0.70761  -0.68088  -0.67636  -0.66906
 Alpha  occ. eigenvalues --   -0.64927  -0.61819  -0.61514  -0.59843  -0.59068
 Alpha  occ. eigenvalues --   -0.57094  -0.56678  -0.54315  -0.52731  -0.50413
 Alpha  occ. eigenvalues --   -0.48964  -0.47703  -0.45738  -0.41972  -0.39748
 Alpha  occ. eigenvalues --   -0.36782  -0.35461  -0.26785
 Alpha virt. eigenvalues --    0.02912   0.03448   0.03662   0.04056   0.05325
 Alpha virt. eigenvalues --    0.05578   0.06822   0.07025   0.07492   0.07649
 Alpha virt. eigenvalues --    0.08219   0.09271   0.11183   0.11679   0.12205

 Mulliken charges:
               1
     1  C    0.788948
     2  C    0.507508
     3  C    0.146682
     4  C    1.064185
     5  C    0.948403
     6  C    0.609361
     7  C    0.342047
     8  H   -0.123396
     9  H   -0.117377
    10  H   -0.153834
    11  H   -0.226685
    12  H   -0.262265
    13  H   -0.020286
    14  H    0.024042
    15  H    0.100155
    16  H   -0.140552
    17  H   -0.245155
    18  H   -0.020248
    19  H   -0.139628
    20  N   -0.302018
    21  N   -0.635231
    22  N   -0.379814
    23  N   -0.781456
    24  N   -0.346389
    25  N   -0.636997
 Sum of Mulliken charges =   0.00000

 Dipole moment (field-independent basis, Debye):
    X=              1.5897    Y=             -0.0054    Z=              0.7307  Tot=              1.7496

 Test job not archived.
 1\1\GINC-SE179\SP\RHF\Aug-CC-pVDZ\C7H12N6\OHZDE\08-Apr-2025\0\\#t hf a
 ug-cc-pvdz iop(5/13=1,5/36=2,99/5=2) pseudo=read geom=check guess=(rea
 d,tcheck) scf=(maxcycle=1)\\title\\0,1\C,0,-3.74147,-1.24649,-0.146392
 \C,0,-1.73633,0.101912,0.0967246\C,0,-0.0265956,1.56349,0.0463738\C,0,
 0.891903,0.517411,-0.100195\C,0,3.09258,-0.439287,-0.355029\C,0,2.5422
 7,-1.60683,0.470427\C,0,0.346948,-0.753731,-0.0414907\H,0,0.652826,-2.
 66694,0.165775\H,0,3.16906,-2.49668,0.258347\H,0,2.53805,-1.31357,1.52
 134\H,0,3.05915,-0.783319,-1.3801\H,0,4.11777,-0.32195,-0.0956948\H,0,

 Normal termination of Gaussian 16 at Tue Apr  8 19:32:18 2025.
