 Gaussian 16, Revision C.01,

 ----------------------------------------------------------------------
 #t hf aug-cc-pvdz symm=none int=(grid=ultrafine) guess=(read,tcheck) s
 table=(opt,rrhf)
 ----------------------------------------------------------------------
 -----
 title
 -----
 Symbolic Z-matrix:
 Charge =  0 Multiplicity = 1

 SCF Done:  E(RHF) =  -485.201813363     A.U. after   15 cycles
 Normal termination of Gaussian 16 at Tue Apr  8 21:42:16 2025.
 Gaussian 16:  ES64L-G16RevC.01  3-Jul-2019

 ----------------------------------------------------------------------
 #t hf aug-cc-pvdz iop(5/13=1,5/36=2,99/5=2) pseudo=read geom=check gue
 ss=(read,tcheck) scf=(maxcycle=1)
 ----------------------------------------------------------------------
 -----
 title
 -----
 Structure from the checkpoint file:  "ANI1ccx_484_conf6_mol1.chk"
 Charge =  0 Multiplicity = 1

                         Standard orientation:
 ---------------------------------------------------------------------
 Center     Atomic      Atomic             Coordinates (Angstroms)
 Number     Number       Type             X           Y           Z
 ---------------------------------------------------------------------
      1          6           0        1.372780   -0.125515    0.120827
      2          6           0       -0.671782    0.722547   -0.162846
      3          1           0       -2.279500   -0.502032    1.035790
      4          1           0       -2.640661   -1.403818   -0.324419
      5          7           0       -1.841820   -1.140349    0.355427
      6          7           0       -0.728591   -0.611751   -0.328480
      7          8           0        0.537293   -1.122449   -0.300102
      8          8           0        2.597450   -0.086039    0.273614
      9          8           0        0.766449    1.048711   -0.124345
     10          8           0       -1.562810    1.483321    0.069848
 ---------------------------------------------------------------------

 SCF Done:  E(RHF) =  -485.354379375     A.U. after    2 cycles

 The electronic state is 1-A.
 Alpha  occ. eigenvalues --  -20.73347 -20.69574 -20.62593 -20.60618 -15.80764
 Alpha  occ. eigenvalues --  -15.72266 -11.50586 -11.48992  -1.58087  -1.44884
 Alpha  occ. eigenvalues --   -1.43367  -1.36132  -1.28921  -1.10107  -0.95754
 Alpha  occ. eigenvalues --   -0.90677  -0.81200  -0.80088  -0.75417  -0.73352
 Alpha  occ. eigenvalues --   -0.70312  -0.69211  -0.66958  -0.64803  -0.61105
 Alpha  occ. eigenvalues --   -0.56610  -0.53292  -0.52467  -0.50617  -0.45050
 Alpha virt. eigenvalues --    0.02351   0.04106   0.06382   0.07021   0.09418
 Alpha virt. eigenvalues --    0.10245   0.10995   0.11327   0.11534   0.12405
 Alpha virt. eigenvalues --    0.12806   0.15004   0.16535   0.17140   0.17701

 Mulliken charges:
               1
     1  C    0.776187
     2  C    0.883092
     3  H    0.058673
     4  H    0.199712
     5  N   -0.083890
     6  N    0.064009
     7  O   -0.594277
     8  O   -0.406821
     9  O   -0.557967
    10  O   -0.338718
 Sum of Mulliken charges =  -0.00000

 Dipole moment (field-independent basis, Debye):
    X=             -4.3070    Y=             -1.8376    Z=             -0.2286  Tot=              4.6882

 Test job not archived.
 1\1\GINC-SE110\SP\RHF\Aug-CC-pVDZ\C2H2N2O4\OHZDE\08-Apr-2025\0\\#t hf
 aug-cc-pvdz iop(5/13=1,5/36=2,99/5=2) pseudo=read geom=check guess=(re
 ad,tcheck) scf=(maxcycle=1)\\title\\0,1\C,0,1.37278,-0.125515,0.120827
 \C,0,-0.671782,0.722546,-0.162846\H,0,-2.2795,-0.502033,1.03579\H,0,-2
 .64066,-1.40382,-0.324419\N,0,-1.84182,-1.14035,0.355427\N,0,-0.728591
 ,-0.611752,-0.32848\O,0,0.537293,-1.12245,-0.300102\O,0,2.59745,-0.086
 0386,0.273614\O,0,0.766449,1.04871,-0.124345\O,0,-1.56281,1.48332,0.06
 98477\\Version=ES64L-G16RevC.01\State=1-A\HF=-485.3543794\RMSD=2.725e-

 Normal termination of Gaussian 16 at Tue Apr  8 21:42:20 2025.
