 Gaussian 16, Revision C.01,

 ----------------------------------------------------------------------
 #t hf aug-cc-pvdz symm=none int=(grid=ultrafine) guess=(read,tcheck) s
 table=(opt,rrhf)
 ----------------------------------------------------------------------
 -----
 title
 -----
 Symbolic Z-matrix:
 Charge =  0 Multiplicity = 1

 SCF Done:  E(RHF) =  -332.547243665     A.U. after   16 cycles
 Normal termination of Gaussian 16 at Tue Apr  8 21:47:53 2025.
 Gaussian 16:  ES64L-G16RevC.01  3-Jul-2019

 ----------------------------------------------------------------------
 #t hf aug-cc-pvdz iop(5/13=1,5/36=2,99/5=2) pseudo=read geom=check gue
 ss=(read,tcheck) scf=(maxcycle=1)
 ----------------------------------------------------------------------
 -----
 title
 -----
 Structure from the checkpoint file:  "ANI1ccx_658_conf3_mol2.chk"
 Charge =  0 Multiplicity = 1

                         Standard orientation:
 ---------------------------------------------------------------------
 Center     Atomic      Atomic             Coordinates (Angstroms)
 Number     Number       Type             X           Y           Z
 ---------------------------------------------------------------------
      1          6           0        1.680500    0.119594   -0.028014
      2          6           0        0.285366    0.021217    0.192327
      3          6           0       -1.646630    0.652679   -0.028642
      4          1           0       -2.628670    1.050650   -0.294296
      5          1           0       -2.346941   -1.441000   -0.143358
      6          7           0        2.820949   -0.068435   -0.108787
      7          7           0       -0.491285    1.228190    0.052234
      8          7           0       -1.572571   -0.703155   -0.101975
      9          7           0       -0.319922   -1.080970    0.104761
 ---------------------------------------------------------------------

 SCF Done:  E(RHF) =  -332.641353878     A.U. after    2 cycles

 The electronic state is 1-A.
 Alpha  occ. eigenvalues --  -15.75595 -15.71201 -15.67440 -15.65671 -11.36725
 Alpha  occ. eigenvalues --  -11.35913 -11.29985  -1.43638  -1.21312  -1.20436
 Alpha  occ. eigenvalues --   -1.14455  -0.92717  -0.89086  -0.80022  -0.71555
 Alpha  occ. eigenvalues --   -0.68084  -0.64760  -0.55963  -0.53989  -0.51427
 Alpha  occ. eigenvalues --   -0.49786  -0.47732  -0.45045  -0.40005
 Alpha virt. eigenvalues --    0.01258   0.03605   0.06427   0.07134   0.09299
 Alpha virt. eigenvalues --    0.09730   0.10211   0.10884   0.11678   0.12910
 Alpha virt. eigenvalues --    0.13818   0.14604   0.15212   0.15771   0.16148

 Mulliken charges:
               1
     1  C   -0.447192
     2  C    1.079868
     3  C    0.753643
     4  H   -0.161733
     5  H    0.098871
     6  N   -0.162254
     7  N   -0.591705
     8  N   -0.231802
     9  N   -0.337696
 Sum of Mulliken charges =  -0.00000

 Dipole moment (field-independent basis, Debye):
    X=             -6.9745    Y=             -1.1512    Z=             -0.1767  Tot=              7.0711

 Test job not archived.
 1\1\GINC-SE334\SP\RHF\Aug-CC-pVDZ\C3H2N4\OHZDE\08-Apr-2025\0\\#t hf au
 g-cc-pvdz iop(5/13=1,5/36=2,99/5=2) pseudo=read geom=check guess=(read
 ,tcheck) scf=(maxcycle=1)\\title\\0,1\C,0,1.6805,0.119594,-0.0280145\C
 ,0,0.285366,0.0212169,0.192327\C,0,-1.64663,0.652679,-0.0286423\H,0,-2
 .62867,1.05065,-0.294296\H,0,-2.34694,-1.441,-0.143358\N,0,2.82095,-0.
 0684345,-0.108787\N,0,-0.491285,1.22819,0.0522337\N,0,-1.57257,-0.7031
 55,-0.101975\N,0,-0.319921,-1.08097,0.104761\\Version=ES64L-G16RevC.01
 \State=1-A\HF=-332.6413539\RMSD=4.080e-03\Dipole=-2.7439868,-0.452903,

 Normal termination of Gaussian 16 at Tue Apr  8 21:47:56 2025.
