 Gaussian 16, Revision C.01,

 ----------------------------------------------------------------------
 #t hf aug-cc-pvdz symm=none int=(grid=ultrafine) guess=(read,tcheck) s
 table=(opt,rrhf)
 ----------------------------------------------------------------------
 -----
 title
 -----
 Symbolic Z-matrix:
 Charge =  0 Multiplicity = 1

 SCF Done:  E(RHF) =  -601.809495263     A.U. after   17 cycles
 Normal termination of Gaussian 16 at Tue Apr  8 20:52:30 2025.
 Gaussian 16:  ES64L-G16RevC.01  3-Jul-2019

 ----------------------------------------------------------------------
 #t hf aug-cc-pvdz iop(5/13=1,5/36=2,99/5=2) pseudo=read geom=check gue
 ss=(read,tcheck) scf=(maxcycle=1)
 ----------------------------------------------------------------------
 -----
 title
 -----
 Structure from the checkpoint file:  "ANI1ccx_1803_conf2_mol1.chk"
 Charge =  0 Multiplicity = 1

                         Standard orientation:
 ---------------------------------------------------------------------
 Center     Atomic      Atomic             Coordinates (Angstroms)
 Number     Number       Type             X           Y           Z
 ---------------------------------------------------------------------
      1          6           0       -0.190307    1.543460   -0.012276
      2          6           0        0.849215    0.481750    0.006574
      3          6           0        2.180890    0.916795   -0.012614
      4          6           0        3.170390   -0.016331    0.033966
      5          6           0       -3.118450   -0.622218   -0.074273
      6          6           0        1.528321   -1.863760   -0.072559
      7          6           0        0.493518   -0.881988    0.042881
      8          6           0       -1.723260   -0.261589    0.033131
      9          6           0        2.790961   -1.377350    0.013610
     10          1           0        1.250301   -2.858540   -0.306878
     11          1           0        3.574971   -2.105260    0.044731
     12          1           0        4.264130    0.299361    0.046947
     13          1           0        2.361690    1.975280    0.031096
     14          7           0       -0.812359   -1.197211    0.015251
     15          7           0       -4.229850   -0.909556   -0.068894
     16          8           0       -0.033903    2.738500   -0.180667
     17          8           0       -1.471510    1.001989    0.281789
 ---------------------------------------------------------------------

 SCF Done:  E(RHF) =  -601.986067723     A.U. after    2 cycles

 The electronic state is 1-A.
 Alpha  occ. eigenvalues --  -20.69252 -20.60463 -15.68651 -15.68074 -11.45218
 Alpha  occ. eigenvalues --  -11.44932 -11.33785 -11.32645 -11.29397 -11.28783
 Alpha  occ. eigenvalues --  -11.28565 -11.28395 -11.28062  -1.49572  -1.38569
 Alpha  occ. eigenvalues --   -1.27519  -1.23369  -1.17960  -1.08458  -1.06910
 Alpha  occ. eigenvalues --   -0.98399  -0.93890  -0.87485  -0.84569  -0.79742
 Alpha  occ. eigenvalues --   -0.77443  -0.73244  -0.71660  -0.68466  -0.67212
 Alpha  occ. eigenvalues --   -0.65292  -0.64286  -0.58970  -0.58706  -0.57635
 Alpha  occ. eigenvalues --   -0.56141  -0.56008  -0.52261  -0.51456  -0.50741
 Alpha  occ. eigenvalues --   -0.47681  -0.47403  -0.38850  -0.34914
 Alpha virt. eigenvalues --    0.01186   0.02330   0.03501   0.04464   0.04731
 Alpha virt. eigenvalues --    0.05772   0.06755   0.07156   0.08575   0.09212
 Alpha virt. eigenvalues --    0.10186   0.10581   0.10769   0.11554   0.11781

 Mulliken charges:
               1
     1  C    0.230094
     2  C    0.774448
     3  C    0.477321
     4  C    0.020547
     5  C   -0.684879
     6  C    0.834516
     7  C    0.054039
     8  C    1.001413
     9  C    0.813655
    10  H   -0.510028
    11  H   -0.444067
    12  H   -0.318027
    13  H   -0.589926
    14  N   -0.553508
    15  N   -0.028869
    16  O   -0.448526
    17  O   -0.628203
 Sum of Mulliken charges =  -0.00000

 Dipole moment (field-independent basis, Debye):
    X=              5.3065    Y=             -2.1762    Z=              0.0442  Tot=              5.7356

 Test job not archived.
 1\1\GINC-SE079\SP\RHF\Aug-CC-pVDZ\C9H4N2O2\OHZDE\08-Apr-2025\0\\#t hf
 aug-cc-pvdz iop(5/13=1,5/36=2,99/5=2) pseudo=read geom=check guess=(re
 ad,tcheck) scf=(maxcycle=1)\\title\\0,1\C,0,-0.190307,1.54346,-0.01227
 62\C,0,0.849215,0.48175,0.00657408\C,0,2.18089,0.916795,-0.0126138\C,0
 ,3.17039,-0.0163308,0.0339655\C,0,-3.11845,-0.622217,-0.0742729\C,0,1.
 52832,-1.86376,-0.0725588\C,0,0.493518,-0.881988,0.0428805\C,0,-1.7232
 6,-0.261588,0.0331305\C,0,2.79096,-1.37735,0.0136096\H,0,1.2503,-2.858
 54,-0.306878\H,0,3.57497,-2.10526,0.0447313\H,0,4.26413,0.299361,0.046

 Normal termination of Gaussian 16 at Tue Apr  8 20:52:42 2025.
