 Gaussian 16, Revision C.01,

 ----------------------------------------------------------------------
 #t hf aug-cc-pvdz symm=none int=(grid=ultrafine) guess=(read,tcheck) s
 table=(opt,rrhf)
 ----------------------------------------------------------------------
 -----
 title
 -----
 Symbolic Z-matrix:
 Charge =  0 Multiplicity = 1

 SCF Done:  E(RHF) =  -903.321421642     A.U. after   14 cycles
 Normal termination of Gaussian 16 at Tue Apr  8 20:11:01 2025.
 Gaussian 16:  ES64L-G16RevC.01  3-Jul-2019

 ----------------------------------------------------------------------
 #t hf aug-cc-pvdz iop(5/13=1,5/36=2,99/5=2) pseudo=read geom=check gue
 ss=(read,tcheck) scf=(maxcycle=1)
 ----------------------------------------------------------------------
 -----
 title
 -----
 Structure from the checkpoint file:  "ANI1ccx_1597_conf23_mol1.chk"
 Charge =  0 Multiplicity = 1

                         Standard orientation:
 ---------------------------------------------------------------------
 Center     Atomic      Atomic             Coordinates (Angstroms)
 Number     Number       Type             X           Y           Z
 ---------------------------------------------------------------------
      1          6           0        2.147140    0.638679   -0.954383
      2          6           0        0.711955    0.229883   -0.256035
      3          6           0        3.291620    0.383834    0.075300
      4          6           0        3.251920   -1.195100    0.397219
      5          6           0       -1.682090    0.485660   -0.203725
      6          6           0       -1.551140    1.665410    0.708543
      7          6           0       -2.111360   -0.730280    0.553698
      8          6           0       -3.051180   -1.514650   -0.269751
      9          1           0       -0.221822    2.425250   -0.417530
     10          1           0       -4.736740   -0.532749    0.393228
     11          1           0       -4.721020   -1.884960   -0.937868
     12          1           0       -1.324510   -1.512470    0.654864
     13          1           0       -2.440730   -0.301165    1.514130
     14          1           0       -2.502950    0.770314   -0.947229
     15          1           0       -0.362767    0.492310   -2.038160
     16          1           0        2.694750   -1.071650    2.308430
     17          1           0        4.197610    0.519190   -0.550827
     18          1           0        3.344510    1.107230    0.829488
     19          1           0        2.321960   -0.059036   -1.811630
     20          1           0        2.419290    2.167990   -2.472370
     21          1           0        2.495660    2.645380   -0.904235
     22          1           0        3.392670   -2.539950    1.976250
     23          7           0        1.955730    2.014270   -1.561590
     24          7           0        3.252170   -1.624240    1.682580
     25          7           0       -0.479417    0.386545   -0.967331
     26          7           0       -4.370220   -1.214400   -0.231800
     27          8           0       -2.594080   -2.316770   -1.154680
     28          8           0        0.727715    0.012749    0.919883
     29          8           0        3.363530   -1.967760   -0.551423
     30          8           0       -2.267380    1.673230    1.723490
     31          8           0       -0.867901    2.730860    0.268381
 ---------------------------------------------------------------------

 SCF Done:  E(RHF) =  -903.593019829     A.U. after    2 cycles

 The electronic state is 1-A.
 Alpha  occ. eigenvalues --  -20.63746 -20.57524 -20.56405 -20.54575 -20.53349
 Alpha  occ. eigenvalues --  -15.68030 -15.66516 -15.66046 -15.64699 -11.41001
 Alpha  occ. eigenvalues --  -11.39201 -11.38636 -11.36886 -11.32624 -11.32617
 Alpha  occ. eigenvalues --  -11.28017 -11.24453  -1.42554  -1.39785  -1.34972
 Alpha  occ. eigenvalues --   -1.32536  -1.32092  -1.22877  -1.18558  -1.18280
 Alpha  occ. eigenvalues --   -1.17636  -1.06758  -1.03126  -0.95573  -0.89255
 Alpha  occ. eigenvalues --   -0.84312  -0.82066  -0.80689  -0.79224  -0.75666
 Alpha  occ. eigenvalues --   -0.74563  -0.73295  -0.72618  -0.71210  -0.69404
 Alpha  occ. eigenvalues --   -0.67492  -0.67015  -0.66265  -0.64854  -0.63666
 Alpha  occ. eigenvalues --   -0.62965  -0.61476  -0.60986  -0.59672  -0.57795
 Alpha  occ. eigenvalues --   -0.56560  -0.55516  -0.54280  -0.53636  -0.52933
 Alpha  occ. eigenvalues --   -0.52474  -0.49892  -0.48506  -0.48143  -0.44671
 Alpha  occ. eigenvalues --   -0.44434  -0.42631  -0.42130  -0.41784  -0.41565
 Alpha virt. eigenvalues --    0.01956   0.02890   0.03429   0.04016   0.04500
 Alpha virt. eigenvalues --    0.05136   0.05938   0.05990   0.06902   0.07244
 Alpha virt. eigenvalues --    0.07925   0.08205   0.09011   0.09597   0.10745

 Mulliken charges:
               1
     1  C    0.065074
     2  C    0.140202
     3  C    0.652756
     4  C    0.802880
     5  C   -0.109705
     6  C    0.893603
     7  C    0.910324
     8  C    0.697549
     9  H    0.269484
    10  H    0.004682
    11  H    0.116620
    12  H    0.038643
    13  H   -0.075266
    14  H   -0.035796
    15  H    0.034843
    16  H    0.067668
    17  H    0.204071
    18  H   -0.397629
    19  H   -0.021313
    20  H    0.024924
    21  H    0.122159
    22  H   -0.122650
    23  N   -0.481548
    24  N   -0.057187
    25  N   -0.607526
    26  N   -0.215681
    27  O   -0.742554
    28  O   -0.474512
    29  O   -0.604514
    30  O   -0.610193
    31  O   -0.489407
 Sum of Mulliken charges =  -0.00000

 Dipole moment (field-independent basis, Debye):
    X=              1.2094    Y=              3.5250    Z=             -1.3264  Tot=              3.9557

 Test job not archived.
 1\1\GINC-SE212\SP\RHF\Aug-CC-pVDZ\C8H14N4O5\OHZDE\08-Apr-2025\0\\#t hf
  aug-cc-pvdz iop(5/13=1,5/36=2,99/5=2) pseudo=read geom=check guess=(r
 ead,tcheck) scf=(maxcycle=1)\\title\\0,1\C,0,2.14714,0.638679,-0.95438
 3\C,0,0.711955,0.229883,-0.256035\C,0,3.29162,0.383834,0.0753001\C,0,3
 .25192,-1.1951,0.397219\C,0,-1.68209,0.48566,-0.203725\C,0,-1.55114,1.
 66541,0.708543\C,0,-2.11136,-0.73028,0.553698\C,0,-3.05118,-1.51465,-0
 .269751\H,0,-0.221822,2.42525,-0.41753\H,0,-4.73674,-0.532749,0.393228
 \H,0,-4.72102,-1.88496,-0.937868\H,0,-1.32451,-1.51247,0.654864\H,0,-2

 Normal termination of Gaussian 16 at Tue Apr  8 20:11:48 2025.
