 Gaussian 16, Revision C.01,

 ----------------------------------------------------------------------
 #t hf aug-cc-pvdz symm=none int=(grid=ultrafine) guess=(read,tcheck) s
 table=(opt,rrhf)
 ----------------------------------------------------------------------
 -----
 title
 -----
 Symbolic Z-matrix:
 Charge =  0 Multiplicity = 1

 SCF Done:  E(RHF) =  -484.397421639     A.U. after   16 cycles
 Normal termination of Gaussian 16 at Tue Apr  8 19:12:45 2025.
 Gaussian 16:  ES64L-G16RevC.01  3-Jul-2019

 ----------------------------------------------------------------------
 #t hf aug-cc-pvdz iop(5/13=1,5/36=2,99/5=2) pseudo=read geom=check gue
 ss=(read,tcheck) scf=(maxcycle=1)
 ----------------------------------------------------------------------
 -----
 title
 -----
 Structure from the checkpoint file:  "ANI1ccx_1091_conf2_mol2.chk"
 Charge =  0 Multiplicity = 1

                         Standard orientation:
 ---------------------------------------------------------------------
 Center     Atomic      Atomic             Coordinates (Angstroms)
 Number     Number       Type             X           Y           Z
 ---------------------------------------------------------------------
      1          6           0       -1.216351    0.906911   -0.043224
      2          6           0       -1.598258   -1.417753    0.063409
      3          6           0        0.657479   -0.777362   -0.058121
      4          6           0        2.427530    0.330582    0.024612
      5          6           0        0.218223    0.531195   -0.020164
      6          1           0       -2.291147   -2.226594    0.093447
      7          1           0        0.002064   -2.739341   -0.180909
      8          1           0        3.458139    0.611996    0.086694
      9          1           0        1.371697    2.224761    0.096095
     10          7           0       -2.085470   -0.232923    0.102488
     11          7           0       -0.301746   -1.762281   -0.045970
     12          7           0        2.004861   -0.922765   -0.029593
     13          7           0        1.407099    1.235501    0.079181
     14          8           0       -1.580712    2.058127   -0.079642
 ---------------------------------------------------------------------

 SCF Done:  E(RHF) =  -484.537930738     A.U. after    2 cycles

 The electronic state is 1-A.
 Alpha  occ. eigenvalues --  -20.54169 -15.71181 -15.70776 -15.65066 -15.62980
 Alpha  occ. eigenvalues --  -11.37578 -11.36247 -11.35683 -11.33667 -11.28552
 Alpha  occ. eigenvalues --   -1.36346  -1.34122  -1.29771  -1.18962  -1.15585
 Alpha  occ. eigenvalues --   -1.04859  -0.90905  -0.89243  -0.85712  -0.80449
 Alpha  occ. eigenvalues --   -0.75927  -0.72546  -0.68274  -0.66306  -0.65576
 Alpha  occ. eigenvalues --   -0.62546  -0.60135  -0.58426  -0.55309  -0.49304
 Alpha  occ. eigenvalues --   -0.46789  -0.44150  -0.41661  -0.39740  -0.32884
 Alpha virt. eigenvalues --    0.02150   0.02495   0.04615   0.05724   0.06368
 Alpha virt. eigenvalues --    0.08093   0.08625   0.10131   0.10701   0.11465
 Alpha virt. eigenvalues --    0.11775   0.12380   0.12613   0.13711   0.14038

 Mulliken charges:
               1
     1  C    0.674339
     2  C    0.851175
     3  C    0.470955
     4  C    0.985165
     5  C    0.460361
     6  H   -0.338029
     7  H   -0.011090
     8  H   -0.244759
     9  H   -0.088827
    10  N   -0.591865
    11  N   -0.434439
    12  N   -0.671369
    13  N   -0.546059
    14  O   -0.515557
 Sum of Mulliken charges =  -0.00000

 Dipole moment (field-independent basis, Debye):
    X=              4.2627    Y=             -3.3974    Z=             -0.0589  Tot=              5.4513

 Test job not archived.
 1\1\GINC-SE333\SP\RHF\Aug-CC-pVDZ\C5H4N4O1\OHZDE\08-Apr-2025\0\\#t hf
 aug-cc-pvdz iop(5/13=1,5/36=2,99/5=2) pseudo=read geom=check guess=(re
 ad,tcheck) scf=(maxcycle=1)\\title\\0,1\C,0,-1.21635,0.906913,-0.04322
 45\C,0,-1.59826,-1.41775,0.0634093\C,0,0.657478,-0.777362,-0.0581208\C
 ,0,2.42753,0.33058,0.0246118\C,0,0.218224,0.531196,-0.0201643\H,0,-2.2
 9115,-2.22659,0.0934472\H,0,0.00206043,-2.73934,-0.180909\H,0,3.45814,
 0.611993,0.0866937\H,0,1.3717,2.22476,0.0960952\N,0,-2.08547,-0.23292,
 0.102488\N,0,-0.301748,-1.76228,-0.0459703\N,0,2.00486,-0.922766,-0.02

 Normal termination of Gaussian 16 at Tue Apr  8 19:12:52 2025.
