 Gaussian 16, Revision C.01,

 ----------------------------------------------------------------------
 #t hf aug-cc-pvdz symm=none int=(grid=ultrafine) guess=(read,tcheck) s
 table=(opt,rrhf)
 ----------------------------------------------------------------------
 -----
 title
 -----
 Symbolic Z-matrix:
 Charge =  0 Multiplicity = 1

 SCF Done:  E(RHF) =  -785.618470901     A.U. after   14 cycles
 Normal termination of Gaussian 16 at Tue Apr  8 19:22:57 2025.
 Gaussian 16:  ES64L-G16RevC.01  3-Jul-2019

 ----------------------------------------------------------------------
 #t hf aug-cc-pvdz iop(5/13=1,5/36=2,99/5=2) pseudo=read geom=check gue
 ss=(read,tcheck) scf=(maxcycle=1)
 ----------------------------------------------------------------------
 -----
 title
 -----
 Structure from the checkpoint file:  "ANI1ccx_1221_conf8_mol1.chk"
 Charge =  0 Multiplicity = 1

                         Standard orientation:
 ---------------------------------------------------------------------
 Center     Atomic      Atomic             Coordinates (Angstroms)
 Number     Number       Type             X           Y           Z
 ---------------------------------------------------------------------
      1          6           0        3.628969    0.043393    0.696535
      2          6           0        1.320969    0.321513   -0.027073
      3          6           0       -0.808343    0.865740   -0.512197
      4          6           0       -1.652271    3.191279   -0.321005
      5          6           0       -0.237044   -1.317121   -0.212779
      6          6           0       -2.106460   -2.964741   -0.231178
      7          1           0       -2.749270   -1.774582    1.100090
      8          1           0       -2.611050   -2.396512   -1.012850
      9          1           0       -2.162919   -4.070921   -0.451494
     10          1           0       -0.019172   -3.251281    0.108455
     11          1           0       -0.750377    3.741399   -0.524343
     12          1           0       -1.301151    2.649919    1.544240
     13          1           0       -2.666751    1.580758   -0.708166
     14          1           0        2.557119    1.827510    0.258839
     15          1           0        4.407619    0.770366    1.050010
     16          1           0        3.336520   -0.621785    1.502720
     17          1           0        3.729930   -1.286790   -0.764384
     18          1           0       -2.444502    3.686678   -0.895387
     19          7           0        2.531569    0.815879    0.218311
     20          7           0        0.449820    1.281769   -0.295431
     21          7           0       -1.698461    1.845309   -0.761734
     22          7           0       -1.250310   -0.395194   -0.498070
     23          7           0       -0.670145   -2.583201   -0.325511
     24          7           0        1.017500   -1.012880    0.025922
     25          8           0       -2.010221    3.187229    1.069190
     26          8           0        4.303840   -0.603420   -0.378570
     27          8           0       -2.651210   -2.753422    1.046140
 ---------------------------------------------------------------------

 SCF Done:  E(RHF) =  -785.855614673     A.U. after    2 cycles

 The electronic state is 1-A.
 Alpha  occ. eigenvalues --  -20.58861 -20.58497 -20.57824 -15.65987 -15.65731
 Alpha  occ. eigenvalues --  -15.64724 -15.62375 -15.61443 -15.60910 -11.38557
 Alpha  occ. eigenvalues --  -11.38505 -11.37592 -11.34257 -11.34095 -11.33350
 Alpha  occ. eigenvalues --   -1.35125  -1.34449  -1.33786  -1.32335  -1.25909
 Alpha  occ. eigenvalues --   -1.25026  -1.17597  -1.13703  -1.12309  -0.96687
 Alpha  occ. eigenvalues --   -0.95235  -0.93119  -0.85377  -0.84395  -0.80280
 Alpha  occ. eigenvalues --   -0.75114  -0.73802  -0.72489  -0.70942  -0.69068
 Alpha  occ. eigenvalues --   -0.68174  -0.66060  -0.65710  -0.65251  -0.62599
 Alpha  occ. eigenvalues --   -0.61842  -0.60727  -0.59965  -0.57285  -0.54563
 Alpha  occ. eigenvalues --   -0.54039  -0.53434  -0.51892  -0.51213  -0.49736
 Alpha  occ. eigenvalues --   -0.49362  -0.49233  -0.42527  -0.42355  -0.40137
 Alpha  occ. eigenvalues --   -0.37314  -0.36349
 Alpha virt. eigenvalues --    0.02712   0.03068   0.03264   0.03891   0.05250
 Alpha virt. eigenvalues --    0.05393   0.06050   0.07007   0.07368   0.07635
 Alpha virt. eigenvalues --    0.08755   0.09247   0.09647   0.11057   0.11422

 Mulliken charges:
               1
     1  C    1.218438
     2  C    0.612387
     3  C    0.505662
     4  C    1.236185
     5  C    0.689373
     6  C    1.143421
     7  H    0.216581
     8  H   -0.136441
     9  H   -0.158709
    10  H   -0.009493
    11  H   -0.269700
    12  H    0.200510
    13  H   -0.052241
    14  H   -0.035352
    15  H   -0.212053
    16  H   -0.200843
    17  H    0.182947
    18  H   -0.224404
    19  N   -0.319212
    20  N   -0.586153
    21  N   -0.292748
    22  N   -0.762792
    23  N   -0.475370
    24  N   -0.526056
    25  O   -0.602607
    26  O   -0.573257
    27  O   -0.568073
 Sum of Mulliken charges =  -0.00000

 Dipole moment (field-independent basis, Debye):
    X=              0.1612    Y=              0.3737    Z=              0.0860  Tot=              0.4160

 Test job not archived.
 1\1\GINC-SE224\SP\RHF\Aug-CC-pVDZ\C6H12N6O3\OHZDE\08-Apr-2025\0\\#t hf
  aug-cc-pvdz iop(5/13=1,5/36=2,99/5=2) pseudo=read geom=check guess=(r
 ead,tcheck) scf=(maxcycle=1)\\title\\0,1\C,0,3.62897,0.0433923,0.69653
 5\C,0,1.32097,0.321513,-0.027073\C,0,-0.808342,0.865741,-0.512197\C,0,
 -1.65227,3.19128,-0.321005\C,0,-0.237044,-1.31712,-0.212779\C,0,-2.106
 46,-2.96474,-0.231178\H,0,-2.74927,-1.77458,1.10009\H,0,-2.61105,-2.39
 651,-1.01285\H,0,-2.16292,-4.07092,-0.451494\H,0,-0.0191728,-3.25128,0
 .108455\H,0,-0.750375,3.7414,-0.524343\H,0,-1.30115,2.64992,1.54424\H,

 Normal termination of Gaussian 16 at Tue Apr  8 19:23:25 2025.
