 Gaussian 16, Revision C.01,

 ----------------------------------------------------------------------
 #t hf aug-cc-pvdz symm=none int=(grid=ultrafine) guess=(read,tcheck) s
 table=(opt,rrhf)
 ----------------------------------------------------------------------
 -----
 title
 -----
 Symbolic Z-matrix:
 Charge =  0 Multiplicity = 1

 SCF Done:  E(RHF) =  -923.683065612     A.U. after   15 cycles
 Normal termination of Gaussian 16 at Tue Apr  8 21:20:25 2025.
 Gaussian 16:  ES64L-G16RevC.01  3-Jul-2019

 ----------------------------------------------------------------------
 #t hf aug-cc-pvdz iop(5/13=1,5/36=2,99/5=2) pseudo=read geom=check gue
 ss=(read,tcheck) scf=(maxcycle=1)
 ----------------------------------------------------------------------
 -----
 title
 -----
 Structure from the checkpoint file:  "ANI1ccx_1787_conf1_mol1.chk"
 Charge =  0 Multiplicity = 1

                         Standard orientation:
 ---------------------------------------------------------------------
 Center     Atomic      Atomic             Coordinates (Angstroms)
 Number     Number       Type             X           Y           Z
 ---------------------------------------------------------------------
      1          6           0       -1.712050   -1.275078   -0.225659
      2          6           0        1.665572    2.255479    0.388413
      3          6           0        2.394472    1.415219   -0.649790
      4          6           0        1.568421    0.321206   -1.312310
      5          6           0       -0.803144    2.606031   -0.156027
      6          6           0        1.365040   -0.911744   -0.442924
      7          6           0       -3.168530   -0.801323   -0.069370
      8          6           0       -0.800068   -0.671925    0.858850
      9          6           0        2.650740   -1.687111   -0.016903
     10          1           0        2.667112    2.109509   -1.468600
     11          1           0        1.615159   -2.322861    1.345730
     12          1           0       -2.309668    2.417052    1.250830
     13          1           0       -0.877614    2.477911    1.973640
     14          1           0       -0.979960    2.102521   -2.048410
     15          1           0        0.550285    3.997390    0.313438
     16          1           0        1.317622    1.659170    1.256350
     17          1           0        2.416593    2.976839    0.778235
     18          1           0        3.349271    1.027488   -0.212991
     19          1           0        2.097071    0.004798   -2.230870
     20          1           0        0.592951    0.699164   -1.609660
     21          1           0       -1.908691   -3.145768    0.621475
     22          1           0       -1.321950   -0.872795   -1.190460
     23          1           0       -3.198309    0.277393   -0.269379
     24          1           0       -2.202721   -3.132648   -0.920134
     25          1           0       -4.816880   -1.258386   -1.061220
     26          1           0        1.025661   -0.262710    1.519400
     27          1           0        0.810516   -1.650960   -1.057410
     28          1           0       -3.479740   -1.046837    0.935305
     29          7           0       -1.577621   -2.705538   -0.229920
     30          7           0        0.591007   -0.785419    0.773453
     31          7           0        0.602427    3.135360   -0.210690
     32          7           0       -1.517938    2.203142   -1.183080
     33          7           0       -1.380387    2.767421    1.146090
     34          8           0        3.692520   -1.670932   -0.657373
     35          8           0       -1.255969   -0.091414    1.820520
     36          8           0       -3.897480   -1.556307   -1.024650
     37          8           0        2.544449   -2.414541    1.081270
 ---------------------------------------------------------------------

 SCF Done:  E(RHF) =  -923.959794172     A.U. after    2 cycles

 The electronic state is 1-A.
 Alpha  occ. eigenvalues --  -20.62975 -20.58718 -20.57180 -20.55712 -15.67502
 Alpha  occ. eigenvalues --  -15.64700 -15.64116 -15.62764 -15.61516 -11.40334
 Alpha  occ. eigenvalues --  -11.39307 -11.38376 -11.31875 -11.30116 -11.29418
 Alpha  occ. eigenvalues --  -11.29394 -11.25534 -11.24916  -1.43405  -1.38797
 Alpha  occ. eigenvalues --   -1.33704  -1.32264  -1.24328  -1.23295  -1.18196
 Alpha  occ. eigenvalues --   -1.14785  -1.11033  -1.07433  -1.00356  -0.99641
 Alpha  occ. eigenvalues --   -0.92287  -0.89333  -0.84554  -0.82579  -0.79123
 Alpha  occ. eigenvalues --   -0.78529  -0.75847  -0.74651  -0.71453  -0.70479
 Alpha  occ. eigenvalues --   -0.70053  -0.68806  -0.68005  -0.66368  -0.65632
 Alpha  occ. eigenvalues --   -0.64497  -0.64094  -0.63671  -0.62453  -0.61859
 Alpha  occ. eigenvalues --   -0.61253  -0.60218  -0.58679  -0.57921  -0.57285
 Alpha  occ. eigenvalues --   -0.55670  -0.53391  -0.52894  -0.51594  -0.49970
 Alpha  occ. eigenvalues --   -0.48870  -0.48656  -0.47668  -0.47369  -0.45332
 Alpha  occ. eigenvalues --   -0.43170  -0.42503  -0.41662  -0.40717  -0.37299
 Alpha virt. eigenvalues --    0.02571   0.02691   0.03350   0.03815   0.05048
 Alpha virt. eigenvalues --    0.05126   0.05337   0.06112   0.06686   0.07170
 Alpha virt. eigenvalues --    0.07337   0.08153   0.08258   0.08723   0.09274

 Mulliken charges:
               1
     1  C   -0.474703
     2  C    1.059435
     3  C    0.181040
     4  C    0.923174
     5  C    0.801232
     6  C   -0.324724
     7  C    1.631774
     8  C    0.739264
     9  C    0.859584
    10  H   -0.064150
    11  H    0.277870
    12  H   -0.025832
    13  H    0.010321
    14  H    0.030252
    15  H    0.006364
    16  H   -0.217736
    17  H   -0.149545
    18  H   -0.063953
    19  H   -0.019743
    20  H   -0.344584
    21  H    0.003723
    22  H   -0.100248
    23  H   -0.106925
    24  H    0.015971
    25  H    0.172159
    26  H   -0.003275
    27  H   -0.136207
    28  H   -0.135783
    29  N   -0.260715
    30  N   -0.634592
    31  N   -0.727978
    32  N   -0.460594
    33  N   -0.212018
    34  O   -0.528710
    35  O   -0.632927
    36  O   -0.652462
    37  O   -0.434761
 Sum of Mulliken charges =  -0.00000

 Dipole moment (field-independent basis, Debye):
    X=             -3.6531    Y=              1.5026    Z=              1.5894  Tot=              4.2578

 Test job not archived.
 1\1\GINC-SE250\SP\RHF\Aug-CC-pVDZ\C9H19N5O4\OHZDE\08-Apr-2025\0\\#t hf
  aug-cc-pvdz iop(5/13=1,5/36=2,99/5=2) pseudo=read geom=check guess=(r
 ead,tcheck) scf=(maxcycle=1)\\title\\0,1\C,0,-1.71205,-1.27508,-0.2256
 59\C,0,1.66557,2.25548,0.388413\C,0,2.39447,1.41522,-0.64979\C,0,1.568
 42,0.321206,-1.31231\C,0,-0.803146,2.60603,-0.156027\C,0,1.36504,-0.91
 1744,-0.442924\C,0,-3.16853,-0.801326,-0.0693698\C,0,-0.800068,-0.6719
 26,0.85885\C,0,2.65074,-1.68711,-0.0169021\H,0,2.66711,2.10951,-1.4686
 \H,0,1.61516,-2.32286,1.34573\H,0,-2.30967,2.41705,1.25083\H,0,-0.8776

 Normal termination of Gaussian 16 at Tue Apr  8 21:21:34 2025.
