 Gaussian 16, Revision C.01,

 ----------------------------------------------------------------------
 #t hf aug-cc-pvdz symm=none int=(grid=ultrafine) guess=(read,tcheck) s
 table=(opt,rrhf)
 ----------------------------------------------------------------------
 -----
 title
 -----
 Symbolic Z-matrix:
 Charge =  0 Multiplicity = 1

 SCF Done:  E(RHF) =  -585.784884155     A.U. after   14 cycles
 Normal termination of Gaussian 16 at Tue Apr  8 19:32:04 2025.
 Gaussian 16:  ES64L-G16RevC.01  3-Jul-2019

 ----------------------------------------------------------------------
 #t hf aug-cc-pvdz iop(5/13=1,5/36=2,99/5=2) pseudo=read geom=check gue
 ss=(read,tcheck) scf=(maxcycle=1)
 ----------------------------------------------------------------------
 -----
 title
 -----
 Structure from the checkpoint file:  "ANI1ccx_1424_conf1_mol2.chk"
 Charge =  0 Multiplicity = 1

                         Standard orientation:
 ---------------------------------------------------------------------
 Center     Atomic      Atomic             Coordinates (Angstroms)
 Number     Number       Type             X           Y           Z
 ---------------------------------------------------------------------
      1          6           0        1.015807    1.504062    0.040158
      2          6           0        2.280971   -0.609719   -0.243120
      3          6           0        1.726944   -2.086457   -0.335570
      4          6           0        0.768412   -2.107899    0.782692
      5          6           0        0.040851   -0.793076    0.600421
      6          6           0       -1.124549   -0.900915   -0.435639
      7          6           0       -2.412800   -0.080470   -0.228361
      8          1           0       -1.510583    1.315167    0.741881
      9          1           0       -0.742115   -0.586684   -1.474670
     10          1           0       -1.469897   -1.874703   -0.610837
     11          1           0       -0.349701   -0.317306    1.553220
     12          1           0        0.050756   -2.897810    0.772823
     13          1           0        1.328693   -1.946578    1.742250
     14          1           0        1.176344   -2.327478   -1.248240
     15          1           0        3.037821   -0.625447    0.581482
     16          1           0        2.818520   -0.299784   -1.156320
     17          1           0       -0.329858    2.982159    0.209708
     18          1           0        2.644976    1.876775   -1.239040
     19          1           0        1.862554    3.097833   -0.691299
     20          1           0        2.517435   -2.812805   -0.234013
     21          7           0        2.142365    2.189654   -0.402348
     22          7           0       -0.045479    2.049920    0.504553
     23          7           0        1.080609    0.150310    0.045504
     24          8           0       -2.427962    1.054825    0.516174
     25          8           0       -3.453439   -0.538036   -0.649221
 ---------------------------------------------------------------------

 SCF Done:  E(RHF) =  -585.961889080     A.U. after    2 cycles

 The electronic state is 1-A.
 Alpha  occ. eigenvalues --  -20.56942 -20.52517 -15.66813 -15.66032 -15.59105
 Alpha  occ. eigenvalues --  -11.38936 -11.37195 -11.30621 -11.30184 -11.25670
 Alpha  occ. eigenvalues --  -11.25525 -11.25476  -1.37342  -1.30414  -1.28610
 Alpha  occ. eigenvalues --   -1.21285  -1.13687  -1.08057  -1.03745  -0.95323
 Alpha  occ. eigenvalues --   -0.89474  -0.82809  -0.80245  -0.77250  -0.74947
 Alpha  occ. eigenvalues --   -0.72493  -0.71043  -0.66661  -0.65671  -0.64665
 Alpha  occ. eigenvalues --   -0.63073  -0.61159  -0.59695  -0.58801  -0.56484
 Alpha  occ. eigenvalues --   -0.55334  -0.54304  -0.53365  -0.51238  -0.51127
 Alpha  occ. eigenvalues --   -0.48750  -0.45380  -0.43652  -0.42668  -0.42372
 Alpha  occ. eigenvalues --   -0.35819
 Alpha virt. eigenvalues --    0.01614   0.02551   0.03499   0.03995   0.05221
 Alpha virt. eigenvalues --    0.05708   0.06508   0.06696   0.07136   0.08266
 Alpha virt. eigenvalues --    0.08913   0.09060   0.10539   0.11011   0.11694

 Mulliken charges:
               1
     1  C    0.386542
     2  C    0.705993
     3  C    0.707190
     4  C    0.369688
     5  C    0.450078
     6  C    0.307137
     7  C    0.477445
     8  H    0.349064
     9  H    0.157826
    10  H   -0.357132
    11  H   -0.425727
    12  H   -0.141413
    13  H    0.157507
    14  H   -0.181335
    15  H   -0.173013
    16  H   -0.281261
    17  H   -0.087628
    18  H    0.032174
    19  H   -0.017481
    20  H   -0.117723
    21  N   -0.182357
    22  N   -0.493899
    23  N   -0.638318
    24  O   -0.498369
    25  O   -0.504990
 Sum of Mulliken charges =  -0.00000

 Dipole moment (field-independent basis, Debye):
    X=              8.6906    Y=             -0.3701    Z=             -1.6023  Tot=              8.8448

 Test job not archived.
 1\1\GINC-SE219\SP\RHF\Aug-CC-pVDZ\C7H13N3O2\OHZDE\08-Apr-2025\0\\#t hf
  aug-cc-pvdz iop(5/13=1,5/36=2,99/5=2) pseudo=read geom=check guess=(r
 ead,tcheck) scf=(maxcycle=1)\\title\\0,1\C,0,1.01581,1.50406,0.0401583
 \C,0,2.28097,-0.609723,-0.24312\C,0,1.72694,-2.08646,-0.33557\C,0,0.76
 8408,-2.1079,0.782692\C,0,0.0408499,-0.793076,0.600421\C,0,-1.12455,-0
 .900913,-0.435639\C,0,-2.4128,-0.0804652,-0.228361\H,0,-1.51058,1.3151
 7,0.741881\H,0,-0.742116,-0.586682,-1.47467\H,0,-1.4699,-1.8747,-0.610
 837\H,0,-0.349701,-0.317305,1.55322\H,0,0.0507509,-2.89781,0.772823\H,

 Normal termination of Gaussian 16 at Tue Apr  8 19:32:28 2025.
