 Gaussian 16, Revision C.01,

 ----------------------------------------------------------------------
 #t hf aug-cc-pvdz symm=none int=(grid=ultrafine) guess=(read,tcheck) s
 table=(opt,rrhf)
 ----------------------------------------------------------------------
 -----
 title
 -----
 Symbolic Z-matrix:
 Charge =  0 Multiplicity = 1

 SCF Done:  E(RHF) =  -928.126877793     A.U. after   17 cycles
 Normal termination of Gaussian 16 at Tue Apr  8 21:36:15 2025.
 Gaussian 16:  ES64L-G16RevC.01  3-Jul-2019

 ----------------------------------------------------------------------
 #t hf aug-cc-pvdz iop(5/13=1,5/36=2,99/5=2) pseudo=read geom=check gue
 ss=(read,tcheck) scf=(maxcycle=1)
 ----------------------------------------------------------------------
 -----
 title
 -----
 Structure from the checkpoint file:  "ANI1ccx_347_conf1_mol1.chk"
 Charge =  0 Multiplicity = 1

                         Standard orientation:
 ---------------------------------------------------------------------
 Center     Atomic      Atomic             Coordinates (Angstroms)
 Number     Number       Type             X           Y           Z
 ---------------------------------------------------------------------
      1          6           0        1.715308    2.778811   -0.332634
      2          6           0       -4.016601    1.053308   -0.248394
      3          6           0       -3.123291    1.556369    0.726002
      4          6           0       -3.844760   -0.172413   -0.885205
      5          6           0       -2.724050   -0.924377   -0.515858
      6          6           0       -1.748160   -0.375107    0.377655
      7          6           0       -1.041619   -2.421641   -0.180216
      8          6           0       -1.931151    0.883321    0.948352
      9          6           0        0.496519   -1.251420    1.478460
     10          6           0        2.253531   -2.041899   -0.122371
     11          6           0        1.791500   -0.887502    0.763352
     12          6           0        0.328291    3.133140   -0.833481
     13          6           0        1.626329    1.576191    0.622935
     14          6           0       -0.710849   -1.321650    0.548563
     15          1           0       -0.564075   -3.375550   -0.330511
     16          1           0        3.007081   -2.407249   -1.730090
     17          1           0       -4.930451    1.637758   -0.416784
     18          1           0       -3.318001    2.554488    1.096560
     19          1           0       -4.508490   -0.475998   -1.715080
     20          1           0       -1.130751    1.379759    1.544930
     21          1           0       -2.508999   -2.787531   -1.559990
     22          1           0        0.632418   -2.253400    1.977810
     23          1           0       -0.195692    2.283760   -1.332450
     24          1           0        2.650100   -0.820636    1.465310
     25          1           0        1.959010    0.268374   -0.936195
     26          1           0        0.330568    4.037880   -1.430570
     27          1           0       -0.383439    3.347300   -0.018804
     28          1           0        2.155588    3.622511    0.225456
     29          1           0        3.598959    2.401932   -1.095860
     30          1           0        2.449469    2.723371   -2.306490
     31          1           0        0.292023   -0.575365    2.368530
     32          7           0        2.624339    2.354661   -1.375860
     33          7           0        1.690010    0.342979    0.013054
     34          7           0       -2.248009   -2.189041   -0.834785
     35          8           0        2.401541   -3.196389    0.203103
     36          8           0        1.434729    1.728841    1.811190
     37          8           0        2.610520   -1.611499   -1.327490
 ---------------------------------------------------------------------

 SCF Done:  E(RHF) =  -928.400922353     A.U. after    2 cycles

 The electronic state is 1-A.
 Alpha  occ. eigenvalues --  -20.64478 -20.57428 -20.53507 -15.66122 -15.63566
 Alpha  occ. eigenvalues --  -15.61787 -11.41183 -11.35632 -11.30228 -11.28576
 Alpha  occ. eigenvalues --  -11.28116 -11.27199 -11.24730 -11.24425 -11.23996
 Alpha  occ. eigenvalues --  -11.23875 -11.23698 -11.23055 -11.22932 -11.22842
 Alpha  occ. eigenvalues --   -1.45413  -1.34971  -1.33956  -1.26157  -1.20977
 Alpha  occ. eigenvalues --   -1.16960  -1.11868  -1.07179  -1.02672  -0.99905
 Alpha  occ. eigenvalues --   -0.99266  -0.97103  -0.91820  -0.87700  -0.84430
 Alpha  occ. eigenvalues --   -0.82553  -0.80883  -0.79054  -0.75003  -0.74055
 Alpha  occ. eigenvalues --   -0.72380  -0.71895  -0.69118  -0.68924  -0.66795
 Alpha  occ. eigenvalues --   -0.66019  -0.65694  -0.65298  -0.62862  -0.61664
 Alpha  occ. eigenvalues --   -0.61223  -0.59847  -0.59513  -0.58388  -0.57232
 Alpha  occ. eigenvalues --   -0.56632  -0.56068  -0.53672  -0.53137  -0.52568
 Alpha  occ. eigenvalues --   -0.52078  -0.51811  -0.50400  -0.49813  -0.47941
 Alpha  occ. eigenvalues --   -0.47384  -0.46029  -0.43787  -0.39641  -0.38555
 Alpha  occ. eigenvalues --   -0.38236  -0.30252  -0.28200
 Alpha virt. eigenvalues --    0.02388   0.03021   0.03203   0.04175   0.04499
 Alpha virt. eigenvalues --    0.04754   0.05691   0.05868   0.06379   0.06568
 Alpha virt. eigenvalues --    0.07644   0.08056   0.08347   0.08628   0.09155

 Mulliken charges:
               1
     1  C    0.302411
     2  C    0.499693
     3  C    0.152515
     4  C    1.310495
     5  C   -0.820884
     6  C    0.101792
     7  C    1.563167
     8  C    1.283880
     9  C    0.316657
    10  C    0.891710
    11  C   -0.094992
    12  C    0.538271
    13  C    0.615452
    14  C   -0.727456
    15  H   -0.517219
    16  H    0.232127
    17  H   -0.457701
    18  H   -0.537431
    19  H   -0.458617
    20  H   -0.630836
    21  H   -0.188522
    22  H    0.000099
    23  H    0.055573
    24  H    0.036429
    25  H    0.011961
    26  H   -0.151840
    27  H   -0.112970
    28  H   -0.148793
    29  H    0.029453
    30  H    0.048485
    31  H    0.085304
    32  N   -0.323408
    33  N   -0.396860
    34  N   -0.661261
    35  O   -0.557539
    36  O   -0.679287
    37  O   -0.609861
 Sum of Mulliken charges =  -0.00000

 Dipole moment (field-independent basis, Debye):
    X=              1.2585    Y=              0.4511    Z=             -5.5720  Tot=              5.7302

 Test job not archived.
 1\1\GINC-SE366\SP\RHF\Aug-CC-pVDZ\C14H17N3O3\OHZDE\08-Apr-2025\0\\#t h
 f aug-cc-pvdz iop(5/13=1,5/36=2,99/5=2) pseudo=read geom=check guess=(
 read,tcheck) scf=(maxcycle=1)\\title\\0,1\C,0,1.71531,2.77881,-0.33263
 4\C,0,-4.0166,1.05331,-0.248394\C,0,-3.12329,1.55637,0.726002\C,0,-3.8
 4476,-0.172411,-0.885205\C,0,-2.72405,-0.924376,-0.515858\C,0,-1.74816
 ,-0.375106,0.377655\C,0,-1.04162,-2.42164,-0.180216\C,0,-1.93115,0.883
 322,0.948352\C,0,0.496519,-1.25142,1.47846\C,0,2.25353,-2.0419,-0.1223
 71\C,0,1.7915,-0.887503,0.763352\C,0,0.328293,3.13314,-0.833481\C,0,1.

 Normal termination of Gaussian 16 at Tue Apr  8 21:37:21 2025.
