 Gaussian 16, Revision C.01,

 ----------------------------------------------------------------------
 #t hf aug-cc-pvdz symm=none int=(grid=ultrafine) guess=(read,tcheck) s
 table=(opt,rrhf)
 ----------------------------------------------------------------------
 -----
 title
 -----
 Symbolic Z-matrix:
 Charge =  0 Multiplicity = 1

 SCF Done:  E(RHF) =  -556.251254746     A.U. after   17 cycles
 Normal termination of Gaussian 16 at Tue Apr  8 19:20:49 2025.
 Gaussian 16:  ES64L-G16RevC.01  3-Jul-2019

 ----------------------------------------------------------------------
 #t hf aug-cc-pvdz iop(5/13=1,5/36=2,99/5=2) pseudo=read geom=check gue
 ss=(read,tcheck) scf=(maxcycle=1)
 ----------------------------------------------------------------------
 -----
 title
 -----
 Structure from the checkpoint file:  "ANI1ccx_1294_conf2_mol1.chk"
 Charge =  0 Multiplicity = 1

                         Standard orientation:
 ---------------------------------------------------------------------
 Center     Atomic      Atomic             Coordinates (Angstroms)
 Number     Number       Type             X           Y           Z
 ---------------------------------------------------------------------
      1          6           0        0.468144    1.278930   -0.015495
      2          6           0        2.562039    0.364502    0.019372
      3          6           0        0.897761   -1.076580    0.019211
      4          6           0       -1.264711   -0.659556   -0.040629
      5          6           0       -2.497111    0.072826   -0.049697
      6          6           0       -0.014176   -0.026501   -0.006666
      7          1           0       -1.238452    2.411859   -0.228103
      8          1           0        0.207413    3.285529   -0.105073
      9          1           0        3.617919    0.514308    0.209352
     10          1           0       -1.745200   -2.732041   -0.041175
     11          7           0       -0.238103    2.426639    0.023329
     12          7           0        1.801098    1.427860   -0.044480
     13          7           0        2.185079   -0.921224    0.017660
     14          7           0        0.298882   -2.271741    0.028091
     15          7           0       -0.977884   -1.997891   -0.047728
     16          7           0       -3.319552    0.879016    0.110045
 ---------------------------------------------------------------------

 SCF Done:  E(RHF) =  -556.408113309     A.U. after    2 cycles

 The electronic state is 1-A.
 Alpha  occ. eigenvalues --  -15.78542 -15.68973 -15.68276 -15.67266 -15.62865
 Alpha  occ. eigenvalues --  -15.61324 -11.38156 -11.36635 -11.34063 -11.32942
 Alpha  occ. eigenvalues --  -11.31884 -11.27777  -1.40449  -1.30728  -1.24292
 Alpha  occ. eigenvalues --   -1.23168  -1.15967  -1.11916  -1.08965  -0.95892
 Alpha  occ. eigenvalues --   -0.90603  -0.88341  -0.82107  -0.77601  -0.73138
 Alpha  occ. eigenvalues --   -0.71135  -0.68159  -0.67761  -0.66347  -0.61245
 Alpha  occ. eigenvalues --   -0.59486  -0.59116  -0.54318  -0.51906  -0.50664
 Alpha  occ. eigenvalues --   -0.49825  -0.45714  -0.41604  -0.41427  -0.39865
 Alpha  occ. eigenvalues --   -0.31709
 Alpha virt. eigenvalues --    0.02166   0.03039   0.03376   0.04430   0.06164
 Alpha virt. eigenvalues --    0.06672   0.07320   0.08555   0.09819   0.10045
 Alpha virt. eigenvalues --    0.10798   0.11387   0.12531   0.12765   0.13067

 Mulliken charges:
               1
     1  C    0.336481
     2  C    0.579936
     3  C    0.516923
     4  C    0.782745
     5  C   -0.359556
     6  C    0.881952
     7  H    0.022553
     8  H   -0.090142
     9  H   -0.369386
    10  H    0.076230
    11  N   -0.095028
    12  N   -0.541777
    13  N   -0.503181
    14  N   -0.509623
    15  N   -0.537033
    16  N   -0.191095
 Sum of Mulliken charges =  -0.00000

 Dipole moment (field-independent basis, Debye):
    X=             -2.7184    Y=              0.6015    Z=             -0.6829  Tot=              2.8667

 Test job not archived.
 1\1\GINC-SE089\SP\RHF\Aug-CC-pVDZ\C6H4N6\OHZDE\08-Apr-2025\0\\#t hf au
 g-cc-pvdz iop(5/13=1,5/36=2,99/5=2) pseudo=read geom=check guess=(read
 ,tcheck) scf=(maxcycle=1)\\title\\0,1\C,0,0.468146,1.27893,-0.0154946\
 C,0,2.56204,0.364502,0.0193718\C,0,0.897762,-1.07658,0.019211\C,0,-1.2
 6471,-0.659555,-0.0406293\C,0,-2.49711,0.0728278,-0.049697\C,0,-0.0141
 745,-0.0265001,-0.00666582\H,0,-1.23845,2.41186,-0.228103\H,0,0.207415
 ,3.28553,-0.105073\H,0,3.61792,0.514307,0.209352\H,0,-1.7452,-2.73204,
 -0.0411753\N,0,-0.238101,2.42664,0.0233288\N,0,1.8011,1.42786,-0.04448

 Normal termination of Gaussian 16 at Tue Apr  8 19:20:59 2025.
