 Gaussian 16, Revision C.01,

 ----------------------------------------------------------------------
 #t hf aug-cc-pvdz symm=none int=(grid=ultrafine) guess=(read,tcheck) s
 table=(opt,rrhf)
 ----------------------------------------------------------------------
 -----
 title
 -----
 Symbolic Z-matrix:
 Charge =  0 Multiplicity = 1

 SCF Done:  E(RHF) =  -603.548652168     A.U. after   15 cycles
 Normal termination of Gaussian 16 at Tue Apr  8 22:17:19 2025.
 Gaussian 16:  ES64L-G16RevC.01  3-Jul-2019

 ----------------------------------------------------------------------
 #t hf aug-cc-pvdz iop(5/13=1,5/36=2,99/5=2) pseudo=read geom=check gue
 ss=(read,tcheck) scf=(maxcycle=1)
 ----------------------------------------------------------------------
 -----
 title
 -----
 Structure from the checkpoint file:  "ANI1ccx_999_conf26_mol1.chk"
 Charge =  0 Multiplicity = 1

                         Standard orientation:
 ---------------------------------------------------------------------
 Center     Atomic      Atomic             Coordinates (Angstroms)
 Number     Number       Type             X           Y           Z
 ---------------------------------------------------------------------
      1          6           0        2.111070    0.116679   -0.901295
      2          6           0        1.701230   -0.251562    0.576771
      3          6           0       -0.746867   -0.214367   -0.214929
      4          6           0       -1.710391    0.981044   -0.051110
      5          6           0       -1.373479   -1.562161    0.133759
      6          1           0       -0.078697    1.885440    0.046678
      7          1           0       -3.257629   -1.151492   -0.570602
      8          1           0       -0.676271   -2.386981   -0.185707
      9          1           0       -1.610469   -1.684401    1.209290
     10          1           0       -0.430700   -0.299162   -1.329110
     11          1           0        1.698540   -0.789578   -1.388190
     12          1           0        1.772049    1.179991   -1.083860
     13          1           0        3.947599    1.050762   -0.609804
     14          1           0        4.060220   -0.516521   -0.643597
     15          1           0       -0.160329    0.240854    1.556150
     16          7           0        3.595110    0.195534   -1.099740
     17          7           0        0.347278    0.155257    0.686807
     18          8           0       -2.508519   -1.760652   -0.652258
     19          8           0        2.377050   -0.679227    1.529440
     20          8           0       -2.904381    0.991069    0.025428
     21          8           0       -1.057951    2.148529    0.176151
 ---------------------------------------------------------------------

 SCF Done:  E(RHF) =  -603.731625358     A.U. after    2 cycles

 The electronic state is 1-A.
 Alpha  occ. eigenvalues --  -20.63608 -20.59274 -20.58678 -20.58204 -15.68628
 Alpha  occ. eigenvalues --  -15.63683 -11.42146 -11.41387 -11.34643 -11.33096
 Alpha  occ. eigenvalues --  -11.32960  -1.44124  -1.37041  -1.34940  -1.33978
 Alpha  occ. eigenvalues --   -1.24422  -1.17392  -1.04757  -0.97501  -0.92464
 Alpha  occ. eigenvalues --   -0.83559  -0.81950  -0.76914  -0.74478  -0.72462
 Alpha  occ. eigenvalues --   -0.70858  -0.69810  -0.68310  -0.66215  -0.64865
 Alpha  occ. eigenvalues --   -0.63794  -0.61091  -0.60249  -0.59693  -0.57844
 Alpha  occ. eigenvalues --   -0.54611  -0.54319  -0.51690  -0.50005  -0.49551
 Alpha  occ. eigenvalues --   -0.48035  -0.43409  -0.41439
 Alpha virt. eigenvalues --    0.02662   0.03313   0.03828   0.04045   0.05709
 Alpha virt. eigenvalues --    0.06276   0.06643   0.07639   0.08180   0.08741
 Alpha virt. eigenvalues --    0.09441   0.10327   0.11042   0.11764   0.12479

 Mulliken charges:
               1
     1  C    0.622788
     2  C    0.391760
     3  C   -0.490302
     4  C    0.737875
     5  C    1.124381
     6  H    0.327210
     7  H    0.186186
     8  H   -0.081582
     9  H   -0.063371
    10  H    0.070235
    11  H    0.109741
    12  H   -0.027271
    13  H    0.075773
    14  H   -0.067206
    15  H   -0.013648
    16  N   -0.350495
    17  N   -0.501875
    18  O   -0.565064
    19  O   -0.518482
    20  O   -0.442225
    21  O   -0.524428
 Sum of Mulliken charges =  -0.00000

 Dipole moment (field-independent basis, Debye):
    X=              2.0046    Y=             -0.1405    Z=             -0.8168  Tot=              2.1692

 Test job not archived.
 1\1\GINC-SE424\SP\RHF\Aug-CC-pVDZ\C5H10N2O4\OHZDE\08-Apr-2025\0\\#t hf
  aug-cc-pvdz iop(5/13=1,5/36=2,99/5=2) pseudo=read geom=check guess=(r
 ead,tcheck) scf=(maxcycle=1)\\title\\0,1\C,0,2.11107,0.116678,-0.90129
 5\C,0,1.70123,-0.251563,0.576771\C,0,-0.746867,-0.214366,-0.214929\C,0
 ,-1.71039,0.981045,-0.0511103\C,0,-1.37348,-1.56216,0.133759\H,0,-0.07
 8696,1.88544,0.0466781\H,0,-3.25763,-1.15149,-0.570602\H,0,-0.676272,-
 2.38698,-0.185707\H,0,-1.61047,-1.6844,1.20929\H,0,-0.4307,-0.299161,-
 1.32911\H,0,1.69854,-0.789579,-1.38819\H,0,1.77205,1.17999,-1.08386\H,

 Normal termination of Gaussian 16 at Tue Apr  8 22:17:32 2025.
