 Gaussian 16, Revision C.01,

 ----------------------------------------------------------------------
 #t hf aug-cc-pvdz symm=none int=(grid=ultrafine) guess=(read,tcheck) s
 table=(opt,rrhf)
 ----------------------------------------------------------------------
 -----
 title
 -----
 Symbolic Z-matrix:
 Charge =  0 Multiplicity = 1

 SCF Done:  E(RHF) =  -443.088682447     A.U. after   19 cycles
 Normal termination of Gaussian 16 at Tue Apr  8 21:46:54 2025.
 Gaussian 16:  ES64L-G16RevC.01  3-Jul-2019

 ----------------------------------------------------------------------
 #t hf aug-cc-pvdz iop(5/13=1,5/36=2,99/5=2) pseudo=read geom=check gue
 ss=(read,tcheck) scf=(maxcycle=1)
 ----------------------------------------------------------------------
 -----
 title
 -----
 Structure from the checkpoint file:  "ANI1ccx_609_conf3_mol1.chk"
 Charge =  0 Multiplicity = 1

                         Standard orientation:
 ---------------------------------------------------------------------
 Center     Atomic      Atomic             Coordinates (Angstroms)
 Number     Number       Type             X           Y           Z
 ---------------------------------------------------------------------
      1          6           0       -0.035874   -0.597316    0.174863
      2          6           0        0.042332    0.897962    0.028766
      3          7           0       -2.239599   -0.496218   -0.119828
      4          7           0       -1.235969   -1.133293    0.018648
      5          7           0        1.186571   -1.161111    0.043297
      6          7           0        2.217761   -0.574098   -0.123044
      7          8           0        1.175939    1.358809   -0.004704
      8          8           0       -1.118451    1.359837    0.010294
 ---------------------------------------------------------------------

 SCF Done:  E(RHF) =  -443.217817246     A.U. after    2 cycles

 The electronic state is 1-A.
 Alpha  occ. eigenvalues --  -20.57406 -20.56660 -15.87046 -15.86341 -15.85667
 Alpha  occ. eigenvalues --  -15.84921 -11.39718 -11.38573  -1.48653  -1.45965
 Alpha  occ. eigenvalues --   -1.38821  -1.30569  -1.17484  -0.99544  -0.88160
 Alpha  occ. eigenvalues --   -0.77396  -0.74331  -0.73403  -0.71064  -0.68576
 Alpha  occ. eigenvalues --   -0.66139  -0.65953  -0.61893  -0.60175  -0.47805
 Alpha  occ. eigenvalues --   -0.47199  -0.46787  -0.40362
 Alpha virt. eigenvalues --    0.00535   0.00679   0.01234   0.04672   0.06961
 Alpha virt. eigenvalues --    0.07532   0.08708   0.10489   0.11507   0.11620
 Alpha virt. eigenvalues --    0.12571   0.13829   0.14974   0.16458   0.18070

 Mulliken charges:
               1
     1  C    0.594474
     2  C    0.514457
     3  N    0.039951
     4  N   -0.081262
     5  N   -0.113818
     6  N    0.051898
     7  O   -0.475192
     8  O   -0.530508
 Sum of Mulliken charges =  -0.00000

 Dipole moment (field-independent basis, Debye):
    X=              0.1204    Y=             -6.2935    Z=             -0.0755  Tot=              6.2951

 Test job not archived.
 1\1\GINC-SE457\SP\RHF\Aug-CC-pVDZ\C2N4O2\OHZDE\08-Apr-2025\0\\#t hf au
 g-cc-pvdz iop(5/13=1,5/36=2,99/5=2) pseudo=read geom=check guess=(read
 ,tcheck) scf=(maxcycle=1)\\title\\0,1\C,0,-0.0358745,-0.597314,0.17486
 3\C,0,0.0423325,0.897964,0.0287665\N,0,-2.2396,-0.496214,-0.119828\N,0
 ,-1.23597,-1.13329,0.0186479\N,0,1.18657,-1.16111,0.0432972\N,0,2.2177
 6,-0.574098,-0.123044\O,0,1.17594,1.35881,-0.00470436\O,0,-1.11845,1.3
 5984,0.010294\\Version=ES64L-G16RevC.01\State=1-A\HF=-443.2178172\RMSD
 =3.837e-03\Dipole=0.0473622,-2.4760391,-0.0297122\Quadrupole=0.5522045

 Normal termination of Gaussian 16 at Tue Apr  8 21:46:57 2025.
