 Gaussian 16, Revision C.01,

 ----------------------------------------------------------------------
 #t hf aug-cc-pvdz symm=none int=(grid=ultrafine) guess=(read,tcheck) s
 table=(opt,rrhf)
 ----------------------------------------------------------------------
 -----
 title
 -----
 Symbolic Z-matrix:
 Charge =  0 Multiplicity = 1

 SCF Done:  E(RHF) =  -548.576562459     A.U. after   14 cycles
 Normal termination of Gaussian 16 at Tue Apr  8 19:15:25 2025.
 Gaussian 16:  ES64L-G16RevC.01  3-Jul-2019

 ----------------------------------------------------------------------
 #t hf aug-cc-pvdz iop(5/13=1,5/36=2,99/5=2) pseudo=read geom=check gue
 ss=(read,tcheck) scf=(maxcycle=1)
 ----------------------------------------------------------------------
 -----
 title
 -----
 Structure from the checkpoint file:  "ANI1ccx_1168_conf26_mol1.chk"
 Charge =  0 Multiplicity = 1

                         Standard orientation:
 ---------------------------------------------------------------------
 Center     Atomic      Atomic             Coordinates (Angstroms)
 Number     Number       Type             X           Y           Z
 ---------------------------------------------------------------------
      1          6           0        1.281850    0.794319    0.257250
      2          6           0        1.682651   -0.673991    0.098315
      3          6           0       -0.178406    1.026460   -0.240429
      4          6           0       -1.315680    0.596325    0.758486
      5          6           0       -2.445979   -0.060979    0.019992
      6          1           0        3.138661   -1.927819   -0.194016
      7          1           0       -0.844447   -0.080450    1.452970
      8          1           0       -1.803190    1.387029    1.339490
      9          1           0       -0.377573    2.121340   -0.498981
     10          1           0       -1.204429   -1.472601   -0.116416
     11          1           0        3.068950    1.689931    0.267725
     12          1           0        2.331130    1.513981   -1.318010
     13          1           0        1.251740    1.013250    1.339920
     14          1           0       -0.342111    0.562695   -1.198090
     15          7           0        2.214520    1.682111   -0.306917
     16          8           0       -3.554460    0.385457   -0.241599
     17          8           0        0.815314   -1.486540    0.331532
     18          8           0       -2.082579   -1.259721   -0.438535
     19          8           0        2.963351   -0.973563   -0.187379
 ---------------------------------------------------------------------

 SCF Done:  E(RHF) =  -548.746810134     A.U. after    2 cycles

 The electronic state is 1-A.
 Alpha  occ. eigenvalues --  -20.66559 -20.60352 -20.59502 -20.54699 -15.63479
 Alpha  occ. eigenvalues --  -11.43145 -11.38714 -11.31807 -11.27390 -11.26118
 Alpha  occ. eigenvalues --   -1.45782  -1.40917  -1.36496  -1.30660  -1.20451
 Alpha  occ. eigenvalues --   -1.06851  -0.97775  -0.91649  -0.84440  -0.83220
 Alpha  occ. eigenvalues --   -0.75399  -0.75007  -0.72173  -0.70941  -0.67679
 Alpha  occ. eigenvalues --   -0.67163  -0.63964  -0.63698  -0.62236  -0.59590
 Alpha  occ. eigenvalues --   -0.56928  -0.55362  -0.53733  -0.53074  -0.51397
 Alpha  occ. eigenvalues --   -0.49457  -0.47538  -0.45328  -0.40817
 Alpha virt. eigenvalues --    0.01878   0.03209   0.03679   0.04583   0.05889
 Alpha virt. eigenvalues --    0.06547   0.07094   0.07422   0.08721   0.10148
 Alpha virt. eigenvalues --    0.10485   0.11421   0.11718   0.12504   0.13286

 Mulliken charges:
               1
     1  C    0.625987
     2  C    0.470227
     3  C    0.201328
     4  C    0.484407
     5  C    0.680761
     6  H    0.198833
     7  H   -0.242086
     8  H   -0.108866
     9  H    0.068488
    10  H    0.222365
    11  H    0.067805
    12  H    0.066918
    13  H   -0.031984
    14  H   -0.343508
    15  N   -0.348667
    16  O   -0.521256
    17  O   -0.503689
    18  O   -0.453798
    19  O   -0.533265
 Sum of Mulliken charges =   0.00000

 Dipole moment (field-independent basis, Debye):
    X=              7.9357    Y=             -0.0628    Z=              1.3075  Tot=              8.0429

 Test job not archived.
 1\1\GINC-SE179\SP\RHF\Aug-CC-pVDZ\C5H9N1O4\OHZDE\08-Apr-2025\0\\#t hf
 aug-cc-pvdz iop(5/13=1,5/36=2,99/5=2) pseudo=read geom=check guess=(re
 ad,tcheck) scf=(maxcycle=1)\\title\\0,1\C,0,1.28185,0.794319,0.25725\C
 ,0,1.68265,-0.673991,0.0983149\C,0,-0.178406,1.02646,-0.240429\C,0,-1.
 31568,0.596326,0.758486\C,0,-2.44598,-0.0609782,0.019992\H,0,3.13866,-
 1.92782,-0.194016\H,0,-0.844448,-0.0804491,1.45297\H,0,-1.80319,1.3870
 3,1.33949\H,0,-0.377573,2.12134,-0.498981\H,0,-1.20443,-1.4726,-0.1164
 16\H,0,3.06895,1.68993,0.267725\H,0,2.33113,1.51398,-1.31801\H,0,1.251

 Normal termination of Gaussian 16 at Tue Apr  8 19:15:35 2025.
