 Gaussian 16, Revision C.01,

 ----------------------------------------------------------------------
 #t hf aug-cc-pvdz symm=none int=(grid=ultrafine) guess=(read,tcheck) s
 table=(opt,rrhf)
 ----------------------------------------------------------------------
 -----
 title
 -----
 Symbolic Z-matrix:
 Charge =  0 Multiplicity = 1

 SCF Done:  E(RHF) =  -414.372109554     A.U. after   14 cycles
 Normal termination of Gaussian 16 at Tue Apr  8 21:35:42 2025.
 Gaussian 16:  ES64L-G16RevC.01  3-Jul-2019

 ----------------------------------------------------------------------
 #t hf aug-cc-pvdz iop(5/13=1,5/36=2,99/5=2) pseudo=read geom=check gue
 ss=(read,tcheck) scf=(maxcycle=1)
 ----------------------------------------------------------------------
 -----
 title
 -----
 Structure from the checkpoint file:  "ANI1ccx_410_conf4_mol1.chk"
 Charge =  0 Multiplicity = 1

                         Standard orientation:
 ---------------------------------------------------------------------
 Center     Atomic      Atomic             Coordinates (Angstroms)
 Number     Number       Type             X           Y           Z
 ---------------------------------------------------------------------
      1          6           0        2.177940   -0.022187    0.259286
      2          1           0        3.403700   -1.475600    0.050712
      3          1           0        1.731900   -0.677966    1.038010
      4          1           0       -3.655870    0.692967    0.182069
      5          1           0       -0.776490    0.018989   -0.755976
      6          8           0        3.249530   -0.590973   -0.327370
      7          8           0        1.826160    1.080240    0.019055
      8          8           0       -3.368900   -0.065724   -0.349476
      9          8           0       -2.242380   -0.555365    0.317286
     10          8           0       -1.185770    0.328665    0.081689
 ---------------------------------------------------------------------

 SCF Done:  E(RHF) =  -414.510031564     A.U. after    2 cycles

 The electronic state is 1-A.
 Alpha  occ. eigenvalues --  -20.71150 -20.65644 -20.65464 -20.64454 -20.58293
 Alpha  occ. eigenvalues --  -11.41356  -1.51227  -1.44010  -1.35652  -1.33786
 Alpha  occ. eigenvalues --   -1.12334  -0.87866  -0.80838  -0.80671  -0.71973
 Alpha  occ. eigenvalues --   -0.70985  -0.69501  -0.66848  -0.65871  -0.62046
 Alpha  occ. eigenvalues --   -0.53945  -0.53602  -0.51989  -0.51321  -0.48978
 Alpha virt. eigenvalues --    0.02282   0.04572   0.05527   0.06076   0.08648
 Alpha virt. eigenvalues --    0.11352   0.12512   0.13686   0.14866   0.15342
 Alpha virt. eigenvalues --    0.16963   0.18880   0.19512   0.20219   0.20863

 Mulliken charges:
               1
     1  C    0.726479
     2  H    0.193128
     3  H   -0.133011
     4  H    0.229998
     5  H    0.252121
     6  O   -0.423368
     7  O   -0.370754
     8  O   -0.176741
     9  O   -0.114585
    10  O   -0.183266
 Sum of Mulliken charges =  -0.00000

 Dipole moment (field-independent basis, Debye):
    X=              0.7195    Y=             -2.9680    Z=              1.1782  Tot=              3.2734

 Test job not archived.
 1\1\GINC-SE250\SP\RHF\Aug-CC-pVDZ\C1H4O5\OHZDE\08-Apr-2025\0\\#t hf au
 g-cc-pvdz iop(5/13=1,5/36=2,99/5=2) pseudo=read geom=check guess=(read
 ,tcheck) scf=(maxcycle=1)\\title\\0,1\C,0,2.17794,-0.0221868,0.259286\
 H,0,3.4037,-1.4756,0.0507119\H,0,1.7319,-0.677966,1.03801\H,0,-3.65587
 ,0.692967,0.182069\H,0,-0.77649,0.0189887,-0.755976\O,0,3.24953,-0.590
 973,-0.32737\O,0,1.82616,1.08024,0.0190547\O,0,-3.3689,-0.0657243,-0.3
 49476\O,0,-2.24238,-0.555365,0.317286\O,0,-1.18577,0.328665,0.0816894\
 \Version=ES64L-G16RevC.01\State=1-A\HF=-414.5100316\RMSD=2.291e-03\Dip

 Normal termination of Gaussian 16 at Tue Apr  8 21:35:44 2025.
