 Gaussian 16, Revision C.01,

 ----------------------------------------------------------------------
 #t hf aug-cc-pvdz symm=none int=(grid=ultrafine) guess=(read,tcheck) s
 table=(opt,rrhf)
 ----------------------------------------------------------------------
 -----
 title
 -----
 Symbolic Z-matrix:
 Charge =  0 Multiplicity = 1

 SCF Done:  E(RHF) =  -228.120821689     A.U. after   11 cycles
 Normal termination of Gaussian 16 at Tue Apr  8 21:12:20 2025.
 Gaussian 16:  ES64L-G16RevC.01  3-Jul-2019

 ----------------------------------------------------------------------
 #t hf aug-cc-pvdz iop(5/13=1,5/36=2,99/5=2) pseudo=read geom=check gue
 ss=(read,tcheck) scf=(maxcycle=1)
 ----------------------------------------------------------------------
 -----
 title
 -----
 Structure from the checkpoint file:  "ANI1ccx_1900_conf27_mol1.chk"
 Charge =  0 Multiplicity = 1

                         Standard orientation:
 ---------------------------------------------------------------------
 Center     Atomic      Atomic             Coordinates (Angstroms)
 Number     Number       Type             X           Y           Z
 ---------------------------------------------------------------------
      1          1           0       -2.078352   -0.185135    0.769207
      2          1           0       -0.906580    0.564545    0.031609
      3          1           0       -0.018631   -1.071221   -0.159075
      4          1           0        1.151528   -1.790708    0.707292
      5          1           0        0.925878    1.967963    0.639836
      6          1           0        1.139153    0.534657   -0.050650
      7          8           0       -1.603902   -0.175520   -0.093946
      8          8           0        0.964786   -1.192857   -0.072180
      9          8           0        0.612492    1.365865   -0.076152
 ---------------------------------------------------------------------

 SCF Done:  E(RHF) =  -228.196707275     A.U. after    2 cycles

 The electronic state is 1-A.
 Alpha  occ. eigenvalues --  -20.58198 -20.58147 -20.57488  -1.32144  -1.29376
 Alpha  occ. eigenvalues --   -1.28632  -0.76116  -0.72265  -0.70488  -0.61158
 Alpha  occ. eigenvalues --   -0.60282  -0.58654  -0.53356  -0.51790  -0.51468
 Alpha virt. eigenvalues --    0.02612   0.04886   0.05317   0.08192   0.08619
 Alpha virt. eigenvalues --    0.09090   0.16566   0.18457   0.18631   0.20771
 Alpha virt. eigenvalues --    0.21141   0.22200   0.24123   0.25986   0.26625

 Mulliken charges:
               1
     1  H    0.181381
     2  H    0.307125
     3  H    0.245155
     4  H    0.214810
     5  H    0.189884
     6  H    0.249719
     7  O   -0.478494
     8  O   -0.470590
     9  O   -0.438990
 Sum of Mulliken charges =  -0.00000

 Dipole moment (field-independent basis, Debye):
    X=              0.6420    Y=              0.0733    Z=              4.1568  Tot=              4.2067

 Test job not archived.
 1\1\GINC-SE049\SP\RHF\Aug-CC-pVDZ\H6O3\OHZDE\08-Apr-2025\0\\#t hf aug-
 cc-pvdz iop(5/13=1,5/36=2,99/5=2) pseudo=read geom=check guess=(read,t
 check) scf=(maxcycle=1)\\title\\0,1\H,0,-2.07835,-0.185147,0.769207\H,
 0,-0.906583,0.564541,0.031609\H,0,-0.0186239,-1.07122,-0.159075\H,0,1.
 15154,-1.7907,0.707292\H,0,0.925867,1.96797,0.639836\H,0,1.13915,0.534
 665,-0.0506502\O,0,-1.6039,-0.175529,-0.0939458\O,0,0.964794,-1.19285,
 -0.07218\O,0,0.612484,1.36587,-0.0761516\\Version=ES64L-G16RevC.01\Sta
 te=1-A\HF=-228.1967073\RMSD=1.952e-03\Dipole=0.2525862,0.0288588,1.635

 Normal termination of Gaussian 16 at Tue Apr  8 21:12:22 2025.
