 Gaussian 16, Revision C.01,

 ----------------------------------------------------------------------
 #t hf aug-cc-pvdz symm=none int=(grid=ultrafine) guess=(read,tcheck) s
 table=(opt,rrhf)
 ----------------------------------------------------------------------
 -----
 title
 -----
 Symbolic Z-matrix:
 Charge =  0 Multiplicity = 1

 SCF Done:  E(RHF) =  -464.386656228     A.U. after   15 cycles
 Normal termination of Gaussian 16 at Tue Apr  8 21:40:50 2025.
 Gaussian 16:  ES64L-G16RevC.01  3-Jul-2019

 ----------------------------------------------------------------------
 #t hf aug-cc-pvdz iop(5/13=1,5/36=2,99/5=2) pseudo=read geom=check gue
 ss=(read,tcheck) scf=(maxcycle=1)
 ----------------------------------------------------------------------
 -----
 title
 -----
 Structure from the checkpoint file:  "ANI1ccx_474_conf7_mol1.chk"
 Charge =  0 Multiplicity = 1

                         Standard orientation:
 ---------------------------------------------------------------------
 Center     Atomic      Atomic             Coordinates (Angstroms)
 Number     Number       Type             X           Y           Z
 ---------------------------------------------------------------------
      1          6           0        1.134090   -0.548166    0.159304
      2          6           0        0.207355    1.616639    0.023660
      3          1           0        2.692570   -0.670295   -1.027220
      4          7           0        1.068751    0.795544   -0.135539
      5          7           0       -2.058060   -0.680470   -0.529429
      6          7           0       -2.907110   -1.141019   -0.001186
      7          8           0        2.117410   -1.227613   -0.490162
      8          8           0       -0.519904    2.519949    0.085508
      9          8           0        0.469206   -1.112202    0.978718
 ---------------------------------------------------------------------

 SCF Done:  E(RHF) =  -464.533460994     A.U. after    2 cycles

 The electronic state is 1-A.
 Alpha  occ. eigenvalues --  -20.67894 -20.64995 -20.58446 -15.75563 -15.75224
 Alpha  occ. eigenvalues --  -15.70002 -11.47618 -11.47403  -1.48239  -1.45623
 Alpha  occ. eigenvalues --   -1.42250  -1.36118  -1.29153  -0.96799  -0.85543
 Alpha  occ. eigenvalues --   -0.78774  -0.75754  -0.72589  -0.72180  -0.69069
 Alpha  occ. eigenvalues --   -0.66851  -0.64085  -0.62432  -0.60600  -0.60535
 Alpha  occ. eigenvalues --   -0.55753  -0.54093  -0.49260  -0.48435
 Alpha virt. eigenvalues --    0.02667   0.06126   0.07205   0.08793   0.09819
 Alpha virt. eigenvalues --    0.10307   0.10634   0.10945   0.12115   0.12887
 Alpha virt. eigenvalues --    0.13074   0.14278   0.14906   0.16243   0.16735

 Mulliken charges:
               1
     1  C    0.957657
     2  C   -0.040556
     3  H    0.181316
     4  N   -0.122497
     5  N    0.031875
     6  N   -0.049336
     7  O   -0.441566
     8  O   -0.149327
     9  O   -0.367565
 Sum of Mulliken charges =  -0.00000

 Dipole moment (field-independent basis, Debye):
    X=              2.1205    Y=              1.6217    Z=             -2.2654  Tot=              3.5012

 Test job not archived.
 1\1\GINC-SE250\SP\RHF\Aug-CC-pVDZ\C2H1N3O3\OHZDE\08-Apr-2025\0\\#t hf
 aug-cc-pvdz iop(5/13=1,5/36=2,99/5=2) pseudo=read geom=check guess=(re
 ad,tcheck) scf=(maxcycle=1)\\title\\0,1\C,0,1.13409,-0.548164,0.159304
 \C,0,0.207353,1.61664,0.0236604\H,0,2.69257,-0.670292,-1.02722\N,0,1.0
 6875,0.795546,-0.135539\N,0,-2.05806,-0.68047,-0.529429\N,0,-2.90711,-
 1.14102,-0.00118618\O,0,2.11741,-1.22761,-0.490162\O,0,-0.519907,2.519
 95,0.0855078\O,0,0.469206,-1.1122,0.978718\\Version=ES64L-G16RevC.01\S
 tate=1-A\HF=-464.533461\RMSD=2.650e-03\Dipole=0.8342628,0.6380222,-0.8

 Normal termination of Gaussian 16 at Tue Apr  8 21:40:54 2025.
