 Gaussian 16, Revision C.01,

 ----------------------------------------------------------------------
 #t hf aug-cc-pvdz symm=none int=(grid=ultrafine) guess=(read,tcheck) s
 table=(opt,rrhf)
 ----------------------------------------------------------------------
 -----
 title
 -----
 Symbolic Z-matrix:
 Charge =  0 Multiplicity = 1

 SCF Done:  E(RHF) =  -377.583897863     A.U. after   13 cycles
 Normal termination of Gaussian 16 at Tue Apr  8 21:44:50 2025.
 Gaussian 16:  ES64L-G16RevC.01  3-Jul-2019

 ----------------------------------------------------------------------
 #t hf aug-cc-pvdz iop(5/13=1,5/36=2,99/5=2) pseudo=read geom=check gue
 ss=(read,tcheck) scf=(maxcycle=1)
 ----------------------------------------------------------------------
 -----
 title
 -----
 Structure from the checkpoint file:  "ANI1ccx_529_conf1_mol2.chk"
 Charge =  0 Multiplicity = 1

                         Standard orientation:
 ---------------------------------------------------------------------
 Center     Atomic      Atomic             Coordinates (Angstroms)
 Number     Number       Type             X           Y           Z
 ---------------------------------------------------------------------
      1          6           0        1.789850    0.108902    0.197547
      2          6           0       -1.746630    0.140216    0.268030
      3          1           0        3.480001    0.810569   -0.341403
      4          1           0        1.609001    1.144930    0.521728
      5          1           0       -2.642830   -1.538369    0.010681
      6          1           0       -1.217280   -0.377561    1.090990
      7          8           0        2.983780   -0.025441   -0.379193
      8          8           0        0.985082   -0.772703    0.320022
      9          8           0       -2.585560   -0.666803   -0.402088
     10          8           0       -1.569329    1.273161   -0.048174
 ---------------------------------------------------------------------

 SCF Done:  E(RHF) =  -377.709540716     A.U. after    2 cycles

 The electronic state is 1-A.
 Alpha  occ. eigenvalues --  -20.65235 -20.62541 -20.58554 -20.56204 -11.42010
 Alpha  occ. eigenvalues --  -11.39331  -1.44456  -1.42085  -1.35713  -1.33475
 Alpha  occ. eigenvalues --   -0.89082  -0.86430  -0.81496  -0.78928  -0.70146
 Alpha  occ. eigenvalues --   -0.67585  -0.66438  -0.64070  -0.62320  -0.59805
 Alpha  occ. eigenvalues --   -0.52329  -0.50226  -0.49468  -0.46853
 Alpha virt. eigenvalues --    0.02332   0.03632   0.05331   0.06853   0.08592
 Alpha virt. eigenvalues --    0.09783   0.10509   0.13169   0.13353   0.14225
 Alpha virt. eigenvalues --    0.15043   0.15917   0.17348   0.18152   0.20321

 Mulliken charges:
               1
     1  C    0.785977
     2  C    0.815637
     3  H    0.207368
     4  H   -0.179510
     5  H    0.188636
     6  H   -0.143880
     7  O   -0.418141
     8  O   -0.402026
     9  O   -0.434355
    10  O   -0.419704
 Sum of Mulliken charges =   0.00000

 Dipole moment (field-independent basis, Debye):
    X=              2.7180    Y=             -0.0763    Z=              2.2671  Tot=              3.5402

 Test job not archived.
 1\1\GINC-SE126\SP\RHF\Aug-CC-pVDZ\C2H4O4\OHZDE\08-Apr-2025\0\\#t hf au
 g-cc-pvdz iop(5/13=1,5/36=2,99/5=2) pseudo=read geom=check guess=(read
 ,tcheck) scf=(maxcycle=1)\\title\\0,1\C,0,1.78985,0.108902,0.197547\C,
 0,-1.74663,0.140215,0.26803\H,0,3.48,0.810569,-0.341403\H,0,1.609,1.14
 493,0.521728\H,0,-2.64283,-1.53837,0.0106808\H,0,-1.21728,-0.377562,1.
 09099\O,0,2.98378,-0.0254407,-0.379193\O,0,0.985082,-0.772703,0.320022
 \O,0,-2.58556,-0.666804,-0.402088\O,0,-1.56933,1.27316,-0.0481736\\Ver
 sion=ES64L-G16RevC.01\State=1-A\HF=-377.7095407\RMSD=2.371e-03\Dipole=

 Normal termination of Gaussian 16 at Tue Apr  8 21:44:53 2025.
