 Gaussian 16, Revision C.01,

 ----------------------------------------------------------------------
 #t hf aug-cc-pvdz symm=none int=(grid=ultrafine) guess=(read,tcheck) s
 table=(opt,rrhf)
 ----------------------------------------------------------------------
 -----
 title
 -----
 Symbolic Z-matrix:
 Charge =  0 Multiplicity = 1

 SCF Done:  E(RHF) =  -903.407979119     A.U. after   15 cycles
 Normal termination of Gaussian 16 at Tue Apr  8 20:19:01 2025.
 Gaussian 16:  ES64L-G16RevC.01  3-Jul-2019

 ----------------------------------------------------------------------
 #t hf aug-cc-pvdz iop(5/13=1,5/36=2,99/5=2) pseudo=read geom=check gue
 ss=(read,tcheck) scf=(maxcycle=1)
 ----------------------------------------------------------------------
 -----
 title
 -----
 Structure from the checkpoint file:  "ANI1ccx_1597_conf3_mol2.chk"
 Charge =  0 Multiplicity = 1

                         Standard orientation:
 ---------------------------------------------------------------------
 Center     Atomic      Atomic             Coordinates (Angstroms)
 Number     Number       Type             X           Y           Z
 ---------------------------------------------------------------------
      1          6           0       -1.918051   -1.379059   -0.302494
      2          6           0       -0.663812   -1.067269    0.522298
      3          6           0       -3.115551   -0.501729    0.101130
      4          6           0       -2.983780    0.936454   -0.339627
      5          6           0        1.213209    0.490928    0.946009
      6          6           0        1.703190    1.834580    0.484590
      7          6           0        2.426599   -0.507452    0.852708
      8          6           0        2.871989   -1.038620   -0.536860
      9          1           0        1.528670    3.142160   -0.848252
     10          1           0        1.866879    0.329366   -1.697519
     11          1           0        3.002079   -0.706207   -2.427259
     12          1           0        2.222979   -1.390900    1.454851
     13          1           0        3.310519   -0.017104    1.284441
     14          1           0        0.901173    0.564338    1.999821
     15          1           0       -0.171557    0.563251   -0.708268
     16          1           0       -4.957420    1.301082    0.308008
     17          1           0       -4.041851   -0.939936   -0.306056
     18          1           0       -3.298571   -0.512734    1.183031
     19          1           0       -1.760141   -1.103309   -1.357109
     20          1           0       -1.509391   -3.297349   -0.638696
     21          1           0       -2.340971   -3.034619    0.720706
     22          1           0       -4.064990    2.627912   -0.312880
     23          7           0       -2.257911   -2.746469   -0.243986
     24          7           0       -4.084950    1.661782   -0.017562
     25          7           0        0.080734   -0.023717    0.121740
     26          7           0        2.722099   -0.202502   -1.590599
     27          8           0        3.486059   -2.077730   -0.656985
     28          8           0       -0.430235   -1.725689    1.531901
     29          8           0       -2.028380    1.386271   -0.976575
     30          8           0        2.468900    2.490510    1.133671
     31          8           0        1.114910    2.307061   -0.645568
 ---------------------------------------------------------------------

 SCF Done:  E(RHF) =  -903.682085143     A.U. after    2 cycles

 The electronic state is 1-A.
 Alpha  occ. eigenvalues --  -20.64916 -20.58483 -20.56646 -20.54356 -20.54016
 Alpha  occ. eigenvalues --  -15.67323 -15.66197 -15.64771 -15.61344 -11.42301
 Alpha  occ. eigenvalues --  -11.39711 -11.36799 -11.36791 -11.32416 -11.29265
 Alpha  occ. eigenvalues --  -11.27344 -11.26013  -1.45243  -1.37074  -1.35677
 Alpha  occ. eigenvalues --   -1.35415  -1.35368  -1.21415  -1.20791  -1.18874
 Alpha  occ. eigenvalues --   -1.18158  -1.06501  -1.03656  -0.95941  -0.90839
 Alpha  occ. eigenvalues --   -0.85312  -0.83043  -0.79327  -0.78787  -0.76235
 Alpha  occ. eigenvalues --   -0.74514  -0.73357  -0.72398  -0.71216  -0.70454
 Alpha  occ. eigenvalues --   -0.68679  -0.67076  -0.66472  -0.65362  -0.63810
 Alpha  occ. eigenvalues --   -0.63470  -0.63195  -0.61964  -0.60511  -0.58616
 Alpha  occ. eigenvalues --   -0.58019  -0.56680  -0.55023  -0.53975  -0.52688
 Alpha  occ. eigenvalues --   -0.52125  -0.50771  -0.49341  -0.47117  -0.46005
 Alpha  occ. eigenvalues --   -0.44621  -0.44288  -0.42978  -0.40355  -0.40217
 Alpha virt. eigenvalues --    0.01672   0.02853   0.03480   0.04001   0.04786
 Alpha virt. eigenvalues --    0.05152   0.05771   0.05870   0.06968   0.07775
 Alpha virt. eigenvalues --    0.08055   0.08727   0.09732   0.10242   0.10806

 Mulliken charges:
               1
     1  C    0.540549
     2  C    0.149651
     3  C    0.406627
     4  C    0.553756
     5  C    0.157425
     6  C    0.864288
     7  C    0.233644
     8  C    0.542941
     9  H    0.212055
    10  H    0.100121
    11  H    0.025767
    12  H    0.010062
    13  H    0.013989
    14  H   -0.109378
    15  H    0.138232
    16  H   -0.058804
    17  H    0.017397
    18  H   -0.065547
    19  H   -0.208739
    20  H   -0.001771
    21  H    0.064547
    22  H    0.010619
    23  N   -0.266834
    24  N   -0.109287
    25  N   -0.150581
    26  N   -0.194031
    27  O   -0.565614
    28  O   -0.605290
    29  O   -0.526745
    30  O   -0.532076
    31  O   -0.646970
 Sum of Mulliken charges =   0.00000

 Dipole moment (field-independent basis, Debye):
    X=             -7.3246    Y=              4.2058    Z=             -1.9381  Tot=              8.6657

 Test job not archived.
 1\1\GINC-SE021\SP\RHF\Aug-CC-pVDZ\C8H14N4O5\OHZDE\08-Apr-2025\0\\#t hf
  aug-cc-pvdz iop(5/13=1,5/36=2,99/5=2) pseudo=read geom=check guess=(r
 ead,tcheck) scf=(maxcycle=1)\\title\\0,1\C,0,-1.91805,-1.37906,-0.3024
 95\C,0,-0.663811,-1.06727,0.522297\C,0,-3.11555,-0.50173,0.101129\C,0,
 -2.98378,0.936453,-0.339628\C,0,1.21321,0.490927,0.946008\C,0,1.70319,
 1.83458,0.484589\C,0,2.4266,-0.507452,0.852707\C,0,2.87199,-1.03862,-0
 .536861\H,0,1.52867,3.14216,-0.848253\H,0,1.86688,0.329366,-1.69752\H,
 0,3.00208,-0.706207,-2.42726\H,0,2.22298,-1.3909,1.45485\H,0,3.31052,-

 Normal termination of Gaussian 16 at Tue Apr  8 20:19:45 2025.
