 Gaussian 16, Revision C.01,

 ----------------------------------------------------------------------
 #t hf aug-cc-pvdz symm=none int=(grid=ultrafine) guess=(read,tcheck) s
 table=(opt,rrhf)
 ----------------------------------------------------------------------
 -----
 title
 -----
 Symbolic Z-matrix:
 Charge =  0 Multiplicity = 1

 SCF Done:  E(RHF) =  -584.422513352     A.U. after   14 cycles
 Normal termination of Gaussian 16 at Tue Apr  8 22:10:09 2025.
 Gaussian 16:  ES64L-G16RevC.01  3-Jul-2019

 ----------------------------------------------------------------------
 #t hf aug-cc-pvdz iop(5/13=1,5/36=2,99/5=2) pseudo=read geom=check gue
 ss=(read,tcheck) scf=(maxcycle=1)
 ----------------------------------------------------------------------
 -----
 title
 -----
 Structure from the checkpoint file:  "ANI1ccx_940_conf12_mol1.chk"
 Charge =  0 Multiplicity = 1

                         Standard orientation:
 ---------------------------------------------------------------------
 Center     Atomic      Atomic             Coordinates (Angstroms)
 Number     Number       Type             X           Y           Z
 ---------------------------------------------------------------------
      1          6           0       -0.737265   -0.602900   -0.016980
      2          6           0        0.506454   -0.754623   -0.910878
      3          6           0        1.739959   -0.029044   -0.399034
      4          6           0       -0.984006    0.925813    0.268180
      5          1           0       -2.466772    0.648388   -0.697638
      6          1           0        2.937759   -0.003028    0.960917
      7          1           0        0.715967   -1.780809   -1.012030
      8          1           0        0.359808   -0.385737   -1.911440
      9          1           0       -2.589480   -1.584223    0.067708
     10          1           0       -1.627909   -2.010472   -1.185900
     11          1           0        0.351064   -1.244710    1.534670
     12          7           0       -1.960650   -1.170672   -0.619844
     13          8           0       -2.045773    1.452298   -0.420109
     14          8           0       -0.564949   -1.190101    1.209530
     15          8           0        2.138859   -0.498280    0.770581
     16          8           0        2.363928    0.837371   -0.943404
     17          8           0       -0.280408    1.563690    1.000260
 ---------------------------------------------------------------------

 SCF Done:  E(RHF) =  -584.605106821     A.U. after    2 cycles

 The electronic state is 1-A.
 Alpha  occ. eigenvalues --  -20.64722 -20.61688 -20.60092 -20.58135 -20.57018
 Alpha  occ. eigenvalues --  -15.66724 -11.42142 -11.40144 -11.38730 -11.29033
 Alpha  occ. eigenvalues --   -1.46714  -1.42393  -1.37907  -1.34956  -1.33882
 Alpha  occ. eigenvalues --   -1.18526  -1.07660  -0.94118  -0.87121  -0.82130
 Alpha  occ. eigenvalues --   -0.79267  -0.76373  -0.74780  -0.71525  -0.69922
 Alpha  occ. eigenvalues --   -0.67470  -0.66008  -0.64666  -0.63720  -0.62623
 Alpha  occ. eigenvalues --   -0.61561  -0.59139  -0.56344  -0.53814  -0.51748
 Alpha  occ. eigenvalues --   -0.50085  -0.49296  -0.47022  -0.44739
 Alpha virt. eigenvalues --    0.02100   0.03523   0.04068   0.04798   0.06198
 Alpha virt. eigenvalues --    0.06693   0.07444   0.10060   0.10346   0.10943
 Alpha virt. eigenvalues --    0.12123   0.12762   0.13246   0.13425   0.14490

 Mulliken charges:
               1
     1  C    0.301674
     2  C    0.668292
     3  C    0.649227
     4  C    0.737266
     5  H    0.234496
     6  H    0.186035
     7  H   -0.088924
     8  H   -0.019474
     9  H    0.053623
    10  H    0.127790
    11  H    0.210025
    12  N   -0.516455
    13  O   -0.483975
    14  O   -0.617267
    15  O   -0.496770
    16  O   -0.494144
    17  O   -0.451417
 Sum of Mulliken charges =  -0.00000

 Dipole moment (field-independent basis, Debye):
    X=             -0.2722    Y=             -6.3220    Z=             -1.0804  Tot=              6.4194

 Test job not archived.
 1\1\GINC-SE460\SP\RHF\Aug-CC-pVDZ\C4H7N1O5\OHZDE\08-Apr-2025\0\\#t hf
 aug-cc-pvdz iop(5/13=1,5/36=2,99/5=2) pseudo=read geom=check guess=(re
 ad,tcheck) scf=(maxcycle=1)\\title\\0,1\C,0,-0.737264,-0.602899,-0.016
 9801\C,0,0.506454,-0.754623,-0.910878\C,0,1.73996,-0.0290459,-0.399034
 \C,0,-0.984004,0.925814,0.26818\H,0,-2.46677,0.648391,-0.697638\H,0,2.
 93776,-0.00303042,0.960917\H,0,0.715966,-1.78081,-1.01203\H,0,0.359809
 ,-0.385737,-1.91144\H,0,-2.58948,-1.58422,0.0677081\H,0,-1.62791,-2.01
 047,-1.1859\H,0,0.351064,-1.24471,1.53467\N,0,-1.96065,-1.17067,-0.619

 Normal termination of Gaussian 16 at Tue Apr  8 22:10:16 2025.
