 Gaussian 16, Revision C.01,

 ----------------------------------------------------------------------
 #t hf aug-cc-pvdz symm=none int=(grid=ultrafine) guess=(read,tcheck) s
 table=(opt,rrhf)
 ----------------------------------------------------------------------
 -----
 title
 -----
 Symbolic Z-matrix:
 Charge =  0 Multiplicity = 1

 SCF Done:  E(RHF) =  -602.973242081     A.U. after   14 cycles
 Normal termination of Gaussian 16 at Tue Apr  8 19:22:03 2025.
 Gaussian 16:  ES64L-G16RevC.01  3-Jul-2019

 ----------------------------------------------------------------------
 #t hf aug-cc-pvdz iop(5/13=1,5/36=2,99/5=2) pseudo=read geom=check gue
 ss=(read,tcheck) scf=(maxcycle=1)
 ----------------------------------------------------------------------
 -----
 title
 -----
 Structure from the checkpoint file:  "ANI1ccx_1250_conf2_mol2.chk"
 Charge =  0 Multiplicity = 1

                         Standard orientation:
 ---------------------------------------------------------------------
 Center     Atomic      Atomic             Coordinates (Angstroms)
 Number     Number       Type             X           Y           Z
 ---------------------------------------------------------------------
      1          6           0        1.671930   -0.114404    0.759231
      2          6           0        1.741051    1.371110    0.319377
      3          6           0        0.435671    2.145631    0.092902
      4          6           0       -0.476171    1.655622   -1.038580
      5          6           0       -2.030820   -0.072566   -0.023603
      6          6           0        1.434159   -1.033460   -0.418883
      7          1           0        0.714429   -1.912459    0.944038
      8          1           0       -3.312570    0.239926    1.258610
      9          1           0       -1.664882   -1.919057   -0.809040
     10          1           0       -2.851462   -1.906747    0.457167
     11          1           0       -0.833844   -0.252419   -1.718520
     12          1           0        0.013826    1.633981   -1.992550
     13          1           0       -1.325988    2.351012   -1.089870
     14          1           0        0.697944    3.231621   -0.092889
     15          1           0       -0.181041    2.106841    0.998521
     16          1           0        2.328231    1.920289    1.099670
     17          1           0        2.309451    1.339099   -0.594675
     18          1           0        2.672989   -0.427170    1.070420
     19          1           0        1.059729   -0.324450    2.769650
     20          1           0       -0.202557   -0.048487    1.667470
     21          7           0        0.698157   -0.507901    1.800700
     22          7           0       -1.046280    0.320758   -0.907327
     23          7           0       -2.374651   -1.397687   -0.315571
     24          7           0       -2.465670    0.671133    0.900657
     25          8           0        0.777703   -2.116299   -0.005466
     26          8           0        1.752289   -0.802162   -1.552020
 ---------------------------------------------------------------------

 SCF Done:  E(RHF) =  -603.156477344     A.U. after    2 cycles

 The electronic state is 1-A.
 Alpha  occ. eigenvalues --  -20.59958 -20.55210 -15.64641 -15.64177 -15.63426
 Alpha  occ. eigenvalues --  -15.58027 -11.38598 -11.36330 -11.29717 -11.26786
 Alpha  occ. eigenvalues --  -11.24463 -11.24024  -1.42044  -1.33052  -1.27271
 Alpha  occ. eigenvalues --   -1.18224  -1.15089  -1.11700  -1.04814  -0.98108
 Alpha  occ. eigenvalues --   -0.91048  -0.83641  -0.81092  -0.77047  -0.73907
 Alpha  occ. eigenvalues --   -0.72602  -0.69494  -0.68884  -0.68055  -0.64547
 Alpha  occ. eigenvalues --   -0.63682  -0.62833  -0.61338  -0.60454  -0.59110
 Alpha  occ. eigenvalues --   -0.56608  -0.55488  -0.54201  -0.50469  -0.49920
 Alpha  occ. eigenvalues --   -0.49098  -0.48147  -0.46049  -0.43547  -0.41883
 Alpha  occ. eigenvalues --   -0.39236  -0.35343
 Alpha virt. eigenvalues --    0.02486   0.03185   0.03957   0.04204   0.05564
 Alpha virt. eigenvalues --    0.05707   0.06270   0.06983   0.07744   0.08543
 Alpha virt. eigenvalues --    0.08719   0.08883   0.09833   0.10059   0.11278

 Mulliken charges:
               1
     1  C    0.483465
     2  C    0.286856
     3  C    0.277667
     4  C    0.706573
     5  C    0.649884
     6  C    0.479238
     7  H    0.401207
     8  H   -0.022780
     9  H    0.034805
    10  H    0.026609
    11  H   -0.101504
    12  H   -0.252743
    13  H   -0.158419
    14  H   -0.034536
    15  H   -0.072164
    16  H   -0.016921
    17  H   -0.100670
    18  H   -0.019754
    19  H    0.142751
    20  H    0.031106
    21  N   -0.720268
    22  N   -0.250966
    23  N   -0.297830
    24  N   -0.301917
    25  O   -0.612695
    26  O   -0.556995
 Sum of Mulliken charges =   0.00000

 Dipole moment (field-independent basis, Debye):
    X=              0.3032    Y=              0.0037    Z=              3.1764  Tot=              3.1909

 Test job not archived.
 1\1\GINC-SE049\SP\RHF\Aug-CC-pVDZ\C6H14N4O2\OHZDE\08-Apr-2025\0\\#t hf
  aug-cc-pvdz iop(5/13=1,5/36=2,99/5=2) pseudo=read geom=check guess=(r
 ead,tcheck) scf=(maxcycle=1)\\title\\0,1\C,0,1.67193,-0.114404,0.75923
 1\C,0,1.74105,1.37111,0.319377\C,0,0.43567,2.14563,0.0929023\C,0,-0.47
 6172,1.65562,-1.03858\C,0,-2.03082,-0.0725684,-0.0236033\C,0,1.43416,-
 1.03346,-0.418883\H,0,0.714431,-1.91246,0.944038\H,0,-3.31257,0.239922
 ,1.25861\H,0,-1.66488,-1.91906,-0.80904\H,0,-2.85146,-1.90675,0.457167
 \H,0,-0.833843,-0.252421,-1.71852\H,0,0.0138249,1.63398,-1.99255\H,0,-

 Normal termination of Gaussian 16 at Tue Apr  8 19:22:27 2025.
