 Gaussian 16, Revision C.01,

 ----------------------------------------------------------------------
 #t hf aug-cc-pvdz symm=none int=(grid=ultrafine) guess=(read,tcheck) s
 table=(opt,rrhf)
 ----------------------------------------------------------------------
 -----
 title
 -----
 Symbolic Z-matrix:
 Charge =  0 Multiplicity = 1

 SCF Done:  E(RHF) =  -304.170316750     A.U. after   11 cycles
 Normal termination of Gaussian 16 at Tue Apr  8 21:12:22 2025.
 Gaussian 16:  ES64L-G16RevC.01  3-Jul-2019

 ----------------------------------------------------------------------
 #t hf aug-cc-pvdz iop(5/13=1,5/36=2,99/5=2) pseudo=read geom=check gue
 ss=(read,tcheck) scf=(maxcycle=1)
 ----------------------------------------------------------------------
 -----
 title
 -----
 Structure from the checkpoint file:  "ANI1ccx_1904_conf27_mol1.chk"
 Charge =  0 Multiplicity = 1

                         Standard orientation:
 ---------------------------------------------------------------------
 Center     Atomic      Atomic             Coordinates (Angstroms)
 Number     Number       Type             X           Y           Z
 ---------------------------------------------------------------------
      1          1           0        2.675528    0.554282   -0.580297
      2          1           0        1.292247    0.986866    0.139241
      3          1           0        0.976991   -1.098979   -0.136882
      4          1           0        0.452603   -2.216130    0.800618
      5          1           0       -1.210359   -0.939074   -0.156716
      6          1           0       -2.189300   -0.416544    0.886910
      7          1           0       -0.975420    1.043687   -0.068865
      8          1           0       -0.447608    2.334688   -0.695645
      9          8           0        1.986608    0.277269    0.082235
     10          8           0        0.296076   -1.824440   -0.108214
     11          8           0       -1.980980   -0.293807   -0.114635
     12          8           0       -0.373539    1.809878    0.117069
 ---------------------------------------------------------------------

 SCF Done:  E(RHF) =  -304.270627691     A.U. after    2 cycles

 The electronic state is 1-A.
 Alpha  occ. eigenvalues --  -20.58815 -20.58478 -20.58151 -20.57073  -1.31973
 Alpha  occ. eigenvalues --   -1.30513  -1.30026  -1.28326  -0.74125  -0.72338
 Alpha  occ. eigenvalues --   -0.71733  -0.70151  -0.63410  -0.61500  -0.60154
 Alpha  occ. eigenvalues --   -0.58165  -0.53423  -0.52462  -0.51863  -0.51750
 Alpha virt. eigenvalues --    0.02866   0.04330   0.05261   0.06565   0.07519
 Alpha virt. eigenvalues --    0.08428   0.09349   0.10901   0.16970   0.17221
 Alpha virt. eigenvalues --    0.18261   0.19997   0.21007   0.22164   0.23017

 Mulliken charges:
               1
     1  H    0.203098
     2  H    0.257754
     3  H    0.280132
     4  H    0.213182
     5  H    0.290672
     6  H    0.246414
     7  H    0.257152
     8  H    0.177749
     9  O   -0.461582
    10  O   -0.486896
    11  O   -0.557746
    12  O   -0.419929
 Sum of Mulliken charges =  -0.00000

 Dipole moment (field-independent basis, Debye):
    X=              1.3544    Y=              0.4411    Z=              0.2780  Tot=              1.4513

 Test job not archived.
 1\1\GINC-SE366\SP\RHF\Aug-CC-pVDZ\H8O4\OHZDE\08-Apr-2025\0\\#t hf aug-
 cc-pvdz iop(5/13=1,5/36=2,99/5=2) pseudo=read geom=check guess=(read,t
 check) scf=(maxcycle=1)\\title\\0,1\H,0,2.67553,0.554277,-0.580297\H,0
 ,1.29225,0.986864,0.139241\H,0,0.97699,-1.09898,-0.136882\H,0,0.4526,-
 2.21613,0.800618\H,0,-1.21036,-0.939071,-0.156716\H,0,-2.1893,-0.41653
 9,0.88691\H,0,-0.975417,1.04369,-0.0688644\H,0,-0.447602,2.33469,-0.69
 5645\O,0,1.98661,0.277266,0.0822353\O,0,0.296073,-1.82444,-0.108214\O,
 0,-1.98098,-0.293802,-0.114635\O,0,-0.373534,1.80988,0.117069\\Version

 Normal termination of Gaussian 16 at Tue Apr  8 21:12:24 2025.
