 Gaussian 16, Revision C.01,

 ----------------------------------------------------------------------
 #t hf aug-cc-pvdz symm=none int=(grid=ultrafine) guess=(read,tcheck) s
 table=(opt,rrhf)
 ----------------------------------------------------------------------
 -----
 title
 -----
 Symbolic Z-matrix:
 Charge =  0 Multiplicity = 1

 SCF Done:  E(RHF) =  -905.350481473     A.U. after   16 cycles
 Normal termination of Gaussian 16 at Tue Apr  8 22:04:28 2025.
 Gaussian 16:  ES64L-G16RevC.01  3-Jul-2019

 ----------------------------------------------------------------------
 #t hf aug-cc-pvdz iop(5/13=1,5/36=2,99/5=2) pseudo=read geom=check gue
 ss=(read,tcheck) scf=(maxcycle=1)
 ----------------------------------------------------------------------
 -----
 title
 -----
 Structure from the checkpoint file:  "ANI1ccx_56_conf4_mol1.chk"
 Charge =  0 Multiplicity = 1

                         Standard orientation:
 ---------------------------------------------------------------------
 Center     Atomic      Atomic             Coordinates (Angstroms)
 Number     Number       Type             X           Y           Z
 ---------------------------------------------------------------------
      1          6           0        2.585320   -0.799661    0.387606
      2          6           0       -0.921922    3.058210   -0.132395
      3          6           0       -1.666061    1.153540    0.528884
      4          6           0       -1.755030   -0.147791    1.274040
      5          6           0       -2.033520   -1.829561   -0.603274
      6          6           0       -2.714411    1.729369   -0.185130
      7          6           0        4.344069    0.741819   -0.575794
      8          6           0        2.962119    0.668282    0.075967
      9          6           0        1.143220   -0.924257    0.929546
     10          6           0       -1.161800   -1.353410    0.531389
     11          1           0       -1.052960   -2.185860    1.202720
     12          1           0       -3.594830   -2.675841   -0.929589
     13          1           0       -2.675891    3.696719   -1.198050
     14          1           0       -0.167459    3.750790   -0.364307
     15          1           0       -3.787671    1.382249   -0.306561
     16          1           0       -2.785090   -0.329908    1.507190
     17          1           0       -1.291730   -0.027485    2.260490
     18          1           0        0.289410   -1.167570   -1.009650
     19          1           0        5.075590    0.486994    0.226740
     20          1           0        4.490639    1.766081   -0.954190
     21          1           0        1.128259    0.981136   -0.440145
     22          1           0        2.722749    1.345851    0.977729
     23          1           0        3.208200   -1.237869    1.202720
     24          1           0        2.541070   -2.505319   -0.736712
     25          1           0        2.201570   -1.049949   -1.570980
     26          1           0        4.544750    0.093897   -1.440710
     27          7           0        2.716140   -1.553489   -0.835552
     28          7           0        0.159073   -1.076550    0.012772
     29          7           0       -0.508401    1.947020    0.452969
     30          7           0       -2.264961    2.940449   -0.566109
     31          8           0       -1.672980   -2.057820   -1.749860
     32          8           0        0.898896   -0.900795    2.109600
     33          8           0        2.000839    1.128621   -0.811337
     34          8           0       -3.258190   -2.158151   -0.205934
 ---------------------------------------------------------------------

 SCF Done:  E(RHF) =  -905.621017708     A.U. after    2 cycles

 The electronic state is 1-A.
 Alpha  occ. eigenvalues --  -20.64433 -20.58208 -20.54498 -20.53070 -15.70612
 Alpha  occ. eigenvalues --  -15.64641 -15.62957 -15.59737 -11.41779 -11.34881
 Alpha  occ. eigenvalues --  -11.32149 -11.30348 -11.29104 -11.28916 -11.27220
 Alpha  occ. eigenvalues --  -11.26891 -11.24397 -11.21837  -1.45681  -1.35928
 Alpha  occ. eigenvalues --   -1.33990  -1.32543  -1.30908  -1.21136  -1.16127
 Alpha  occ. eigenvalues --   -1.14230  -1.06467  -1.00758  -0.99874  -0.93057
 Alpha  occ. eigenvalues --   -0.92176  -0.85128  -0.82217  -0.80653  -0.79545
 Alpha  occ. eigenvalues --   -0.77395  -0.74871  -0.73963  -0.72333  -0.70934
 Alpha  occ. eigenvalues --   -0.69976  -0.69174  -0.67132  -0.65160  -0.63853
 Alpha  occ. eigenvalues --   -0.62611  -0.61293  -0.60596  -0.59591  -0.59484
 Alpha  occ. eigenvalues --   -0.58439  -0.57013  -0.55888  -0.54571  -0.53778
 Alpha  occ. eigenvalues --   -0.52792  -0.52595  -0.51339  -0.50797  -0.48442
 Alpha  occ. eigenvalues --   -0.48094  -0.45746  -0.44029  -0.42799  -0.40776
 Alpha  occ. eigenvalues --   -0.40077  -0.36727  -0.32128
 Alpha virt. eigenvalues --    0.02063   0.02893   0.03874   0.04511   0.04747
 Alpha virt. eigenvalues --    0.05019   0.05773   0.06504   0.06629   0.07462
 Alpha virt. eigenvalues --    0.07715   0.08174   0.08720   0.09165   0.09728

 Mulliken charges:
               1
     1  C    0.624769
     2  C    0.898051
     3  C   -0.028685
     4  C    0.579541
     5  C    0.744114
     6  C    0.765641
     7  C    0.447527
     8  C    0.175923
     9  C    0.562298
    10  C    0.081573
    11  H   -0.096232
    12  H    0.196977
    13  H    0.010731
    14  H   -0.379567
    15  H   -0.234974
    16  H   -0.173255
    17  H    0.080076
    18  H   -0.022290
    19  H    0.060704
    20  H    0.013104
    21  H    0.226570
    22  H   -0.265512
    23  H   -0.154022
    24  H   -0.091476
    25  H    0.203171
    26  H   -0.031490
    27  N   -0.239760
    28  N   -0.497057
    29  N   -0.629553
    30  N   -0.630568
    31  O   -0.574905
    32  O   -0.605739
    33  O   -0.493378
    34  O   -0.522305
 Sum of Mulliken charges =  -0.00000

 Dipole moment (field-independent basis, Debye):
    X=             -4.7878    Y=              1.3104    Z=             -2.0686  Tot=              5.3777

 Test job not archived.
 1\1\GINC-SE088\SP\RHF\Aug-CC-pVDZ\C10H16N4O4\OHZDE\08-Apr-2025\0\\#t h
 f aug-cc-pvdz iop(5/13=1,5/36=2,99/5=2) pseudo=read geom=check guess=(
 read,tcheck) scf=(maxcycle=1)\\title\\0,1\C,0,2.58532,-0.799662,0.3876
 06\C,0,-0.921921,3.05821,-0.132395\C,0,-1.66606,1.15354,0.528884\C,0,-
 1.75503,-0.14779,1.27404\C,0,-2.03352,-1.82956,-0.603274\C,0,-2.71441,
 1.72937,-0.18513\C,0,4.34407,0.741818,-0.575794\C,0,2.96212,0.668281,0
 .0759673\C,0,1.14322,-0.924257,0.929546\C,0,-1.1618,-1.35341,0.531389\
 H,0,-1.05296,-2.18586,1.20272\H,0,-3.59483,-2.67584,-0.929589\H,0,-2.6

 Normal termination of Gaussian 16 at Tue Apr  8 22:05:28 2025.
