 Gaussian 16, Revision C.01,

 ----------------------------------------------------------------------
 #t hf aug-cc-pvdz symm=none int=(grid=ultrafine) guess=(read,tcheck) s
 table=(opt,rrhf)
 ----------------------------------------------------------------------
 -----
 title
 -----
 Symbolic Z-matrix:
 Charge =  0 Multiplicity = 1

 SCF Done:  E(RHF) =  -456.252470983     A.U. after   11 cycles
 Normal termination of Gaussian 16 at Tue Apr  8 21:05:36 2025.
 Gaussian 16:  ES64L-G16RevC.01  3-Jul-2019

 ----------------------------------------------------------------------
 #t hf aug-cc-pvdz iop(5/13=1,5/36=2,99/5=2) pseudo=read geom=check gue
 ss=(read,tcheck) scf=(maxcycle=1)
 ----------------------------------------------------------------------
 -----
 title
 -----
 Structure from the checkpoint file:  "ANI1ccx_1844_conf225_mol1.chk"
 Charge =  0 Multiplicity = 1

                         Standard orientation:
 ---------------------------------------------------------------------
 Center     Atomic      Atomic             Coordinates (Angstroms)
 Number     Number       Type             X           Y           Z
 ---------------------------------------------------------------------
      1          1           0        1.268552    2.401139    1.524560
      2          1           0        2.166605   -0.748117   -0.273785
      3          1           0        3.291218    0.255500   -0.738330
      4          1           0       -1.779450   -1.393564    0.464532
      5          1           0       -0.700710   -1.633106    1.578160
      6          1           0        0.228439   -1.961479   -0.265366
      7          1           0        1.632450    1.331932    0.333704
      8          1           0        1.333273   -3.068580   -0.441490
      9          1           0       -1.426432    2.900759   -0.631374
     10          1           0       -0.300744    2.015517   -0.167931
     11          1           0       -2.175506    0.723534   -0.182849
     12          1           0       -3.001367   -0.402247   -0.946865
     13          8           0       -1.104315   -2.072109    0.704466
     14          8           0       -1.171425    2.001201   -0.622438
     15          8           0        2.726029    0.044713    0.025434
     16          8           0        1.148216   -2.121912   -0.673092
     17          8           0        1.106574    2.159888    0.541315
     18          8           0       -2.772120   -0.064442   -0.007305
 ---------------------------------------------------------------------

 SCF Done:  E(RHF) =  -456.403136692     A.U. after    2 cycles

 The electronic state is 1-A.
 Alpha  occ. eigenvalues --  -20.58565 -20.58466 -20.58016 -20.57309 -20.57004
 Alpha  occ. eigenvalues --  -20.56097  -1.32123  -1.30852  -1.30534  -1.28854
 Alpha  occ. eigenvalues --   -1.28427  -1.27381  -0.74355  -0.72879  -0.72669
 Alpha  occ. eigenvalues --   -0.72263  -0.71140  -0.69733  -0.64158  -0.62692
 Alpha  occ. eigenvalues --   -0.61574  -0.58487  -0.57917  -0.56098  -0.53132
 Alpha  occ. eigenvalues --   -0.52517  -0.51916  -0.51749  -0.51468  -0.51188
 Alpha virt. eigenvalues --    0.02811   0.04470   0.04896   0.05093   0.06300
 Alpha virt. eigenvalues --    0.06772   0.08470   0.08948   0.09521   0.10042
 Alpha virt. eigenvalues --    0.10978   0.11222   0.17101   0.18500   0.18936

 Mulliken charges:
               1
     1  H    0.233715
     2  H    0.303806
     3  H    0.177253
     4  H    0.264752
     5  H    0.299005
     6  H    0.310470
     7  H    0.304971
     8  H    0.193437
     9  H    0.117894
    10  H    0.296814
    11  H    0.314381
    12  H    0.252323
    13  O   -0.593418
    14  O   -0.410441
    15  O   -0.479000
    16  O   -0.499133
    17  O   -0.540232
    18  O   -0.546597
 Sum of Mulliken charges =  -0.00000

 Dipole moment (field-independent basis, Debye):
    X=              1.3029    Y=              1.0113    Z=              0.6542  Tot=              1.7744

 Test job not archived.
 1\1\GINC-SE454\SP\RHF\Aug-CC-pVDZ\H12O6\OHZDE\08-Apr-2025\0\\#t hf aug
 -cc-pvdz iop(5/13=1,5/36=2,99/5=2) pseudo=read geom=check guess=(read,
 tcheck) scf=(maxcycle=1)\\title\\0,1\H,0,1.26857,2.40113,1.52456\H,0,2
 .1666,-0.748133,-0.273785\H,0,3.29122,0.255476,-0.73833\H,0,-1.77946,-
 1.39355,0.464532\H,0,-0.700722,-1.6331,1.57816\H,0,0.228424,-1.96148,-
 0.265366\H,0,1.63246,1.33192,0.333704\H,0,1.33325,-3.06859,-0.44149\H,
 0,-1.42641,2.90077,-0.631374\H,0,-0.300729,2.01552,-0.167931\H,0,-2.17
 55,0.723551,-0.182849\H,0,-3.00137,-0.402224,-0.946865\O,0,-1.10433,-2

 Normal termination of Gaussian 16 at Tue Apr  8 21:05:41 2025.
