 Gaussian 16, Revision C.01,

 ----------------------------------------------------------------------
 #t hf aug-cc-pvdz symm=none int=(grid=ultrafine) guess=(read,tcheck) s
 table=(opt,rrhf)
 ----------------------------------------------------------------------
 -----
 title
 -----
 Symbolic Z-matrix:
 Charge =  0 Multiplicity = 1

 SCF Done:  E(RHF) =  -256.788654100     A.U. after   15 cycles
 Normal termination of Gaussian 16 at Tue Apr  8 21:25:28 2025.
 Gaussian 16:  ES64L-G16RevC.01  3-Jul-2019

 ----------------------------------------------------------------------
 #t hf aug-cc-pvdz iop(5/13=1,5/36=2,99/5=2) pseudo=read geom=check gue
 ss=(read,tcheck) scf=(maxcycle=1)
 ----------------------------------------------------------------------
 -----
 title
 -----
 Structure from the checkpoint file:  "ANI1ccx_377_conf66_mol1.chk"
 Charge =  0 Multiplicity = 1

                         Standard orientation:
 ---------------------------------------------------------------------
 Center     Atomic      Atomic             Coordinates (Angstroms)
 Number     Number       Type             X           Y           Z
 ---------------------------------------------------------------------
      1          6           0       -1.052640   -0.338763   -0.007743
      2          1           0       -2.043251   -0.681798    0.145872
      3          1           0        1.970869   -0.680752    0.074443
      4          7           0       -0.667979    0.980655    0.011296
      5          7           0        0.628090    0.949560   -0.030635
      6          7           0        1.012400   -0.317937    0.038320
      7          7           0       -0.059906   -1.127259   -0.043819
 ---------------------------------------------------------------------

 SCF Done:  E(RHF) =  -256.860717317     A.U. after    2 cycles

 The electronic state is 1-A.
 Alpha  occ. eigenvalues --  -15.76998 -15.74711 -15.69280 -15.68557 -11.31507
 Alpha  occ. eigenvalues --   -1.46387  -1.22558  -1.16793  -0.90866  -0.87336
 Alpha  occ. eigenvalues --   -0.78406  -0.68326  -0.66364  -0.56912  -0.49330
 Alpha  occ. eigenvalues --   -0.46708  -0.44120  -0.42217
 Alpha virt. eigenvalues --    0.02803   0.03856   0.08359   0.08561   0.11143
 Alpha virt. eigenvalues --    0.11901   0.12273   0.15027   0.16317   0.16858
 Alpha virt. eigenvalues --    0.17558   0.19022   0.19880   0.20308   0.21862

 Mulliken charges:
               1
     1  C    0.928498
     2  H   -0.229413
     3  H    0.076918
     4  N   -0.397015
     5  N   -0.116473
     6  N    0.035831
     7  N   -0.298345
 Sum of Mulliken charges =  -0.00000

 Dipole moment (field-independent basis, Debye):
    X=              1.3158    Y=             -1.9479    Z=              0.2595  Tot=              2.3649

 Test job not archived.
 1\1\GINC-SE404\SP\RHF\Aug-CC-pVDZ\C1H2N4\OHZDE\08-Apr-2025\0\\#t hf au
 g-cc-pvdz iop(5/13=1,5/36=2,99/5=2) pseudo=read geom=check guess=(read
 ,tcheck) scf=(maxcycle=1)\\title\\0,1\C,0,-1.05264,-0.338765,-0.007742
 86\H,0,-2.04325,-0.681802,0.145872\H,0,1.97087,-0.68075,0.0744435\N,0,
 -0.667981,0.980653,0.0112965\N,0,0.628088,0.94956,-0.0306353\N,0,1.012
 4,-0.317936,0.0383204\N,0,-0.0599049,-1.12726,-0.0438185\\Version=ES64
 L-G16RevC.01\State=1-A\HF=-256.8607173\RMSD=3.134e-03\Dipole=0.517666,
 -0.7663522,0.1020915\Quadrupole=5.6526481,-5.0372854,-0.6153627,-0.440

 Normal termination of Gaussian 16 at Tue Apr  8 21:25:30 2025.
