 Gaussian 16, Revision C.01,

 ----------------------------------------------------------------------
 #t hf aug-cc-pvdz symm=none int=(grid=ultrafine) guess=(read,tcheck) s
 table=(opt,rrhf)
 ----------------------------------------------------------------------
 -----
 title
 -----
 Symbolic Z-matrix:
 Charge =  0 Multiplicity = 1

 SCF Done:  E(RHF) =  -509.538181496     A.U. after   14 cycles
 Normal termination of Gaussian 16 at Tue Apr  8 22:09:31 2025.
 Gaussian 16:  ES64L-G16RevC.01  3-Jul-2019

 ----------------------------------------------------------------------
 #t hf aug-cc-pvdz iop(5/13=1,5/36=2,99/5=2) pseudo=read geom=check gue
 ss=(read,tcheck) scf=(maxcycle=1)
 ----------------------------------------------------------------------
 -----
 title
 -----
 Structure from the checkpoint file:  "ANI1ccx_939_conf34_mol1.chk"
 Charge =  0 Multiplicity = 1

                         Standard orientation:
 ---------------------------------------------------------------------
 Center     Atomic      Atomic             Coordinates (Angstroms)
 Number     Number       Type             X           Y           Z
 ---------------------------------------------------------------------
      1          6           0       -0.734082    0.617139   -0.757268
      2          6           0       -1.352881   -0.387815    0.224073
      3          6           0        0.703391    0.077404   -1.165580
      4          6           0        1.535499   -0.232776    0.041129
      5          1           0       -1.475287    2.413892   -0.291690
      6          1           0       -0.118335    2.094720    0.572224
      7          1           0       -1.341720    0.535088   -1.705810
      8          1           0        0.594943   -0.885122   -1.723170
      9          1           0        1.273220    0.776142   -1.753540
     10          1           0        1.915491    0.854572    1.730330
     11          1           0       -1.768784   -2.197368    0.208732
     12          7           0       -0.624755    1.986901   -0.323842
     13          8           0       -1.608241   -0.260054    1.382160
     14          8           0        2.260458   -1.207204    0.098021
     15          8           0        1.370520    0.788554    0.887230
     16          8           0       -1.474963   -1.564288   -0.470450
 ---------------------------------------------------------------------

 SCF Done:  E(RHF) =  -509.695680078     A.U. after    2 cycles

 The electronic state is 1-A.
 Alpha  occ. eigenvalues --  -20.64464 -20.63313 -20.58496 -20.57323 -15.60804
 Alpha  occ. eigenvalues --  -11.41066 -11.40813 -11.31052 -11.26446  -1.43703
 Alpha  occ. eigenvalues --   -1.42855  -1.34461  -1.33833  -1.17853  -1.04688
 Alpha  occ. eigenvalues --   -0.94993  -0.86308  -0.80655  -0.74548  -0.73314
 Alpha  occ. eigenvalues --   -0.72396  -0.68939  -0.67861  -0.66770  -0.64319
 Alpha  occ. eigenvalues --   -0.62123  -0.61020  -0.58438  -0.54380  -0.53483
 Alpha  occ. eigenvalues --   -0.51970  -0.50673  -0.49107  -0.46442  -0.39851
 Alpha virt. eigenvalues --    0.03075   0.03573   0.04451   0.04756   0.05967
 Alpha virt. eigenvalues --    0.07113   0.08231   0.09571   0.10641   0.11291
 Alpha virt. eigenvalues --    0.12709   0.13186   0.13859   0.13914   0.14500

 Mulliken charges:
               1
     1  C    0.173930
     2  C    0.706801
     3  C    0.321178
     4  C    0.525117
     5  H   -0.142732
     6  H    0.118510
     7  H    0.089658
     8  H    0.050068
     9  H   -0.017320
    10  H    0.234176
    11  H    0.199391
    12  N   -0.171045
    13  O   -0.474642
    14  O   -0.484467
    15  O   -0.575489
    16  O   -0.553135
 Sum of Mulliken charges =  -0.00000

 Dipole moment (field-independent basis, Debye):
    X=             -1.0073    Y=              1.6248    Z=             -0.2742  Tot=              1.9313

 Test job not archived.
 1\1\GINC-SE051\SP\RHF\Aug-CC-pVDZ\C4H7N1O4\OHZDE\08-Apr-2025\0\\#t hf
 aug-cc-pvdz iop(5/13=1,5/36=2,99/5=2) pseudo=read geom=check guess=(re
 ad,tcheck) scf=(maxcycle=1)\\title\\0,1\C,0,-0.734082,0.617138,-0.7572
 68\C,0,-1.35288,-0.387817,0.224073\C,0,0.703392,0.0774058,-1.16558\C,0
 ,1.5355,-0.232773,0.0411287\H,0,-1.47529,2.41389,-0.29169\H,0,-0.11833
 7,2.09472,0.572224\H,0,-1.34172,0.535086,-1.70581\H,0,0.594945,-0.8851
 21,-1.72317\H,0,1.27322,0.776144,-1.75354\H,0,1.91549,0.854575,1.73033
 \H,0,-1.76878,-2.19737,0.208732\N,0,-0.624757,1.9869,-0.323842\O,0,-1.

 Normal termination of Gaussian 16 at Tue Apr  8 22:09:38 2025.
