 Gaussian 16, Revision C.01,

 ----------------------------------------------------------------------
 #t hf aug-cc-pvdz symm=none int=(grid=ultrafine) guess=(read,tcheck) s
 table=(opt,rrhf)
 ----------------------------------------------------------------------
 -----
 title
 -----
 Symbolic Z-matrix:
 Charge =  0 Multiplicity = 1

 SCF Done:  E(RHF) =  -371.289684533     A.U. after   14 cycles
 Normal termination of Gaussian 16 at Tue Apr  8 21:38:41 2025.
 Gaussian 16:  ES64L-G16RevC.01  3-Jul-2019

 ----------------------------------------------------------------------
 #t hf aug-cc-pvdz iop(5/13=1,5/36=2,99/5=2) pseudo=read geom=check gue
 ss=(read,tcheck) scf=(maxcycle=1)
 ----------------------------------------------------------------------
 -----
 title
 -----
 Structure from the checkpoint file:  "ANI1ccx_455_conf10_mol1.chk"
 Charge =  0 Multiplicity = 1

                         Standard orientation:
 ---------------------------------------------------------------------
 Center     Atomic      Atomic             Coordinates (Angstroms)
 Number     Number       Type             X           Y           Z
 ---------------------------------------------------------------------
      1          6           0        0.755111    0.009286   -0.034468
      2          7           0       -1.343470   -0.615619    0.035501
      3          7           0       -1.376331    0.608077    0.013072
      4          8           0        1.962570   -0.008464    0.037130
      5          8           0       -0.084106   -1.071171   -0.032907
      6          8           0       -0.064971    1.079269   -0.020873
 ---------------------------------------------------------------------

 SCF Done:  E(RHF) =  -371.403288017     A.U. after    2 cycles

 The electronic state is 1-A.
 Alpha  occ. eigenvalues --  -20.74470 -20.73834 -20.62042 -15.83734 -15.83488
 Alpha  occ. eigenvalues --  -11.51531  -1.63770  -1.46401  -1.42567  -1.31676
 Alpha  occ. eigenvalues --   -1.00514  -0.97134  -0.81983  -0.81645  -0.72176
 Alpha  occ. eigenvalues --   -0.69676  -0.66949  -0.62951  -0.61624  -0.61050
 Alpha  occ. eigenvalues --   -0.52561  -0.50261
 Alpha virt. eigenvalues --    0.06693   0.07640   0.07727   0.07781   0.09002
 Alpha virt. eigenvalues --    0.12288   0.12734   0.13992   0.15995   0.16477
 Alpha virt. eigenvalues --    0.19141   0.20144   0.21806   0.23517   0.25183

 Mulliken charges:
               1
     1  C    0.856234
     2  N    0.276496
     3  N    0.251045
     4  O   -0.374011
     5  O   -0.508124
     6  O   -0.501640
 Sum of Mulliken charges =   0.00000

 Dipole moment (field-independent basis, Debye):
    X=             -2.0775    Y=             -0.0695    Z=             -0.1700  Tot=              2.0856

 Test job not archived.
 1\1\GINC-SE331\SP\RHF\Aug-CC-pVDZ\C1N2O3\OHZDE\08-Apr-2025\0\\#t hf au
 g-cc-pvdz iop(5/13=1,5/36=2,99/5=2) pseudo=read geom=check guess=(read
 ,tcheck) scf=(maxcycle=1)\\title\\0,1\C,0,0.755111,0.0092866,-0.034467
 9\N,0,-1.34347,-0.615617,0.0355005\N,0,-1.37633,0.608079,0.0130715\O,0
 ,1.96257,-0.00846423,0.0371302\O,0,-0.0841062,-1.07117,-0.0329072\O,0,
 -0.06497,1.07927,-0.0208726\\Version=ES64L-G16RevC.01\State=1-A\HF=-37
 1.403288\RMSD=3.471e-03\Dipole=-0.8173612,-0.0273442,-0.0668731\Quadru
 pole=-3.5692044,0.2670672,3.3021373,0.0544362,-0.1386707,-0.0128068\PG

 Normal termination of Gaussian 16 at Tue Apr  8 21:38:43 2025.
