 Gaussian 16, Revision C.01,

 ----------------------------------------------------------------------
 #t hf aug-cc-pvdz symm=none int=(grid=ultrafine) guess=(read,tcheck) s
 table=(opt,rrhf)
 ----------------------------------------------------------------------
 -----
 title
 -----
 Symbolic Z-matrix:
 Charge =  0 Multiplicity = 1

 SCF Done:  E(RHF) =  -239.966037994     A.U. after   13 cycles
 Normal termination of Gaussian 16 at Tue Apr  8 21:10:17 2025.
 Gaussian 16:  ES64L-G16RevC.01  3-Jul-2019

 ----------------------------------------------------------------------
 #t hf aug-cc-pvdz iop(5/13=1,5/36=2,99/5=2) pseudo=read geom=check gue
 ss=(read,tcheck) scf=(maxcycle=1)
 ----------------------------------------------------------------------
 -----
 title
 -----
 Structure from the checkpoint file:  "ANI1ccx_1874_conf9_mol1.chk"
 Charge =  0 Multiplicity = 1

                         Standard orientation:
 ---------------------------------------------------------------------
 Center     Atomic      Atomic             Coordinates (Angstroms)
 Number     Number       Type             X           Y           Z
 ---------------------------------------------------------------------
      1          1           0        0.530400    1.007310   -0.199838
      2          1           0        2.459701   -0.813626   -0.380473
      3          1           0        1.587521   -0.939810    1.019860
      4          7           0       -1.809519   -0.192668   -0.535005
      5          7           0       -2.027939    0.095856    0.498927
      6          7           0        1.510461   -0.629586    0.007342
      7          8           0        1.463921    0.728864   -0.029799
 ---------------------------------------------------------------------

 SCF Done:  E(RHF) =  -240.040608865     A.U. after    2 cycles

 The electronic state is 1-A.
 Alpha  occ. eigenvalues --  -20.60141 -15.76057 -15.75722 -15.67438  -1.43423
 Alpha  occ. eigenvalues --   -1.37704  -1.03919  -0.75778  -0.71555  -0.66944
 Alpha  occ. eigenvalues --   -0.64975  -0.62836  -0.61541  -0.61340  -0.49326
 Alpha  occ. eigenvalues --   -0.40776
 Alpha virt. eigenvalues --    0.04194   0.05434   0.05805   0.10069   0.12275
 Alpha virt. eigenvalues --    0.12671   0.13424   0.14450   0.15689   0.17825
 Alpha virt. eigenvalues --    0.18840   0.19938   0.21765   0.22649   0.23298

 Mulliken charges:
               1
     1  H    0.192593
     2  H    0.127581
     3  H    0.126724
     4  N    0.024648
     5  N   -0.035529
     6  N    0.060624
     7  O   -0.496642
 Sum of Mulliken charges =   0.00000

 Dipole moment (field-independent basis, Debye):
    X=             -0.2259    Y=             -0.5255    Z=              0.5765  Tot=              0.8121

 Test job not archived.
 1\1\GINC-SE461\SP\RHF\Aug-CC-pVDZ\H3N3O1\OHZDE\08-Apr-2025\0\\#t hf au
 g-cc-pvdz iop(5/13=1,5/36=2,99/5=2) pseudo=read geom=check guess=(read
 ,tcheck) scf=(maxcycle=1)\\title\\0,1\H,0,0.530399,1.00731,-0.199838\H
 ,0,2.4597,-0.813626,-0.380473\H,0,1.58752,-0.93981,1.01986\N,0,-1.8095
 2,-0.192668,-0.535005\N,0,-2.02794,0.0958563,0.498927\N,0,1.51046,-0.6
 29586,0.00734147\O,0,1.46392,0.728864,-0.0297994\\Version=ES64L-G16Rev
 C.01\State=1-A\HF=-240.0406089\RMSD=2.127e-03\Dipole=-0.0888676,-0.206
 738,0.2268263\Quadrupole=1.1150022,-0.4797978,-0.6352045,-2.9655433,0.

 Normal termination of Gaussian 16 at Tue Apr  8 21:10:19 2025.
