 Gaussian 16, Revision C.01,

 ----------------------------------------------------------------------
 #t hf aug-cc-pvdz symm=none int=(grid=ultrafine) guess=(read,tcheck) s
 table=(opt,rrhf)
 ----------------------------------------------------------------------
 -----
 title
 -----
 Symbolic Z-matrix:
 Charge =  0 Multiplicity = 1

 SCF Done:  E(RHF) =  -455.623442185     A.U. after   15 cycles
 Normal termination of Gaussian 16 at Tue Apr  8 22:12:45 2025.
 Gaussian 16:  ES64L-G16RevC.01  3-Jul-2019

 ----------------------------------------------------------------------
 #t hf aug-cc-pvdz iop(5/13=1,5/36=2,99/5=2) pseudo=read geom=check gue
 ss=(read,tcheck) scf=(maxcycle=1)
 ----------------------------------------------------------------------
 -----
 title
 -----
 Structure from the checkpoint file:  "ANI1ccx_972_conf3_mol1.chk"
 Charge =  0 Multiplicity = 1

                         Standard orientation:
 ---------------------------------------------------------------------
 Center     Atomic      Atomic             Coordinates (Angstroms)
 Number     Number       Type             X           Y           Z
 ---------------------------------------------------------------------
      1          6           0        1.666081   -0.579553    1.248311
      2          6           0        1.421661   -0.259659   -0.286717
      3          6           0       -0.091500   -0.380338   -0.672505
      4          6           0       -1.121870    0.586017    0.024107
      5          1           0        0.785101   -0.210797    1.897571
      6          1           0        2.649441   -0.215044    1.601891
      7          1           0        1.652842   -1.689649    1.489781
      8          1           0        2.095841   -0.945906   -0.929334
      9          1           0        1.060599    1.596480   -0.161596
     10          1           0       -0.053668   -0.215454   -1.764909
     11          1           0       -1.039038   -2.103022   -1.254459
     12          1           0       -1.974359   -0.961073    0.290998
     13          8           0        1.753199    1.061811   -0.601570
     14          8           0       -0.630059   -1.688902   -0.457859
     15          8           0       -2.228679   -0.088768    0.572703
     16          8           0       -0.947334    1.784068    0.105589
 ---------------------------------------------------------------------

 SCF Done:  E(RHF) =  -455.762746861     A.U. after    2 cycles

 The electronic state is 1-A.
 Alpha  occ. eigenvalues --  -20.63143 -20.62787 -20.59087 -20.58024 -11.42864
 Alpha  occ. eigenvalues --  -11.35158 -11.33459 -11.25476  -1.42726  -1.37473
 Alpha  occ. eigenvalues --   -1.35037  -1.33529  -1.04067  -0.96473  -0.86190
 Alpha  occ. eigenvalues --   -0.82044  -0.77013  -0.76579  -0.72299  -0.68513
 Alpha  occ. eigenvalues --   -0.64161  -0.63860  -0.62851  -0.61337  -0.57859
 Alpha  occ. eigenvalues --   -0.57602  -0.55683  -0.52543  -0.51274  -0.51192
 Alpha  occ. eigenvalues --   -0.46386  -0.45334
 Alpha virt. eigenvalues --    0.01916   0.04197   0.04353   0.05234   0.06342
 Alpha virt. eigenvalues --    0.06576   0.07664   0.07850   0.09828   0.11437
 Alpha virt. eigenvalues --    0.11800   0.12890   0.13860   0.14167   0.14250

 Mulliken charges:
               1
     1  C    0.319599
     2  C    0.107751
     3  C    0.524024
     4  C    0.747456
     5  H    0.006309
     6  H   -0.050331
     7  H    0.014367
     8  H   -0.070622
     9  H    0.226806
    10  H    0.014917
    11  H    0.195124
    12  H    0.232413
    13  O   -0.590939
    14  O   -0.692128
    15  O   -0.493682
    16  O   -0.491064
 Sum of Mulliken charges =  -0.00000

 Dipole moment (field-independent basis, Debye):
    X=              0.1760    Y=             -4.5188    Z=             -1.9821  Tot=              4.9375

 Test job not archived.
 1\1\GINC-SE332\SP\RHF\Aug-CC-pVDZ\C4H8O4\OHZDE\08-Apr-2025\0\\#t hf au
 g-cc-pvdz iop(5/13=1,5/36=2,99/5=2) pseudo=read geom=check guess=(read
 ,tcheck) scf=(maxcycle=1)\\title\\0,1\C,0,1.66608,-0.579554,1.24831\C,
 0,1.42166,-0.259659,-0.286718\C,0,-0.0915011,-0.380337,-0.672506\C,0,-
 1.12187,0.586019,0.0241062\H,0,0.7851,-0.210797,1.89757\H,0,2.64944,-0
 .215046,1.60189\H,0,1.65284,-1.68965,1.48978\H,0,2.09584,-0.945907,-0.
 929335\H,0,1.0606,1.59648,-0.161597\H,0,-0.0536684,-0.215453,-1.76491\
 H,0,-1.03904,-2.10302,-1.25446\H,0,-1.97436,-0.96107,0.290997\O,0,1.75

 Normal termination of Gaussian 16 at Tue Apr  8 22:12:50 2025.
