 Gaussian 16, Revision C.01,

 ----------------------------------------------------------------------
 #t hf aug-cc-pvdz symm=none int=(grid=ultrafine) guess=(read,tcheck) s
 table=(opt,rrhf)
 ----------------------------------------------------------------------
 -----
 title
 -----
 Symbolic Z-matrix:
 Charge =  0 Multiplicity = 1

 SCF Done:  E(RHF) =  -355.354279029     A.U. after   14 cycles
 Normal termination of Gaussian 16 at Tue Apr  8 21:39:44 2025.
 Gaussian 16:  ES64L-G16RevC.01  3-Jul-2019

 ----------------------------------------------------------------------
 #t hf aug-cc-pvdz iop(5/13=1,5/36=2,99/5=2) pseudo=read geom=check gue
 ss=(read,tcheck) scf=(maxcycle=1)
 ----------------------------------------------------------------------
 -----
 title
 -----
 Structure from the checkpoint file:  "ANI1ccx_469_conf16_mol2.chk"
 Charge =  0 Multiplicity = 1

                         Standard orientation:
 ---------------------------------------------------------------------
 Center     Atomic      Atomic             Coordinates (Angstroms)
 Number     Number       Type             X           Y           Z
 ---------------------------------------------------------------------
      1          6           0        0.780506    0.008126   -0.004657
      2          6           0       -1.321421    0.555997    0.004608
      3          1           0       -2.175582    1.212757   -0.003505
      4          7           0       -1.361080   -0.721171    0.001231
      5          8           0        1.961929    0.055541    0.004105
      6          8           0       -0.088574    1.094999   -0.002865
      7          8           0       -0.004776   -1.094201   -0.001843
 ---------------------------------------------------------------------

 SCF Done:  E(RHF) =  -355.466698555     A.U. after    2 cycles

 The electronic state is 1-A.
 Alpha  occ. eigenvalues --  -20.70380 -20.69829 -20.60321 -15.74465 -11.49115
 Alpha  occ. eigenvalues --  -11.41105  -1.55991  -1.42040  -1.41082  -1.19489
 Alpha  occ. eigenvalues --   -0.95397  -0.91547  -0.79644  -0.77410  -0.71046
 Alpha  occ. eigenvalues --   -0.69857  -0.64042  -0.63666  -0.58505  -0.57465
 Alpha  occ. eigenvalues --   -0.51812  -0.44757
 Alpha virt. eigenvalues --    0.02387   0.06746   0.06929   0.07750   0.10237
 Alpha virt. eigenvalues --    0.10751   0.11311   0.13689   0.13826   0.16145
 Alpha virt. eigenvalues --    0.16658   0.17202   0.19749   0.19790   0.23194

 Mulliken charges:
               1
     1  C    0.728428
     2  C    0.830542
     3  H   -0.147736
     4  N   -0.043721
     5  O   -0.344768
     6  O   -0.462362
     7  O   -0.560383
 Sum of Mulliken charges =  -0.00000

 Dipole moment (field-independent basis, Debye):
    X=             -3.6680    Y=              2.1397    Z=             -0.0196  Tot=              4.2465

 Test job not archived.
 1\1\GINC-SE126\SP\RHF\Aug-CC-pVDZ\C2H1N1O3\OHZDE\08-Apr-2025\0\\#t hf
 aug-cc-pvdz iop(5/13=1,5/36=2,99/5=2) pseudo=read geom=check guess=(re
 ad,tcheck) scf=(maxcycle=1)\\title\\0,1\C,0,-0.780507,0.00812671,0.004
 65701\C,0,1.32142,0.555999,-0.00460759\H,0,2.17558,1.21276,0.00350531\
 N,0,1.36108,-0.721168,-0.00123129\O,0,-1.96193,0.0555403,-0.00410549\O
 ,0,0.0885722,1.095,0.00286471\O,0,0.0047762,-1.0942,0.00184291\\Versio
 n=ES64L-G16RevC.01\State=1-A\HF=-355.4666986\RMSD=2.853e-03\Dipole=1.4
 430951,0.8418399,0.0077049\Quadrupole=-1.4047231,-0.4063866,1.8111096,

 Normal termination of Gaussian 16 at Tue Apr  8 21:39:46 2025.
