 Gaussian 16, Revision C.01,

 ----------------------------------------------------------------------
 #t hf aug-cc-pvdz symm=none int=(grid=ultrafine) guess=(read,tcheck) s
 table=(opt,rrhf)
 ----------------------------------------------------------------------
 -----
 title
 -----
 Symbolic Z-matrix:
 Charge =  0 Multiplicity = 1

 SCF Done:  E(RHF) =  -642.649607038     A.U. after   14 cycles
 Normal termination of Gaussian 16 at Tue Apr  8 19:18:14 2025.
 Gaussian 16:  ES64L-G16RevC.01  3-Jul-2019

 ----------------------------------------------------------------------
 #t hf aug-cc-pvdz iop(5/13=1,5/36=2,99/5=2) pseudo=read geom=check gue
 ss=(read,tcheck) scf=(maxcycle=1)
 ----------------------------------------------------------------------
 -----
 title
 -----
 Structure from the checkpoint file:  "ANI1ccx_1214_conf2_mol1.chk"
 Charge =  0 Multiplicity = 1

                         Standard orientation:
 ---------------------------------------------------------------------
 Center     Atomic      Atomic             Coordinates (Angstroms)
 Number     Number       Type             X           Y           Z
 ---------------------------------------------------------------------
      1          6           0       -1.464749   -0.380465   -0.461267
      2          6           0       -0.068881    0.065381   -0.180642
      3          6           0       -2.544729    0.216634    0.434076
      4          6           0       -2.718999    1.728370    0.426724
      5          6           0        2.077641   -0.609482    0.914733
      6          6           0        3.172491    0.086836    0.035862
      7          1           0        1.916091    1.389029   -0.476820
      8          1           0        2.535331   -1.629631    1.151090
      9          1           0        1.884781   -0.053568    1.822210
     10          1           0        0.320520   -1.710011    0.475887
     11          1           0       -3.598098    1.957720    1.016760
     12          1           0       -1.914418    2.326860    0.813787
     13          1           0       -2.882758    2.186830   -0.562647
     14          1           0       -4.452409   -0.426239    0.612570
     15          1           0       -2.339009   -0.220063    1.409490
     16          1           0       -1.716969    0.016247   -1.493950
     17          1           0       -1.106390   -2.232140   -1.212500
     18          1           0       -2.504979   -2.072250   -0.495272
     19          7           0       -1.538519   -1.829720   -0.434218
     20          7           0        0.827122   -0.886389    0.137468
     21          8           0        0.145767    1.239569   -0.328875
     22          8           0       -3.771809   -0.445000   -0.093133
     23          8           0        4.300731   -0.328978    0.127614
     24          8           0        2.840491    1.138949   -0.705639
 ---------------------------------------------------------------------

 SCF Done:  E(RHF) =  -642.847296806     A.U. after    2 cycles

 The electronic state is 1-A.
 Alpha  occ. eigenvalues --  -20.60950 -20.59910 -20.57075 -20.55156 -15.67755
 Alpha  occ. eigenvalues --  -15.62463 -11.39647 -11.38531 -11.32912 -11.32186
 Alpha  occ. eigenvalues --  -11.29810 -11.24255  -1.41528  -1.39730  -1.33132
 Alpha  occ. eigenvalues --   -1.32146  -1.23871  -1.18711  -1.04923  -1.00788
 Alpha  occ. eigenvalues --   -0.94986  -0.86541  -0.82913  -0.80210  -0.75659
 Alpha  occ. eigenvalues --   -0.73968  -0.71377  -0.69853  -0.68917  -0.66687
 Alpha  occ. eigenvalues --   -0.65260  -0.63635  -0.62781  -0.61542  -0.59843
 Alpha  occ. eigenvalues --   -0.59571  -0.57715  -0.57056  -0.56248  -0.53918
 Alpha  occ. eigenvalues --   -0.50465  -0.49527  -0.48462  -0.47233  -0.47159
 Alpha  occ. eigenvalues --   -0.42962  -0.41815
 Alpha virt. eigenvalues --    0.02162   0.03176   0.03272   0.04079   0.05345
 Alpha virt. eigenvalues --    0.05892   0.06158   0.06353   0.07132   0.08334
 Alpha virt. eigenvalues --    0.08747   0.09310   0.10934   0.11564   0.11973

 Mulliken charges:
               1
     1  C    0.252365
     2  C    0.335130
     3  C    0.247989
     4  C    0.679061
     5  C    0.497109
     6  C    0.566131
     7  H    0.243648
     8  H   -0.039910
     9  H   -0.058599
    10  H    0.068904
    11  H   -0.093751
    12  H   -0.102640
    13  H    0.033971
    14  H    0.185784
    15  H   -0.107887
    16  H    0.110627
    17  H   -0.046172
    18  H    0.000952
    19  N   -0.114594
    20  N   -0.430875
    21  O   -0.626962
    22  O   -0.705455
    23  O   -0.447671
    24  O   -0.447154
 Sum of Mulliken charges =  -0.00000

 Dipole moment (field-independent basis, Debye):
    X=             -6.8250    Y=             -2.0756    Z=              2.9421  Tot=              7.7166

 Test job not archived.
 1\1\GINC-SE457\SP\RHF\Aug-CC-pVDZ\C6H12N2O4\OHZDE\08-Apr-2025\0\\#t hf
  aug-cc-pvdz iop(5/13=1,5/36=2,99/5=2) pseudo=read geom=check guess=(r
 ead,tcheck) scf=(maxcycle=1)\\title\\0,1\C,0,-1.46475,-0.380465,-0.461
 267\C,0,-0.0688818,0.0653816,-0.180642\C,0,-2.54473,0.216634,0.434076\
 C,0,-2.719,1.72837,0.426724\C,0,2.07764,-0.609481,0.914733\C,0,3.17249
 ,0.0868373,0.0358619\H,0,1.91609,1.38903,-0.47682\H,0,2.53533,-1.62963
 ,1.15109\H,0,1.88478,-0.053567,1.82221\H,0,0.320519,-1.71001,0.475887\
 H,0,-3.5981,1.95772,1.01676\H,0,-1.91442,2.32686,0.813787\H,0,-2.88276

 Normal termination of Gaussian 16 at Tue Apr  8 19:18:32 2025.
