 Gaussian 16, Revision C.01,

 ----------------------------------------------------------------------
 #t hf aug-cc-pvdz symm=none int=(grid=ultrafine) guess=(read,tcheck) s
 table=(opt,rrhf)
 ----------------------------------------------------------------------
 -----
 title
 -----
 Symbolic Z-matrix:
 Charge =  0 Multiplicity = 1

 SCF Done:  E(RHF) =  -538.523326628     A.U. after   16 cycles
 Normal termination of Gaussian 16 at Tue Apr  8 21:50:50 2025.
 Gaussian 16:  ES64L-G16RevC.01  3-Jul-2019

 ----------------------------------------------------------------------
 #t hf aug-cc-pvdz iop(5/13=1,5/36=2,99/5=2) pseudo=read geom=check gue
 ss=(read,tcheck) scf=(maxcycle=1)
 ----------------------------------------------------------------------
 -----
 title
 -----
 Structure from the checkpoint file:  "ANI1ccx_716_conf1_mol2.chk"
 Charge =  0 Multiplicity = 1

                         Standard orientation:
 ---------------------------------------------------------------------
 Center     Atomic      Atomic             Coordinates (Angstroms)
 Number     Number       Type             X           Y           Z
 ---------------------------------------------------------------------
      1          6           0       -0.752724    0.541143    0.546278
      2          6           0       -1.796131   -0.451027   -0.066609
      3          6           0        0.652287    0.123743    0.210497
      4          1           0       -1.321032    2.485969    0.874767
      5          1           0       -1.752982    1.879208   -0.559885
      6          1           0       -0.878833    0.424682    1.624590
      7          1           0       -0.580335   -1.914241    0.242627
      8          1           0        1.532438    1.971330   -0.395109
      9          7           0       -0.992076    1.901689    0.107419
     10          7           0        1.184059   -1.067090    0.304797
     11          7           0        2.477689   -0.924808   -0.051026
     12          7           0        2.741749    0.278925   -0.376619
     13          7           0        1.602248    0.966653   -0.221508
     14          8           0       -1.514840   -1.750791    0.003006
     15          8           0       -2.824601   -0.026419   -0.536684
 ---------------------------------------------------------------------

 SCF Done:  E(RHF) =  -538.679452962     A.U. after    2 cycles

 The electronic state is 1-A.
 Alpha  occ. eigenvalues --  -20.63890 -20.58591 -15.75498 -15.74121 -15.72802
 Alpha  occ. eigenvalues --  -15.68690 -15.65736 -11.42892 -11.36931 -11.35006
 Alpha  occ. eigenvalues --   -1.47506  -1.44149  -1.35309  -1.23830  -1.22625
 Alpha  occ. eigenvalues --   -1.17581  -1.00994  -0.90519  -0.88881  -0.86431
 Alpha  occ. eigenvalues --   -0.79279  -0.77493  -0.72367  -0.70147  -0.68914
 Alpha  occ. eigenvalues --   -0.67291  -0.64099  -0.62958  -0.58903  -0.58094
 Alpha  occ. eigenvalues --   -0.51804  -0.50140  -0.49500  -0.47686  -0.46753
 Alpha  occ. eigenvalues --   -0.45261  -0.42245
 Alpha virt. eigenvalues --    0.01756   0.03024   0.04430   0.04996   0.07086
 Alpha virt. eigenvalues --    0.08691   0.09234   0.10479   0.10726   0.12032
 Alpha virt. eigenvalues --    0.12944   0.13330   0.13529   0.13652   0.14422

 Mulliken charges:
               1
     1  C    0.209442
     2  C    0.716974
     3  C    0.842073
     4  H    0.073502
     5  H    0.121937
     6  H    0.138664
     7  H    0.241043
     8  H    0.015550
     9  N   -0.383356
    10  N   -0.446863
    11  N   -0.225475
    12  N   -0.178242
    13  N   -0.205436
    14  O   -0.458538
    15  O   -0.461275
 Sum of Mulliken charges =  -0.00000

 Dipole moment (field-independent basis, Debye):
    X=              0.0604    Y=              4.4797    Z=              2.2668  Tot=              5.0210

 Test job not archived.
 1\1\GINC-SE221\SP\RHF\Aug-CC-pVDZ\C3H5N5O2\OHZDE\08-Apr-2025\0\\#t hf
 aug-cc-pvdz iop(5/13=1,5/36=2,99/5=2) pseudo=read geom=check guess=(re
 ad,tcheck) scf=(maxcycle=1)\\title\\0,1\C,0,-0.752723,0.541144,0.54627
 8\C,0,-1.79613,-0.451025,-0.066609\C,0,0.652288,0.123743,0.210497\H,0,
 -1.32103,2.48597,0.874767\H,0,-1.75298,1.87921,-0.559885\H,0,-0.878832
 ,0.424683,1.62459\H,0,-0.580335,-1.91424,0.242627\H,0,1.53244,1.97133,
 -0.395109\N,0,-0.992074,1.90169,0.107419\N,0,1.18406,-1.06709,0.304797
 \N,0,2.47769,-0.924809,-0.0510261\N,0,2.74175,0.278924,-0.376619\N,0,1

 Normal termination of Gaussian 16 at Tue Apr  8 21:50:58 2025.
