 Gaussian 16, Revision C.01,

 ----------------------------------------------------------------------
 #t hf aug-cc-pvdz symm=none int=(grid=ultrafine) guess=(read,tcheck) s
 table=(opt,rrhf)
 ----------------------------------------------------------------------
 -----
 title
 -----
 Symbolic Z-matrix:
 Charge =  0 Multiplicity = 1

 SCF Done:  E(RHF) =  -849.473346446     A.U. after   14 cycles
 Normal termination of Gaussian 16 at Tue Apr  8 20:18:29 2025.
 Gaussian 16:  ES64L-G16RevC.01  3-Jul-2019

 ----------------------------------------------------------------------
 #t hf aug-cc-pvdz iop(5/13=1,5/36=2,99/5=2) pseudo=read geom=check gue
 ss=(read,tcheck) scf=(maxcycle=1)
 ----------------------------------------------------------------------
 -----
 title
 -----
 Structure from the checkpoint file:  "ANI1ccx_1611_conf4_mol1.chk"
 Charge =  0 Multiplicity = 1

                         Standard orientation:
 ---------------------------------------------------------------------
 Center     Atomic      Atomic             Coordinates (Angstroms)
 Number     Number       Type             X           Y           Z
 ---------------------------------------------------------------------
      1          6           0        2.021360    0.252105   -0.675401
      2          6           0        1.214280   -0.713757    0.120829
      3          6           0        3.489550   -0.099364   -0.552500
      4          6           0        4.007641    0.413156    0.783001
      5          6           0       -1.068550    0.304709   -0.729351
      6          6           0       -1.475169    1.458001    0.141749
      7          6           0       -2.375680   -0.410234   -1.165050
      8          6           0       -3.344440   -0.883412   -0.136285
      9          1           0       -1.256439    2.180421    1.897100
     10          1           0       -3.677120   -1.724168    1.582820
     11          1           0       -2.283910   -0.844051    1.708470
     12          1           0       -2.933900    0.269952   -1.826360
     13          1           0       -2.050860   -1.229819   -1.807640
     14          1           0       -0.551804    0.711772   -1.633510
     15          1           0       -0.621740   -1.399249    0.458193
     16          1           0        5.016970    0.037136    0.907451
     17          1           0        3.375280   -0.000147    1.584560
     18          1           0        4.004031    1.563769    0.878377
     19          1           0        3.232830   -1.884651    0.065694
     20          1           0        4.126190    0.333449   -1.331840
     21          1           0        1.725820    0.203600   -1.720700
     22          1           0        1.598641    1.888120    0.663112
     23          1           0        2.377861    2.272490   -0.793522
     24          7           0        1.712941    1.664170   -0.335081
     25          7           0       -0.153046   -0.662537   -0.078171
     26          7           0       -2.865230   -1.415299    1.091200
     27          8           0        1.701350   -1.478820    0.917733
     28          8           0        3.784850   -1.485421   -0.647368
     29          8           0       -2.125179    2.408301   -0.281179
     30          8           0       -4.536390   -0.984554   -0.424717
     31          8           0       -1.044439    1.364221    1.423050
 ---------------------------------------------------------------------

 SCF Done:  E(RHF) =  -849.731470475     A.U. after    2 cycles

 The electronic state is 1-A.
 Alpha  occ. eigenvalues --  -20.66122 -20.59188 -20.57226 -20.57097 -20.55631
 Alpha  occ. eigenvalues --  -15.67210 -15.66680 -15.64002 -11.43275 -11.39748
 Alpha  occ. eigenvalues --  -11.39635 -11.34541 -11.29715 -11.29208 -11.28595
 Alpha  occ. eigenvalues --  -11.22657  -1.45164  -1.39789  -1.36873  -1.34822
 Alpha  occ. eigenvalues --   -1.31155  -1.23106  -1.18974  -1.17701  -1.08423
 Alpha  occ. eigenvalues --   -1.02095  -0.97978  -0.96171  -0.87706  -0.85111
 Alpha  occ. eigenvalues --   -0.80612  -0.79709  -0.75702  -0.74918  -0.73908
 Alpha  occ. eigenvalues --   -0.72076  -0.70327  -0.68645  -0.68041  -0.67771
 Alpha  occ. eigenvalues --   -0.65704  -0.64982  -0.64413  -0.62972  -0.61624
 Alpha  occ. eigenvalues --   -0.61264  -0.60243  -0.58732  -0.57708  -0.56031
 Alpha  occ. eigenvalues --   -0.54314  -0.53661  -0.52468  -0.51882  -0.51525
 Alpha  occ. eigenvalues --   -0.50669  -0.47571  -0.46636  -0.45018  -0.44642
 Alpha  occ. eigenvalues --   -0.42395  -0.40364
 Alpha virt. eigenvalues --    0.02019   0.02615   0.03279   0.04109   0.04772
 Alpha virt. eigenvalues --    0.05233   0.05901   0.06312   0.06961   0.07437
 Alpha virt. eigenvalues --    0.07825   0.08165   0.08371   0.09002   0.10072

 Mulliken charges:
               1
     1  C    0.505866
     2  C    0.147288
     3  C    0.646436
     4  C    0.538130
     5  C   -0.396037
     6  C    1.099216
     7  C    0.653800
     8  C    0.548708
     9  H    0.244516
    10  H   -0.024253
    11  H    0.115711
    12  H    0.071655
    13  H    0.053914
    14  H    0.048189
    15  H    0.010073
    16  H   -0.104556
    17  H   -0.083490
    18  H    0.053566
    19  H    0.243700
    20  H   -0.236907
    21  H   -0.215054
    22  H    0.089995
    23  H   -0.007688
    24  N   -0.433420
    25  N   -0.282669
    26  N   -0.223295
    27  O   -0.587703
    28  O   -0.637336
    29  O   -0.581075
    30  O   -0.565121
    31  O   -0.692156
 Sum of Mulliken charges =  -0.00000

 Dipole moment (field-independent basis, Debye):
    X=              1.2123    Y=              2.8463    Z=              1.7192  Tot=              3.5393

 Test job not archived.
 1\1\GINC-SE044\SP\RHF\Aug-CC-pVDZ\C8H15N3O5\OHZDE\08-Apr-2025\0\\#t hf
  aug-cc-pvdz iop(5/13=1,5/36=2,99/5=2) pseudo=read geom=check guess=(r
 ead,tcheck) scf=(maxcycle=1)\\title\\0,1\C,0,2.02136,0.252105,-0.67540
 1\C,0,1.21428,-0.713757,0.120829\C,0,3.48955,-0.0993627,-0.5525\C,0,4.
 00764,0.413157,0.783001\C,0,-1.06855,0.304708,-0.729351\C,0,-1.47517,1
 .458,0.141749\C,0,-2.37568,-0.410235,-1.16505\C,0,-3.34444,-0.883413,-
 0.136285\H,0,-1.25644,2.18042,1.8971\H,0,-3.67712,-1.72417,1.58282\H,0
 ,-2.28391,-0.844052,1.70847\H,0,-2.9339,0.269951,-1.82636\H,0,-2.05086

 Normal termination of Gaussian 16 at Tue Apr  8 20:19:09 2025.
