 Gaussian 16, Revision C.01,

 ----------------------------------------------------------------------
 #t hf aug-cc-pvdz symm=none int=(grid=ultrafine) guess=(read,tcheck) s
 table=(opt,rrhf)
 ----------------------------------------------------------------------
 -----
 title
 -----
 Symbolic Z-matrix:
 Charge =  0 Multiplicity = 1

 SCF Done:  E(RHF) =  -380.221150057     A.U. after   11 cycles
 Normal termination of Gaussian 16 at Tue Apr  8 21:03:27 2025.
 Gaussian 16:  ES64L-G16RevC.01  3-Jul-2019

 ----------------------------------------------------------------------
 #t hf aug-cc-pvdz iop(5/13=1,5/36=2,99/5=2) pseudo=read geom=check gue
 ss=(read,tcheck) scf=(maxcycle=1)
 ----------------------------------------------------------------------
 -----
 title
 -----
 Structure from the checkpoint file:  "ANI1ccx_1843_conf57_mol1.chk"
 Charge =  0 Multiplicity = 1

                         Standard orientation:
 ---------------------------------------------------------------------
 Center     Atomic      Atomic             Coordinates (Angstroms)
 Number     Number       Type             X           Y           Z
 ---------------------------------------------------------------------
      1          1           0        1.191871    1.173779   -0.196181
      2          1           0        0.639414    2.644499   -0.096075
      3          1           0        1.525880   -0.770199   -0.214798
      4          1           0        2.546901   -0.238339    0.753669
      5          1           0        0.127297   -2.653510    0.096677
      6          1           0       -0.388820   -1.226200    0.624165
      7          1           0       -1.729629    0.132675    0.674407
      8          1           0       -0.560097    0.717829    1.412591
      9          1           0       -1.177659   -0.693477   -1.280749
     10          1           0       -1.012189    0.806578   -1.192949
     11          8           0        0.356154    1.708470   -0.009735
     12          8           0        2.299601   -0.136583   -0.211144
     13          8           0        0.111523   -1.684810   -0.104768
     14          8           0       -1.221719    0.010673    1.493111
     15          8           0       -1.690929    0.115547   -1.240059
 ---------------------------------------------------------------------

 SCF Done:  E(RHF) =  -380.345674084     A.U. after    2 cycles

 The electronic state is 1-A.
 Alpha  occ. eigenvalues --  -20.60299 -20.59149 -20.59057 -20.56702 -20.55973
 Alpha  occ. eigenvalues --   -1.34071  -1.31978  -1.31279  -1.29698  -1.29526
 Alpha  occ. eigenvalues --   -0.76281  -0.74285  -0.72262  -0.71882  -0.71792
 Alpha  occ. eigenvalues --   -0.65189  -0.63077  -0.61761  -0.60218  -0.57591
 Alpha  occ. eigenvalues --   -0.54616  -0.53939  -0.53013  -0.52331  -0.50574
 Alpha virt. eigenvalues --    0.02600   0.03980   0.05100   0.06915   0.07367
 Alpha virt. eigenvalues --    0.07755   0.08159   0.08843   0.09221   0.10607
 Alpha virt. eigenvalues --    0.16106   0.17637   0.19177   0.20639   0.21556

 Mulliken charges:
               1
     1  H    0.331102
     2  H    0.261085
     3  H    0.300948
     4  H    0.229600
     5  H    0.268547
     6  H    0.322167
     7  H    0.245492
     8  H    0.220318
     9  H    0.223635
    10  H    0.229056
    11  O   -0.623030
    12  O   -0.499224
    13  O   -0.647733
    14  O   -0.461649
    15  O   -0.400314
 Sum of Mulliken charges =   0.00000

 Dipole moment (field-independent basis, Debye):
    X=              2.6547    Y=             -0.4633    Z=              1.2420  Tot=              2.9672

 Test job not archived.
 1\1\GINC-SE044\SP\RHF\Aug-CC-pVDZ\H10O5\OHZDE\08-Apr-2025\0\\#t hf aug
 -cc-pvdz iop(5/13=1,5/36=2,99/5=2) pseudo=read geom=check guess=(read,
 tcheck) scf=(maxcycle=1)\\title\\0,1\H,0,1.19187,1.17378,-0.196182\H,0
 ,0.639413,2.6445,-0.0960762\H,0,1.52588,-0.770198,-0.214799\H,0,2.5469
 ,-0.238338,0.753668\H,0,0.127297,-2.65351,0.0966759\H,0,-0.38882,-1.22
 62,0.624164\H,0,-1.72963,0.132675,0.674406\H,0,-0.560098,0.717829,1.41
 259\H,0,-1.17766,-0.693477,-1.28075\H,0,-1.01219,0.806578,-1.19295\O,0
 ,0.356153,1.70847,-0.00973585\O,0,2.2996,-0.136582,-0.211145\O,0,0.111

 Normal termination of Gaussian 16 at Tue Apr  8 21:03:31 2025.
