 Gaussian 16, Revision C.01,

 ----------------------------------------------------------------------
 #t hf aug-cc-pvdz symm=none int=(grid=ultrafine) guess=(read,tcheck) s
 table=(opt,rrhf)
 ----------------------------------------------------------------------
 -----
 title
 -----
 Symbolic Z-matrix:
 Charge =  0 Multiplicity = 1

 SCF Done:  E(RHF) =  -982.049119376     A.U. after   15 cycles
 Normal termination of Gaussian 16 at Tue Apr  8 20:46:37 2025.
 Gaussian 16:  ES64L-G16RevC.01  3-Jul-2019

 ----------------------------------------------------------------------
 #t hf aug-cc-pvdz iop(5/13=1,5/36=2,99/5=2) pseudo=read geom=check gue
 ss=(read,tcheck) scf=(maxcycle=1)
 ----------------------------------------------------------------------
 -----
 title
 -----
 Structure from the checkpoint file:  "ANI1ccx_1743_conf33_mol1.chk"
 Charge =  0 Multiplicity = 1

                         Standard orientation:
 ---------------------------------------------------------------------
 Center     Atomic      Atomic             Coordinates (Angstroms)
 Number     Number       Type             X           Y           Z
 ---------------------------------------------------------------------
      1          6           0        1.612251    1.653789    0.418743
      2          6           0        0.342220    1.809699   -0.511680
      3          6           0        2.764711    1.194609   -0.528483
      4          6           0        2.770210   -0.234920   -1.055500
      5          6           0        2.799550   -1.137901    0.129758
      6          6           0       -0.897301   -0.349090    0.280946
      7          6           0       -1.164590   -1.471951   -0.725068
      8          6           0       -2.074000   -0.090822    1.315350
      9          6           0       -3.330750    0.363621    0.554213
     10          1           0        0.375008   -2.361831   -0.380945
     11          1           0       -5.227990    0.080535    0.801112
     12          1           0       -1.641540    0.689001    2.021650
     13          1           0       -2.183000   -0.996098    1.923560
     14          1           0       -0.125921   -0.596277    0.995588
     15          1           0       -1.340169    0.926048   -1.350800
     16          1           0        3.760830   -1.511862    1.675600
     17          1           0        3.699780   -0.455901   -1.710260
     18          1           0        1.770330   -0.389164   -1.517690
     19          1           0        2.711161    1.848639   -1.344200
     20          1           0        3.661311    1.371978    0.028137
     21          1           0        1.895551    2.714349    0.625521
     22          1           0        2.304330    0.439356    2.070260
     23          1           0        0.954141    1.426509    2.420860
     24          7           0        1.421190    0.867232    1.656810
     25          7           0       -0.615648    0.797270   -0.621328
     26          8           0        0.313758    2.785629   -1.206410
     27          8           0        2.023570   -2.043281    0.264065
     28          8           0        3.744060   -0.770359    1.070400
     29          8           0       -2.109980   -1.337890   -1.523860
     30          8           0       -3.297619    1.090750   -0.397467
     31          8           0       -4.411080   -0.314982    1.089300
     32          8           0       -0.411012   -2.567241   -0.893087
 ---------------------------------------------------------------------

 SCF Done:  E(RHF) =  -982.347495742     A.U. after    2 cycles

 The electronic state is 1-A.
 Alpha  occ. eigenvalues --  -20.66669 -20.62743 -20.61625 -20.61178 -20.57444
 Alpha  occ. eigenvalues --  -20.54257 -20.54115 -15.65163 -15.64746 -11.44171
 Alpha  occ. eigenvalues --  -11.41346 -11.39525 -11.37203 -11.31815 -11.31051
 Alpha  occ. eigenvalues --  -11.28855 -11.28388 -11.26204  -1.46602  -1.41923
 Alpha  occ. eigenvalues --   -1.41310  -1.37817  -1.36441  -1.34116  -1.29959
 Alpha  occ. eigenvalues --   -1.19555  -1.16822  -1.09532  -1.05341  -0.98515
 Alpha  occ. eigenvalues --   -0.94727  -0.88698  -0.85154  -0.84383  -0.82554
 Alpha  occ. eigenvalues --   -0.78649  -0.76767  -0.73907  -0.73388  -0.72782
 Alpha  occ. eigenvalues --   -0.71104  -0.69882  -0.68493  -0.67502  -0.66094
 Alpha  occ. eigenvalues --   -0.65600  -0.65075  -0.64008  -0.63538  -0.63279
 Alpha  occ. eigenvalues --   -0.62564  -0.60993  -0.59761  -0.59052  -0.57419
 Alpha  occ. eigenvalues --   -0.57026  -0.56018  -0.54980  -0.54271  -0.52701
 Alpha  occ. eigenvalues --   -0.51429  -0.51144  -0.49680  -0.47741  -0.47129
 Alpha  occ. eigenvalues --   -0.45386  -0.44375  -0.40282  -0.38966
 Alpha virt. eigenvalues --    0.01422   0.02693   0.03325   0.03789   0.04723
 Alpha virt. eigenvalues --    0.05503   0.06004   0.06302   0.06578   0.07745
 Alpha virt. eigenvalues --    0.08013   0.08781   0.09171   0.09736   0.10040

 Mulliken charges:
               1
     1  C    0.430998
     2  C    0.593343
     3  C    0.378507
     4  C    0.165060
     5  C    0.676841
     6  C    0.392081
     7  C    0.712153
     8  C    0.362751
     9  C    0.893898
    10  H    0.222939
    11  H    0.169658
    12  H    0.177130
    13  H   -0.182295
    14  H   -0.159649
    15  H    0.044508
    16  H    0.153147
    17  H    0.139452
    18  H   -0.012023
    19  H   -0.147887
    20  H   -0.122910
    21  H   -0.016472
    22  H    0.175527
    23  H    0.080029
    24  N   -0.749072
    25  N   -0.626287
    26  O   -0.558477
    27  O   -0.590193
    28  O   -0.587794
    29  O   -0.604663
    30  O   -0.454069
    31  O   -0.530784
    32  O   -0.425444
 Sum of Mulliken charges =  -0.00000

 Dipole moment (field-independent basis, Debye):
    X=              5.8002    Y=             -0.4391    Z=              7.3480  Tot=              9.3717

 Test job not archived.
 1\1\GINC-SE232\SP\RHF\Aug-CC-pVDZ\C9H14N2O7\OHZDE\08-Apr-2025\0\\#t hf
  aug-cc-pvdz iop(5/13=1,5/36=2,99/5=2) pseudo=read geom=check guess=(r
 ead,tcheck) scf=(maxcycle=1)\\title\\0,1\C,0,1.61225,1.65379,0.418743\
 C,0,0.342219,1.8097,-0.51168\C,0,2.76471,1.19461,-0.528483\C,0,2.77021
 ,-0.234919,-1.0555\C,0,2.79955,-1.1379,0.129758\C,0,-0.897301,-0.34908
 9,0.280946\C,0,-1.16459,-1.47195,-0.725068\C,0,-2.074,-0.0908219,1.315
 35\C,0,-3.33075,0.363621,0.554213\H,0,0.375008,-2.36183,-0.380945\H,0,
 -5.22799,0.0805344,0.801112\H,0,-1.64154,0.689001,2.02165\H,0,-2.183,-

 Normal termination of Gaussian 16 at Tue Apr  8 20:47:30 2025.
