 Gaussian 16, Revision C.01,

 ----------------------------------------------------------------------
 #t hf aug-cc-pvdz symm=none int=(grid=ultrafine) guess=(read,tcheck) s
 table=(opt,rrhf)
 ----------------------------------------------------------------------
 -----
 title
 -----
 Symbolic Z-matrix:
 Charge =  0 Multiplicity = 1

 SCF Done:  E(RHF) =  -1016.59008250     A.U. after   14 cycles
 Normal termination of Gaussian 16 at Tue Apr  8 22:38:21 2025.
 Gaussian 16:  ES64L-G16RevC.01  3-Jul-2019

 ----------------------------------------------------------------------
 #t hf aug-cc-pvdz iop(5/13=1,5/36=2,99/5=2) pseudo=read geom=check gue
 ss=(read,tcheck) scf=(maxcycle=1)
 ----------------------------------------------------------------------
 -----
 title
 -----
 Structure from the checkpoint file:  "ANI1ccx_89_conf1_mol1.chk"
 Charge =  0 Multiplicity = 1

                         Standard orientation:
 ---------------------------------------------------------------------
 Center     Atomic      Atomic             Coordinates (Angstroms)
 Number     Number       Type             X           Y           Z
 ---------------------------------------------------------------------
      1          6           0       -2.537780   -1.667349    0.774287
      2          6           0        3.046392    1.420608    0.497622
      3          6           0        1.610052    1.590129   -0.033729
      4          6           0        0.567549    1.733500    1.001960
      5          6           0       -1.017668    2.740751   -0.679334
      6          6           0        3.168820   -0.956695    0.211978
      7          6           0       -0.720406   -2.109180   -1.120240
      8          6           0       -1.357351   -2.511649    0.152045
      9          6           0       -1.921839   -0.356073    1.340310
     10          6           0       -0.953652    1.804761    0.595466
     11          1           0        1.596342    2.446079   -0.718651
     12          1           0       -1.308108    2.744491   -2.402690
     13          1           0        4.461861   -0.355003   -1.332690
     14          1           0        3.761210   -1.877372   -1.398850
     15          1           0        2.212380   -2.015621    1.605010
     16          1           0        3.033421   -0.075237    1.835780
     17          1           0        3.778292    1.799288   -0.253520
     18          1           0        3.351932    2.037588    1.300460
     19          1           0        1.510041    0.708799   -0.695702
     20          1           0        0.739832    2.639640    1.643950
     21          1           0        0.687192    0.872851    1.737720
     22          1           0       -1.426768    2.122431    1.472750
     23          1           0       -1.561319    0.148752   -0.595072
     24          1           0        1.090399   -2.607061   -0.319859
     25          1           0        1.149970   -1.969361   -1.808290
     26          1           0       -0.562363   -2.668430    0.938635
     27          1           0       -1.891411   -3.444199    0.040936
     28          1           0       -3.022790   -2.248578    1.568590
     29          1           0       -3.505430   -0.875983   -1.000190
     30          1           0       -4.462980   -0.844057    0.433899
     31          7           0        3.594130   -0.866222   -1.129280
     32          7           0        2.708010   -2.082582    0.682070
     33          7           0        3.322881    0.147444    0.954867
     34          7           0       -3.696850   -1.274948   -0.102841
     35          7           0        0.601656   -2.512510   -1.228930
     36          7           0       -1.575549    0.553518    0.361299
     37          8           0       -1.090067    3.960721   -0.788331
     38          8           0       -1.764849   -0.069404    2.531010
     39          8           0       -1.383440   -1.420089   -1.909280
     40          8           0       -1.213688    1.975681   -1.740240
 ---------------------------------------------------------------------

 SCF Done:  E(RHF) =  -1016.89363145     A.U. after    2 cycles

 The electronic state is 1-A.
 Alpha  occ. eigenvalues --  -20.64400 -20.57805 -20.55261 -20.53973 -15.67242
 Alpha  occ. eigenvalues --  -15.65700 -15.64091 -15.64034 -15.60891 -15.60848
 Alpha  occ. eigenvalues --  -11.41911 -11.38941 -11.38185 -11.36385 -11.30734
 Alpha  occ. eigenvalues --  -11.30693 -11.29137 -11.26820 -11.25889 -11.25223
 Alpha  occ. eigenvalues --   -1.45019  -1.35119  -1.34061  -1.32614  -1.31664
 Alpha  occ. eigenvalues --   -1.20757  -1.19653  -1.18489  -1.14655  -1.12705
 Alpha  occ. eigenvalues --   -1.07495  -1.03163  -1.00501  -0.93861  -0.90239
 Alpha  occ. eigenvalues --   -0.87140  -0.83720  -0.81395  -0.79316  -0.77389
 Alpha  occ. eigenvalues --   -0.75605  -0.74478  -0.71922  -0.71830  -0.70317
 Alpha  occ. eigenvalues --   -0.69393  -0.68306  -0.67678  -0.66718  -0.65110
 Alpha  occ. eigenvalues --   -0.64855  -0.63815  -0.63367  -0.63001  -0.61351
 Alpha  occ. eigenvalues --   -0.60947  -0.60627  -0.60101  -0.57623  -0.56749
 Alpha  occ. eigenvalues --   -0.55844  -0.55308  -0.53556  -0.52686  -0.51374
 Alpha  occ. eigenvalues --   -0.50758  -0.50257  -0.49257  -0.47754  -0.46047
 Alpha  occ. eigenvalues --   -0.45344  -0.44420  -0.43324  -0.42619  -0.39492
 Alpha  occ. eigenvalues --   -0.37540  -0.36236
 Alpha virt. eigenvalues --    0.01849   0.02827   0.03353   0.03688   0.04786
 Alpha virt. eigenvalues --    0.05018   0.05559   0.05847   0.06736   0.06875
 Alpha virt. eigenvalues --    0.07003   0.07792   0.07857   0.09018   0.09099

 Mulliken charges:
               1
     1  C    0.442098
     2  C    1.195424
     3  C    0.634378
     4  C   -0.475704
     5  C    0.984228
     6  C    0.371418
     7  C    0.735475
     8  C    0.176843
     9  C    0.611012
    10  C    0.379638
    11  H   -0.198663
    12  H    0.302750
    13  H   -0.013555
    14  H    0.131406
    15  H   -0.003153
    16  H   -0.096020
    17  H   -0.118761
    18  H   -0.435723
    19  H   -0.289800
    20  H   -0.052888
    21  H   -0.017294
    22  H   -0.313820
    23  H    0.098254
    24  H    0.221510
    25  H   -0.070871
    26  H   -0.130204
    27  H    0.057434
    28  H   -0.219354
    29  H    0.025339
    30  H    0.034686
    31  N   -0.346357
    32  N   -0.536929
    33  N    0.012094
    34  N   -0.240516
    35  N   -0.135919
    36  N   -0.162082
    37  O   -0.557278
    38  O   -0.627088
    39  O   -0.679205
    40  O   -0.692801
 Sum of Mulliken charges =   0.00000

 Dipole moment (field-independent basis, Debye):
    X=              5.2859    Y=             -0.1537    Z=             -0.4671  Tot=              5.3087

 Test job not archived.
 1\1\GINC-SE084\SP\RHF\Aug-CC-pVDZ\C10H20N6O4\OHZDE\08-Apr-2025\0\\#t h
 f aug-cc-pvdz iop(5/13=1,5/36=2,99/5=2) pseudo=read geom=check guess=(
 read,tcheck) scf=(maxcycle=1)\\title\\0,1\C,0,-2.53778,-1.66735,0.7742
 87\C,0,3.04639,1.42061,0.497622\C,0,1.61005,1.59013,-0.0337296\C,0,0.5
 67547,1.7335,1.00196\C,0,-1.01767,2.74075,-0.679334\C,0,3.16882,-0.956
 693,0.211978\C,0,-0.720406,-2.10918,-1.12024\C,0,-1.35735,-2.51165,0.1
 52045\C,0,-1.92184,-0.356074,1.34031\C,0,-0.953654,1.80476,0.595466\H,
 0,1.59634,2.44608,-0.718651\H,0,-1.30811,2.74449,-2.40269\H,0,4.46186,

 Normal termination of Gaussian 16 at Tue Apr  8 22:40:00 2025.
