 Gaussian 16, Revision C.01,

 ----------------------------------------------------------------------
 #t hf aug-cc-pvdz symm=none int=(grid=ultrafine) guess=(read,tcheck) s
 table=(opt,rrhf)
 ----------------------------------------------------------------------
 -----
 title
 -----
 Symbolic Z-matrix:
 Charge =  0 Multiplicity = 1

 SCF Done:  E(RHF) =  -541.260143978     A.U. after   15 cycles
 Normal termination of Gaussian 16 at Tue Apr  8 21:56:19 2025.
 Gaussian 16:  ES64L-G16RevC.01  3-Jul-2019

 ----------------------------------------------------------------------
 #t hf aug-cc-pvdz iop(5/13=1,5/36=2,99/5=2) pseudo=read geom=check gue
 ss=(read,tcheck) scf=(maxcycle=1)
 ----------------------------------------------------------------------
 -----
 title
 -----
 Structure from the checkpoint file:  "ANI1ccx_869_conf2_mol1.chk"
 Charge =  0 Multiplicity = 1

                         Standard orientation:
 ---------------------------------------------------------------------
 Center     Atomic      Atomic             Coordinates (Angstroms)
 Number     Number       Type             X           Y           Z
 ---------------------------------------------------------------------
      1          6           0        1.261829    0.152305   -0.041319
      2          6           0        0.317341    1.305480   -0.026403
      3          6           0       -1.710191   -0.146922   -0.009854
      4          6           0        0.589850   -1.155221   -0.041784
      5          1           0        2.766308   -0.772795    0.114699
      6          1           0       -1.646019    1.910362   -0.053664
      7          1           0       -1.213934   -2.093409    0.153346
      8          7           0        2.506819    0.185507   -0.005496
      9          7           0       -1.047390    1.054971   -0.072993
     10          7           0       -0.789778   -1.196239    0.039638
     11          8           0        0.751094    2.434049    0.073242
     12          8           0       -2.916942   -0.287378    0.021118
     13          8           0        1.247486   -2.182632    0.002355
 ---------------------------------------------------------------------

 SCF Done:  E(RHF) =  -541.423150963     A.U. after    2 cycles

 The electronic state is 1-A.
 Alpha  occ. eigenvalues --  -20.60570 -20.60185 -20.60063 -15.72775 -15.72488
 Alpha  occ. eigenvalues --  -15.69569 -11.46887 -11.43284 -11.43045 -11.35320
 Alpha  occ. eigenvalues --   -1.43776  -1.41322  -1.40695  -1.29400  -1.26614
 Alpha  occ. eigenvalues --   -1.23124  -1.02752  -0.93262  -0.91746  -0.83644
 Alpha  occ. eigenvalues --   -0.79736  -0.72554  -0.71851  -0.71430  -0.70855
 Alpha  occ. eigenvalues --   -0.69384  -0.66253  -0.62922  -0.61683  -0.54696
 Alpha  occ. eigenvalues --   -0.53571  -0.51726  -0.49648  -0.47875  -0.47669
 Alpha  occ. eigenvalues --   -0.47022
 Alpha virt. eigenvalues --    0.00072   0.03146   0.03871   0.04795   0.05639
 Alpha virt. eigenvalues --    0.08209   0.09002   0.09257   0.11567   0.12184
 Alpha virt. eigenvalues --    0.12545   0.12640   0.13124   0.13730   0.14031

 Mulliken charges:
               1
     1  C    0.298093
     2  C    0.688662
     3  C    0.706014
     4  C    0.919056
     5  H    0.079123
     6  H    0.048250
     7  H   -0.042724
     8  N   -0.367992
     9  N   -0.477130
    10  N   -0.462507
    11  O   -0.459765
    12  O   -0.416888
    13  O   -0.512191
 Sum of Mulliken charges =  -0.00000

 Dipole moment (field-independent basis, Debye):
    X=             -1.0334    Y=             -1.1460    Z=             -0.0901  Tot=              1.5457

 Test job not archived.
 1\1\GINC-SE097\SP\RHF\Aug-CC-pVDZ\C4H3N3O3\OHZDE\08-Apr-2025\0\\#t hf
 aug-cc-pvdz iop(5/13=1,5/36=2,99/5=2) pseudo=read geom=check guess=(re
 ad,tcheck) scf=(maxcycle=1)\\title\\0,1\C,0,1.26183,0.152307,-0.041318
 8\C,0,0.317341,1.30548,-0.0264027\C,0,-1.71019,-0.146924,-0.00985351\C
 ,0,0.589853,-1.15522,-0.0417837\H,0,2.76631,-0.772792,0.114699\H,0,-1.
 64602,1.91036,-0.0536636\H,0,-1.21393,-2.09341,0.153346\N,0,2.50682,0.
 18551,-0.00549565\N,0,-1.04739,1.05497,-0.0729929\N,0,-0.789775,-1.196
 24,0.0396375\O,0,0.751092,2.43405,0.0732423\O,0,-2.91694,-0.287381,0.0

 Normal termination of Gaussian 16 at Tue Apr  8 21:56:25 2025.
