 Gaussian 16, Revision C.01,

 ----------------------------------------------------------------------
 #t hf aug-cc-pvdz symm=none int=(grid=ultrafine) guess=(read,tcheck) s
 table=(opt,rrhf)
 ----------------------------------------------------------------------
 -----
 title
 -----
 Symbolic Z-matrix:
 Charge =  0 Multiplicity = 1

 SCF Done:  E(RHF) =  -853.772318205     A.U. after   14 cycles
 Normal termination of Gaussian 16 at Tue Apr  8 22:36:06 2025.
 Gaussian 16:  ES64L-G16RevC.01  3-Jul-2019

 ----------------------------------------------------------------------
 #t hf aug-cc-pvdz iop(5/13=1,5/36=2,99/5=2) pseudo=read geom=check gue
 ss=(read,tcheck) scf=(maxcycle=1)
 ----------------------------------------------------------------------
 -----
 title
 -----
 Structure from the checkpoint file:  "ANI1ccx_97_conf10_mol1.chk"
 Charge =  0 Multiplicity = 1

                         Standard orientation:
 ---------------------------------------------------------------------
 Center     Atomic      Atomic             Coordinates (Angstroms)
 Number     Number       Type             X           Y           Z
 ---------------------------------------------------------------------
      1          6           0        1.220531    1.522570   -1.099660
      2          6           0       -2.246999   -1.559220   -0.266331
      3          6           0       -2.580699    1.024210    0.751905
      4          6           0       -2.230089    0.014196   -0.496178
      5          6           0        3.832321   -0.913719    1.166600
      6          6           0       -3.652099   -1.965350    0.052599
      7          6           0        2.612481   -0.779088   -1.009700
      8          6           0        2.539891    0.804110   -0.800981
      9          6           0        0.102484    0.741715   -0.278822
     10          6           0        3.736961   -1.398019   -0.269959
     11          1           0        2.165051   -1.840340    2.075190
     12          1           0       -1.048709    0.432073    1.703510
     13          1           0       -3.698169   -3.076460    0.193252
     14          1           0       -3.973019   -1.490430    0.991169
     15          1           0       -4.363629   -1.707840   -0.695967
     16          1           0       -0.958142   -2.434780   -1.408750
     17          1           0       -1.560009   -1.871060    0.534025
     18          1           0       -2.989429    0.225338   -1.309990
     19          1           0       -0.918801    0.411535   -2.042290
     20          1           0        1.812521   -0.352075    1.498740
     21          1           0        4.654521   -1.155369   -0.825621
     22          1           0        4.520441   -1.537899    1.698830
     23          1           0        1.497051    3.138610    0.157113
     24          1           0        4.377551    0.093953    1.144220
     25          1           0        0.946712    1.394370   -2.157170
     26          1           0        2.742531    0.957059    0.276076
     27          1           0        0.378059    3.385420   -0.899297
     28          1           0        1.549341   -1.064740   -0.573181
     29          1           0        2.574461   -0.866102   -2.156100
     30          1           0        3.724731   -2.510089   -0.190476
     31          1           0        3.342901    1.290931   -1.335720
     32          7           0        1.322381    2.944770   -0.787358
     33          7           0        2.615301   -0.887138    1.999410
     34          7           0       -0.946024    0.407391   -1.048260
     35          8           0       -1.879119   -2.196270   -1.456010
     36          8           0        0.267804    0.387460    0.879551
     37          8           0       -3.332919    1.937410    0.659406
     38          8           0       -2.021549    0.668187    1.876930
 ---------------------------------------------------------------------

 SCF Done:  E(RHF) =  -854.031021192     A.U. after    2 cycles

 The electronic state is 1-A.
 Alpha  occ. eigenvalues --  -20.59875 -20.59585 -20.59557 -20.56632 -15.69371
 Alpha  occ. eigenvalues --  -15.64146 -15.60452 -11.41106 -11.40280 -11.32351
 Alpha  occ. eigenvalues --  -11.32093 -11.31513 -11.26802 -11.25986 -11.24971
 Alpha  occ. eigenvalues --  -11.24140 -11.23677  -1.43114  -1.40879  -1.36397
 Alpha  occ. eigenvalues --   -1.33115  -1.25442  -1.18993  -1.13722  -1.06734
 Alpha  occ. eigenvalues --   -1.05765  -1.00488  -0.97230  -0.90913  -0.87282
 Alpha  occ. eigenvalues --   -0.85330  -0.84344  -0.82318  -0.78052  -0.76754
 Alpha  occ. eigenvalues --   -0.75279  -0.73550  -0.70652  -0.68818  -0.67950
 Alpha  occ. eigenvalues --   -0.67714  -0.66290  -0.65271  -0.64908  -0.63230
 Alpha  occ. eigenvalues --   -0.62100  -0.61121  -0.60167  -0.58433  -0.57174
 Alpha  occ. eigenvalues --   -0.56778  -0.56242  -0.54896  -0.53710  -0.52591
 Alpha  occ. eigenvalues --   -0.52234  -0.50701  -0.50437  -0.50140  -0.49169
 Alpha  occ. eigenvalues --   -0.48420  -0.47762  -0.47269  -0.44711  -0.42138
 Alpha  occ. eigenvalues --   -0.41248  -0.37838
 Alpha virt. eigenvalues --    0.01929   0.02826   0.03308   0.03853   0.04615
 Alpha virt. eigenvalues --    0.04658   0.05379   0.05712   0.06227   0.06467
 Alpha virt. eigenvalues --    0.06849   0.07544   0.07934   0.08504   0.08928

 Mulliken charges:
               1
     1  C    0.594834
     2  C    0.492219
     3  C    0.820680
     4  C   -0.051636
     5  C    0.660713
     6  C    0.740247
     7  C    0.038466
     8  C    0.437364
     9  C    0.110250
    10  C    0.304180
    11  H    0.107476
    12  H    0.491892
    13  H   -0.014759
    14  H   -0.007288
    15  H   -0.096404
    16  H    0.169194
    17  H   -0.261868
    18  H   -0.219098
    19  H   -0.130961
    20  H    0.144105
    21  H   -0.040776
    22  H   -0.311842
    23  H   -0.073936
    24  H    0.123154
    25  H   -0.301173
    26  H   -0.311026
    27  H    0.079130
    28  H   -0.000789
    29  H   -0.039920
    30  H   -0.025375
    31  H   -0.160075
    32  N   -0.196685
    33  N   -0.495120
    34  N   -0.052236
    35  O   -0.593008
    36  O   -0.862980
    37  O   -0.505861
    38  O   -0.561089
 Sum of Mulliken charges =  -0.00000

 Dipole moment (field-independent basis, Debye):
    X=              2.4384    Y=             -2.6956    Z=             -4.7531  Tot=              5.9837

 Test job not archived.
 1\1\GINC-SE088\SP\RHF\Aug-CC-pVDZ\C10H21N3O4\OHZDE\08-Apr-2025\0\\#t h
 f aug-cc-pvdz iop(5/13=1,5/36=2,99/5=2) pseudo=read geom=check guess=(
 read,tcheck) scf=(maxcycle=1)\\title\\0,1\C,0,1.22053,1.52257,-1.09966
 \C,0,-2.247,-1.55922,-0.266331\C,0,-2.5807,1.02421,0.751905\C,0,-2.230
 09,0.0141962,-0.496178\C,0,3.83232,-0.91372,1.1666\C,0,-3.6521,-1.9653
 5,0.0525991\C,0,2.61248,-0.779088,-1.0097\C,0,2.53989,0.80411,-0.80098
 1\C,0,0.102483,0.741715,-0.278822\C,0,3.73696,-1.39802,-0.269959\H,0,2
 .16505,-1.84034,2.07519\H,0,-1.04871,0.432073,1.70351\H,0,-3.69817,-3.

 Normal termination of Gaussian 16 at Tue Apr  8 22:37:14 2025.
