 Gaussian 16, Revision C.01,

 ----------------------------------------------------------------------
 #t hf aug-cc-pvdz symm=none int=(grid=ultrafine) guess=(read,tcheck) s
 table=(opt,rrhf)
 ----------------------------------------------------------------------
 -----
 title
 -----
 Symbolic Z-matrix:
 Charge =  0 Multiplicity = 1

 SCF Done:  E(RHF) =  -923.684860008     A.U. after   14 cycles
 Normal termination of Gaussian 16 at Tue Apr  8 21:16:53 2025.
 Gaussian 16:  ES64L-G16RevC.01  3-Jul-2019

 ----------------------------------------------------------------------
 #t hf aug-cc-pvdz iop(5/13=1,5/36=2,99/5=2) pseudo=read geom=check gue
 ss=(read,tcheck) scf=(maxcycle=1)
 ----------------------------------------------------------------------
 -----
 title
 -----
 Structure from the checkpoint file:  "ANI1ccx_1787_conf11_mol2.chk"
 Charge =  0 Multiplicity = 1

                         Standard orientation:
 ---------------------------------------------------------------------
 Center     Atomic      Atomic             Coordinates (Angstroms)
 Number     Number       Type             X           Y           Z
 ---------------------------------------------------------------------
      1          6           0       -1.680060   -1.252139   -0.200741
      2          6           0        1.572333    2.343538    0.484415
      3          6           0        2.324742    1.470167   -0.538456
      4          6           0        1.550251    0.389271   -1.247970
      5          6           0       -0.870352    2.556410   -0.230863
      6          6           0        1.357660   -0.913478   -0.443343
      7          6           0       -3.147010   -0.954985   -0.024292
      8          6           0       -0.824793   -0.639362    0.918614
      9          6           0        2.683699   -1.594513   -0.092969
     10          1           0        2.675073    2.134537   -1.288800
     11          1           0        1.834249   -2.370302    1.584300
     12          1           0       -2.267087    2.136321    1.145360
     13          1           0       -0.786059    2.753110    1.816760
     14          1           0       -0.942605    2.051710   -2.012390
     15          1           0        0.541500    4.081789    0.163041
     16          1           0        1.199603    1.747248    1.363430
     17          1           0        2.387394    3.040417    0.824823
     18          1           0        3.187142    1.051726   -0.022891
     19          1           0        2.028461    0.080497   -2.168260
     20          1           0        0.550729    0.796323   -1.577250
     21          1           0       -1.537732   -3.082229    0.670291
     22          1           0       -1.417210   -0.825761   -1.193570
     23          1           0       -3.294489    0.140821   -0.086536
     24          1           0       -1.900672   -3.135659   -0.980318
     25          1           0       -4.762920   -1.401286   -1.030770
     26          1           0        1.074391   -0.275128    1.548760
     27          1           0        0.831244   -1.649142   -1.037490
     28          1           0       -3.542060   -1.314827    0.918066
     29          7           0       -1.360462   -2.682019   -0.249133
     30          7           0        0.554402   -0.665031    0.782225
     31          7           0        0.496736    3.148529   -0.251789
     32          7           0       -1.518617    2.055721   -1.180260
     33          7           0       -1.430517    2.701271    1.030400
     34          8           0        3.681389   -1.597054   -0.747903
     35          8           0       -1.370219   -0.196327    1.899710
     36          8           0       -3.819961   -1.584297   -1.101270
     37          8           0        2.652719   -2.409683    1.036580
 ---------------------------------------------------------------------

 SCF Done:  E(RHF) =  -923.962963826     A.U. after    2 cycles

 The electronic state is 1-A.
 Alpha  occ. eigenvalues --  -20.62133 -20.57985 -20.57632 -20.56259 -15.67101
 Alpha  occ. eigenvalues --  -15.64341 -15.63595 -15.62405 -15.60152 -11.41300
 Alpha  occ. eigenvalues --  -11.38726 -11.36576 -11.31959 -11.29901 -11.29008
 Alpha  occ. eigenvalues --  -11.28790 -11.25117 -11.24147  -1.41668  -1.38116
 Alpha  occ. eigenvalues --   -1.33286  -1.32909  -1.26086  -1.22276  -1.17054
 Alpha  occ. eigenvalues --   -1.14494  -1.12259  -1.07313  -1.00523  -0.99377
 Alpha  occ. eigenvalues --   -0.91781  -0.88610  -0.84198  -0.81478  -0.78617
 Alpha  occ. eigenvalues --   -0.78355  -0.75568  -0.74845  -0.73357  -0.69720
 Alpha  occ. eigenvalues --   -0.68881  -0.68377  -0.68290  -0.66510  -0.65569
 Alpha  occ. eigenvalues --   -0.65004  -0.63241  -0.62981  -0.62060  -0.61796
 Alpha  occ. eigenvalues --   -0.60489  -0.59693  -0.58941  -0.57674  -0.56593
 Alpha  occ. eigenvalues --   -0.54763  -0.53686  -0.52764  -0.51531  -0.50863
 Alpha  occ. eigenvalues --   -0.50328  -0.48684  -0.47302  -0.46759  -0.45527
 Alpha  occ. eigenvalues --   -0.43689  -0.41916  -0.40728  -0.40244  -0.37343
 Alpha virt. eigenvalues --    0.02361   0.02883   0.03356   0.03718   0.05003
 Alpha virt. eigenvalues --    0.05227   0.05313   0.06133   0.06844   0.07209
 Alpha virt. eigenvalues --    0.07367   0.08028   0.08144   0.08809   0.09313

 Mulliken charges:
               1
     1  C   -0.587175
     2  C    0.796005
     3  C    0.443037
     4  C    0.991058
     5  C    0.498236
     6  C   -0.154098
     7  C    1.636652
     8  C    0.896099
     9  C    0.871277
    10  H   -0.221030
    11  H    0.224660
    12  H    0.054655
    13  H    0.005593
    14  H    0.062746
    15  H   -0.018904
    16  H   -0.142495
    17  H   -0.052268
    18  H   -0.147041
    19  H   -0.165395
    20  H   -0.256547
    21  H    0.076780
    22  H   -0.138439
    23  H   -0.117433
    24  H    0.037668
    25  H    0.167073
    26  H   -0.083944
    27  H   -0.197298
    28  H   -0.180089
    29  N   -0.347227
    30  N   -0.477336
    31  N   -0.658740
    32  N   -0.329711
    33  N   -0.198498
    34  O   -0.465200
    35  O   -0.619942
    36  O   -0.643631
    37  O   -0.559099
 Sum of Mulliken charges =   0.00000

 Dipole moment (field-independent basis, Debye):
    X=             -2.2861    Y=              1.7017    Z=              1.9598  Tot=              3.4587

 Test job not archived.
 1\1\GINC-SE179\SP\RHF\Aug-CC-pVDZ\C9H19N5O4\OHZDE\08-Apr-2025\0\\#t hf
  aug-cc-pvdz iop(5/13=1,5/36=2,99/5=2) pseudo=read geom=check guess=(r
 ead,tcheck) scf=(maxcycle=1)\\title\\0,1\C,0,-1.68006,-1.25214,-0.2007
 41\C,0,1.57233,2.34354,0.484415\C,0,2.32474,1.47017,-0.538456\C,0,1.55
 025,0.389273,-1.24797\C,0,-0.870355,2.55641,-0.230863\C,0,1.35766,-0.9
 13476,-0.443343\C,0,-3.14701,-0.954987,-0.0242927\C,0,-0.824793,-0.639
 362,0.918614\C,0,2.6837,-1.59451,-0.0929698\H,0,2.67507,2.13454,-1.288
 8\H,0,1.83425,-2.3703,1.5843\H,0,-2.26709,2.13632,1.14536\H,0,-0.78606

 Normal termination of Gaussian 16 at Tue Apr  8 21:18:04 2025.
