 Gaussian 16, Revision C.01,

 ----------------------------------------------------------------------
 #t hf aug-cc-pvdz symm=none int=(grid=ultrafine) guess=(read,tcheck) s
 table=(opt,rrhf)
 ----------------------------------------------------------------------
 -----
 title
 -----
 Symbolic Z-matrix:
 Charge =  0 Multiplicity = 1

 SCF Done:  E(RHF) =  -484.002617182     A.U. after   16 cycles
 Normal termination of Gaussian 16 at Tue Apr  8 21:46:52 2025.
 Gaussian 16:  ES64L-G16RevC.01  3-Jul-2019

 ----------------------------------------------------------------------
 #t hf aug-cc-pvdz iop(5/13=1,5/36=2,99/5=2) pseudo=read geom=check gue
 ss=(read,tcheck) scf=(maxcycle=1)
 ----------------------------------------------------------------------
 -----
 title
 -----
 Structure from the checkpoint file:  "ANI1ccx_606_conf6_mol1.chk"
 Charge =  0 Multiplicity = 1

                         Standard orientation:
 ---------------------------------------------------------------------
 Center     Atomic      Atomic             Coordinates (Angstroms)
 Number     Number       Type             X           Y           Z
 ---------------------------------------------------------------------
      1          6           0       -1.245030   -0.292587   -0.152285
      2          6           0        1.158000   -0.406299    0.051953
      3          7           0       -1.134159    1.131651   -0.247883
      4          7           0       -0.021242    1.668561   -0.077812
      5          8           0       -2.253630   -0.954704    0.214552
      6          8           0        1.009671    0.828016    0.396428
      7          8           0        2.318570   -0.755704   -0.151535
      8          8           0        0.001637   -1.043629   -0.099212
 ---------------------------------------------------------------------

 SCF Done:  E(RHF) =  -484.151077559     A.U. after    2 cycles

 The electronic state is 1-A.
 Alpha  occ. eigenvalues --  -20.72422 -20.72389 -20.67004 -20.61248 -15.89618
 Alpha  occ. eigenvalues --  -15.80702 -11.53875 -11.51795  -1.59203  -1.47845
 Alpha  occ. eigenvalues --   -1.44225  -1.38815  -1.35257  -1.08551  -1.00600
 Alpha  occ. eigenvalues --   -0.91643  -0.82069  -0.80508  -0.75677  -0.71207
 Alpha  occ. eigenvalues --   -0.69702  -0.68329  -0.65209  -0.62967  -0.60260
 Alpha  occ. eigenvalues --   -0.55527  -0.55082  -0.52633  -0.51784
 Alpha virt. eigenvalues --   -0.02981   0.05317   0.06504   0.07168   0.07366
 Alpha virt. eigenvalues --    0.09077   0.10748   0.11296   0.11452   0.12951
 Alpha virt. eigenvalues --    0.14303   0.15339   0.16604   0.18721   0.19339

 Mulliken charges:
               1
     1  C    1.051641
     2  C    0.657096
     3  N   -0.180570
     4  N    0.227501
     5  O   -0.389080
     6  O   -0.456134
     7  O   -0.388941
     8  O   -0.521513
 Sum of Mulliken charges =  -0.00000

 Dipole moment (field-independent basis, Debye):
    X=             -1.3735    Y=              2.0336    Z=             -0.4339  Tot=              2.4921

 Test job not archived.
 1\1\GINC-SE250\SP\RHF\Aug-CC-pVDZ\C2N2O4\OHZDE\08-Apr-2025\0\\#t hf au
 g-cc-pvdz iop(5/13=1,5/36=2,99/5=2) pseudo=read geom=check guess=(read
 ,tcheck) scf=(maxcycle=1)\\title\\0,1\C,0,-1.24503,-0.292589,-0.152285
 \C,0,1.158,-0.406299,0.0519532\N,0,-1.13416,1.13165,-0.247883\N,0,-0.0
 212433,1.66856,-0.0778121\O,0,-2.25363,-0.954706,0.214552\O,0,1.00967,
 0.828016,0.396428\O,0,2.31857,-0.755704,-0.151535\O,0,0.00163661,-1.04
 363,-0.0992123\\Version=ES64L-G16RevC.01\State=1-A\HF=-484.1510776\RMS
 D=2.896e-03\Dipole=-0.5403722,0.8000983,-0.1707015\Quadrupole=-6.90517

 Normal termination of Gaussian 16 at Tue Apr  8 21:46:55 2025.
