 Gaussian 16, Revision C.01,

 ----------------------------------------------------------------------
 #t hf aug-cc-pvdz symm=none int=(grid=ultrafine) guess=(read,tcheck) s
 table=(opt,rrhf)
 ----------------------------------------------------------------------
 -----
 title
 -----
 Symbolic Z-matrix:
 Charge =  0 Multiplicity = 1

 SCF Done:  E(RHF) =  -792.017590254     A.U. after   14 cycles
 Normal termination of Gaussian 16 at Tue Apr  8 19:25:12 2025.
 Gaussian 16:  ES64L-G16RevC.01  3-Jul-2019

 ----------------------------------------------------------------------
 #t hf aug-cc-pvdz iop(5/13=1,5/36=2,99/5=2) pseudo=read geom=check gue
 ss=(read,tcheck) scf=(maxcycle=1)
 ----------------------------------------------------------------------
 -----
 title
 -----
 Structure from the checkpoint file:  "ANI1ccx_1216_conf3_mol1.chk"
 Charge =  0 Multiplicity = 1

                         Standard orientation:
 ---------------------------------------------------------------------
 Center     Atomic      Atomic             Coordinates (Angstroms)
 Number     Number       Type             X           Y           Z
 ---------------------------------------------------------------------
      1          6           0        1.728852    1.251377    0.505597
      2          6           0       -1.371787    1.559213   -0.611008
      3          6           0       -1.270072   -0.813235   -1.584330
      4          6           0        1.958878   -0.806690   -0.684235
      5          6           0        1.030308   -0.882938    1.631160
      6          6           0       -2.086251   -0.379339    0.690826
      7          1           0       -2.899620    0.219318    1.116850
      8          1           0       -2.329043   -1.444805    0.570507
      9          1           0        1.575346   -1.789492    1.800780
     10          1           0        1.056379   -0.248636    2.540230
     11          1           0        2.163876   -1.886133   -0.530735
     12          1           0        2.851859   -0.359205   -1.100840
     13          1           0       -2.064593   -1.613315   -1.602600
     14          1           0       -1.139106    1.844913   -1.640270
     15          1           0       -2.268626    2.065655   -0.303146
     16          1           0        1.702603    1.621957    1.566710
     17          1           0        2.709083    1.535415    0.088522
     18          1           0       -1.314471   -0.271899   -2.520910
     19          7           0       -1.619890    0.135424   -0.533941
     20          7           0        1.618770   -0.170135    0.522920
     21          8           0       -0.270453   -1.404559    1.591070
     22          8           0        0.865213    1.984819   -0.363612
     23          8           0       -0.401850    2.071302    0.273889
     24          8           0       -0.063236   -1.539499   -1.486090
     25          8           0        1.027109   -0.634046   -1.722910
     26          8           0       -1.153711   -0.353157    1.758150
 ---------------------------------------------------------------------

 SCF Done:  E(RHF) =  -792.266537965     A.U. after    2 cycles

 The electronic state is 1-A.
 Alpha  occ. eigenvalues --  -20.63549 -20.63401 -20.63245 -20.63062 -20.62744
 Alpha  occ. eigenvalues --  -20.62025 -15.63399 -15.62954 -11.33807 -11.33489
 Alpha  occ. eigenvalues --  -11.33005 -11.32954 -11.32927 -11.32521  -1.45906
 Alpha  occ. eigenvalues --   -1.44295  -1.43707  -1.28143  -1.23061  -1.22232
 Alpha  occ. eigenvalues --   -1.21149  -1.14309  -0.96752  -0.96400  -0.92253
 Alpha  occ. eigenvalues --   -0.92004  -0.83954  -0.82039  -0.75164  -0.74086
 Alpha  occ. eigenvalues --   -0.73125  -0.71774  -0.71552  -0.70375  -0.69347
 Alpha  occ. eigenvalues --   -0.69192  -0.66281  -0.64102  -0.62556  -0.61781
 Alpha  occ. eigenvalues --   -0.61159  -0.57308  -0.56656  -0.55622  -0.54934
 Alpha  occ. eigenvalues --   -0.52339  -0.51783  -0.51039  -0.50512  -0.49049
 Alpha  occ. eigenvalues --   -0.48433  -0.45095  -0.44466  -0.39791  -0.38816
 Alpha virt. eigenvalues --    0.03424   0.03847   0.04342   0.04433   0.05399
 Alpha virt. eigenvalues --    0.05469   0.06891   0.06914   0.07491   0.08018
 Alpha virt. eigenvalues --    0.08737   0.09218   0.09763   0.11076   0.12079

 Mulliken charges:
               1
     1  C    0.804318
     2  C    1.074378
     3  C    0.847321
     4  C    0.952804
     5  C    1.018435
     6  C    0.994942
     7  H   -0.286057
     8  H   -0.210238
     9  H   -0.417636
    10  H   -0.203146
    11  H   -0.181807
    12  H   -0.305007
    13  H   -0.162925
    14  H   -0.271919
    15  H   -0.342563
    16  H   -0.146614
    17  H   -0.255383
    18  H   -0.309567
    19  N    0.167719
    20  N    0.189001
    21  O   -0.494215
    22  O   -0.491030
    23  O   -0.482760
    24  O   -0.493690
    25  O   -0.486684
    26  O   -0.507678
 Sum of Mulliken charges =  -0.00000

 Dipole moment (field-independent basis, Debye):
    X=              0.0544    Y=             -0.2258    Z=             -0.2530  Tot=              0.3434

 Test job not archived.
 1\1\GINC-SE403\SP\RHF\Aug-CC-pVDZ\C6H12N2O6\OHZDE\08-Apr-2025\0\\#t hf
  aug-cc-pvdz iop(5/13=1,5/36=2,99/5=2) pseudo=read geom=check guess=(r
 ead,tcheck) scf=(maxcycle=1)\\title\\0,1\C,0,1.72885,1.25138,0.505597\
 C,0,-1.37179,1.55921,-0.611008\C,0,-1.27007,-0.813238,-1.58433\C,0,1.9
 5888,-0.806687,-0.684235\C,0,1.03031,-0.882937,1.63116\C,0,-2.08625,-0
 .379344,0.690826\H,0,-2.89962,0.219312,1.11685\H,0,-2.32904,-1.44481,0
 .570507\H,0,1.57535,-1.78949,1.80078\H,0,1.05638,-0.248635,2.54023\H,0
 ,2.16388,-1.88613,-0.530735\H,0,2.85186,-0.3592,-1.10084\H,0,-2.06459,

 Normal termination of Gaussian 16 at Tue Apr  8 19:25:39 2025.
