 Gaussian 16, Revision C.01,

 ----------------------------------------------------------------------
 #t hf aug-cc-pvdz symm=none int=(grid=ultrafine) guess=(read,tcheck) s
 table=(opt,rrhf)
 ----------------------------------------------------------------------
 -----
 title
 -----
 Symbolic Z-matrix:
 Charge =  0 Multiplicity = 1

 SCF Done:  E(RHF) =  -460.211285195     A.U. after   19 cycles
 Normal termination of Gaussian 16 at Tue Apr  8 21:20:36 2025.
 Gaussian 16:  ES64L-G16RevC.01  3-Jul-2019

 ----------------------------------------------------------------------
 #t hf aug-cc-pvdz iop(5/13=1,5/36=2,99/5=2) pseudo=read geom=check gue
 ss=(read,tcheck) scf=(maxcycle=1)
 ----------------------------------------------------------------------
 -----
 title
 -----
 Structure from the checkpoint file:  "ANI1ccx_373_conf27_mol1.chk"
 Charge =  0 Multiplicity = 1

                         Standard orientation:
 ---------------------------------------------------------------------
 Center     Atomic      Atomic             Coordinates (Angstroms)
 Number     Number       Type             X           Y           Z
 ---------------------------------------------------------------------
      1          6           0        0.016335    0.124067   -0.093207
      2          1           0        2.784839   -1.231494    0.207103
      3          7           0       -1.396240   -0.048890   -0.146351
      4          7           0        0.852077    1.223989   -0.247976
      5          7           0        2.035841    0.670325   -0.068144
      6          7           0        1.908260   -0.616868    0.165119
      7          7           0        0.756991   -1.061961    0.181027
      8          8           0       -2.082078    1.011563    0.359127
      9          8           0       -1.915591   -1.096447   -0.213325
 ---------------------------------------------------------------------

 SCF Done:  E(RHF) =  -460.341523169     A.U. after    2 cycles

 The electronic state is 1-A.
 Alpha  occ. eigenvalues --  -20.68256 -20.60618 -15.94422 -15.84154 -15.77351
 Alpha  occ. eigenvalues --  -15.76601 -15.76101 -11.41917  -1.59007  -1.53096
 Alpha  occ. eigenvalues --   -1.32523  -1.30227  -1.20361  -1.06418  -0.94731
 Alpha  occ. eigenvalues --   -0.88095  -0.83275  -0.78320  -0.76250  -0.73794
 Alpha  occ. eigenvalues --   -0.71991  -0.62012  -0.56328  -0.53777  -0.52100
 Alpha  occ. eigenvalues --   -0.51377  -0.50206  -0.47552  -0.43221
 Alpha virt. eigenvalues --    0.00232   0.01073   0.06769   0.07702   0.08455
 Alpha virt. eigenvalues --    0.09073   0.11187   0.11779   0.12486   0.14460
 Alpha virt. eigenvalues --    0.14881   0.15918   0.17191   0.18130   0.18480

 Mulliken charges:
               1
     1  C    1.233681
     2  H    0.146000
     3  N    0.383133
     4  N   -0.287644
     5  N   -0.213608
     6  N    0.307921
     7  N   -0.516424
     8  O   -0.632367
     9  O   -0.420693
 Sum of Mulliken charges =  -0.00000

 Dipole moment (field-independent basis, Debye):
    X=              5.8086    Y=             -3.3394    Z=             -0.4433  Tot=              6.7148

 Test job not archived.
 1\1\GINC-SE229\SP\RHF\Aug-CC-pVDZ\C1H1N5O2\OHZDE\08-Apr-2025\0\\#t hf
 aug-cc-pvdz iop(5/13=1,5/36=2,99/5=2) pseudo=read geom=check guess=(re
 ad,tcheck) scf=(maxcycle=1)\\title\\0,1\C,0,0.0163343,0.124067,-0.0932
 069\H,0,2.78484,-1.23149,0.207103\N,0,-1.39624,-0.0488921,-0.146351\N,
 0,0.852075,1.22399,-0.247976\N,0,2.03584,0.670328,-0.068144\N,0,1.9082
 6,-0.616865,0.165119\N,0,0.756992,-1.06196,0.181027\O,0,-2.08208,1.011
 56,0.359127\O,0,-1.91559,-1.09645,-0.213325\\Version=ES64L-G16RevC.01\
 State=1-A\HF=-460.3415232\RMSD=3.510e-03\Dipole=2.285293,-1.3138123,-0

 Normal termination of Gaussian 16 at Tue Apr  8 21:20:41 2025.
