 Gaussian 16, Revision C.01,

 ----------------------------------------------------------------------
 #t hf aug-cc-pvdz symm=none int=(grid=ultrafine) guess=(read,tcheck) s
 table=(opt,rrhf)
 ----------------------------------------------------------------------
 -----
 title
 -----
 Symbolic Z-matrix:
 Charge =  0 Multiplicity = 1

 SCF Done:  E(RHF) =  -1021.09948212     A.U. after   14 cycles
 Normal termination of Gaussian 16 at Tue Apr  8 22:07:15 2025.
 Gaussian 16:  ES64L-G16RevC.01  3-Jul-2019

 ----------------------------------------------------------------------
 #t hf aug-cc-pvdz iop(5/13=1,5/36=2,99/5=2) pseudo=read geom=check gue
 ss=(read,tcheck) scf=(maxcycle=1)
 ----------------------------------------------------------------------
 -----
 title
 -----
 Structure from the checkpoint file:  "ANI1ccx_54_conf9_mol1.chk"
 Charge =  0 Multiplicity = 1

                         Standard orientation:
 ---------------------------------------------------------------------
 Center     Atomic      Atomic             Coordinates (Angstroms)
 Number     Number       Type             X           Y           Z
 ---------------------------------------------------------------------
      1          6           0        1.424140   -0.650192    1.240510
      2          6           0       -4.316670   -0.445380   -0.530929
      3          6           0       -2.076630   -0.640759    0.765885
      4          6           0       -1.203570    1.772290    0.472739
      5          6           0       -1.265780    0.309338   -0.203023
      6          6           0       -3.180420   -1.331130   -0.031549
      7          6           0        3.806040   -0.102257    0.563551
      8          6           0        2.497060    0.475852    1.200800
      9          6           0        0.995406   -1.026440   -0.199018
     10          6           0        4.035410    0.538795   -0.785745
     11          1           0       -1.922070    0.524528   -1.033360
     12          1           0       -3.100400    1.906950    0.164452
     13          1           0       -5.971850   -0.310370   -1.195650
     14          1           0       -2.836270   -1.901350   -0.926021
     15          1           0       -3.698190   -2.113270    0.543956
     16          1           0       -2.561240   -0.136816    1.615180
     17          1           0       -1.405230   -1.364010    1.224900
     18          1           0       -0.216965   -0.698483   -1.647550
     19          1           0        4.967740    0.371995   -2.394840
     20          1           0        4.695060   -0.094080    1.147830
     21          1           0        3.680730   -1.163731    0.304976
     22          1           0        2.541200    0.915007    2.209270
     23          1           0        2.040570    1.279310    0.652350
     24          1           0        0.603142   -0.194061    1.884040
     25          1           0        1.230110   -2.338020    2.413080
     26          1           0        1.988990   -2.631130    1.080740
     27          7           0        1.910220   -1.936050    1.847460
     28          7           0       -0.052048   -0.305348   -0.730716
     29          8           0        1.558880   -1.904460   -0.826005
     30          8           0        3.431870    1.510349   -1.192150
     31          8           0        4.914930   -0.152804   -1.558940
     32          8           0       -0.078887    2.260080    0.713707
     33          8           0       -4.215310    0.796764   -0.493974
     34          8           0       -5.420690   -1.060520   -0.930268
     35          8           0       -2.357350    2.330170    0.685137
 ---------------------------------------------------------------------

 SCF Done:  E(RHF) =  -1021.40944832     A.U. after    2 cycles

 The electronic state is 1-A.
 Alpha  occ. eigenvalues --  -20.68994 -20.63014 -20.62029 -20.61171 -20.55707
 Alpha  occ. eigenvalues --  -20.55532 -20.54587 -15.66395 -15.60184 -11.46527
 Alpha  occ. eigenvalues --  -11.41066 -11.38185 -11.37802 -11.33351 -11.30724
 Alpha  occ. eigenvalues --  -11.29058 -11.28639 -11.23659 -11.22508  -1.49024
 Alpha  occ. eigenvalues --   -1.42680  -1.40304  -1.37459  -1.36946  -1.30884
 Alpha  occ. eigenvalues --   -1.30467  -1.21679  -1.15145  -1.11189  -1.04200
 Alpha  occ. eigenvalues --   -1.01674  -0.96125  -0.93056  -0.87739  -0.85696
 Alpha  occ. eigenvalues --   -0.85076  -0.79952  -0.78670  -0.77085  -0.74828
 Alpha  occ. eigenvalues --   -0.72831  -0.72355  -0.71232  -0.69963  -0.69095
 Alpha  occ. eigenvalues --   -0.68301  -0.67130  -0.66024  -0.65763  -0.65066
 Alpha  occ. eigenvalues --   -0.63989  -0.63313  -0.61422  -0.60323  -0.59178
 Alpha  occ. eigenvalues --   -0.58377  -0.57527  -0.56528  -0.56340  -0.55270
 Alpha  occ. eigenvalues --   -0.54735  -0.54052  -0.51760  -0.51177  -0.49631
 Alpha  occ. eigenvalues --   -0.48886  -0.48234  -0.47445  -0.45623  -0.45196
 Alpha  occ. eigenvalues --   -0.44723  -0.40760  -0.38555
 Alpha virt. eigenvalues --    0.01328   0.02560   0.03319   0.04224   0.04559
 Alpha virt. eigenvalues --    0.05032   0.05798   0.06185   0.06476   0.06851
 Alpha virt. eigenvalues --    0.07625   0.08143   0.08577   0.09172   0.09317

 Mulliken charges:
               1
     1  C   -0.325821
     2  C    0.501887
     3  C    0.927536
     4  C    0.643858
     5  C    0.386411
     6  C    0.238684
     7  C    0.565996
     8  C    0.747746
     9  C    0.985667
    10  C    0.476857
    11  H   -0.382650
    12  H    0.304361
    13  H    0.202457
    14  H    0.030245
    15  H   -0.039368
    16  H   -0.230871
    17  H   -0.331441
    18  H   -0.052615
    19  H    0.187451
    20  H   -0.173348
    21  H    0.051612
    22  H   -0.071548
    23  H   -0.110278
    24  H   -0.132186
    25  H   -0.159981
    26  H    0.128675
    27  N   -0.180820
    28  N   -0.441028
    29  O   -0.625822
    30  O   -0.513412
    31  O   -0.535769
    32  O   -0.510354
    33  O   -0.626932
    34  O   -0.463003
    35  O   -0.472197
 Sum of Mulliken charges =   0.00000

 Dipole moment (field-independent basis, Debye):
    X=             -8.3008    Y=             -4.4728    Z=             -0.5786  Tot=              9.4469

 Test job not archived.
 1\1\GINC-SE226\SP\RHF\Aug-CC-pVDZ\C10H16N2O7\OHZDE\08-Apr-2025\0\\#t h
 f aug-cc-pvdz iop(5/13=1,5/36=2,99/5=2) pseudo=read geom=check guess=(
 read,tcheck) scf=(maxcycle=1)\\title\\0,1\C,0,1.42414,-0.650192,1.2405
 1\C,0,-4.31667,-0.44538,-0.530929\C,0,-2.07663,-0.640759,0.765885\C,0,
 -1.20357,1.77229,0.472739\C,0,-1.26578,0.309338,-0.203023\C,0,-3.18042
 ,-1.33113,-0.0315497\C,0,3.80604,-0.102256,0.563551\C,0,2.49706,0.4758
 53,1.2008\C,0,0.995406,-1.02644,-0.199018\C,0,4.03541,0.538796,-0.7857
 45\H,0,-1.92207,0.524528,-1.03336\H,0,-3.1004,1.90695,0.164452\H,0,-5.

 Normal termination of Gaussian 16 at Tue Apr  8 22:08:16 2025.
