 Gaussian 16, Revision C.01,

 ----------------------------------------------------------------------
 #t hf aug-cc-pvdz symm=none int=(grid=ultrafine) guess=(read,tcheck) s
 table=(opt,rrhf)
 ----------------------------------------------------------------------
 -----
 title
 -----
 Symbolic Z-matrix:
 Charge =  0 Multiplicity = 1

 SCF Done:  E(RHF) =  -981.398242970     A.U. after   15 cycles
 Normal termination of Gaussian 16 at Tue Apr  8 22:23:36 2025.
 Gaussian 16:  ES64L-G16RevC.01  3-Jul-2019

 ----------------------------------------------------------------------
 #t hf aug-cc-pvdz iop(5/13=1,5/36=2,99/5=2) pseudo=read geom=check gue
 ss=(read,tcheck) scf=(maxcycle=1)
 ----------------------------------------------------------------------
 -----
 title
 -----
 Structure from the checkpoint file:  "ANI1ccx_69_conf10_mol1.chk"
 Charge =  0 Multiplicity = 1

                         Standard orientation:
 ---------------------------------------------------------------------
 Center     Atomic      Atomic             Coordinates (Angstroms)
 Number     Number       Type             X           Y           Z
 ---------------------------------------------------------------------
      1          6           0        2.675510   -0.758653    0.324490
      2          6           0       -2.426810    0.801727    1.198410
      3          6           0       -2.109430   -0.595038    1.645900
      4          6           0       -1.343130   -1.283230   -0.692040
      5          6           0       -0.988980   -1.308730    0.866873
      6          6           0       -3.237099    0.968973   -0.135095
      7          6           0        1.845951    1.193569   -1.149990
      8          6           0        3.006030    0.156333   -0.875354
      9          6           0        1.295369   -1.425251    0.370790
     10          6           0        1.858131    2.126359    0.024062
     11          1           0       -0.842205   -2.303330    1.251660
     12          1           0       -0.701076   -0.619132   -2.225780
     13          1           0       -5.070890    0.554590    0.891086
     14          1           0       -5.200730    0.878647   -0.814623
     15          1           0       -2.936489    1.281901    2.042360
     16          1           0       -1.391199    1.374580    0.967699
     17          1           0       -1.678130   -0.511656    2.649700
     18          1           0       -3.000860   -1.255369    1.758200
     19          1           0        0.365942    0.291820    0.983043
     20          1           0        3.005162    3.694508    0.755882
     21          1           0        3.260662    3.357568   -0.912362
     22          1           0        0.921621    0.659794   -1.237000
     23          1           0        1.946921    1.847739   -2.006500
     24          1           0        3.132600   -0.560593   -1.645850
     25          1           0        3.857160    0.685308   -0.630843
     26          1           0        2.777420   -0.120389    1.172350
     27          1           0        3.866289   -2.361792    1.351260
     28          1           0        3.483279   -2.469572   -0.290887
     29          7           0       -4.624070    0.835428    0.043880
     30          7           0        0.266535   -0.727348    0.990450
     31          7           0        3.783969   -1.862902    0.420285
     32          7           0        3.002331    2.978218    0.057968
     33          8           0       -2.870759    1.283771   -1.241190
     34          8           0        1.063659   -2.537241   -0.079043
     35          8           0        1.069351    2.114339    1.012670
     36          8           0       -2.026101   -1.945460   -1.430480
     37          8           0       -0.517410   -0.446002   -1.276420
 ---------------------------------------------------------------------

 SCF Done:  E(RHF) =  -981.694345147     A.U. after    2 cycles

 The electronic state is 1-A.
 Alpha  occ. eigenvalues --  -20.61000 -20.57221 -20.55025 -20.54651 -20.54370
 Alpha  occ. eigenvalues --  -15.67133 -15.64085 -15.63792 -15.61556 -11.39996
 Alpha  occ. eigenvalues --  -11.38572 -11.37545 -11.36723 -11.29883 -11.29054
 Alpha  occ. eigenvalues --  -11.27508 -11.26557 -11.25841 -11.25592  -1.44165
 Alpha  occ. eigenvalues --   -1.36060  -1.35721  -1.34949  -1.30991  -1.21837
 Alpha  occ. eigenvalues --   -1.18001  -1.15580  -1.14488  -1.07703  -1.06484
 Alpha  occ. eigenvalues --   -0.98734  -0.95536  -0.89200  -0.87391  -0.81938
 Alpha  occ. eigenvalues --   -0.80247  -0.78534  -0.77510  -0.74385  -0.72103
 Alpha  occ. eigenvalues --   -0.71585  -0.71177  -0.69804  -0.68210  -0.67804
 Alpha  occ. eigenvalues --   -0.66318  -0.65658  -0.65011  -0.63521  -0.63320
 Alpha  occ. eigenvalues --   -0.62511  -0.61041  -0.60036  -0.59884  -0.58430
 Alpha  occ. eigenvalues --   -0.57739  -0.56588  -0.55441  -0.54249  -0.52864
 Alpha  occ. eigenvalues --   -0.51328  -0.50942  -0.50654  -0.49554  -0.48488
 Alpha  occ. eigenvalues --   -0.47129  -0.46357  -0.44930  -0.44097  -0.43500
 Alpha  occ. eigenvalues --   -0.41039  -0.39721  -0.39337
 Alpha virt. eigenvalues --    0.02202   0.02741   0.03492   0.03988   0.04525
 Alpha virt. eigenvalues --    0.04934   0.05252   0.05877   0.06187   0.06845
 Alpha virt. eigenvalues --    0.07602   0.07846   0.08213   0.09047   0.09224

 Mulliken charges:
               1
     1  C    0.223982
     2  C    0.333993
     3  C    0.391965
     4  C    0.843890
     5  C   -0.226572
     6  C    0.673217
     7  C    1.271469
     8  C    0.764932
     9  C    0.604584
    10  C    0.553574
    11  H   -0.329334
    12  H    0.231353
    13  H   -0.061539
    14  H    0.005011
    15  H   -0.147185
    16  H    0.229387
    17  H    0.042220
    18  H   -0.136818
    19  H   -0.060705
    20  H   -0.062114
    21  H    0.137643
    22  H   -0.549802
    23  H   -0.133989
    24  H   -0.149025
    25  H   -0.200026
    26  H   -0.323532
    27  H    0.052639
    28  H    0.026732
    29  N   -0.246674
    30  N    0.052336
    31  N   -0.377893
    32  N   -0.358609
    33  O   -0.563533
    34  O   -0.686989
    35  O   -0.683613
    36  O   -0.581749
    37  O   -0.559224
 Sum of Mulliken charges =  -0.00000

 Dipole moment (field-independent basis, Debye):
    X=              0.8866    Y=              4.4395    Z=              2.4396  Tot=              5.1426

 Test job not archived.
 1\1\GINC-SE455\SP\RHF\Aug-CC-pVDZ\C10H18N4O5\OHZDE\08-Apr-2025\0\\#t h
 f aug-cc-pvdz iop(5/13=1,5/36=2,99/5=2) pseudo=read geom=check guess=(
 read,tcheck) scf=(maxcycle=1)\\title\\0,1\C,0,2.67551,-0.758651,0.3244
 9\C,0,-2.42681,0.801726,1.19841\C,0,-2.10943,-0.595038,1.6459\C,0,-1.3
 4313,-1.28323,-0.69204\C,0,-0.98898,-1.30873,0.866873\C,0,-3.2371,0.96
 8972,-0.135095\C,0,1.84595,1.19357,-1.14999\C,0,3.00603,0.156335,-0.87
 5354\C,0,1.29537,-1.42525,0.37079\C,0,1.85813,2.12636,0.0240627\H,0,-0
 .842204,-2.30333,1.25166\H,0,-0.701076,-0.619132,-2.22578\H,0,-5.07089

 Normal termination of Gaussian 16 at Tue Apr  8 22:24:44 2025.
