 Gaussian 16, Revision C.01,

 ----------------------------------------------------------------------
 #t hf aug-cc-pvdz symm=none int=(grid=ultrafine) guess=(read,tcheck) s
 table=(opt,rrhf)
 ----------------------------------------------------------------------
 -----
 title
 -----
 Symbolic Z-matrix:
 Charge =  0 Multiplicity = 1

 SCF Done:  E(RHF) =  -598.342084964     A.U. after   16 cycles
 Normal termination of Gaussian 16 at Tue Apr  8 19:21:39 2025.
 Gaussian 16:  ES64L-G16RevC.01  3-Jul-2019

 ----------------------------------------------------------------------
 #t hf aug-cc-pvdz iop(5/13=1,5/36=2,99/5=2) pseudo=read geom=check gue
 ss=(read,tcheck) scf=(maxcycle=1)
 ----------------------------------------------------------------------
 -----
 title
 -----
 Structure from the checkpoint file:  "ANI1ccx_1320_conf7_mol1.chk"
 Charge =  0 Multiplicity = 1

                         Standard orientation:
 ---------------------------------------------------------------------
 Center     Atomic      Atomic             Coordinates (Angstroms)
 Number     Number       Type             X           Y           Z
 ---------------------------------------------------------------------
      1          6           0        1.524151   -2.203578    0.180361
      2          6           0       -0.416579   -0.775271   -0.038168
      3          6           0       -2.482050   -1.227402   -0.121151
      4          6           0       -1.084531    0.432905    0.082830
      5          6           0       -0.286671    1.723670    0.041970
      6          6           0        1.771279    0.232193   -0.055996
      7          1           0        1.715867    2.274112   -0.161130
      8          1           0       -3.227971    0.747442   -0.041250
      9          1           0       -3.385479   -1.803222   -0.209981
     10          1           0        2.189461   -2.286778   -0.655856
     11          1           0        0.733510   -2.976009    0.145474
     12          1           0        2.105571   -2.292858    1.124380
     13          7           0        0.930267   -0.860721    0.093975
     14          7           0       -1.286989   -1.788291   -0.165170
     15          7           0       -2.428011    0.130260    0.110670
     16          7           0        1.072598    1.489811   -0.121483
     17          8           0       -0.737789    2.844450    0.093670
     18          8           0        2.950339    0.211149   -0.114501
 ---------------------------------------------------------------------

 SCF Done:  E(RHF) =  -598.521163821     A.U. after    2 cycles

 The electronic state is 1-A.
 Alpha  occ. eigenvalues --  -20.56521 -20.55481 -15.72197 -15.68994 -15.68246
 Alpha  occ. eigenvalues --  -15.64693 -11.42639 -11.40018 -11.35620 -11.34043
 Alpha  occ. eigenvalues --  -11.29246 -11.28556  -1.41263  -1.37207  -1.35076
 Alpha  occ. eigenvalues --   -1.27168  -1.20552  -1.16867  -1.04515  -0.96981
 Alpha  occ. eigenvalues --   -0.91315  -0.88183  -0.83959  -0.80377  -0.75744
 Alpha  occ. eigenvalues --   -0.70985  -0.69993  -0.69068  -0.66788  -0.65452
 Alpha  occ. eigenvalues --   -0.64121  -0.62744  -0.60775  -0.60544  -0.57012
 Alpha  occ. eigenvalues --   -0.56708  -0.50770  -0.48828  -0.47790  -0.45204
 Alpha  occ. eigenvalues --   -0.43843  -0.41609  -0.32054
 Alpha virt. eigenvalues --    0.02036   0.03584   0.04277   0.05205   0.05771
 Alpha virt. eigenvalues --    0.07065   0.07502   0.08376   0.09378   0.09959
 Alpha virt. eigenvalues --    0.10573   0.11197   0.12273   0.12614   0.13517

 Mulliken charges:
               1
     1  C    0.662736
     2  C    0.275742
     3  C    0.891839
     4  C    0.404580
     5  C    0.760553
     6  C    0.643588
     7  H   -0.029601
     8  H   -0.046378
     9  H   -0.267036
    10  H   -0.107078
    11  H   -0.128970
    12  H   -0.023874
    13  N   -0.454676
    14  N   -0.565108
    15  N   -0.643757
    16  N   -0.461626
    17  O   -0.517520
    18  O   -0.393415
 Sum of Mulliken charges =   0.00000

 Dipole moment (field-independent basis, Debye):
    X=             -3.8502    Y=             -2.8715    Z=             -0.1213  Tot=              4.8046

 Test job not archived.
 1\1\GINC-SE362\SP\RHF\Aug-CC-pVDZ\C6H6N4O2\OHZDE\08-Apr-2025\0\\#t hf
 aug-cc-pvdz iop(5/13=1,5/36=2,99/5=2) pseudo=read geom=check guess=(re
 ad,tcheck) scf=(maxcycle=1)\\title\\0,1\C,0,1.52415,-2.20358,0.180361\
 C,0,-0.416579,-0.775271,-0.0381684\C,0,-2.48205,-1.2274,-0.121151\C,0,
 -1.08453,0.432906,0.0828295\C,0,-0.286669,1.72367,0.0419695\C,0,1.7712
 8,0.232191,-0.0559965\H,0,1.71587,2.27411,-0.16113\H,0,-3.22797,0.7474
 44,-0.0412505\H,0,-3.38548,-1.80322,-0.209981\H,0,2.18946,-2.28678,-0.
 655856\H,0,0.733508,-2.97601,0.145474\H,0,2.10557,-2.29286,1.12438\N,0

 Normal termination of Gaussian 16 at Tue Apr  8 19:21:49 2025.
