 Gaussian 16, Revision C.01,

 ----------------------------------------------------------------------
 #t hf aug-cc-pvdz symm=none int=(grid=ultrafine) guess=(read,tcheck) s
 table=(opt,rrhf)
 ----------------------------------------------------------------------
 -----
 title
 -----
 Symbolic Z-matrix:
 Charge =  0 Multiplicity = 1

 SCF Done:  E(RHF) =  -814.787128074     A.U. after   15 cycles
 Normal termination of Gaussian 16 at Tue Apr  8 21:08:45 2025.
 Gaussian 16:  ES64L-G16RevC.01  3-Jul-2019

 ----------------------------------------------------------------------
 #t hf aug-cc-pvdz iop(5/13=1,5/36=2,99/5=2) pseudo=read geom=check gue
 ss=(read,tcheck) scf=(maxcycle=1)
 ----------------------------------------------------------------------
 -----
 title
 -----
 Structure from the checkpoint file:  "ANI1ccx_1785_conf8_mol2.chk"
 Charge =  0 Multiplicity = 1

                         Standard orientation:
 ---------------------------------------------------------------------
 Center     Atomic      Atomic             Coordinates (Angstroms)
 Number     Number       Type             X           Y           Z
 ---------------------------------------------------------------------
      1          6           0        0.714907   -2.407992   -0.365903
      2          6           0        1.595226    1.837369    0.837727
      3          6           0        0.201301    2.466822    0.857663
      4          6           0       -0.924172    1.843348    0.049722
      5          6           0        2.321807    1.762528   -0.499046
      6          6           0       -1.455178    0.576010    0.659267
      7          6           0        1.834038   -2.271388    0.669957
      8          6           0       -0.108288   -1.160002   -0.505920
      9          6           0       -2.774982    0.125457    0.047906
     10          1           0        0.387977    3.525884    0.562481
     11          1           0       -4.478029    0.672348   -0.404385
     12          1           0        3.226304    3.604159   -0.441885
     13          1           0        2.722329    3.255293   -1.928130
     14          1           0        1.716095    1.167241   -1.233090
     15          1           0        3.228725    1.124299   -0.382197
     16          1           0        1.538529    0.844787    1.358460
     17          1           0        2.172887    2.548406    1.447460
     18          1           0       -0.129093    2.549298    1.939430
     19          1           0       -0.643302    1.702671   -1.000370
     20          1           0       -1.750291    0.813504    1.694500
     21          1           0       -0.062647   -0.900090    1.471690
     22          1           0        2.051311   -2.541425    2.596520
     23          1           0        2.513928   -3.139989    0.455383
     24          1           0        2.359096   -1.306571    0.361920
     25          1           0        0.008396   -3.168491   -0.000167
     26          1           0        1.720245   -2.069329   -2.107290
     27          1           0        0.470408   -2.991475   -2.211240
     28          1           0       -1.770583    2.569047   -0.006145
     29          7           0        1.257975   -2.846565   -1.618610
     30          7           0       -0.532338   -0.541513    0.626196
     31          7           0        2.513530    3.145981   -0.959391
     32          8           0       -3.173898   -1.027850    0.080994
     33          8           0       -0.379016   -0.738595   -1.600380
     34          8           0        1.353687   -2.253234    2.001450
     35          8           0       -3.598825    1.119954   -0.359385
 ---------------------------------------------------------------------

 SCF Done:  E(RHF) =  -815.034367655     A.U. after    2 cycles

 The electronic state is 1-A.
 Alpha  occ. eigenvalues --  -20.62622 -20.60582 -20.55684 -20.53353 -15.64210
 Alpha  occ. eigenvalues --  -15.60948 -15.60396 -11.39762 -11.35159 -11.31399
 Alpha  occ. eigenvalues --  -11.30480 -11.27867 -11.26568 -11.22997 -11.22940
 Alpha  occ. eigenvalues --  -11.22825  -1.42049  -1.36402  -1.35370  -1.31236
 Alpha  occ. eigenvalues --   -1.20428  -1.17655  -1.15201  -1.07316  -1.02147
 Alpha  occ. eigenvalues --   -0.98773  -0.93485  -0.87920  -0.85882  -0.82352
 Alpha  occ. eigenvalues --   -0.77409  -0.76205  -0.74563  -0.73289  -0.71538
 Alpha  occ. eigenvalues --   -0.69310  -0.68059  -0.67189  -0.67020  -0.64462
 Alpha  occ. eigenvalues --   -0.64102  -0.63505  -0.62068  -0.60863  -0.59378
 Alpha  occ. eigenvalues --   -0.58521  -0.58122  -0.57037  -0.55358  -0.54075
 Alpha  occ. eigenvalues --   -0.52986  -0.52247  -0.50784  -0.48908  -0.48488
 Alpha  occ. eigenvalues --   -0.47646  -0.46817  -0.45821  -0.44598  -0.43877
 Alpha  occ. eigenvalues --   -0.40705  -0.39266  -0.38377
 Alpha virt. eigenvalues --    0.02425   0.03438   0.03476   0.04111   0.05123
 Alpha virt. eigenvalues --    0.05390   0.05502   0.05657   0.06080   0.07337
 Alpha virt. eigenvalues --    0.07671   0.08326   0.08589   0.08908   0.09399

 Mulliken charges:
               1
     1  C    0.052435
     2  C    0.219842
     3  C    0.111491
     4  C    0.514608
     5  C    0.933367
     6  C   -0.359875
     7  C    0.942931
     8  C    0.226560
     9  C    1.034535
    10  H   -0.073916
    11  H    0.251478
    12  H   -0.008856
    13  H   -0.076496
    14  H   -0.232058
    15  H   -0.083249
    16  H   -0.173362
    17  H   -0.094763
    18  H    0.014413
    19  H   -0.110045
    20  H   -0.044342
    21  H   -0.014566
    22  H    0.185520
    23  H   -0.002667
    24  H   -0.040340
    25  H   -0.028931
    26  H    0.059967
    27  H    0.030987
    28  H   -0.026575
    29  N   -0.246638
    30  N   -0.169356
    31  N   -0.343430
    32  O   -0.584920
    33  O   -0.601543
    34  O   -0.615264
    35  O   -0.646943
 Sum of Mulliken charges =   0.00000

 Dipole moment (field-independent basis, Debye):
    X=              3.3515    Y=              1.2185    Z=              3.0562  Tot=              4.6966

 Test job not archived.
 1\1\GINC-SE068\SP\RHF\Aug-CC-pVDZ\C9H19N3O4\OHZDE\08-Apr-2025\0\\#t hf
  aug-cc-pvdz iop(5/13=1,5/36=2,99/5=2) pseudo=read geom=check guess=(r
 ead,tcheck) scf=(maxcycle=1)\\title\\0,1\C,0,0.714878,-2.408,-0.365903
 \C,0,1.59525,1.83735,0.837727\C,0,0.201333,2.46682,0.857663\C,0,-0.924
 148,1.84336,0.0497213\C,0,2.32183,1.7625,-0.499046\C,0,-1.45517,0.5760
 29,0.659267\C,0,1.83401,-2.27141,0.669957\C,0,-0.108302,-1.16,-0.50592
 \C,0,-2.77498,0.125493,0.0479055\H,0,0.388022,3.52588,0.562481\H,0,-4.
 47802,0.672405,-0.404385\H,0,3.22635,3.60412,-0.441885\H,0,2.72237,3.2

 Normal termination of Gaussian 16 at Tue Apr  8 21:09:38 2025.
