 Gaussian 16, Revision C.01,

 ----------------------------------------------------------------------
 #t hf aug-cc-pvdz symm=none int=(grid=ultrafine) guess=(read,tcheck) s
 table=(opt,rrhf)
 ----------------------------------------------------------------------
 -----
 title
 -----
 Symbolic Z-matrix:
 Charge =  0 Multiplicity = 1

 SCF Done:  E(RHF) =  -869.299051020     A.U. after   14 cycles
 Normal termination of Gaussian 16 at Tue Apr  8 20:10:01 2025.
 Gaussian 16:  ES64L-G16RevC.01  3-Jul-2019

 ----------------------------------------------------------------------
 #t hf aug-cc-pvdz iop(5/13=1,5/36=2,99/5=2) pseudo=read geom=check gue
 ss=(read,tcheck) scf=(maxcycle=1)
 ----------------------------------------------------------------------
 -----
 title
 -----
 Structure from the checkpoint file:  "ANI1ccx_1593_conf11_mol1.chk"
 Charge =  0 Multiplicity = 1

                         Standard orientation:
 ---------------------------------------------------------------------
 Center     Atomic      Atomic             Coordinates (Angstroms)
 Number     Number       Type             X           Y           Z
 ---------------------------------------------------------------------
      1          6           0       -2.253401   -1.161238   -0.208472
      2          6           0       -0.901758   -1.063619    0.566740
      3          6           0       -2.349340   -0.049526   -1.242769
      4          6           0       -1.861579    1.320402   -0.824254
      5          6           0        1.450710   -0.526055    0.461796
      6          6           0        1.448801    0.919051    1.100131
      7          6           0        2.592030   -0.610109   -0.577685
      8          6           0        2.673219   -2.061782   -1.084989
      9          1           0        2.270802    1.944889    2.139321
     10          1           0        3.249128   -2.234272   -1.986999
     11          1           0        3.098908   -2.748052   -0.375676
     12          1           0        1.670948   -2.434701   -1.325439
     13          1           0        1.906521    1.084579   -1.276689
     14          1           0        3.490760   -0.262451   -0.104165
     15          1           0        1.487229   -1.227111    1.328311
     16          1           0        0.089581   -0.731050   -1.250279
     17          1           0       -0.185484    2.170931   -0.677273
     18          1           0       -3.425770    0.029119   -1.448789
     19          1           0       -1.788680   -0.301410   -2.153199
     20          1           0       -2.229472   -2.104408   -0.678785
     21          1           0       -3.614422   -2.303457    0.690371
     22          1           0       -2.771141   -1.323967    1.698061
     23          7           0       -3.271121   -1.390957    0.817337
     24          7           0        0.183984   -0.800468   -0.215173
     25          8           0       -0.800576   -1.246969    1.765841
     26          8           0       -2.414918    1.972122    0.069708
     27          8           0       -0.706229    1.687061   -1.334469
     28          8           0        1.072332    1.965040    0.577376
     29          8           0        2.261730    0.281528   -1.674769
     30          8           0        2.283781    0.988542    2.104201
 ---------------------------------------------------------------------

 SCF Done:  E(RHF) =  -869.565357996     A.U. after    2 cycles

 The electronic state is 1-A.
 Alpha  occ. eigenvalues --  -20.66659 -20.60861 -20.60824 -20.59662 -20.56480
 Alpha  occ. eigenvalues --  -20.55025 -15.67271 -15.60256 -11.44463 -11.39557
 Alpha  occ. eigenvalues --  -11.38240 -11.33845 -11.33627 -11.30166 -11.27002
 Alpha  occ. eigenvalues --  -11.25310  -1.49492  -1.42204  -1.38099  -1.36562
 Alpha  occ. eigenvalues --   -1.34517  -1.30217  -1.22507  -1.17719  -1.07738
 Alpha  occ. eigenvalues --   -1.04306  -0.99940  -0.92077  -0.88524  -0.86150
 Alpha  occ. eigenvalues --   -0.82033  -0.80860  -0.78212  -0.76012  -0.73784
 Alpha  occ. eigenvalues --   -0.73753  -0.71098  -0.69558  -0.67953  -0.67577
 Alpha  occ. eigenvalues --   -0.67192  -0.66806  -0.65178  -0.64211  -0.62330
 Alpha  occ. eigenvalues --   -0.60575  -0.59635  -0.58118  -0.56618  -0.56310
 Alpha  occ. eigenvalues --   -0.56150  -0.55264  -0.54346  -0.53845  -0.53323
 Alpha  occ. eigenvalues --   -0.50559  -0.49118  -0.48134  -0.46718  -0.44983
 Alpha  occ. eigenvalues --   -0.42231  -0.39549
 Alpha virt. eigenvalues --    0.02258   0.02869   0.03803   0.04059   0.05219
 Alpha virt. eigenvalues --    0.05554   0.05852   0.06388   0.06854   0.07923
 Alpha virt. eigenvalues --    0.07948   0.08588   0.09214   0.10207   0.10559

 Mulliken charges:
               1
     1  C    0.175315
     2  C    0.547499
     3  C    0.236001
     4  C    0.915267
     5  C    0.248077
     6  C    0.643637
     7  C    0.868321
     8  C    0.804461
     9  H    0.220602
    10  H   -0.100029
    11  H   -0.109850
    12  H   -0.149653
    13  H    0.187253
    14  H   -0.408419
    15  H   -0.143162
    16  H    0.127635
    17  H    0.244419
    18  H    0.030027
    19  H   -0.004641
    20  H   -0.117631
    21  H   -0.024557
    22  H    0.059881
    23  N   -0.195711
    24  N   -0.683701
    25  O   -0.583639
    26  O   -0.606925
    27  O   -0.477712
    28  O   -0.615139
    29  O   -0.623861
    30  O   -0.463767
 Sum of Mulliken charges =   0.00000

 Dipole moment (field-independent basis, Debye):
    X=              4.1130    Y=             -3.9402    Z=             -2.0589  Tot=              6.0565

 Test job not archived.
 1\1\GINC-SE186\SP\RHF\Aug-CC-pVDZ\C8H14N2O6\OHZDE\08-Apr-2025\0\\#t hf
  aug-cc-pvdz iop(5/13=1,5/36=2,99/5=2) pseudo=read geom=check guess=(r
 ead,tcheck) scf=(maxcycle=1)\\title\\0,1\C,0,-2.2534,-1.16124,-0.20847
 3\C,0,-0.901757,-1.06362,0.566739\C,0,-2.34934,-0.0495287,-1.24277\C,0
 ,-1.86158,1.3204,-0.824255\C,0,1.45071,-0.526054,0.461795\C,0,1.4488,0
 .919052,1.10013\C,0,2.59203,-0.610107,-0.577686\C,0,2.67322,-2.06178,-
 1.08499\H,0,2.2708,1.94489,2.13932\H,0,3.24913,-2.23427,-1.987\H,0,3.0
 9891,-2.74805,-0.375677\H,0,1.67095,-2.4347,-1.32544\H,0,1.90652,1.084

 Normal termination of Gaussian 16 at Tue Apr  8 20:10:43 2025.
