 Gaussian 16, Revision C.01,

 ----------------------------------------------------------------------
 #t hf aug-cc-pvdz symm=none int=(grid=ultrafine) guess=(read,tcheck) s
 table=(opt,rrhf)
 ----------------------------------------------------------------------
 -----
 title
 -----
 Symbolic Z-matrix:
 Charge =  0 Multiplicity = 1

 SCF Done:  E(RHF) =  -504.974028729     A.U. after   15 cycles
 Normal termination of Gaussian 16 at Tue Apr  8 21:39:50 2025.
 Gaussian 16:  ES64L-G16RevC.01  3-Jul-2019

 ----------------------------------------------------------------------
 #t hf aug-cc-pvdz iop(5/13=1,5/36=2,99/5=2) pseudo=read geom=check gue
 ss=(read,tcheck) scf=(maxcycle=1)
 ----------------------------------------------------------------------
 -----
 title
 -----
 Structure from the checkpoint file:  "ANI1ccx_471_conf39_mol1.chk"
 Charge =  0 Multiplicity = 1

                         Standard orientation:
 ---------------------------------------------------------------------
 Center     Atomic      Atomic             Coordinates (Angstroms)
 Number     Number       Type             X           Y           Z
 ---------------------------------------------------------------------
      1          6           0       -1.379409   -0.110982    0.045302
      2          6           0        0.854825   -0.719837   -0.047515
      3          1           0        1.104419    1.766652    1.415750
      4          7           0        0.760637    0.626776   -0.472478
      5          8           0        1.543829    1.457032    0.283903
      6          8           0       -0.667936    1.014600   -0.378336
      7          8           0       -2.523609    0.018929    0.254544
      8          8           0       -0.577068   -1.231890   -0.002581
      9          8           0        1.814612   -1.404818    0.080579
 ---------------------------------------------------------------------

 SCF Done:  E(RHF) =  -505.129083076     A.U. after    2 cycles

 The electronic state is 1-A.
 Alpha  occ. eigenvalues --  -20.71474 -20.70969 -20.70410 -20.65662 -20.61973
 Alpha  occ. eigenvalues --  -15.83989 -11.51044 -11.50436  -1.54407  -1.46583
 Alpha  occ. eigenvalues --   -1.44842  -1.40411  -1.36519  -1.13408  -0.91516
 Alpha  occ. eigenvalues --   -0.90803  -0.80018  -0.78229  -0.76547  -0.73763
 Alpha  occ. eigenvalues --   -0.72959  -0.68551  -0.67007  -0.64657  -0.60947
 Alpha  occ. eigenvalues --   -0.59645  -0.56480  -0.55561  -0.54459  -0.47902
 Alpha virt. eigenvalues --    0.00456   0.06555   0.07310   0.07395   0.07587
 Alpha virt. eigenvalues --    0.10449   0.10873   0.11444   0.11564   0.12187
 Alpha virt. eigenvalues --    0.14581   0.15266   0.16045   0.18655   0.19297

 Mulliken charges:
               1
     1  C    0.785422
     2  C    1.011529
     3  H    0.421334
     4  N    0.143364
     5  O   -0.621610
     6  O   -0.552441
     7  O   -0.307651
     8  O   -0.605743
     9  O   -0.274205
 Sum of Mulliken charges =  -0.00000

 Dipole moment (field-independent basis, Debye):
    X=              1.1246    Y=              1.5891    Z=              1.8467  Tot=              2.6834

 Test job not archived.
 1\1\GINC-SE366\SP\RHF\Aug-CC-pVDZ\C2H1N1O5\OHZDE\08-Apr-2025\0\\#t hf
 aug-cc-pvdz iop(5/13=1,5/36=2,99/5=2) pseudo=read geom=check guess=(re
 ad,tcheck) scf=(maxcycle=1)\\title\\0,1\C,0,-1.37941,-0.110982,0.04530
 17\C,0,0.854824,-0.719839,-0.047515\H,0,1.10442,1.76665,1.41575\N,0,0.
 760637,0.626775,-0.472478\O,0,1.54383,1.45703,0.283903\O,0,-0.667936,1
 .0146,-0.378336\O,0,-2.52361,0.0189302,0.254544\O,0,-0.57707,-1.23189,
 -0.00258098\O,0,1.81461,-1.40482,0.0805786\\Version=ES64L-G16RevC.01\S
 tate=1-A\HF=-505.1290831\RMSD=2.825e-03\Dipole=0.4424581,0.6252078,0.7

 Normal termination of Gaussian 16 at Tue Apr  8 21:39:53 2025.
