 Gaussian 16, Revision C.01,

 ----------------------------------------------------------------------
 #t hf aug-cc-pvdz symm=none int=(grid=ultrafine) guess=(read,tcheck) s
 table=(opt,rrhf)
 ----------------------------------------------------------------------
 -----
 title
 -----
 Symbolic Z-matrix:
 Charge =  0 Multiplicity = 1

 SCF Done:  E(RHF) =  -509.518504456     A.U. after   15 cycles
 Normal termination of Gaussian 16 at Tue Apr  8 22:09:53 2025.
 Gaussian 16:  ES64L-G16RevC.01  3-Jul-2019

 ----------------------------------------------------------------------
 #t hf aug-cc-pvdz iop(5/13=1,5/36=2,99/5=2) pseudo=read geom=check gue
 ss=(read,tcheck) scf=(maxcycle=1)
 ----------------------------------------------------------------------
 -----
 title
 -----
 Structure from the checkpoint file:  "ANI1ccx_939_conf84_mol1.chk"
 Charge =  0 Multiplicity = 1

                         Standard orientation:
 ---------------------------------------------------------------------
 Center     Atomic      Atomic             Coordinates (Angstroms)
 Number     Number       Type             X           Y           Z
 ---------------------------------------------------------------------
      1          6           0       -0.694045    0.606225   -0.872114
      2          6           0       -1.307061   -0.500032    0.024691
      3          6           0        0.694796    0.133679   -1.151500
      4          6           0        1.560319   -0.022675    0.083256
      5          1           0       -1.686769    2.415552   -0.228093
      6          1           0       -0.591938    1.770481    0.961465
      7          1           0       -1.327040    0.694885   -1.769560
      8          1           0        0.445461   -0.844134   -1.631970
      9          1           0        1.136450    0.707836   -1.888900
     10          1           0        1.603179    0.082037    1.978680
     11          1           0       -1.374572   -2.446608    0.090723
     12          7           0       -0.772500    1.892061   -0.051286
     13          8           0       -2.255051   -0.350859    0.732628
     14          8           0        2.724999   -0.414684   -0.031305
     15          8           0        0.998556    0.364593    1.315310
     16          8           0       -0.758670   -1.715009   -0.224050
 ---------------------------------------------------------------------

 SCF Done:  E(RHF) =  -509.675963671     A.U. after    2 cycles

 The electronic state is 1-A.
 Alpha  occ. eigenvalues --  -20.64112 -20.63896 -20.57968 -20.57265 -15.61922
 Alpha  occ. eigenvalues --  -11.42574 -11.40409 -11.31251 -11.26440  -1.43598
 Alpha  occ. eigenvalues --   -1.41962  -1.33939  -1.33007  -1.15640  -1.04980
 Alpha  occ. eigenvalues --   -0.93337  -0.86202  -0.81651  -0.74137  -0.73546
 Alpha  occ. eigenvalues --   -0.72316  -0.67963  -0.67462  -0.66044  -0.64211
 Alpha  occ. eigenvalues --   -0.62926  -0.59429  -0.59374  -0.56165  -0.53289
 Alpha  occ. eigenvalues --   -0.51721  -0.50155  -0.48017  -0.47029  -0.39103
 Alpha virt. eigenvalues --    0.02687   0.03644   0.04208   0.05028   0.05852
 Alpha virt. eigenvalues --    0.06808   0.08101   0.09886   0.10141   0.11395
 Alpha virt. eigenvalues --    0.12552   0.12920   0.13766   0.13852   0.14107

 Mulliken charges:
               1
     1  C    0.223563
     2  C    0.796956
     3  C    0.296171
     4  C    0.780868
     5  H    0.066531
     6  H    0.084277
     7  H   -0.049611
     8  H    0.274812
     9  H   -0.156882
    10  H    0.166036
    11  H    0.242456
    12  N   -0.491229
    13  O   -0.479866
    14  O   -0.557684
    15  O   -0.589303
    16  O   -0.607095
 Sum of Mulliken charges =   0.00000

 Dipole moment (field-independent basis, Debye):
    X=             -1.7462    Y=             -0.8952    Z=             -0.9710  Tot=              2.1894

 Test job not archived.
 1\1\GINC-SE365\SP\RHF\Aug-CC-pVDZ\C4H7N1O4\OHZDE\08-Apr-2025\0\\#t hf
 aug-cc-pvdz iop(5/13=1,5/36=2,99/5=2) pseudo=read geom=check guess=(re
 ad,tcheck) scf=(maxcycle=1)\\title\\0,1\C,0,-0.694045,0.606224,-0.8721
 14\C,0,-1.30706,-0.500034,0.024691\C,0,0.694797,0.133679,-1.1515\C,0,1
 .56032,-0.0226749,0.0832557\H,0,-1.68677,2.41555,-0.228093\H,0,-0.5919
 39,1.77048,0.961465\H,0,-1.32704,0.694883,-1.76956\H,0,0.445462,-0.844
 135,-1.63197\H,0,1.13645,0.707836,-1.8889\H,0,1.60318,0.0820369,1.9786
 8\H,0,-1.37457,-2.44661,0.0907227\N,0,-0.772501,1.89206,-0.0512854\O,0

 Normal termination of Gaussian 16 at Tue Apr  8 22:09:59 2025.
