 Gaussian 16, Revision C.01,

 ----------------------------------------------------------------------
 #t hf aug-cc-pvdz symm=none int=(grid=ultrafine) guess=(read,tcheck) s
 table=(opt,rrhf)
 ----------------------------------------------------------------------
 -----
 title
 -----
 Symbolic Z-matrix:
 Charge =  0 Multiplicity = 1

 SCF Done:  E(RHF) =  -406.486841642     A.U. after   16 cycles
 Normal termination of Gaussian 16 at Tue Apr  8 21:27:35 2025.
 Gaussian 16:  ES64L-G16RevC.01  3-Jul-2019

 ----------------------------------------------------------------------
 #t hf aug-cc-pvdz iop(5/13=1,5/36=2,99/5=2) pseudo=read geom=check gue
 ss=(read,tcheck) scf=(maxcycle=1)
 ----------------------------------------------------------------------
 -----
 title
 -----
 Structure from the checkpoint file:  "ANI1ccx_379_conf2_mol1.chk"
 Charge =  0 Multiplicity = 1

                         Standard orientation:
 ---------------------------------------------------------------------
 Center     Atomic      Atomic             Coordinates (Angstroms)
 Number     Number       Type             X           Y           Z
 ---------------------------------------------------------------------
      1          6           0       -0.083004    0.806622    0.040859
      2          1           0       -2.206740   -0.428299   -0.735687
      3          1           0       -2.167620   -1.040748    0.919040
      4          7           0       -1.701770   -1.021898   -0.068776
      5          7           0       -0.423003   -0.514540    0.045582
      6          7           0        0.679911   -1.304752   -0.020151
      7          7           0        1.683180   -0.546189   -0.001426
      8          8           0        1.242762    0.796221   -0.016760
      9          8           0       -0.842243    1.746400    0.002371
 ---------------------------------------------------------------------

 SCF Done:  E(RHF) =  -406.607990446     A.U. after    2 cycles

 The electronic state is 1-A.
 Alpha  occ. eigenvalues --  -20.70641 -20.58258 -15.80031 -15.79614 -15.77613
 Alpha  occ. eigenvalues --  -15.71748 -11.46043  -1.56252  -1.39392  -1.37880
 Alpha  occ. eigenvalues --   -1.27467  -1.11972  -0.95661  -0.91136  -0.78448
 Alpha  occ. eigenvalues --   -0.77922  -0.71473  -0.70383  -0.68040  -0.60180
 Alpha  occ. eigenvalues --   -0.58882  -0.57325  -0.56595  -0.50668  -0.47731
 Alpha  occ. eigenvalues --   -0.42157
 Alpha virt. eigenvalues --    0.02716   0.04272   0.07646   0.08958   0.09107
 Alpha virt. eigenvalues --    0.10612   0.10778   0.12246   0.12975   0.15453
 Alpha virt. eigenvalues --    0.16674   0.17572   0.18060   0.18557   0.20165

 Mulliken charges:
               1
     1  C    0.691920
     2  H    0.095301
     3  H    0.215068
     4  N   -0.040893
     5  N   -0.108947
     6  N   -0.039862
     7  N    0.094538
     8  O   -0.515509
     9  O   -0.391617
 Sum of Mulliken charges =  -0.00000

 Dipole moment (field-independent basis, Debye):
    X=             -1.9980    Y=             -2.1760    Z=              0.5352  Tot=              3.0022

 Test job not archived.
 1\1\GINC-SE404\SP\RHF\Aug-CC-pVDZ\C1H2N4O2\OHZDE\08-Apr-2025\0\\#t hf
 aug-cc-pvdz iop(5/13=1,5/36=2,99/5=2) pseudo=read geom=check guess=(re
 ad,tcheck) scf=(maxcycle=1)\\title\\0,1\C,0,-0.0830062,0.806623,0.0408
 586\H,0,-2.20674,-0.428301,-0.735687\H,0,-2.16762,-1.04075,0.91904\N,0
 ,-1.70177,-1.0219,-0.068776\N,0,-0.423003,-0.51454,0.0455821\N,0,0.679
 912,-1.30475,-0.0201505\N,0,1.68318,-0.546186,-0.00142577\O,0,1.24276,
 0.796223,-0.0167598\O,0,-0.842246,1.7464,0.00237067\\Version=ES64L-G16
 RevC.01\State=1-A\HF=-406.6079904\RMSD=3.259e-03\Dipole=-0.7860614,-0.

 Normal termination of Gaussian 16 at Tue Apr  8 21:27:38 2025.
