 Gaussian 16, Revision C.01,

 ----------------------------------------------------------------------
 #t hf aug-cc-pvdz symm=none int=(grid=ultrafine) guess=(read,tcheck) s
 table=(opt,rrhf)
 ----------------------------------------------------------------------
 -----
 title
 -----
 Symbolic Z-matrix:
 Charge =  0 Multiplicity = 1

 SCF Done:  E(RHF) =  -623.039711742     A.U. after   16 cycles
 Normal termination of Gaussian 16 at Tue Apr  8 19:38:23 2025.
 Gaussian 16:  ES64L-G16RevC.01  3-Jul-2019

 ----------------------------------------------------------------------
 #t hf aug-cc-pvdz iop(5/13=1,5/36=2,99/5=2) pseudo=read geom=check gue
 ss=(read,tcheck) scf=(maxcycle=1)
 ----------------------------------------------------------------------
 -----
 title
 -----
 Structure from the checkpoint file:  "ANI1ccx_1508_conf11_mol1.chk"
 Charge =  0 Multiplicity = 1

                         Standard orientation:
 ---------------------------------------------------------------------
 Center     Atomic      Atomic             Coordinates (Angstroms)
 Number     Number       Type             X           Y           Z
 ---------------------------------------------------------------------
      1          6           0        2.686451   -0.883594    0.081287
      2          6           0        1.313010   -0.056868    0.038834
      3          6           0        0.564199    2.150569   -0.242651
      4          6           0       -0.723598    1.669178   -0.003959
      5          6           0       -0.934475    0.384481    0.032097
      6          6           0       -2.564030   -0.127292    0.060856
      7          6           0        0.064663   -0.592045   -0.048863
      8          1           0        0.894485   -2.485611    0.224808
      9          1           0       -1.859309   -1.879332   -0.567752
     10          1           0       -1.533351    2.261388    0.404748
     11          1           0        2.732381   -1.569650   -0.820362
     12          1           0        2.624111   -1.514110    1.065040
     13          1           0        3.382870    0.778689    0.079938
     14          1           0        0.649484    3.208249   -0.252659
     15          7           0        1.498790    1.209599   -0.091828
     16          8           0       -3.470900    0.682428    0.267823
     17          8           0        3.723040   -0.111207    0.080179
     18          8           0       -2.743159   -1.394943   -0.229607
     19          8           0        0.013579   -1.992951    0.007034
 ---------------------------------------------------------------------

 SCF Done:  E(RHF) =  -623.230164070     A.U. after    2 cycles

 The electronic state is 1-A.
 Alpha  occ. eigenvalues --  -20.65649 -20.64816 -20.58049 -20.57226 -15.66267
 Alpha  occ. eigenvalues --  -11.43100 -11.35669 -11.33128 -11.31548 -11.31039
 Alpha  occ. eigenvalues --  -11.30681 -11.26787  -1.42639  -1.39666  -1.38666
 Alpha  occ. eigenvalues --   -1.32479  -1.28182  -1.12026  -1.07494  -0.95211
 Alpha  occ. eigenvalues --   -0.91446  -0.87680  -0.85271  -0.80608  -0.76555
 Alpha  occ. eigenvalues --   -0.74557  -0.72219  -0.68922  -0.68042  -0.67629
 Alpha  occ. eigenvalues --   -0.66035  -0.64614  -0.64017  -0.62268  -0.61078
 Alpha  occ. eigenvalues --   -0.57232  -0.56294  -0.51791  -0.50272  -0.46975
 Alpha  occ. eigenvalues --   -0.46694  -0.43513  -0.41319  -0.36423
 Alpha virt. eigenvalues --    0.02207   0.03125   0.04408   0.04584   0.05890
 Alpha virt. eigenvalues --    0.06057   0.06190   0.07811   0.08008   0.08987
 Alpha virt. eigenvalues --    0.09386   0.09601   0.10746   0.11426   0.11928

 Mulliken charges:
               1
     1  C    0.704514
     2  C   -0.339831
     3  C    0.432012
     4  C    0.636828
     5  C   -0.071522
     6  C    0.560124
     7  C    0.600617
     8  H    0.264156
     9  H    0.325143
    10  H   -0.349774
    11  H    0.024857
    12  H    0.160499
    13  H    0.196711
    14  H   -0.297469
    15  N   -0.618787
    16  O   -0.478209
    17  O   -0.384249
    18  O   -0.529548
    19  O   -0.836071
 Sum of Mulliken charges =  -0.00000

 Dipole moment (field-independent basis, Debye):
    X=              3.2071    Y=             -1.0033    Z=             -0.4317  Tot=              3.3880

 Test job not archived.
 1\1\GINC-SE177\SP\RHF\Aug-CC-pVDZ\C7H7N1O4\OHZDE\08-Apr-2025\0\\#t hf
 aug-cc-pvdz iop(5/13=1,5/36=2,99/5=2) pseudo=read geom=check guess=(re
 ad,tcheck) scf=(maxcycle=1)\\title\\0,1\C,0,2.68645,-0.883594,0.081286
 7\C,0,1.31301,-0.0568671,0.0388342\C,0,0.5642,2.15057,-0.242651\C,0,-0
 .723598,1.66918,-0.00395943\C,0,-0.934475,0.384483,0.0320967\C,0,-2.56
 403,-0.12729,0.0608558\C,0,0.0646629,-0.592044,-0.0488632\H,0,0.894484
 ,-2.48561,0.224808\H,0,-1.85931,-1.87933,-0.567752\H,0,-1.53335,2.2613
 9,0.404748\H,0,2.73238,-1.56965,-0.820362\H,0,2.62411,-1.51411,1.06504

 Normal termination of Gaussian 16 at Tue Apr  8 19:38:36 2025.
