 Gaussian 16, Revision C.01,

 ----------------------------------------------------------------------
 #t hf aug-cc-pvdz symm=none int=(grid=ultrafine) guess=(read,tcheck) s
 table=(opt,rrhf)
 ----------------------------------------------------------------------
 -----
 title
 -----
 Symbolic Z-matrix:
 Charge =  0 Multiplicity = 1

 SCF Done:  E(RHF) =  -298.818320110     A.U. after   14 cycles
 Normal termination of Gaussian 16 at Tue Apr  8 21:34:38 2025.
 Gaussian 16:  ES64L-G16RevC.01  3-Jul-2019

 ----------------------------------------------------------------------
 #t hf aug-cc-pvdz iop(5/13=1,5/36=2,99/5=2) pseudo=read geom=check gue
 ss=(read,tcheck) scf=(maxcycle=1)
 ----------------------------------------------------------------------
 -----
 title
 -----
 Structure from the checkpoint file:  "ANI1ccx_398_conf34_mol1.chk"
 Charge =  0 Multiplicity = 1

                         Standard orientation:
 ---------------------------------------------------------------------
 Center     Atomic      Atomic             Coordinates (Angstroms)
 Number     Number       Type             X           Y           Z
 ---------------------------------------------------------------------
      1          6           0       -0.464417    0.147138   -0.058035
      2          1           0       -1.823961   -1.314519   -0.605775
      3          1           0       -2.555120   -0.005654    0.252786
      4          1           0        0.659518   -1.388789    0.753074
      5          1           0        1.643990    0.785312    0.306350
      6          7           0       -1.634590   -0.521667    0.028644
      7          7           0        0.613249   -0.756484    0.004987
      8          8           0       -0.351456    1.338561    0.012177
      9          8           0        1.852890   -0.090077   -0.086382
 ---------------------------------------------------------------------

 SCF Done:  E(RHF) =  -298.912965616     A.U. after    2 cycles

 The electronic state is 1-A.
 Alpha  occ. eigenvalues --  -20.61405 -20.56358 -15.69659 -15.66887 -11.41244
 Alpha  occ. eigenvalues --   -1.41547  -1.35484  -1.20611  -1.09075  -0.84548
 Alpha  occ. eigenvalues --   -0.77569  -0.73103  -0.70525  -0.65687  -0.60382
 Alpha  occ. eigenvalues --   -0.60223  -0.54195  -0.49301  -0.44745  -0.42019
 Alpha virt. eigenvalues --    0.02568   0.04254   0.04790   0.06295   0.10478
 Alpha virt. eigenvalues --    0.11884   0.12853   0.14238   0.15764   0.16229
 Alpha virt. eigenvalues --    0.16743   0.17698   0.18803   0.19173   0.20674

 Mulliken charges:
               1
     1  C    0.761741
     2  H    0.046242
     3  H    0.096722
     4  H    0.046678
     5  H    0.193161
     6  N   -0.258331
     7  N    0.077864
     8  O   -0.431314
     9  O   -0.532762
 Sum of Mulliken charges =  -0.00000

 Dipole moment (field-independent basis, Debye):
    X=             -2.9274    Y=             -2.5355    Z=              1.0372  Tot=              4.0093

 Test job not archived.
 1\1\GINC-SE404\SP\RHF\Aug-CC-pVDZ\C1H4N2O2\OHZDE\08-Apr-2025\0\\#t hf
 aug-cc-pvdz iop(5/13=1,5/36=2,99/5=2) pseudo=read geom=check guess=(re
 ad,tcheck) scf=(maxcycle=1)\\title\\0,1\C,0,-0.464417,0.147137,-0.0580
 349\H,0,-1.82396,-1.31452,-0.605775\H,0,-2.55512,-0.00565591,0.252786\
 H,0,0.659519,-1.38879,0.753074\H,0,1.64399,0.785311,0.30635\N,0,-1.634
 59,-0.521668,0.0286439\N,0,0.613249,-0.756485,0.00498665\O,0,-0.351456
 ,1.33856,0.0121773\O,0,1.85289,-0.0900772,-0.0863821\\Version=ES64L-G1
 6RevC.01\State=1-A\HF=-298.9129656\RMSD=2.366e-03\Dipole=-1.1517292,-0

 Normal termination of Gaussian 16 at Tue Apr  8 21:34:40 2025.
