 Gaussian 16, Revision C.01,

 ----------------------------------------------------------------------
 #t hf aug-cc-pvdz symm=none int=(grid=ultrafine) guess=(read,tcheck) s
 table=(opt,rrhf)
 ----------------------------------------------------------------------
 -----
 title
 -----
 Symbolic Z-matrix:
 Charge =  0 Multiplicity = 1

 SCF Done:  E(RHF) =  -380.196166691     A.U. after   11 cycles
 Normal termination of Gaussian 16 at Tue Apr  8 20:59:23 2025.
 Gaussian 16:  ES64L-G16RevC.01  3-Jul-2019

 ----------------------------------------------------------------------
 #t hf aug-cc-pvdz iop(5/13=1,5/36=2,99/5=2) pseudo=read geom=check gue
 ss=(read,tcheck) scf=(maxcycle=1)
 ----------------------------------------------------------------------
 -----
 title
 -----
 Structure from the checkpoint file:  "ANI1ccx_1843_conf216_mol1.chk"
 Charge =  0 Multiplicity = 1

                         Standard orientation:
 ---------------------------------------------------------------------
 Center     Atomic      Atomic             Coordinates (Angstroms)
 Number     Number       Type             X           Y           Z
 ---------------------------------------------------------------------
      1          1           0        0.339137   -1.521329    0.352825
      2          1           0       -0.549398   -1.914469    1.704800
      3          1           0        1.872170   -0.259831   -0.330676
      4          1           0        2.128060   -1.576089   -1.249410
      5          1           0        2.078679    1.868171    0.505961
      6          1           0        0.763917    1.466131   -0.050738
      7          1           0       -1.447281    1.312241   -0.079788
      8          1           0       -1.099320    0.713386    1.322290
      9          1           0       -3.064990   -0.285352   -1.196780
     10          1           0       -1.813240   -0.819799   -0.337632
     11          8           0       -0.527854   -1.346899    0.947046
     12          8           0        1.832140   -1.255089   -0.326894
     13          8           0        1.699529    1.419241   -0.297170
     14          8           0       -0.888702    1.459341    0.717304
     15          8           0       -2.016080   -0.149476   -1.120390
 ---------------------------------------------------------------------

 SCF Done:  E(RHF) =  -380.320283258     A.U. after    2 cycles

 The electronic state is 1-A.
 Alpha  occ. eigenvalues --  -20.58876 -20.57860 -20.57620 -20.57039 -20.55717
 Alpha  occ. eigenvalues --   -1.31496  -1.29760  -1.29170  -1.27830  -1.26798
 Alpha  occ. eigenvalues --   -0.73747  -0.72250  -0.71496  -0.70476  -0.68442
 Alpha  occ. eigenvalues --   -0.62979  -0.60795  -0.59595  -0.58767  -0.55684
 Alpha  occ. eigenvalues --   -0.52569  -0.52191  -0.51845  -0.51309  -0.50157
 Alpha virt. eigenvalues --    0.02920   0.04627   0.05045   0.05431   0.07371
 Alpha virt. eigenvalues --    0.07937   0.08556   0.09012   0.10549   0.11143
 Alpha virt. eigenvalues --    0.17401   0.17919   0.19267   0.19758   0.20182

 Mulliken charges:
               1
     1  H    0.428220
     2  H    0.141362
     3  H    0.289260
     4  H    0.230056
     5  H    0.224193
     6  H    0.224090
     7  H    0.289089
     8  H    0.227610
     9  H    0.271274
    10  H    0.286394
    11  O   -0.582880
    12  O   -0.494879
    13  O   -0.460126
    14  O   -0.524628
    15  O   -0.549035
 Sum of Mulliken charges =  -0.00000

 Dipole moment (field-independent basis, Debye):
    X=             -1.1745    Y=             -2.0948    Z=              1.1515  Tot=              2.6634

 Test job not archived.
 1\1\GINC-SE150\SP\RHF\Aug-CC-pVDZ\H10O5\OHZDE\08-Apr-2025\0\\#t hf aug
 -cc-pvdz iop(5/13=1,5/36=2,99/5=2) pseudo=read geom=check guess=(read,
 tcheck) scf=(maxcycle=1)\\title\\0,1\H,0,0.339137,-1.52133,0.352825\H,
 0,-0.549398,-1.91447,1.7048\H,0,1.87217,-0.259832,-0.330676\H,0,2.1280
 6,-1.57609,-1.24941\H,0,2.07868,1.86817,0.505961\H,0,0.763918,1.46613,
 -0.0507378\H,0,-1.44728,1.31224,-0.0797879\H,0,-1.09932,0.713385,1.322
 29\H,0,-3.06499,-0.285352,-1.19678\H,0,-1.81324,-0.8198,-0.337632\O,0,
 -0.527854,-1.3469,0.947046\O,0,1.83214,-1.25509,-0.326894\O,0,1.69953,

 Normal termination of Gaussian 16 at Tue Apr  8 20:59:27 2025.
