 Gaussian 16, Revision C.01,

 ----------------------------------------------------------------------
 #t hf aug-cc-pvdz symm=none int=(grid=ultrafine) guess=(read,tcheck) s
 table=(opt,rrhf)
 ----------------------------------------------------------------------
 -----
 title
 -----
 Symbolic Z-matrix:
 Charge =  0 Multiplicity = 1

 SCF Done:  E(RHF) =  -857.001072619     A.U. after   15 cycles
 Normal termination of Gaussian 16 at Tue Apr  8 21:49:24 2025.
 Gaussian 16:  ES64L-G16RevC.01  3-Jul-2019

 ----------------------------------------------------------------------
 #t hf aug-cc-pvdz iop(5/13=1,5/36=2,99/5=2) pseudo=read geom=check gue
 ss=(read,tcheck) scf=(maxcycle=1)
 ----------------------------------------------------------------------
 -----
 title
 -----
 Structure from the checkpoint file:  "ANI1ccx_290_conf3_mol1.chk"
 Charge =  0 Multiplicity = 1

                         Standard orientation:
 ---------------------------------------------------------------------
 Center     Atomic      Atomic             Coordinates (Angstroms)
 Number     Number       Type             X           Y           Z
 ---------------------------------------------------------------------
      1          6           0       -1.713952   -1.110587    0.616506
      2          6           0        2.878211    0.791042    0.586406
      3          6           0        1.986762    1.108666   -0.657361
      4          6           0        0.803857    2.057578   -0.440185
      5          6           0       -1.446195    2.698072    0.178230
      6          6           0       -0.546638    1.491260    0.003445
      7          6           0        3.888359   -0.346769    0.340611
      8          6           0       -0.115229   -3.086990    0.114837
      9          6           0        0.246248   -1.570421    2.060270
     10          6           0       -0.277391   -1.669650    0.655186
     11          6           0       -1.849091   -0.475020   -0.730600
     12          6           0       -0.222832   -3.123530   -1.448940
     13          1           0        0.623665    2.664398   -1.336760
     14          1           0        2.642013    1.518185   -1.434160
     15          1           0        1.543150    0.177800   -1.072720
     16          1           0        3.420953    1.694553    0.930716
     17          1           0        2.271511    0.494841    1.446290
     18          1           0        4.441369   -0.657170    1.253260
     19          1           0        5.464699   -0.803754   -0.751957
     20          1           0        4.625891    0.335025   -1.450290
     21          1           0       -2.002773    3.949583    1.436240
     22          1           0        1.174985    2.811647    0.262650
     23          1           0        3.298858   -1.245997   -0.035787
     24          1           0       -0.237946    0.891451    0.840319
     25          1           0        0.637516   -2.560522   -1.852620
     26          1           0       -1.142165   -2.743158   -1.790090
     27          1           0       -3.267824   -2.365595    0.183197
     28          1           0       -2.496145   -2.698906    1.674740
     29          1           0       -1.641941   -0.309255    1.341890
     30          1           0       -1.270338    1.018492   -1.923960
     31          1           0        0.607324   -0.550547    2.320940
     32          1           0        0.337055   -1.059921    0.021500
     33          1           0       -0.536536   -1.824820    2.808460
     34          1           0       -0.791092   -3.772999    0.595238
     35          1           0        0.852625   -3.468272    0.327410
     36          1           0       -0.137389   -4.193660   -1.745030
     37          1           0        1.090006   -2.232053    2.283940
     38          7           0       -2.813454   -1.984165    0.991829
     39          7           0       -1.112529    0.638743   -0.990216
     40          7           0        4.950010    0.074126   -0.559618
     41          8           0       -2.040694    3.226763   -0.774186
     42          8           0       -2.480952   -0.942178   -1.679900
     43          8           0       -1.536894    3.121392    1.441860
 ---------------------------------------------------------------------

 SCF Done:  E(RHF) =  -857.261401260     A.U. after    2 cycles

 The electronic state is 1-A.
 Alpha  occ. eigenvalues --  -20.65072 -20.58013 -20.53441 -15.65087 -15.61413
 Alpha  occ. eigenvalues --  -15.61327 -11.42229 -11.36563 -11.31265 -11.28256
 Alpha  occ. eigenvalues --  -11.27594 -11.25795 -11.25409 -11.24715 -11.24496
 Alpha  occ. eigenvalues --  -11.24101 -11.22789 -11.21625  -1.44727  -1.34956
 Alpha  occ. eigenvalues --   -1.33297  -1.22290  -1.17097  -1.16663  -1.08521
 Alpha  occ. eigenvalues --   -1.08137  -1.02482  -0.99462  -0.95721  -0.95148
 Alpha  occ. eigenvalues --   -0.87975  -0.86588  -0.84441  -0.80638  -0.79735
 Alpha  occ. eigenvalues --   -0.78045  -0.74468  -0.73736  -0.72134  -0.68533
 Alpha  occ. eigenvalues --   -0.67320  -0.66619  -0.65846  -0.65191  -0.63880
 Alpha  occ. eigenvalues --   -0.63183  -0.61841  -0.60967  -0.60692  -0.58912
 Alpha  occ. eigenvalues --   -0.58385  -0.57633  -0.57254  -0.56345  -0.55039
 Alpha  occ. eigenvalues --   -0.53358  -0.53067  -0.52666  -0.51882  -0.50972
 Alpha  occ. eigenvalues --   -0.49912  -0.49378  -0.48596  -0.47606  -0.47512
 Alpha  occ. eigenvalues --   -0.46989  -0.45665  -0.43684  -0.40066  -0.39810
 Alpha  occ. eigenvalues --   -0.38530
 Alpha virt. eigenvalues --    0.02412   0.02793   0.03179   0.03949   0.04447
 Alpha virt. eigenvalues --    0.04910   0.05406   0.05788   0.05941   0.06740
 Alpha virt. eigenvalues --    0.07259   0.07421   0.07843   0.07950   0.08146

 Mulliken charges:
               1
     1  C    1.321319
     2  C    0.461464
     3  C    0.662486
     4  C    0.417508
     5  C    0.865694
     6  C    0.660452
     7  C    0.769219
     8  C    0.687754
     9  C    1.233322
    10  C   -0.640505
    11  C    0.446616
    12  C    0.968488
    13  H   -0.115402
    14  H   -0.262857
    15  H   -0.241670
    16  H   -0.056769
    17  H   -0.412946
    18  H   -0.205245
    19  H    0.037656
    20  H   -0.049577
    21  H    0.218149
    22  H   -0.130584
    23  H   -0.124679
    24  H   -0.312697
    25  H   -0.018044
    26  H   -0.323176
    27  H   -0.009006
    28  H    0.065708
    29  H   -0.307317
    30  H   -0.032468
    31  H   -0.117599
    32  H   -1.630238
    33  H   -0.025546
    34  H   -0.152149
    35  H   -0.296318
    36  H   -0.077738
    37  H   -0.262259
    38  N   -0.473098
    39  N   -0.345312
    40  N   -0.349790
    41  O   -0.584256
    42  O   -0.684561
    43  O   -0.574032
 Sum of Mulliken charges =  -0.00000

 Dipole moment (field-independent basis, Debye):
    X=              3.9020    Y=             -0.2635    Z=              3.1491  Tot=              5.0211

 Test job not archived.
 1\1\GINC-SE097\SP\RHF\Aug-CC-pVDZ\C12H25N3O3\OHZDE\08-Apr-2025\0\\#t h
 f aug-cc-pvdz iop(5/13=1,5/36=2,99/5=2) pseudo=read geom=check guess=(
 read,tcheck) scf=(maxcycle=1)\\title\\0,1\C,0,-1.71395,-1.11059,0.6165
 06\C,0,2.87821,0.791048,0.586406\C,0,1.98676,1.10867,-0.657361\C,0,0.8
 03853,2.05758,-0.440185\C,0,-1.4462,2.69807,0.17823\C,0,-0.546641,1.49
 126,0.00344467\C,0,3.88836,-0.346761,0.340611\C,0,-0.115223,-3.08699,0
 .114837\C,0,0.246251,-1.57042,2.06027\C,0,-0.277388,-1.66965,0.655186\
 C,0,-1.84909,-0.475023,-0.7306\C,0,-0.222826,-3.12353,-1.44894\H,0,0.6

 Normal termination of Gaussian 16 at Tue Apr  8 21:50:59 2025.
