 Gaussian 16, Revision C.01,

 ----------------------------------------------------------------------
 #t hf aug-cc-pvdz symm=none int=(grid=ultrafine) guess=(read,tcheck) s
 table=(opt,rrhf)
 ----------------------------------------------------------------------
 -----
 title
 -----
 Symbolic Z-matrix:
 Charge =  0 Multiplicity = 1

 SCF Done:  E(RHF) =  -380.225484454     A.U. after   11 cycles
 Normal termination of Gaussian 16 at Tue Apr  8 21:03:25 2025.
 Gaussian 16:  ES64L-G16RevC.01  3-Jul-2019

 ----------------------------------------------------------------------
 #t hf aug-cc-pvdz iop(5/13=1,5/36=2,99/5=2) pseudo=read geom=check gue
 ss=(read,tcheck) scf=(maxcycle=1)
 ----------------------------------------------------------------------
 -----
 title
 -----
 Structure from the checkpoint file:  "ANI1ccx_1843_conf73_mol1.chk"
 Charge =  0 Multiplicity = 1

                         Standard orientation:
 ---------------------------------------------------------------------
 Center     Atomic      Atomic             Coordinates (Angstroms)
 Number     Number       Type             X           Y           Z
 ---------------------------------------------------------------------
      1          1           0        0.932690    1.818383   -0.001893
      2          1           0        2.123433    2.010257    0.915061
      3          1           0       -1.562454    1.284963    0.042919
      4          1           0       -1.270320    2.742634   -0.518984
      5          1           0       -3.074278   -0.264240   -0.704464
      6          1           0       -1.797786   -0.732444    0.026720
      7          1           0        0.363824   -1.840679    0.089870
      8          1           0       -0.794168   -2.487594    0.954252
      9          1           0        2.081892   -0.309992    0.001685
     10          1           0        2.617676   -1.409011   -0.904141
     11          8           0        1.849675    1.475146    0.143556
     12          8           0       -0.773063    1.957496   -0.117454
     13          8           0       -2.551189   -0.110942    0.094144
     14          8           0       -0.552524   -2.153183    0.033391
     15          8           0        2.074536   -1.270053   -0.141264
 ---------------------------------------------------------------------

 SCF Done:  E(RHF) =  -380.351899021     A.U. after    2 cycles

 The electronic state is 1-A.
 Alpha  occ. eigenvalues --  -20.58666 -20.57975 -20.57250 -20.56712 -20.56201
 Alpha  occ. eigenvalues --   -1.32326  -1.30970  -1.29776  -1.28843  -1.27751
 Alpha  occ. eigenvalues --   -0.74397  -0.73251  -0.71897  -0.71731  -0.69806
 Alpha  occ. eigenvalues --   -0.63168  -0.62336  -0.59616  -0.58299  -0.56281
 Alpha  occ. eigenvalues --   -0.53181  -0.52064  -0.51864  -0.51782  -0.51547
 Alpha virt. eigenvalues --    0.02990   0.04659   0.04831   0.05881   0.06354
 Alpha virt. eigenvalues --    0.08074   0.09286   0.09407   0.10498   0.11225
 Alpha virt. eigenvalues --    0.17530   0.18067   0.19661   0.19919   0.20650

 Mulliken charges:
               1
     1  H    0.268510
     2  H    0.168482
     3  H    0.338586
     4  H    0.208075
     5  H    0.168696
     6  H    0.233917
     7  H    0.235732
     8  H    0.222097
     9  H    0.235537
    10  H    0.140781
    11  O   -0.438800
    12  O   -0.548987
    13  O   -0.405980
    14  O   -0.447472
    15  O   -0.379175
 Sum of Mulliken charges =  -0.00000

 Dipole moment (field-independent basis, Debye):
    X=             -1.0969    Y=              1.5674    Z=             -0.3130  Tot=              1.9385

 Test job not archived.
 1\1\GINC-SE398\SP\RHF\Aug-CC-pVDZ\H10O5\OHZDE\08-Apr-2025\0\\#t hf aug
 -cc-pvdz iop(5/13=1,5/36=2,99/5=2) pseudo=read geom=check guess=(read,
 tcheck) scf=(maxcycle=1)\\title\\0,1\H,0,0.932696,1.81838,-0.0018927\H
 ,0,2.12344,2.01025,0.915061\H,0,-1.56245,1.28497,0.0429194\H,0,-1.2703
 1,2.74264,-0.518984\H,0,-3.07428,-0.264227,-0.704464\H,0,-1.79779,-0.7
 32436,0.0267203\H,0,0.363816,-1.84068,0.0898699\H,0,-0.794179,-2.48759
 ,0.954252\H,0,2.08189,-0.309999,0.00168525\H,0,2.61767,-1.40902,-0.904
 141\O,0,1.84968,1.47514,0.143556\O,0,-0.773056,1.9575,-0.117454\O,0,-2

 Normal termination of Gaussian 16 at Tue Apr  8 21:03:28 2025.
