 Gaussian 16, Revision C.01,

 ----------------------------------------------------------------------
 #t hf aug-cc-pvdz symm=none int=(grid=ultrafine) guess=(read,tcheck) s
 table=(opt,rrhf)
 ----------------------------------------------------------------------
 -----
 title
 -----
 Symbolic Z-matrix:
 Charge =  0 Multiplicity = 1

 SCF Done:  E(RHF) =  -389.487791867     A.U. after   15 cycles
 Normal termination of Gaussian 16 at Tue Apr  8 21:40:36 2025.
 Gaussian 16:  ES64L-G16RevC.01  3-Jul-2019

 ----------------------------------------------------------------------
 #t hf aug-cc-pvdz iop(5/13=1,5/36=2,99/5=2) pseudo=read geom=check gue
 ss=(read,tcheck) scf=(maxcycle=1)
 ----------------------------------------------------------------------
 -----
 title
 -----
 Structure from the checkpoint file:  "ANI1ccx_473_conf12_mol2.chk"
 Charge =  0 Multiplicity = 1

                         Standard orientation:
 ---------------------------------------------------------------------
 Center     Atomic      Atomic             Coordinates (Angstroms)
 Number     Number       Type             X           Y           Z
 ---------------------------------------------------------------------
      1          6           0        1.256130    0.924236   -0.007695
      2          6           0        1.146080   -1.453641   -0.011908
      3          1           0        1.882550   -2.243711   -0.089963
      4          7           0        1.773040   -0.189389    0.029139
      5          7           0       -3.018400   -0.104955   -0.049125
      6          7           0       -2.153110    0.594216    0.060873
      7          8           0        0.971183    2.045569   -0.021828
      8          8           0       -0.034498   -1.630441    0.011999
 ---------------------------------------------------------------------

 SCF Done:  E(RHF) =  -389.608555190     A.U. after    2 cycles

 The electronic state is 1-A.
 Alpha  occ. eigenvalues --  -20.67431 -20.60091 -15.75159 -15.74867 -15.68471
 Alpha  occ. eigenvalues --  -11.46634 -11.41750  -1.47881  -1.41033  -1.40143
 Alpha  occ. eigenvalues --   -1.26203  -0.95438  -0.79234  -0.76305  -0.75020
 Alpha  occ. eigenvalues --   -0.71684  -0.70288  -0.67539  -0.61322  -0.60496
 Alpha  occ. eigenvalues --   -0.58992  -0.58934  -0.52883  -0.48266  -0.46853
 Alpha virt. eigenvalues --    0.03178   0.06493   0.06671   0.08003   0.08673
 Alpha virt. eigenvalues --    0.10134   0.10639   0.11591   0.12718   0.12943
 Alpha virt. eigenvalues --    0.13984   0.14777   0.15396   0.16134   0.16553

 Mulliken charges:
               1
     1  C   -0.013928
     2  C    0.890760
     3  H   -0.210626
     4  N   -0.204610
     5  N   -0.019549
     6  N    0.007339
     7  O   -0.139436
     8  O   -0.309948
 Sum of Mulliken charges =  -0.00000

 Dipole moment (field-independent basis, Debye):
    X=              2.2602    Y=             -0.9640    Z=             -0.1289  Tot=              2.4606

 Test job not archived.
 1\1\GINC-SE038\SP\RHF\Aug-CC-pVDZ\C2H1N3O2\OHZDE\08-Apr-2025\0\\#t hf
 aug-cc-pvdz iop(5/13=1,5/36=2,99/5=2) pseudo=read geom=check guess=(re
 ad,tcheck) scf=(maxcycle=1)\\title\\0,1\C,0,1.25613,0.924237,-0.007694
 65\C,0,1.14608,-1.45364,-0.0119083\H,0,1.88255,-2.24371,-0.0899626\N,0
 ,1.77304,-0.189388,0.029139\N,0,-3.0184,-0.104954,-0.0491251\N,0,-2.15
 311,0.594217,0.0608732\O,0,0.971183,2.04557,-0.0218276\O,0,-0.0344974,
 -1.63044,0.0119989\\Version=ES64L-G16RevC.01\State=1-A\HF=-389.6085552
 \RMSD=2.525e-03\Dipole=0.889235,-0.3792504,-0.0507184\Quadrupole=0.854

 Normal termination of Gaussian 16 at Tue Apr  8 21:40:39 2025.
