 Gaussian 16, Revision C.01,

 ----------------------------------------------------------------------
 #t hf aug-cc-pvdz symm=none int=(grid=ultrafine) guess=(read,tcheck) s
 table=(opt,rrhf)
 ----------------------------------------------------------------------
 -----
 title
 -----
 Symbolic Z-matrix:
 Charge =  0 Multiplicity = 1

 SCF Done:  E(RHF) =  -424.697819714     A.U. after   15 cycles
 Normal termination of Gaussian 16 at Tue Apr  8 21:43:45 2025.
 Gaussian 16:  ES64L-G16RevC.01  3-Jul-2019

 ----------------------------------------------------------------------
 #t hf aug-cc-pvdz iop(5/13=1,5/36=2,99/5=2) pseudo=read geom=check gue
 ss=(read,tcheck) scf=(maxcycle=1)
 ----------------------------------------------------------------------
 -----
 title
 -----
 Structure from the checkpoint file:  "ANI1ccx_507_conf10_mol2.chk"
 Charge =  0 Multiplicity = 1

                         Standard orientation:
 ---------------------------------------------------------------------
 Center     Atomic      Atomic             Coordinates (Angstroms)
 Number     Number       Type             X           Y           Z
 ---------------------------------------------------------------------
      1          6           0       -1.270511   -0.360184    0.118282
      2          6           0        0.020122    1.547650   -0.031895
      3          1           0       -3.054981   -0.143689   -0.866771
      4          1           0       -2.860519   -1.593494    0.123804
      5          1           0        1.822595    2.020233    0.032307
      6          7           0       -2.469951   -0.773429   -0.311894
      7          7           0       -0.911849    0.901255   -0.482064
      8          7           0        0.893144    2.325721    0.314659
      9          7           0        2.296961   -1.711146   -0.236341
     10          7           0        2.488629   -0.624207   -0.242172
     11          8           0       -0.560412   -1.029401    0.862128
 ---------------------------------------------------------------------

 SCF Done:  E(RHF) =  -424.826597278     A.U. after    2 cycles

 The electronic state is 1-A.
 Alpha  occ. eigenvalues --  -20.55283 -15.75337 -15.74858 -15.66956 -15.66735
 Alpha  occ. eigenvalues --  -15.66543 -11.42523 -11.40448  -1.41646  -1.37638
 Alpha  occ. eigenvalues --   -1.27919  -1.21626  -1.18581  -0.89588  -0.77909
 Alpha  occ. eigenvalues --   -0.76112  -0.75010  -0.70760  -0.65429  -0.64001
 Alpha  occ. eigenvalues --   -0.62161  -0.60549  -0.60056  -0.59086  -0.56891
 Alpha  occ. eigenvalues --   -0.49850  -0.44240  -0.43851  -0.42477
 Alpha virt. eigenvalues --    0.02779   0.04304   0.05097   0.07964   0.08987
 Alpha virt. eigenvalues --    0.10350   0.11145   0.12021   0.12203   0.13437
 Alpha virt. eigenvalues --    0.13579   0.14114   0.14751   0.15443   0.15906

 Mulliken charges:
               1
     1  C    0.914129
     2  C   -0.167056
     3  H    0.046667
     4  H    0.006773
     5  H    0.136811
     6  N   -0.124556
     7  N   -0.280492
     8  N   -0.053945
     9  N    0.002330
    10  N   -0.019896
    11  O   -0.460764
 Sum of Mulliken charges =  -0.00000

 Dipole moment (field-independent basis, Debye):
    X=             -1.8707    Y=              0.1758    Z=             -1.9186  Tot=              2.6854

 Test job not archived.
 1\1\GINC-SE029\SP\RHF\Aug-CC-pVDZ\C2H3N5O1\OHZDE\08-Apr-2025\0\\#t hf
 aug-cc-pvdz iop(5/13=1,5/36=2,99/5=2) pseudo=read geom=check guess=(re
 ad,tcheck) scf=(maxcycle=1)\\title\\0,1\C,0,-1.27051,-0.360182,0.11828
 2\C,0,0.0201256,1.54765,-0.031895\H,0,-3.05498,-0.143684,-0.866771\H,0
 ,-2.86052,-1.59349,0.123804\H,0,1.8226,2.02023,0.0323066\N,0,-2.46995,
 -0.773425,-0.311894\N,0,-0.911846,0.901256,-0.482064\N,0,0.893149,2.32
 572,0.314659\N,0,2.29696,-1.71115,-0.236341\N,0,2.48863,-0.624211,-0.2
 42172\O,0,-0.560412,-1.0294,0.862128\\Version=ES64L-G16RevC.01\State=1

 Normal termination of Gaussian 16 at Tue Apr  8 21:43:50 2025.
