 Gaussian 16, Revision C.01,

 ----------------------------------------------------------------------
 #t hf aug-cc-pvdz symm=none int=(grid=ultrafine) guess=(read,tcheck) s
 table=(opt,rrhf)
 ----------------------------------------------------------------------
 -----
 title
 -----
 Symbolic Z-matrix:
 Charge =  0 Multiplicity = 1

 SCF Done:  E(RHF) =  -522.629668769     A.U. after   13 cycles
 Normal termination of Gaussian 16 at Tue Apr  8 22:05:43 2025.
 Gaussian 16:  ES64L-G16RevC.01  3-Jul-2019

 ----------------------------------------------------------------------
 #t hf aug-cc-pvdz iop(5/13=1,5/36=2,99/5=2) pseudo=read geom=check gue
 ss=(read,tcheck) scf=(maxcycle=1)
 ----------------------------------------------------------------------
 -----
 title
 -----
 Structure from the checkpoint file:  "ANI1ccx_922_conf11_mol2.chk"
 Charge =  0 Multiplicity = 1

                         Standard orientation:
 ---------------------------------------------------------------------
 Center     Atomic      Atomic             Coordinates (Angstroms)
 Number     Number       Type             X           Y           Z
 ---------------------------------------------------------------------
      1          6           0       -1.857699   -0.002634   -0.312322
      2          6           0       -0.002358    0.787447    0.916668
      3          6           0        1.859691    0.003359   -0.308883
      4          6           0        0.001557   -0.785374    0.922336
      5          1           0       -1.454609    2.020121   -0.115583
      6          1           0        0.012935    1.219911    1.917290
      7          1           0        1.441871    2.029231   -0.120219
      8          1           0        1.445651   -2.016419   -0.131152
      9          1           0        0.002772   -1.199379    1.937190
     10          1           0       -1.414539   -2.018129   -0.154871
     11          7           0       -1.235869    1.100781    0.237637
     12          7           0        1.211911    1.109521    0.210949
     13          7           0        1.229151   -1.101649    0.233465
     14          7           0       -1.225139   -1.108669    0.234930
     15          8           0       -2.800639   -0.005335   -1.072660
     16          8           0        2.812941   -0.001165   -1.059630
 ---------------------------------------------------------------------

 SCF Done:  E(RHF) =  -522.787352251     A.U. after    2 cycles

 The electronic state is 1-A.
 Alpha  occ. eigenvalues --  -20.54480 -20.54395 -15.66505 -15.66479 -15.66451
 Alpha  occ. eigenvalues --  -15.66447 -11.40817 -11.40771 -11.36133 -11.36072
 Alpha  occ. eigenvalues --   -1.38502  -1.37064  -1.30606  -1.22921  -1.20803
 Alpha  occ. eigenvalues --   -1.13794  -1.00417  -0.88608  -0.87644  -0.83165
 Alpha  occ. eigenvalues --   -0.76057  -0.74630  -0.71264  -0.68526  -0.66239
 Alpha  occ. eigenvalues --   -0.66010  -0.64198  -0.63621  -0.60937  -0.59275
 Alpha  occ. eigenvalues --   -0.55936  -0.49117  -0.46678  -0.44696  -0.42913
 Alpha  occ. eigenvalues --   -0.41908  -0.40791
 Alpha virt. eigenvalues --    0.01999   0.02391   0.03445   0.04861   0.06153
 Alpha virt. eigenvalues --    0.06490   0.08920   0.09905   0.11245   0.11458
 Alpha virt. eigenvalues --    0.11882   0.12008   0.12809   0.13017   0.13413

 Mulliken charges:
               1
     1  C    0.773588
     2  C    0.958822
     3  C    0.774802
     4  C    0.842107
     5  H   -0.102060
     6  H   -0.172176
     7  H   -0.121369
     8  H   -0.105291
     9  H   -0.151474
    10  H   -0.101140
    11  N   -0.427061
    12  N   -0.425706
    13  N   -0.404558
    14  N   -0.407819
    15  O   -0.464514
    16  O   -0.466151
 Sum of Mulliken charges =  -0.00000

 Dipole moment (field-independent basis, Debye):
    X=              0.0354    Y=              0.0941    Z=              4.3305  Tot=              4.3317

 Test job not archived.
 1\1\GINC-SE252\SP\RHF\Aug-CC-pVDZ\C4H6N4O2\OHZDE\08-Apr-2025\0\\#t hf
 aug-cc-pvdz iop(5/13=1,5/36=2,99/5=2) pseudo=read geom=check guess=(re
 ad,tcheck) scf=(maxcycle=1)\\title\\0,1\C,0,-1.8577,-0.00263494,-0.312
 322\C,0,-0.00235909,0.787446,0.916668\C,0,1.85969,0.00335797,-0.308883
 \C,0,0.00155658,-0.785375,0.922336\H,0,-1.45461,2.02012,-0.115583\H,0,
 0.0129343,1.21991,1.91729\H,0,1.44187,2.02923,-0.120219\H,0,1.44565,-2
 .01642,-0.131152\H,0,0.00277134,-1.19938,1.93719\H,0,-1.41454,-2.01813
 ,-0.154871\N,0,-1.23587,1.10078,0.237637\N,0,1.21191,1.10952,0.210949\

 Normal termination of Gaussian 16 at Tue Apr  8 22:05:51 2025.
