 Gaussian 16, Revision C.01,

 ----------------------------------------------------------------------
 #t hf aug-cc-pvdz symm=none int=(grid=ultrafine) guess=(read,tcheck) s
 table=(opt,rrhf)
 ----------------------------------------------------------------------
 -----
 title
 -----
 Symbolic Z-matrix:
 Charge =  0 Multiplicity = 1

 SCF Done:  E(RHF) =  -585.406046199     A.U. after   15 cycles
 Normal termination of Gaussian 16 at Tue Apr  8 22:14:11 2025.
 Gaussian 16:  ES64L-G16RevC.01  3-Jul-2019

 ----------------------------------------------------------------------
 #t hf aug-cc-pvdz iop(5/13=1,5/36=2,99/5=2) pseudo=read geom=check gue
 ss=(read,tcheck) scf=(maxcycle=1)
 ----------------------------------------------------------------------
 -----
 title
 -----
 Structure from the checkpoint file:  "ANI1ccx_978_conf1_mol1.chk"
 Charge =  0 Multiplicity = 1

                         Standard orientation:
 ---------------------------------------------------------------------
 Center     Atomic      Atomic             Coordinates (Angstroms)
 Number     Number       Type             X           Y           Z
 ---------------------------------------------------------------------
      1          6           0        0.361061   -1.482561   -0.279489
      2          6           0       -0.230652   -0.245011    0.373484
      3          6           0       -1.653300   -0.353289    0.872991
      4          6           0        0.736827    0.276564    1.460730
      5          1           0        2.208180   -0.014664    0.357781
      6          1           0        0.811437   -0.566394    2.195830
      7          1           0        0.290048    1.090370    1.995140
      8          1           0       -1.871099    0.627631    1.193770
      9          1           0       -3.419551   -0.823750    0.072567
     10          1           0        0.218250   -2.337940    0.417266
     11          1           0       -0.235135   -1.647440   -1.172080
     12          1           0        1.666239   -0.767980   -1.408220
     13          1           0       -1.693851   -1.098868    1.702520
     14          7           0       -0.194377    0.896935   -0.694158
     15          8           0        0.398738    0.675573   -1.727620
     16          8           0        1.749069   -1.403992   -0.655147
     17          8           0       -2.510820   -0.674599   -0.210807
     18          8           0        1.965191    0.682111    0.996756
     19          8           0       -0.589364    1.981691   -0.285904
 ---------------------------------------------------------------------

 SCF Done:  E(RHF) =  -585.585543200     A.U. after    2 cycles

 The electronic state is 1-A.
 Alpha  occ. eigenvalues --  -20.63589 -20.62802 -20.60906 -20.60761 -20.57653
 Alpha  occ. eigenvalues --  -15.91896 -11.33553 -11.33248 -11.32258 -11.31411
 Alpha  occ. eigenvalues --   -1.56164  -1.38580  -1.36548  -1.35889  -1.33627
 Alpha  occ. eigenvalues --   -1.14066  -0.96536  -0.94677  -0.94069  -0.83540
 Alpha  occ. eigenvalues --   -0.78777  -0.75524  -0.75226  -0.73710  -0.72759
 Alpha  occ. eigenvalues --   -0.68919  -0.67824  -0.66186  -0.63186  -0.61679
 Alpha  occ. eigenvalues --   -0.61199  -0.58535  -0.56970  -0.54421  -0.52999
 Alpha  occ. eigenvalues --   -0.50641  -0.49451  -0.48927  -0.46963  -0.46209
 Alpha virt. eigenvalues --    0.02079   0.03727   0.04145   0.05070   0.06273
 Alpha virt. eigenvalues --    0.06488   0.06742   0.07307   0.08189   0.09309
 Alpha virt. eigenvalues --    0.10682   0.11686   0.12810   0.13338   0.14173

 Mulliken charges:
               1
     1  C    1.167164
     2  C   -2.345712
     3  C    1.545280
     4  C    1.376538
     5  H    0.254582
     6  H    0.034575
     7  H   -0.148749
     8  H   -0.011402
     9  H    0.160843
    10  H    0.031541
    11  H    0.122297
    12  H    0.284755
    13  H    0.107327
    14  N    0.392906
    15  O   -0.621580
    16  O   -0.684759
    17  O   -0.564253
    18  O   -0.504006
    19  O   -0.597347
 Sum of Mulliken charges =  -0.00000

 Dipole moment (field-independent basis, Debye):
    X=             -3.8206    Y=             -3.6364    Z=              2.7562  Tot=              5.9513

 Test job not archived.
 1\1\GINC-SE036\SP\RHF\Aug-CC-pVDZ\C4H9N1O5\OHZDE\08-Apr-2025\0\\#t hf
 aug-cc-pvdz iop(5/13=1,5/36=2,99/5=2) pseudo=read geom=check guess=(re
 ad,tcheck) scf=(maxcycle=1)\\title\\0,1\C,0,0.361062,-1.48256,-0.27948
 9\C,0,-0.230652,-0.245011,0.373484\C,0,-1.6533,-0.353291,0.872991\C,0,
 0.736826,0.276565,1.46073\H,0,2.20818,-0.0146615,0.357781\H,0,0.811437
 ,-0.566393,2.19583\H,0,0.290046,1.09037,1.99514\H,0,-1.8711,0.627629,1
 .19377\H,0,-3.41955,-0.823754,0.0725673\H,0,0.218252,-2.33794,0.417266
 \H,0,-0.235133,-1.64744,-1.17208\H,0,1.66624,-0.767978,-1.40822\H,0,-1

 Normal termination of Gaussian 16 at Tue Apr  8 22:14:23 2025.
