 Gaussian 16, Revision C.01,

 ----------------------------------------------------------------------
 #t hf aug-cc-pvdz symm=none int=(grid=ultrafine) guess=(read,tcheck) s
 table=(opt,rrhf)
 ----------------------------------------------------------------------
 -----
 title
 -----
 Symbolic Z-matrix:
 Charge =  0 Multiplicity = 1

 SCF Done:  E(RHF) =  -636.075389702     A.U. after   16 cycles
 Normal termination of Gaussian 16 at Tue Apr  8 19:35:41 2025.
 Gaussian 16:  ES64L-G16RevC.01  3-Jul-2019

 ----------------------------------------------------------------------
 #t hf aug-cc-pvdz iop(5/13=1,5/36=2,99/5=2) pseudo=read geom=check gue
 ss=(read,tcheck) scf=(maxcycle=1)
 ----------------------------------------------------------------------
 -----
 title
 -----
 Structure from the checkpoint file:  "ANI1ccx_1499_conf2_mol1.chk"
 Charge =  0 Multiplicity = 1

                         Standard orientation:
 ---------------------------------------------------------------------
 Center     Atomic      Atomic             Coordinates (Angstroms)
 Number     Number       Type             X           Y           Z
 ---------------------------------------------------------------------
      1          6           0        0.349453    0.449457    0.005564
      2          6           0       -2.674529   -0.516632   -1.032300
      3          6           0       -2.653349    0.073788    1.041890
      4          6           0        1.745781    0.051928    0.081416
      5          6           0        2.486460   -1.207611    0.205367
      6          6           0        3.811920   -0.900320    0.042552
      7          6           0        2.730231    0.968887   -0.125558
      8          1           0        2.627271    2.014369   -0.409847
      9          1           0        4.752000   -1.491641    0.121817
     10          1           0        2.084170   -2.189531    0.375156
     11          1           0       -2.274099    0.360456    2.063770
     12          1           0       -2.303780   -0.940254   -1.978570
     13          1           0       -0.219130   -1.561030    0.316909
     14          7           0       -0.518641   -0.600920    0.129253
     15          7           0       -1.863629   -0.379473    0.033165
     16          7           0       -3.879749   -0.161613   -0.692519
     17          7           0       -3.870029    0.257884    0.624810
     18          8           0       -0.034657    1.596690   -0.184380
     19          8           0        3.969921    0.463248   -0.123845
 ---------------------------------------------------------------------

 SCF Done:  E(RHF) =  -636.262598676     A.U. after    2 cycles

 The electronic state is 1-A.
 Alpha  occ. eigenvalues --  -20.68186 -20.56710 -15.74073 -15.73203 -15.65197
 Alpha  occ. eigenvalues --  -15.64866 -11.40872 -11.34831 -11.34370 -11.32502
 Alpha  occ. eigenvalues --  -11.32389 -11.29191 -11.28013  -1.46262  -1.41234
 Alpha  occ. eigenvalues --   -1.36894  -1.28258  -1.14619  -1.10961  -1.08532
 Alpha  occ. eigenvalues --   -1.04634  -0.93158  -0.86302  -0.85875  -0.82917
 Alpha  occ. eigenvalues --   -0.81096  -0.79316  -0.77109  -0.70421  -0.69029
 Alpha  occ. eigenvalues --   -0.66605  -0.65051  -0.63961  -0.63315  -0.62567
 Alpha  occ. eigenvalues --   -0.61850  -0.61016  -0.57712  -0.48834  -0.47962
 Alpha  occ. eigenvalues --   -0.47181  -0.44379  -0.42480  -0.41453  -0.36982
 Alpha  occ. eigenvalues --   -0.36102
 Alpha virt. eigenvalues --    0.01385   0.02896   0.03274   0.04128   0.05470
 Alpha virt. eigenvalues --    0.06110   0.06849   0.08361   0.08885   0.09088
 Alpha virt. eigenvalues --    0.09497   0.10126   0.11501   0.11909   0.12132

 Mulliken charges:
               1
     1  C    0.318495
     2  C    0.651202
     3  C    0.620444
     4  C    0.302314
     5  C    0.525072
     6  C    0.551146
     7  C    0.704632
     8  H   -0.389664
     9  H   -0.236918
    10  H   -0.566416
    11  H   -0.174783
    12  H   -0.209792
    13  H    0.003134
    14  N   -0.152764
    15  N   -0.077711
    16  N   -0.433410
    17  N   -0.399901
    18  O   -0.483980
    19  O   -0.551100
 Sum of Mulliken charges =  -0.00000

 Dipole moment (field-independent basis, Debye):
    X=              7.1541    Y=             -5.1055    Z=              0.7705  Tot=              8.8227

 Test job not archived.
 1\1\GINC-SE367\SP\RHF\Aug-CC-pVDZ\C7H6N4O2\OHZDE\08-Apr-2025\0\\#t hf
 aug-cc-pvdz iop(5/13=1,5/36=2,99/5=2) pseudo=read geom=check guess=(re
 ad,tcheck) scf=(maxcycle=1)\\title\\0,1\C,0,0.349452,0.449457,0.005563
 69\C,0,-2.67453,-0.516633,-1.0323\C,0,-2.65335,0.0737877,1.04189\C,0,1
 .74578,0.0519283,0.081416\C,0,2.48646,-1.20761,0.205367\C,0,3.81192,-0
 .900319,0.0425513\C,0,2.73023,0.968888,-0.125558\H,0,2.62727,2.01437,-
 0.409847\H,0,4.752,-1.49164,0.121817\H,0,2.08417,-2.18953,0.375156\H,0
 ,-2.2741,0.360456,2.06377\H,0,-2.30378,-0.940254,-1.97857\H,0,-0.21913

 Normal termination of Gaussian 16 at Tue Apr  8 19:35:53 2025.
