 Gaussian 16, Revision C.01,

 ----------------------------------------------------------------------
 #t hf aug-cc-pvdz symm=none int=(grid=ultrafine) guess=(read,tcheck) s
 table=(opt,rrhf)
 ----------------------------------------------------------------------
 -----
 title
 -----
 Symbolic Z-matrix:
 Charge =  0 Multiplicity = 1

 SCF Done:  E(RHF) =  -380.242263750     A.U. after   11 cycles
 Normal termination of Gaussian 16 at Tue Apr  8 20:53:19 2025.
 Gaussian 16:  ES64L-G16RevC.01  3-Jul-2019

 ----------------------------------------------------------------------
 #t hf aug-cc-pvdz iop(5/13=1,5/36=2,99/5=2) pseudo=read geom=check gue
 ss=(read,tcheck) scf=(maxcycle=1)
 ----------------------------------------------------------------------
 -----
 title
 -----
 Structure from the checkpoint file:  "ANI1ccx_1843_conf108_mol2.chk"
 Charge =  0 Multiplicity = 1

                         Standard orientation:
 ---------------------------------------------------------------------
 Center     Atomic      Atomic             Coordinates (Angstroms)
 Number     Number       Type             X           Y           Z
 ---------------------------------------------------------------------
      1          1           0       -1.813250    0.800506    0.006124
      2          1           0       -2.900760    0.025876   -0.798486
      3          1           0        0.209840    1.944751   -0.007726
      4          1           0       -0.886667    2.858417    0.634341
      5          1           0        2.462780    1.652769    0.653535
      6          1           0        1.911115    0.412191   -0.049701
      7          1           0        0.991701   -1.677809    0.014215
      8          1           0        2.332413   -1.794312   -0.752467
      9          1           0       -1.304722   -1.439598    0.015255
     10          1           0       -0.975021   -2.727494    0.816348
     11          8           0       -2.332169   -0.042215   -0.014614
     12          8           0       -0.752428    2.178239   -0.041420
     13          8           0        1.851843    1.395752   -0.043425
     14          8           0        1.914187   -1.329118   -0.019067
     15          8           0       -0.684861   -2.209570    0.052095
 ---------------------------------------------------------------------

 SCF Done:  E(RHF) =  -380.369389287     A.U. after    2 cycles

 The electronic state is 1-A.
 Alpha  occ. eigenvalues --  -20.57095 -20.57091 -20.57046 -20.57039 -20.56904
 Alpha  occ. eigenvalues --   -1.31791  -1.30815  -1.30701  -1.29155  -1.28861
 Alpha  occ. eigenvalues --   -0.73493  -0.73019  -0.72798  -0.72688  -0.72636
 Alpha  occ. eigenvalues --   -0.63273  -0.63117  -0.58952  -0.58632  -0.56042
 Alpha  occ. eigenvalues --   -0.52574  -0.52229  -0.52088  -0.51903  -0.51743
 Alpha virt. eigenvalues --    0.03177   0.04602   0.04840   0.05897   0.06405
 Alpha virt. eigenvalues --    0.08492   0.09005   0.09709   0.10417   0.11403
 Alpha virt. eigenvalues --    0.16915   0.18593   0.19525   0.19742   0.20669

 Mulliken charges:
               1
     1  H    0.274111
     2  H    0.162392
     3  H    0.278442
     4  H    0.157074
     5  H    0.146886
     6  H    0.273015
     7  H    0.271482
     8  H    0.154527
     9  H    0.276736
    10  H    0.156704
    11  O   -0.442156
    12  O   -0.431481
    13  O   -0.418939
    14  O   -0.427230
    15  O   -0.431564
 Sum of Mulliken charges =  -0.00000

 Dipole moment (field-independent basis, Debye):
    X=              0.1008    Y=              0.1432    Z=              1.1145  Tot=              1.1282

 Test job not archived.
 1\1\GINC-SE074\SP\RHF\Aug-CC-pVDZ\H10O5\OHZDE\08-Apr-2025\0\\#t hf aug
 -cc-pvdz iop(5/13=1,5/36=2,99/5=2) pseudo=read geom=check guess=(read,
 tcheck) scf=(maxcycle=1)\\title\\0,1\H,0,-1.81324,0.80053,0.00612432\H
 ,0,-2.90076,0.0259143,-0.798486\H,0,0.209864,1.94475,-0.00772597\H,0,-
 0.886631,2.85843,0.634341\H,0,2.4628,1.65274,0.653535\H,0,1.91112,0.41
 2169,-0.049701\H,0,0.99168,-1.67782,0.0142151\H,0,2.33239,-1.79434,-0.
 752467\H,0,-1.30474,-1.43958,0.0152546\H,0,-0.975055,-2.72748,0.816348
 \O,0,-2.33217,-0.0421842,-0.0146139\O,0,-0.752401,2.17825,-0.0414195\O

 Normal termination of Gaussian 16 at Tue Apr  8 20:53:22 2025.
