 Gaussian 16, Revision C.01,

 ----------------------------------------------------------------------
 #t hf aug-cc-pvdz symm=none int=(grid=ultrafine) guess=(read,tcheck) s
 table=(opt,rrhf)
 ----------------------------------------------------------------------
 -----
 title
 -----
 Symbolic Z-matrix:
 Charge =  0 Multiplicity = 1

 SCF Done:  E(RHF) =  -810.419581068     A.U. after   14 cycles
 Normal termination of Gaussian 16 at Tue Apr  8 19:37:20 2025.
 Gaussian 16:  ES64L-G16RevC.01  3-Jul-2019

 ----------------------------------------------------------------------
 #t hf aug-cc-pvdz iop(5/13=1,5/36=2,99/5=2) pseudo=read geom=check gue
 ss=(read,tcheck) scf=(maxcycle=1)
 ----------------------------------------------------------------------
 -----
 title
 -----
 Structure from the checkpoint file:  "ANI1ccx_1427_conf21_mol1.chk"
 Charge =  0 Multiplicity = 1

                         Standard orientation:
 ---------------------------------------------------------------------
 Center     Atomic      Atomic             Coordinates (Angstroms)
 Number     Number       Type             X           Y           Z
 ---------------------------------------------------------------------
      1          6           0       -2.253970   -0.971523    0.550157
      2          6           0       -0.929108   -0.378373    0.053507
      3          6           0       -3.330110   -0.071719   -0.101580
      4          6           0        1.322870    0.695776    0.407344
      5          6           0        0.795087    2.208400    0.194151
      6          6           0        2.215710    0.168369   -0.699014
      7          6           0        2.735310   -1.144330   -0.150097
      8          1           0        0.208599    1.391709   -1.307870
      9          1           0        2.011051   -2.158130   -1.820460
     10          1           0        3.022621   -3.059610   -0.696724
     11          1           0        3.103840    0.805799   -0.782010
     12          1           0        1.788380    0.028975   -1.658260
     13          1           0        1.927130    0.693615    1.324520
     14          1           0        0.356249   -0.431147    1.810950
     15          1           0       -2.752090   -0.191218   -1.970110
     16          1           0       -2.966260    0.946431   -0.016793
     17          1           0       -4.331210   -0.110287    0.342994
     18          1           0       -2.348859   -1.950652    0.013543
     19          1           0       -1.694590   -1.434361    2.433320
     20          1           0       -2.903580   -0.377834    2.188190
     21          7           0       -2.563020   -1.257852    1.905960
     22          7           0        0.169183   -0.086424    0.840575
     23          7           0        2.432071   -2.244030   -0.886242
     24          8           0       -0.717653   -0.221645   -1.146980
     25          8           0       -3.567580   -0.340558   -1.485090
     26          8           0        0.803331    3.062960    0.995853
     27          8           0        3.299190   -1.264530    0.892604
     28          8           0        0.304754    2.254429   -1.057660
 ---------------------------------------------------------------------

 SCF Done:  E(RHF) =  -810.668487737     A.U. after    2 cycles

 The electronic state is 1-A.
 Alpha  occ. eigenvalues --  -20.61493 -20.58127 -20.58060 -20.57336 -20.55723
 Alpha  occ. eigenvalues --  -15.69407 -15.66705 -15.65039 -11.41384 -11.41003
 Alpha  occ. eigenvalues --  -11.38231 -11.32871 -11.31234 -11.31015 -11.27834
 Alpha  occ. eigenvalues --   -1.44488  -1.40147  -1.38999  -1.36684  -1.32367
 Alpha  occ. eigenvalues --   -1.23284  -1.21533  -1.19385  -1.07883  -1.01158
 Alpha  occ. eigenvalues --   -0.95176  -0.89613  -0.86033  -0.83406  -0.80241
 Alpha  occ. eigenvalues --   -0.76434  -0.75400  -0.73885  -0.73386  -0.71022
 Alpha  occ. eigenvalues --   -0.69584  -0.68850  -0.68742  -0.65973  -0.65731
 Alpha  occ. eigenvalues --   -0.64273  -0.63190  -0.61536  -0.61149  -0.59668
 Alpha  occ. eigenvalues --   -0.59478  -0.56769  -0.55917  -0.55085  -0.53911
 Alpha  occ. eigenvalues --   -0.51935  -0.49659  -0.48852  -0.46486  -0.46302
 Alpha  occ. eigenvalues --   -0.44000  -0.43180  -0.41906
 Alpha virt. eigenvalues --    0.02281   0.02676   0.03657   0.04038   0.04891
 Alpha virt. eigenvalues --    0.05422   0.06011   0.06934   0.07043   0.07914
 Alpha virt. eigenvalues --    0.08187   0.08540   0.09263   0.10665   0.10674

 Mulliken charges:
               1
     1  C    0.171596
     2  C    0.369418
     3  C    1.071828
     4  C   -0.087705
     5  C    0.767707
     6  C    0.765995
     7  C    0.687022
     8  H    0.280754
     9  H    0.057846
    10  H    0.011021
    11  H    0.105821
    12  H   -0.337562
    13  H   -0.238814
    14  H   -0.051998
    15  H    0.196289
    16  H   -0.110361
    17  H   -0.248308
    18  H    0.069885
    19  H    0.064517
    20  H    0.096993
    21  N   -0.223313
    22  N   -0.487473
    23  N   -0.246252
    24  O   -0.722694
    25  O   -0.582200
    26  O   -0.418175
    27  O   -0.562684
    28  O   -0.399152
 Sum of Mulliken charges =  -0.00000

 Dipole moment (field-independent basis, Debye):
    X=              1.3535    Y=             -3.7446    Z=             -0.3947  Tot=              4.0012

 Test job not archived.
 1\1\GINC-SE029\SP\RHF\Aug-CC-pVDZ\C7H13N3O5\OHZDE\08-Apr-2025\0\\#t hf
  aug-cc-pvdz iop(5/13=1,5/36=2,99/5=2) pseudo=read geom=check guess=(r
 ead,tcheck) scf=(maxcycle=1)\\title\\0,1\C,0,-2.25397,-0.971522,0.5501
 57\C,0,-0.929108,-0.378372,0.0535068\C,0,-3.33011,-0.0717174,-0.10158\
 C,0,1.32287,0.695776,0.407344\C,0,0.795088,2.2084,0.194151\C,0,2.21571
 ,0.168369,-0.699014\C,0,2.73531,-1.14433,-0.150097\H,0,0.208599,1.3917
 1,-1.30787\H,0,2.01105,-2.15813,-1.82046\H,0,3.02262,-3.05961,-0.69672
 4\H,0,3.10384,0.805799,-0.78201\H,0,1.78838,0.0289747,-1.65826\H,0,1.9

 Normal termination of Gaussian 16 at Tue Apr  8 19:37:52 2025.
