 Gaussian 16, Revision C.01,

 ----------------------------------------------------------------------
 #t hf aug-cc-pvdz symm=none int=(grid=ultrafine) guess=(read,tcheck) s
 table=(opt,rrhf)
 ----------------------------------------------------------------------
 -----
 title
 -----
 Symbolic Z-matrix:
 Charge =  0 Multiplicity = 1

 SCF Done:  E(RHF) =  -532.302131699     A.U. after   11 cycles
 Normal termination of Gaussian 16 at Tue Apr  8 21:09:03 2025.
 Gaussian 16:  ES64L-G16RevC.01  3-Jul-2019

 ----------------------------------------------------------------------
 #t hf aug-cc-pvdz iop(5/13=1,5/36=2,99/5=2) pseudo=read geom=check gue
 ss=(read,tcheck) scf=(maxcycle=1)
 ----------------------------------------------------------------------
 -----
 title
 -----
 Structure from the checkpoint file:  "ANI1ccx_1845_conf263_mol1.chk"
 Charge =  0 Multiplicity = 1

                         Standard orientation:
 ---------------------------------------------------------------------
 Center     Atomic      Atomic             Coordinates (Angstroms)
 Number     Number       Type             X           Y           Z
 ---------------------------------------------------------------------
      1          1           0       -1.771902    3.553669   -0.182087
      2          1           0        0.482562    2.064321    0.804846
      3          1           0        0.339052    0.948507   -0.171629
      4          1           0       -3.035419   -0.194225   -0.105162
      5          1           0       -3.906820    1.208297   -0.175591
      6          1           0       -1.821961    2.031129    0.133817
      7          1           0       -1.526967   -2.057831   -0.006521
      8          1           0        2.899672   -0.827169   -0.630939
      9          1           0       -2.914606   -2.633822    0.222064
     10          1           0        2.854480    1.050373   -0.193654
     11          1           0        4.266490    1.358504   -0.575307
     12          1           0        0.312772   -2.485369    1.085200
     13          1           0        0.747487   -2.357109   -0.335916
     14          1           0        1.555092   -0.608439    0.081358
     15          8           0       -1.225191    2.856629    0.161483
     16          8           0        2.138482   -1.314248   -0.136474
     17          8           0       -3.038609    0.745097   -0.345048
     18          8           0        3.747361    0.686237   -0.146187
     19          8           0        1.002180    1.400241    0.314365
     20          8           0       -2.471117   -1.854472   -0.059325
     21          8           0        0.036903   -2.650839    0.217378
 ---------------------------------------------------------------------

 SCF Done:  E(RHF) =  -532.479815883     A.U. after    2 cycles

 The electronic state is 1-A.
 Alpha  occ. eigenvalues --  -20.58533 -20.57831 -20.57652 -20.57133 -20.56861
 Alpha  occ. eigenvalues --  -20.56551 -20.56353  -1.33949  -1.33371  -1.32248
 Alpha  occ. eigenvalues --   -1.31399  -1.30215  -1.29293  -1.29035  -0.76176
 Alpha  occ. eigenvalues --   -0.75303  -0.75146  -0.74394  -0.74240  -0.72286
 Alpha  occ. eigenvalues --   -0.71145  -0.64294  -0.64037  -0.61751  -0.61086
 Alpha  occ. eigenvalues --   -0.58627  -0.57396  -0.56244  -0.54234  -0.53129
 Alpha  occ. eigenvalues --   -0.53038  -0.52490  -0.52103  -0.51656  -0.51376
 Alpha virt. eigenvalues --    0.02800   0.04080   0.04304   0.05698   0.06379
 Alpha virt. eigenvalues --    0.06521   0.07567   0.08664   0.09259   0.09465
 Alpha virt. eigenvalues --    0.10490   0.11539   0.12295   0.13577   0.16626

 Mulliken charges:
               1
     1  H    0.127856
     2  H    0.269620
     3  H    0.135402
     4  H    0.235196
     5  H    0.220117
     6  H    0.282473
     7  H    0.263005
     8  H    0.343620
     9  H    0.121850
    10  H    0.148374
    11  H    0.192038
    12  H    0.159031
    13  H    0.241306
    14  H    0.106747
    15  O   -0.382760
    16  O   -0.457869
    17  O   -0.443745
    18  O   -0.318638
    19  O   -0.446296
    20  O   -0.356038
    21  O   -0.441289
 Sum of Mulliken charges =  -0.00000

 Dipole moment (field-independent basis, Debye):
    X=             -2.6619    Y=              2.1067    Z=             -0.0241  Tot=              3.3947

 Test job not archived.
 1\1\GINC-SE398\SP\RHF\Aug-CC-pVDZ\H14O7\OHZDE\08-Apr-2025\0\\#t hf aug
 -cc-pvdz iop(5/13=1,5/36=2,99/5=2) pseudo=read geom=check guess=(read,
 tcheck) scf=(maxcycle=1)\\title\\0,1\H,0,-1.7719,3.55367,-0.182087\H,0
 ,0.482563,2.06432,0.804846\H,0,0.339052,0.948506,-0.171629\H,0,-3.0354
 2,-0.194223,-0.105162\H,0,-3.90682,1.2083,-0.175591\H,0,-1.82196,2.031
 13,0.133817\H,0,-1.52697,-2.05783,-0.00652038\H,0,2.89967,-0.827172,-0
 .630939\H,0,-2.91461,-2.63382,0.222064\H,0,2.85448,1.05037,-0.193654\H
 ,0,4.26649,1.3585,-0.575307\H,0,0.312769,-2.48537,1.0852\H,0,0.747484,

 Normal termination of Gaussian 16 at Tue Apr  8 21:09:09 2025.
