 Gaussian 16, Revision C.01,

 ----------------------------------------------------------------------
 #t hf aug-cc-pvdz symm=none int=(grid=ultrafine) guess=(read,tcheck) s
 table=(opt,rrhf)
 ----------------------------------------------------------------------
 -----
 title
 -----
 Symbolic Z-matrix:
 Charge =  0 Multiplicity = 1

 SCF Done:  E(RHF) =  -524.590232628     A.U. after   15 cycles
 Normal termination of Gaussian 16 at Tue Apr  8 19:24:49 2025.
 Gaussian 16:  ES64L-G16RevC.01  3-Jul-2019

 ----------------------------------------------------------------------
 #t hf aug-cc-pvdz iop(5/13=1,5/36=2,99/5=2) pseudo=read geom=check gue
 ss=(read,tcheck) scf=(maxcycle=1)
 ----------------------------------------------------------------------
 -----
 title
 -----
 Structure from the checkpoint file:  "ANI1ccx_1349_conf2_mol2.chk"
 Charge =  0 Multiplicity = 1

                         Standard orientation:
 ---------------------------------------------------------------------
 Center     Atomic      Atomic             Coordinates (Angstroms)
 Number     Number       Type             X           Y           Z
 ---------------------------------------------------------------------
      1          6           0        2.216698   -0.288598    0.067308
      2          6           0       -0.294886   -0.480512   -0.101109
      3          6           0       -2.394402   -1.278890    0.230168
      4          6           0       -2.950342    0.001691    0.163200
      5          6           0       -2.134712    1.076480   -0.047865
      6          6           0       -0.769915    0.852111   -0.216788
      7          1           0        0.916890    1.752481   -0.130041
      8          1           0       -2.487062    2.104860   -0.151977
      9          1           0       -4.024772    0.180351    0.193873
     10          1           0       -3.135792   -2.088500    0.330870
     11          1           0        1.122048   -1.841919   -0.666577
     12          1           0        3.362638   -1.406249   -0.926672
     13          1           0        2.962638    1.100541    1.187140
     14          1           0        1.441748    0.566739    1.647440
     15          7           0        2.034388    0.845251    0.878694
     16          7           0        3.420718   -0.633763   -0.246958
     17          7           0        1.022198   -0.865803   -0.388100
     18          7           0       -1.114902   -1.499799    0.081828
     19          8           0        0.033776    1.927101   -0.541474
 ---------------------------------------------------------------------

 SCF Done:  E(RHF) =  -524.743820946     A.U. after    2 cycles

 The electronic state is 1-A.
 Alpha  occ. eigenvalues --  -20.58733 -15.67410 -15.66750 -15.64202 -15.60590
 Alpha  occ. eigenvalues --  -11.38480 -11.33992 -11.32164 -11.29017 -11.26525
 Alpha  occ. eigenvalues --  -11.25327  -1.35280  -1.29944  -1.25993  -1.17592
 Alpha  occ. eigenvalues --   -1.12842  -1.08314  -1.01269  -0.88369  -0.87296
 Alpha  occ. eigenvalues --   -0.81921  -0.76725  -0.74171  -0.73215  -0.69357
 Alpha  occ. eigenvalues --   -0.66190  -0.65506  -0.63127  -0.61963  -0.59651
 Alpha  occ. eigenvalues --   -0.58036  -0.57245  -0.54102  -0.53134  -0.47177
 Alpha  occ. eigenvalues --   -0.44976  -0.42891  -0.40108  -0.38087  -0.31469
 Alpha virt. eigenvalues --    0.02913   0.03379   0.03698   0.04503   0.05623
 Alpha virt. eigenvalues --    0.05932   0.07796   0.07841   0.08831   0.09678
 Alpha virt. eigenvalues --    0.10870   0.11162   0.11924   0.12831   0.13004

 Mulliken charges:
               1
     1  C    0.877297
     2  C    0.393805
     3  C    0.462412
     4  C    0.771258
     5  C    0.377186
     6  C    0.395812
     7  H    0.277962
     8  H   -0.426279
     9  H   -0.400226
    10  H   -0.331813
    11  H   -0.055834
    12  H    0.023332
    13  H    0.069613
    14  H    0.151333
    15  N   -0.555414
    16  N   -0.437034
    17  N   -0.530235
    18  N   -0.377963
    19  O   -0.685211
 Sum of Mulliken charges =   0.00000

 Dipole moment (field-independent basis, Debye):
    X=             -1.9014    Y=             -0.6269    Z=              1.7344  Tot=              2.6489

 Test job not archived.
 1\1\GINC-SE088\SP\RHF\Aug-CC-pVDZ\C6H8N4O1\OHZDE\08-Apr-2025\0\\#t hf
 aug-cc-pvdz iop(5/13=1,5/36=2,99/5=2) pseudo=read geom=check guess=(re
 ad,tcheck) scf=(maxcycle=1)\\title\\0,1\C,0,2.2167,-0.288599,0.0673084
 \C,0,-0.294884,-0.480513,-0.101109\C,0,-2.3944,-1.27889,0.230168\C,0,-
 2.95034,0.00169099,0.1632\C,0,-2.13471,1.07648,-0.0478654\C,0,-0.76991
 3,0.85211,-0.216788\H,0,0.916892,1.75248,-0.130041\H,0,-2.48706,2.1048
 6,-0.151977\H,0,-4.02477,0.180351,0.193873\H,0,-3.13579,-2.0885,0.3308
 7\H,0,1.12205,-1.84192,-0.666577\H,0,3.36264,-1.40625,-0.926672\H,0,2.

 Normal termination of Gaussian 16 at Tue Apr  8 19:25:00 2025.
