 Gaussian 16, Revision C.01,

 ----------------------------------------------------------------------
 #t hf aug-cc-pvdz symm=none int=(grid=ultrafine) guess=(read,tcheck) s
 table=(opt,rrhf)
 ----------------------------------------------------------------------
 -----
 title
 -----
 Symbolic Z-matrix:
 Charge =  0 Multiplicity = 1

 SCF Done:  E(RHF) =  -294.632537614     A.U. after   16 cycles
 Normal termination of Gaussian 16 at Tue Apr  8 21:42:07 2025.
 Gaussian 16:  ES64L-G16RevC.01  3-Jul-2019

 ----------------------------------------------------------------------
 #t hf aug-cc-pvdz iop(5/13=1,5/36=2,99/5=2) pseudo=read geom=check gue
 ss=(read,tcheck) scf=(maxcycle=1)
 ----------------------------------------------------------------------
 -----
 title
 -----
 Structure from the checkpoint file:  "ANI1ccx_486_conf11_mol1.chk"
 Charge =  0 Multiplicity = 1

                         Standard orientation:
 ---------------------------------------------------------------------
 Center     Atomic      Atomic             Coordinates (Angstroms)
 Number     Number       Type             X           Y           Z
 ---------------------------------------------------------------------
      1          6           0        0.291737    1.198819   -0.072170
      2          6           0       -1.200742   -0.323213   -0.042046
      3          1           0        0.723794    2.169066   -0.217984
      4          1           0       -2.189474   -0.651311   -0.035185
      5          7           0       -0.999528    0.962368    0.121129
      6          7           0       -0.328079   -1.306438   -0.072033
      7          7           0        1.000445   -0.929131    0.088975
      8          7           0        1.315692    0.305859   -0.004004
 ---------------------------------------------------------------------

 SCF Done:  E(RHF) =  -294.714298776     A.U. after    2 cycles

 The electronic state is 1-A.
 Alpha  occ. eigenvalues --  -15.77108 -15.71240 -15.70046 -15.69196 -11.37869
 Alpha  occ. eigenvalues --  -11.36045  -1.41204  -1.27013  -1.20739  -0.99916
 Alpha  occ. eigenvalues --   -0.95321  -0.78641  -0.77235  -0.65285  -0.63566
 Alpha  occ. eigenvalues --   -0.61456  -0.55739  -0.48644  -0.46335  -0.44496
 Alpha  occ. eigenvalues --   -0.43039
 Alpha virt. eigenvalues --    0.02894   0.03448   0.03808   0.06837   0.07354
 Alpha virt. eigenvalues --    0.08488   0.10176   0.10581   0.13529   0.14190
 Alpha virt. eigenvalues --    0.14862   0.16169   0.17322   0.18139   0.19642

 Mulliken charges:
               1
     1  C    0.757471
     2  C    0.837289
     3  H   -0.190436
     4  H   -0.304980
     5  N   -0.397329
     6  N   -0.297718
     7  N   -0.120445
     8  N   -0.283853
 Sum of Mulliken charges =  -0.00000

 Dipole moment (field-independent basis, Debye):
    X=             -1.4702    Y=              1.9924    Z=             -0.4126  Tot=              2.5102

 Test job not archived.
 1\1\GINC-SE252\SP\RHF\Aug-CC-pVDZ\C2H2N4\OHZDE\08-Apr-2025\0\\#t hf au
 g-cc-pvdz iop(5/13=1,5/36=2,99/5=2) pseudo=read geom=check guess=(read
 ,tcheck) scf=(maxcycle=1)\\title\\0,1\C,0,0.29173,1.19882,-0.0721704\C
 ,0,-1.20074,-0.32322,-0.0420463\H,0,0.723782,2.16907,-0.217984\H,0,-2.
 18947,-0.651324,-0.0351853\N,0,-0.999533,0.962362,0.121129\N,0,-0.3280
 71,-1.30644,-0.0720327\N,0,1.00045,-0.929126,0.0889747\N,0,1.31569,0.3
 05866,-0.00400418\\Version=ES64L-G16RevC.01\State=1-A\HF=-294.7142988\
 RMSD=2.828e-03\Dipole=-0.5784088,0.7838646,-0.1623201\Quadrupole=-0.55

 Normal termination of Gaussian 16 at Tue Apr  8 21:42:09 2025.
