 Gaussian 16, Revision C.01,

 ----------------------------------------------------------------------
 #t hf aug-cc-pvdz symm=none int=(grid=ultrafine) guess=(read,tcheck) s
 table=(opt,rrhf)
 ----------------------------------------------------------------------
 -----
 title
 -----
 Symbolic Z-matrix:
 Charge =  0 Multiplicity = 1

 SCF Done:  E(RHF) =  -532.259726347     A.U. after   12 cycles
 Normal termination of Gaussian 16 at Tue Apr  8 21:09:00 2025.
 Gaussian 16:  ES64L-G16RevC.01  3-Jul-2019

 ----------------------------------------------------------------------
 #t hf aug-cc-pvdz iop(5/13=1,5/36=2,99/5=2) pseudo=read geom=check gue
 ss=(read,tcheck) scf=(maxcycle=1)
 ----------------------------------------------------------------------
 -----
 title
 -----
 Structure from the checkpoint file:  "ANI1ccx_1845_conf442_mol1.chk"
 Charge =  0 Multiplicity = 1

                         Standard orientation:
 ---------------------------------------------------------------------
 Center     Atomic      Atomic             Coordinates (Angstroms)
 Number     Number       Type             X           Y           Z
 ---------------------------------------------------------------------
      1          1           0       -0.768206   -0.019596   -0.564635
      2          1           0        2.449882   -2.782510   -0.045401
      3          1           0        1.397992   -1.525360   -0.455531
      4          1           0        3.439442   -0.570606   -0.184548
      5          1           0        4.539782    0.466499   -0.650470
      6          1           0        0.548747    0.511528    0.234953
      7          1           0        2.445332    1.545940    0.600235
      8          1           0       -3.368288    0.084073    0.808363
      9          1           0        1.473402    2.621840   -0.029240
     10          1           0       -2.869158    0.489431   -1.336030
     11          1           0       -1.962518   -0.153893   -2.412910
     12          1           0       -1.657458   -0.243767    2.730990
     13          1           0       -1.111448   -0.528785    1.080910
     14          1           0       -4.203328   -0.965533   -0.260391
     15          8           0        0.040259   -0.317496    0.049466
     16          8           0       -3.928988    0.043289   -0.047785
     17          8           0        3.865962    0.328427    0.034060
     18          8           0       -1.947648    0.625089   -1.775970
     19          8           0        2.324392   -1.865390   -0.523551
     20          8           0        1.523762    1.930540    0.593702
     21          8           0       -1.922008   -0.610617    1.730540
 ---------------------------------------------------------------------

 SCF Done:  E(RHF) =  -532.432832091     A.U. after    2 cycles

 The electronic state is 1-A.
 Alpha  occ. eigenvalues --  -20.58742 -20.58382 -20.58338 -20.57673 -20.57660
 Alpha  occ. eigenvalues --  -20.56714 -20.56461  -1.31863  -1.30377  -1.29771
 Alpha  occ. eigenvalues --   -1.29058  -1.28043  -1.27293  -1.24225  -0.75034
 Alpha  occ. eigenvalues --   -0.73456  -0.72485  -0.71527  -0.70399  -0.70229
 Alpha  occ. eigenvalues --   -0.67932  -0.63379  -0.61444  -0.59940  -0.59433
 Alpha  occ. eigenvalues --   -0.59197  -0.56441  -0.55401  -0.53080  -0.52868
 Alpha  occ. eigenvalues --   -0.52457  -0.51240  -0.51030  -0.50384  -0.49814
 Alpha virt. eigenvalues --    0.02725   0.03909   0.04642   0.04933   0.05803
 Alpha virt. eigenvalues --    0.06381   0.07544   0.08036   0.09185   0.09410
 Alpha virt. eigenvalues --    0.10276   0.11211   0.12459   0.12643   0.16916

 Mulliken charges:
               1
     1  H    0.493076
     2  H    0.255925
     3  H    0.232444
     4  H    0.300704
     5  H    0.164518
     6  H    0.289462
     7  H    0.263760
     8  H    0.300307
     9  H    0.135446
    10  H    0.309125
    11  H    0.208223
    12  H    0.278796
    13  H    0.404668
    14  H    0.298619
    15  O   -0.876800
    16  O   -0.623935
    17  O   -0.444858
    18  O   -0.512160
    19  O   -0.492186
    20  O   -0.413254
    21  O   -0.571880
 Sum of Mulliken charges =  -0.00000

 Dipole moment (field-independent basis, Debye):
    X=              0.9498    Y=             -2.0996    Z=             -1.2713  Tot=              2.6319

 Test job not archived.
 1\1\GINC-SE364\SP\RHF\Aug-CC-pVDZ\H14O7\OHZDE\08-Apr-2025\0\\#t hf aug
 -cc-pvdz iop(5/13=1,5/36=2,99/5=2) pseudo=read geom=check guess=(read,
 tcheck) scf=(maxcycle=1)\\title\\0,1\H,0,-0.768208,-0.0195961,-0.56463
 5\H,0,2.44988,-2.78251,-0.0454011\H,0,1.39799,-1.52536,-0.455531\H,0,3
 .43944,-0.570606,-0.184548\H,0,4.53978,0.466499,-0.65047\H,0,0.548745,
 0.511528,0.234953\H,0,2.44533,1.54594,0.600235\H,0,-3.36829,0.0840733,
 0.808363\H,0,1.4734,2.62184,-0.0292398\H,0,-2.86916,0.489431,-1.33603\
 H,0,-1.96252,-0.153893,-2.41291\H,0,-1.65746,-0.243767,2.73099\H,0,-1.

 Normal termination of Gaussian 16 at Tue Apr  8 21:09:06 2025.
