 Gaussian 16, Revision C.01,

 ----------------------------------------------------------------------
 #t hf aug-cc-pvdz symm=none int=(grid=ultrafine) guess=(read,tcheck) s
 table=(opt,rrhf)
 ----------------------------------------------------------------------
 -----
 title
 -----
 Symbolic Z-matrix:
 Charge =  0 Multiplicity = 1

 SCF Done:  E(RHF) =  -689.352208247     A.U. after   14 cycles
 Normal termination of Gaussian 16 at Tue Apr  8 21:52:45 2025.
 Gaussian 16:  ES64L-G16RevC.01  3-Jul-2019

 ----------------------------------------------------------------------
 #t hf aug-cc-pvdz iop(5/13=1,5/36=2,99/5=2) pseudo=read geom=check gue
 ss=(read,tcheck) scf=(maxcycle=1)
 ----------------------------------------------------------------------
 -----
 title
 -----
 Structure from the checkpoint file:  "ANI1ccx_756_conf6_mol2.chk"
 Charge =  0 Multiplicity = 1

                         Standard orientation:
 ---------------------------------------------------------------------
 Center     Atomic      Atomic             Coordinates (Angstroms)
 Number     Number       Type             X           Y           Z
 ---------------------------------------------------------------------
      1          6           0       -2.728520   -0.160712   -0.207487
      2          6           0        0.122720    1.483280    0.496206
      3          6           0        1.965060    0.118144    0.094026
      4          1           0        3.878930    0.954645    0.267182
      5          1           0       -0.385270    2.195770    1.159770
      6          1           0       -0.224449    0.243887   -1.044100
      7          1           0        3.223591   -1.428839   -0.863948
      8          1           0       -2.700449   -1.950730    0.567278
      9          1           0       -0.190302   -1.254060    0.690596
     10          1           0       -2.496650    1.574170   -1.063250
     11          7           0       -2.019819   -1.267290    0.236576
     12          7           0       -1.994210    1.031350   -0.365381
     13          7           0       -0.605577    1.018410   -0.529208
     14          7           0        1.339510    1.219790    0.711616
     15          7           0        3.278720    0.171790    0.072672
     16          8           0        1.354131   -0.891466   -0.409677
     17          8           0       -1.037989   -1.088000    1.179720
     18          8           0       -3.918360   -0.224811   -0.535981
     19          8           0        3.945801   -0.820405   -0.595802
 ---------------------------------------------------------------------

 SCF Done:  E(RHF) =  -689.560907818     A.U. after    2 cycles

 The electronic state is 1-A.
 Alpha  occ. eigenvalues --  -20.64248 -20.62968 -20.57465 -20.56142 -15.73866
 Alpha  occ. eigenvalues --  -15.71327 -15.71296 -15.70982 -15.64094 -11.43245
 Alpha  occ. eigenvalues --  -11.42011 -11.37969  -1.44576  -1.42096  -1.36441
 Alpha  occ. eigenvalues --   -1.35737  -1.32135  -1.23525  -1.16730  -1.12723
 Alpha  occ. eigenvalues --   -1.08819  -0.92610  -0.88407  -0.85669  -0.79535
 Alpha  occ. eigenvalues --   -0.77883  -0.75303  -0.74259  -0.70602  -0.69279
 Alpha  occ. eigenvalues --   -0.68148  -0.67553  -0.66267  -0.64484  -0.62194
 Alpha  occ. eigenvalues --   -0.60832  -0.59108  -0.57133  -0.53787  -0.52024
 Alpha  occ. eigenvalues --   -0.48428  -0.46660  -0.44359  -0.43164  -0.43008
 Alpha  occ. eigenvalues --   -0.39704
 Alpha virt. eigenvalues --    0.02854   0.03471   0.03754   0.04316   0.05738
 Alpha virt. eigenvalues --    0.07064   0.07904   0.08539   0.09692   0.10915
 Alpha virt. eigenvalues --    0.11889   0.12724   0.12904   0.13773   0.14386

 Mulliken charges:
               1
     1  C    0.833657
     2  C    0.823725
     3  C    0.901624
     4  H    0.014386
     5  H   -0.334954
     6  H    0.018987
     7  H    0.199235
     8  H    0.079996
     9  H    0.319697
    10  H    0.034544
    11  N    0.047298
    12  N   -0.384740
    13  N    0.095968
    14  N   -0.452040
    15  N    0.182034
    16  O   -0.780005
    17  O   -0.576566
    18  O   -0.511761
    19  O   -0.511086
 Sum of Mulliken charges =  -0.00000

 Dipole moment (field-independent basis, Debye):
    X=              2.7616    Y=              2.1882    Z=             -0.3220  Tot=              3.5381

 Test job not archived.
 1\1\GINC-SE367\SP\RHF\Aug-CC-pVDZ\C3H7N5O4\OHZDE\08-Apr-2025\0\\#t hf
 aug-cc-pvdz iop(5/13=1,5/36=2,99/5=2) pseudo=read geom=check guess=(re
 ad,tcheck) scf=(maxcycle=1)\\title\\0,1\C,0,-2.72852,-0.160712,-0.2074
 87\C,0,0.12272,1.48328,0.496206\C,0,1.96506,0.118144,0.094026\H,0,3.87
 893,0.954644,0.267182\H,0,-0.38527,2.19577,1.15977\H,0,-0.224449,0.243
 887,-1.0441\H,0,3.22359,-1.42884,-0.863948\H,0,-2.70045,-1.95073,0.567
 278\H,0,-0.190303,-1.25406,0.690596\H,0,-2.49665,1.57417,-1.06325\N,0,
 -2.01982,-1.26729,0.236576\N,0,-1.99421,1.03135,-0.365381\N,0,-0.60557

 Normal termination of Gaussian 16 at Tue Apr  8 21:52:55 2025.
