 Gaussian 16, Revision C.01,

 ----------------------------------------------------------------------
 #t hf aug-cc-pvdz symm=none int=(grid=ultrafine) guess=(read,tcheck) s
 table=(opt,rrhf)
 ----------------------------------------------------------------------
 -----
 title
 -----
 Symbolic Z-matrix:
 Charge =  0 Multiplicity = 1

 SCF Done:  E(RHF) =  -460.222817362     A.U. after   17 cycles
 Normal termination of Gaussian 16 at Tue Apr  8 21:20:36 2025.
 Gaussian 16:  ES64L-G16RevC.01  3-Jul-2019

 ----------------------------------------------------------------------
 #t hf aug-cc-pvdz iop(5/13=1,5/36=2,99/5=2) pseudo=read geom=check gue
 ss=(read,tcheck) scf=(maxcycle=1)
 ----------------------------------------------------------------------
 -----
 title
 -----
 Structure from the checkpoint file:  "ANI1ccx_373_conf23_mol1.chk"
 Charge =  0 Multiplicity = 1

                         Standard orientation:
 ---------------------------------------------------------------------
 Center     Atomic      Atomic             Coordinates (Angstroms)
 Number     Number       Type             X           Y           Z
 ---------------------------------------------------------------------
      1          6           0       -0.045369   -0.037372   -0.120827
      2          1           0        2.767520    1.061990   -0.218346
      3          7           0       -1.465680    0.019616    0.071421
      4          7           0        0.804282   -1.120080    0.127446
      5          7           0        2.110420   -0.702847    0.240419
      6          7           0        1.972340    0.547491   -0.121638
      7          7           0        0.740177    0.983128   -0.246151
      8          8           0       -1.774530    1.120139    0.295172
      9          8           0       -2.178730   -0.986253   -0.239818
 ---------------------------------------------------------------------

 SCF Done:  E(RHF) =  -460.355126143     A.U. after    2 cycles

 The electronic state is 1-A.
 Alpha  occ. eigenvalues --  -20.67810 -20.64012 -15.96566 -15.81630 -15.79055
 Alpha  occ. eigenvalues --  -15.74682 -15.72613 -11.40890  -1.61879  -1.50559
 Alpha  occ. eigenvalues --   -1.39848  -1.25318  -1.22832  -1.06337  -0.95449
 Alpha  occ. eigenvalues --   -0.87951  -0.82717  -0.81270  -0.78250  -0.76653
 Alpha  occ. eigenvalues --   -0.71529  -0.61386  -0.56701  -0.54594  -0.54092
 Alpha  occ. eigenvalues --   -0.50432  -0.48778  -0.46771  -0.45644
 Alpha virt. eigenvalues --    0.01649   0.01816   0.06783   0.07690   0.07783
 Alpha virt. eigenvalues --    0.08339   0.11530   0.12016   0.13488   0.14766
 Alpha virt. eigenvalues --    0.15650   0.16824   0.17122   0.17162   0.19677

 Mulliken charges:
               1
     1  C    1.120416
     2  H   -0.035076
     3  N    0.375260
     4  N   -0.402905
     5  N   -0.181169
     6  N    0.413441
     7  N   -0.301091
     8  O   -0.420711
     9  O   -0.568164
 Sum of Mulliken charges =  -0.00000

 Dipole moment (field-independent basis, Debye):
    X=              4.6088    Y=              2.6800    Z=             -0.2940  Tot=              5.3394

 Test job not archived.
 1\1\GINC-SE084\SP\RHF\Aug-CC-pVDZ\C1H1N5O2\OHZDE\08-Apr-2025\0\\#t hf
 aug-cc-pvdz iop(5/13=1,5/36=2,99/5=2) pseudo=read geom=check guess=(re
 ad,tcheck) scf=(maxcycle=1)\\title\\0,1\C,0,-0.0453685,-0.0373711,-0.1
 20827\H,0,2.76752,1.06199,-0.218346\N,0,-1.46568,0.0196174,0.0714205\N
 ,0,0.804282,-1.12008,0.127446\N,0,2.11042,-0.702847,0.240419\N,0,1.972
 34,0.547491,-0.121638\N,0,0.740177,0.983128,-0.246151\O,0,-1.77453,1.1
 2014,0.295172\O,0,-2.17873,-0.986251,-0.239818\\Version=ES64L-G16RevC.
 01\State=1-A\HF=-460.3551261\RMSD=3.342e-03\Dipole=1.8132325,1.0543777

 Normal termination of Gaussian 16 at Tue Apr  8 21:20:41 2025.
