 Gaussian 16, Revision C.01,

 ----------------------------------------------------------------------
 #t hf aug-cc-pvdz symm=none int=(grid=ultrafine) guess=(read,tcheck) s
 table=(opt,rrhf)
 ----------------------------------------------------------------------
 -----
 title
 -----
 Symbolic Z-matrix:
 Charge =  0 Multiplicity = 1

 SCF Done:  E(RHF) =  -432.537420022     A.U. after   15 cycles
 Normal termination of Gaussian 16 at Tue Apr  8 21:44:58 2025.
 Gaussian 16:  ES64L-G16RevC.01  3-Jul-2019

 ----------------------------------------------------------------------
 #t hf aug-cc-pvdz iop(5/13=1,5/36=2,99/5=2) pseudo=read geom=check gue
 ss=(read,tcheck) scf=(maxcycle=1)
 ----------------------------------------------------------------------
 -----
 title
 -----
 Structure from the checkpoint file:  "ANI1ccx_535_conf1_mol1.chk"
 Charge =  0 Multiplicity = 1

                         Standard orientation:
 ---------------------------------------------------------------------
 Center     Atomic      Atomic             Coordinates (Angstroms)
 Number     Number       Type             X           Y           Z
 ---------------------------------------------------------------------
      1          6           0       -0.648525    0.866802    0.042860
      2          6           0       -0.235445   -1.339631    0.125051
      3          1           0        2.599560   -0.166435    0.394942
      4          1           0        3.525399    0.459688   -0.650982
      5          1           0       -2.720571    0.300864    0.500024
      6          1           0       -0.135518   -1.432091    1.188430
      7          1           0        0.310619   -2.019940   -0.453550
      8          7           0       -1.821970    0.195862    0.048854
      9          8           0        3.538930   -0.158060    0.075074
     10          8           0       -0.446548    2.035669   -0.004017
     11          8           0       -1.602069   -1.249442   -0.174513
     12          8           0        0.319453   -0.087686   -0.187583
 ---------------------------------------------------------------------

 SCF Done:  E(RHF) =  -432.678329035     A.U. after    2 cycles

 The electronic state is 1-A.
 Alpha  occ. eigenvalues --  -20.67190 -20.65032 -20.58018 -20.57049 -15.74436
 Alpha  occ. eigenvalues --  -11.45835 -11.38886  -1.50325  -1.40216  -1.35827
 Alpha  occ. eigenvalues --   -1.29669  -1.18217  -0.97540  -0.90537  -0.79991
 Alpha  occ. eigenvalues --   -0.76762  -0.71736  -0.70703  -0.68552  -0.67034
 Alpha  occ. eigenvalues --   -0.65067  -0.61651  -0.59897  -0.58344  -0.51675
 Alpha  occ. eigenvalues --   -0.51584  -0.50466  -0.44499
 Alpha virt. eigenvalues --    0.02544   0.03828   0.04672   0.05594   0.07697
 Alpha virt. eigenvalues --    0.09184   0.10099   0.10498   0.11211   0.13440
 Alpha virt. eigenvalues --    0.14013   0.15696   0.15808   0.16370   0.17212

 Mulliken charges:
               1
     1  C    0.704475
     2  C    1.244933
     3  H    0.179723
     4  H    0.134732
     5  H    0.063997
     6  H   -0.148821
     7  H   -0.276779
     8  N    0.042322
     9  O   -0.296760
    10  O   -0.377567
    11  O   -0.642774
    12  O   -0.627481
 Sum of Mulliken charges =  -0.00000

 Dipole moment (field-independent basis, Debye):
    X=             -3.5278    Y=             -2.4788    Z=              0.9615  Tot=              4.4175

 Test job not archived.
 1\1\GINC-SE087\SP\RHF\Aug-CC-pVDZ\C2H5N1O4\OHZDE\08-Apr-2025\0\\#t hf
 aug-cc-pvdz iop(5/13=1,5/36=2,99/5=2) pseudo=read geom=check guess=(re
 ad,tcheck) scf=(maxcycle=1)\\title\\0,1\C,0,-0.648524,0.866803,0.04286
 03\C,0,-0.235446,-1.33963,0.125051\H,0,2.59956,-0.166437,0.394942\H,0,
 3.5254,0.459685,-0.650982\H,0,-2.72057,0.300867,0.500024\H,0,-0.135519
 ,-1.43209,1.18843\H,0,0.310617,-2.01994,-0.45355\N,0,-1.82197,0.195864
 ,0.0488535\O,0,3.53893,-0.158063,0.0750744\O,0,-0.446546,2.03567,-0.00
 401738\O,0,-1.60207,-1.24944,-0.174513\O,0,0.319453,-0.0876857,-0.1875

 Normal termination of Gaussian 16 at Tue Apr  8 21:45:02 2025.
