 Gaussian 16, Revision C.01,

 ----------------------------------------------------------------------
 #t hf aug-cc-pvdz symm=none int=(grid=ultrafine) guess=(read,tcheck) s
 table=(opt,rrhf)
 ----------------------------------------------------------------------
 -----
 title
 -----
 Symbolic Z-matrix:
 Charge =  0 Multiplicity = 1

 SCF Done:  E(RHF) =  -584.364692024     A.U. after   15 cycles
 Normal termination of Gaussian 16 at Tue Apr  8 22:10:57 2025.
 Gaussian 16:  ES64L-G16RevC.01  3-Jul-2019

 ----------------------------------------------------------------------
 #t hf aug-cc-pvdz iop(5/13=1,5/36=2,99/5=2) pseudo=read geom=check gue
 ss=(read,tcheck) scf=(maxcycle=1)
 ----------------------------------------------------------------------
 -----
 title
 -----
 Structure from the checkpoint file:  "ANI1ccx_940_conf15_mol1.chk"
 Charge =  0 Multiplicity = 1

                         Standard orientation:
 ---------------------------------------------------------------------
 Center     Atomic      Atomic             Coordinates (Angstroms)
 Number     Number       Type             X           Y           Z
 ---------------------------------------------------------------------
      1          6           0       -0.462889    0.312133    0.333485
      2          6           0        0.508041   -0.643128   -0.350002
      3          6           0        2.121671   -0.342400   -0.219684
      4          6           0       -1.846959   -0.193549   -0.139144
      5          1           0       -2.916570   -1.787179   -0.277063
      6          1           0        1.663021    1.436429   -0.067734
      7          1           0        0.208305   -0.565923   -1.366970
      8          1           0        0.215808   -1.481130    0.191925
      9          1           0       -0.683263    1.342660    2.070230
     10          1           0        0.611643    0.497305    1.991110
     11          1           0       -1.127078    1.825780   -0.879475
     12          7           0       -0.320043    0.396066    1.727280
     13          8           0       -2.267570   -1.308179    0.367858
     14          8           0       -0.454087    1.613260   -0.178752
     15          8           0        2.547101    0.914023   -0.391737
     16          8           0        2.847240   -1.327411   -0.086764
     17          8           0       -2.379029    0.253466   -1.148220
 ---------------------------------------------------------------------

 SCF Done:  E(RHF) =  -584.545229080     A.U. after    2 cycles

 The electronic state is 1-A.
 Alpha  occ. eigenvalues --  -20.66137 -20.65397 -20.60477 -20.59185 -20.57344
 Alpha  occ. eigenvalues --  -15.65029 -11.42711 -11.42555 -11.38395 -11.28502
 Alpha  occ. eigenvalues --   -1.47026  -1.42221  -1.38503  -1.34129  -1.32670
 Alpha  occ. eigenvalues --   -1.20458  -1.06589  -0.94748  -0.85517  -0.82531
 Alpha  occ. eigenvalues --   -0.80075  -0.75338  -0.74162  -0.72270  -0.71046
 Alpha  occ. eigenvalues --   -0.68349  -0.67925  -0.65692  -0.64593  -0.62304
 Alpha  occ. eigenvalues --   -0.59344  -0.57976  -0.55189  -0.52656  -0.52288
 Alpha  occ. eigenvalues --   -0.52000  -0.50042  -0.46459  -0.44088
 Alpha virt. eigenvalues --    0.02453   0.03193   0.04587   0.05196   0.06341
 Alpha virt. eigenvalues --    0.06990   0.07750   0.09252   0.09786   0.10703
 Alpha virt. eigenvalues --    0.11353   0.12699   0.13416   0.13566   0.13805

 Mulliken charges:
               1
     1  C    0.406231
     2  C    0.418505
     3  C    0.716713
     4  C    0.667964
     5  H    0.292567
     6  H    0.371246
     7  H    0.041357
     8  H    0.052076
     9  H    0.116532
    10  H   -0.038576
    11  H    0.256434
    12  N   -0.331375
    13  O   -0.599563
    14  O   -0.763531
    15  O   -0.545561
    16  O   -0.494148
    17  O   -0.566874
 Sum of Mulliken charges =  -0.00000

 Dipole moment (field-independent basis, Debye):
    X=             -4.1399    Y=              1.3129    Z=              0.7070  Tot=              4.4002

 Test job not archived.
 1\1\GINC-SE116\SP\RHF\Aug-CC-pVDZ\C4H7N1O5\OHZDE\08-Apr-2025\0\\#t hf
 aug-cc-pvdz iop(5/13=1,5/36=2,99/5=2) pseudo=read geom=check guess=(re
 ad,tcheck) scf=(maxcycle=1)\\title\\0,1\C,0,-0.46289,0.312133,0.333485
 \C,0,0.50804,-0.643128,-0.350002\C,0,2.12167,-0.342399,-0.219684\C,0,-
 1.84696,-0.193549,-0.139144\H,0,-2.91657,-1.78718,-0.277063\H,0,1.6630
 2,1.43643,-0.0677336\H,0,0.208304,-0.565923,-1.36697\H,0,0.215808,-1.4
 8113,0.191925\H,0,-0.683264,1.34266,2.07023\H,0,0.611642,0.497305,1.99
 111\H,0,-1.12708,1.82578,-0.879475\N,0,-0.320044,0.396066,1.72728\O,0,

 Normal termination of Gaussian 16 at Tue Apr  8 22:11:08 2025.
