 Gaussian 16, Revision C.01,

 ----------------------------------------------------------------------
 #t hf aug-cc-pvdz symm=none int=(grid=ultrafine) guess=(read,tcheck) s
 table=(opt,rrhf)
 ----------------------------------------------------------------------
 -----
 title
 -----
 Symbolic Z-matrix:
 Charge =  0 Multiplicity = 1

 SCF Done:  E(RHF) =  -258.514618193     A.U. after  101 cycles
 Normal termination of Gaussian 16 at Tue Apr  8 21:13:21 2025.
 Gaussian 16:  ES64L-G16RevC.01  3-Jul-2019

 ----------------------------------------------------------------------
 #t hf aug-cc-pvdz iop(5/13=1,5/36=2,99/5=2) pseudo=read geom=check gue
 ss=(read,tcheck) scf=(maxcycle=1)
 ----------------------------------------------------------------------
 -----
 title
 -----
 Structure from the checkpoint file:  "ANI1ccx_1907_conf25_mol2.chk"
 Charge =  0 Multiplicity = 1

                         Standard orientation:
 ---------------------------------------------------------------------
 Center     Atomic      Atomic             Coordinates (Angstroms)
 Number     Number       Type             X           Y           Z
 ---------------------------------------------------------------------
      1          7           0        1.885593   -0.438191    0.309696
      2          7           0        2.358333    0.356518   -0.285302
      3          8           0       -1.751977    0.608424    0.171368
      4          8           0       -1.961457   -0.536960   -0.192713
 ---------------------------------------------------------------------

 SCF Done:  E(RHF) =  -258.594082363     A.U. after    2 cycles

 The electronic state is 1-A.
 Alpha  occ. eigenvalues --  -20.76030 -20.75941 -15.75601 -15.75282  -1.59824
 Alpha  occ. eigenvalues --   -1.42476  -1.10060  -0.79238  -0.76283  -0.75358
 Alpha  occ. eigenvalues --   -0.67147  -0.62346  -0.60718  -0.60705  -0.50423
 Alpha virt. eigenvalues --   -0.00976   0.09402   0.11662   0.12967   0.13225
 Alpha virt. eigenvalues --    0.13960   0.14244   0.15604   0.18423   0.18894
 Alpha virt. eigenvalues --    0.21264   0.23488   0.24703   0.26489   0.26913

 Mulliken charges:
               1
     1  N    0.011734
     2  N   -0.012033
     3  O    0.001582
     4  O   -0.001283
 Sum of Mulliken charges =  -0.00000

 Dipole moment (field-independent basis, Debye):
    X=             -0.0168    Y=             -0.0031    Z=             -0.0053  Tot=              0.0179

 Test job not archived.
 1\1\GINC-SE088\SP\RHF\Aug-CC-pVDZ\N2O2\OHZDE\08-Apr-2025\0\\#t hf aug-
 cc-pvdz iop(5/13=1,5/36=2,99/5=2) pseudo=read geom=check guess=(read,t
 check) scf=(maxcycle=1)\\title\\0,1\N,0,1.88559,-0.438191,0.309696\N,0
 ,2.35833,0.356518,-0.285302\O,0,-1.75198,0.608424,0.171368\O,0,-1.9614
 6,-0.53696,-0.192713\\Version=ES64L-G16RevC.01\State=1-A\HF=-258.59408
 24\RMSD=3.476e-03\Dipole=-0.0065986,-0.001206,-0.002088\Quadrupole=-0.
 3144439,-0.1734832,0.4879271,-0.3252153,0.5353121,0.1519888\PG=C01 [X(
 N2O2)]\\@

 Normal termination of Gaussian 16 at Tue Apr  8 21:13:23 2025.
