 Gaussian 16, Revision C.01,

 ----------------------------------------------------------------------
 #t hf aug-cc-pvdz symm=none int=(grid=ultrafine) guess=(read,tcheck) s
 table=(opt,rrhf)
 ----------------------------------------------------------------------
 -----
 title
 -----
 Symbolic Z-matrix:
 Charge =  0 Multiplicity = 1

 SCF Done:  E(RHF) =  -752.425459576     A.U. after   15 cycles
 Normal termination of Gaussian 16 at Tue Apr  8 19:57:23 2025.
 Gaussian 16:  ES64L-G16RevC.01  3-Jul-2019

 ----------------------------------------------------------------------
 #t hf aug-cc-pvdz iop(5/13=1,5/36=2,99/5=2) pseudo=read geom=check gue
 ss=(read,tcheck) scf=(maxcycle=1)
 ----------------------------------------------------------------------
 -----
 title
 -----
 Structure from the checkpoint file:  "ANI1ccx_1572_conf15_mol2.chk"
 Charge =  0 Multiplicity = 1

                         Standard orientation:
 ---------------------------------------------------------------------
 Center     Atomic      Atomic             Coordinates (Angstroms)
 Number     Number       Type             X           Y           Z
 ---------------------------------------------------------------------
      1          6           0        3.881750   -1.043370    0.252296
      2          6           0        2.384050   -1.038170   -0.112687
      3          6           0        0.374337    0.180242   -0.385213
      4          6           0        0.023188    1.603719   -0.524037
      5          6           0       -0.555351   -0.421672    0.727007
      6          6           0       -2.011830   -0.394792    0.403367
      7          6           0       -2.536770   -1.172321   -0.585624
      8          6           0       -4.116610   -0.144189    0.580103
      9          1           0        0.444706    3.254499    0.135308
     10          1           0       -4.588750   -1.368461   -1.116840
     11          1           0       -5.109590    0.212821    0.869926
     12          1           0       -2.054540   -1.774211   -1.346130
     13          1           0       -0.433894    0.210337    1.624480
     14          1           0       -0.188669   -1.445691    0.939916
     15          1           0        0.158111   -0.426683   -1.258100
     16          1           0        2.141240    0.932636    0.425773
     17          1           0        3.994720   -1.538750    1.260480
     18          1           0        4.326480   -1.648160   -0.564478
     19          1           0        4.388690    0.714117   -0.559414
     20          1           0        5.271500    0.380171    0.771591
     21          7           0        4.307860    0.334224    0.371062
     22          7           0        1.749810    0.133205    0.032229
     23          7           0       -2.995190    0.180409    1.192040
     24          7           0       -3.926250   -0.983990   -0.509042
     25          8           0        1.756080   -2.012101   -0.562183
     26          8           0       -0.973821    2.067789   -1.001700
     27          8           0        0.847717    2.373529    0.199155
 ---------------------------------------------------------------------

 SCF Done:  E(RHF) =  -752.650239084     A.U. after    2 cycles

 The electronic state is 1-A.
 Alpha  occ. eigenvalues --  -20.63260 -20.56287 -20.52914 -15.67653 -15.64278
 Alpha  occ. eigenvalues --  -15.63819 -15.61066 -11.39641 -11.36121 -11.31117
 Alpha  occ. eigenvalues --  -11.29447 -11.29136 -11.25925 -11.25147 -11.24159
 Alpha  occ. eigenvalues --   -1.44547  -1.34046  -1.33203  -1.29170  -1.21707
 Alpha  occ. eigenvalues --   -1.17786  -1.13128  -1.05904  -0.99921  -0.93967
 Alpha  occ. eigenvalues --   -0.91535  -0.84127  -0.81783  -0.80612  -0.76075
 Alpha  occ. eigenvalues --   -0.74794  -0.72992  -0.71665  -0.69580  -0.67524
 Alpha  occ. eigenvalues --   -0.66389  -0.64509  -0.63131  -0.61725  -0.60156
 Alpha  occ. eigenvalues --   -0.59805  -0.59138  -0.58420  -0.57032  -0.55497
 Alpha  occ. eigenvalues --   -0.54553  -0.52170  -0.51146  -0.48747  -0.47518
 Alpha  occ. eigenvalues --   -0.44766  -0.43172  -0.41566  -0.39902  -0.38184
 Alpha  occ. eigenvalues --   -0.30737
 Alpha virt. eigenvalues --    0.02576   0.03120   0.03755   0.04085   0.04565
 Alpha virt. eigenvalues --    0.05243   0.06468   0.06846   0.07101   0.08036
 Alpha virt. eigenvalues --    0.08823   0.09281   0.10024   0.11082   0.11715

 Mulliken charges:
               1
     1  C    0.617819
     2  C    0.279041
     3  C    0.380615
     4  C    0.697675
     5  C    0.038683
     6  C    0.239363
     7  C    1.188678
     8  C    0.782418
     9  H    0.218415
    10  H   -0.158157
    11  H   -0.249796
    12  H   -0.372936
    13  H    0.060713
    14  H   -0.026551
    15  H   -0.157441
    16  H   -0.033571
    17  H    0.029991
    18  H    0.032459
    19  H    0.061063
    20  H    0.031150
    21  N   -0.286537
    22  N   -0.231439
    23  N   -0.767524
    24  N   -0.547708
    25  O   -0.647509
    26  O   -0.540973
    27  O   -0.637941
 Sum of Mulliken charges =  -0.00000

 Dipole moment (field-independent basis, Debye):
    X=              2.4663    Y=              0.7588    Z=             -0.9345  Tot=              2.7444

 Test job not archived.
 1\1\GINC-SE220\SP\RHF\Aug-CC-pVDZ\C8H12N4O3\OHZDE\08-Apr-2025\0\\#t hf
  aug-cc-pvdz iop(5/13=1,5/36=2,99/5=2) pseudo=read geom=check guess=(r
 ead,tcheck) scf=(maxcycle=1)\\title\\0,1\C,0,3.88175,-1.04337,0.252296
 \C,0,2.38405,-1.03817,-0.112687\C,0,0.374337,0.180243,-0.385213\C,0,0.
 0231878,1.60372,-0.524037\C,0,-0.555351,-0.421671,0.727007\C,0,-2.0118
 3,-0.394791,0.403367\C,0,-2.53677,-1.17232,-0.585624\C,0,-4.11661,-0.1
 44188,0.580103\H,0,0.444706,3.2545,0.135308\H,0,-4.58875,-1.36846,-1.1
 1684\H,0,-5.10959,0.212822,0.869926\H,0,-2.05454,-1.77421,-1.34613\H,0

 Normal termination of Gaussian 16 at Tue Apr  8 19:57:53 2025.
