 Gaussian 16, Revision C.01,

 ----------------------------------------------------------------------
 #t hf aug-cc-pvdz symm=none int=(grid=ultrafine) guess=(read,tcheck) s
 table=(opt,rrhf)
 ----------------------------------------------------------------------
 -----
 title
 -----
 Symbolic Z-matrix:
 Charge =  0 Multiplicity = 1

 SCF Done:  E(RHF) =  -406.497738700     A.U. after   16 cycles
 Normal termination of Gaussian 16 at Tue Apr  8 21:27:36 2025.
 Gaussian 16:  ES64L-G16RevC.01  3-Jul-2019

 ----------------------------------------------------------------------
 #t hf aug-cc-pvdz iop(5/13=1,5/36=2,99/5=2) pseudo=read geom=check gue
 ss=(read,tcheck) scf=(maxcycle=1)
 ----------------------------------------------------------------------
 -----
 title
 -----
 Structure from the checkpoint file:  "ANI1ccx_379_conf13_mol2.chk"
 Charge =  0 Multiplicity = 1

                         Standard orientation:
 ---------------------------------------------------------------------
 Center     Atomic      Atomic             Coordinates (Angstroms)
 Number     Number       Type             X           Y           Z
 ---------------------------------------------------------------------
      1          6           0        0.032888    0.825139    0.000424
      2          1           0        2.239439   -0.568223    0.834588
      3          1           0        2.247749   -0.587229   -0.821596
      4          7           0        1.775197   -0.929696    0.005551
      5          7           0        0.478414   -0.483798   -0.015022
      6          7           0       -0.561296   -1.338008    0.001991
      7          7           0       -1.617202   -0.686244    0.004851
      8          8           0       -1.316107    0.687698   -0.001250
      9          8           0        0.664818    1.845908    0.001608
 ---------------------------------------------------------------------

 SCF Done:  E(RHF) =  -406.618314194     A.U. after    2 cycles

 The electronic state is 1-A.
 Alpha  occ. eigenvalues --  -20.70212 -20.59004 -15.79389 -15.78823 -15.77727
 Alpha  occ. eigenvalues --  -15.71225 -11.46507  -1.55793  -1.40242  -1.37899
 Alpha  occ. eigenvalues --   -1.28190  -1.12895  -0.95121  -0.91239  -0.78842
 Alpha  occ. eigenvalues --   -0.78781  -0.71892  -0.71071  -0.68724  -0.60099
 Alpha  occ. eigenvalues --   -0.59288  -0.57259  -0.56456  -0.51206  -0.47293
 Alpha  occ. eigenvalues --   -0.42814
 Alpha virt. eigenvalues --    0.02736   0.04119   0.07750   0.09210   0.09718
 Alpha virt. eigenvalues --    0.10740   0.10764   0.12203   0.13001   0.15334
 Alpha virt. eigenvalues --    0.16692   0.17351   0.17824   0.18766   0.20240

 Mulliken charges:
               1
     1  C    0.716019
     2  H    0.101637
     3  H    0.100370
     4  N    0.145799
     5  N   -0.218163
     6  N   -0.004593
     7  N    0.078876
     8  O   -0.555001
     9  O   -0.364945
 Sum of Mulliken charges =  -0.00000

 Dipole moment (field-independent basis, Debye):
    X=              2.4696    Y=             -1.8017    Z=              0.0052  Tot=              3.0570

 Test job not archived.
 1\1\GINC-SE094\SP\RHF\Aug-CC-pVDZ\C1H2N4O2\OHZDE\08-Apr-2025\0\\#t hf
 aug-cc-pvdz iop(5/13=1,5/36=2,99/5=2) pseudo=read geom=check guess=(re
 ad,tcheck) scf=(maxcycle=1)\\title\\0,1\C,0,0.0328839,0.825139,0.00042
 372\H,0,2.23944,-0.568215,0.834588\H,0,2.24775,-0.587221,-0.821596\N,0
 ,1.7752,-0.92969,0.00555104\N,0,0.478415,-0.483796,-0.0150217\N,0,-0.5
 61292,-1.33801,0.0019908\N,0,-1.6172,-0.68625,0.00485136\O,0,-1.31611,
 0.687693,-0.00125029\O,0,0.664811,1.84591,0.0016084\\Version=ES64L-G16
 RevC.01\State=1-A\HF=-406.6183142\RMSD=3.449e-03\Dipole=0.9716204,-0.7

 Normal termination of Gaussian 16 at Tue Apr  8 21:27:39 2025.
