 Gaussian 16, Revision C.01,

 ----------------------------------------------------------------------
 #t hf aug-cc-pvdz symm=none int=(grid=ultrafine) guess=(read,tcheck) s
 table=(opt,rrhf)
 ----------------------------------------------------------------------
 -----
 title
 -----
 Symbolic Z-matrix:
 Charge =  0 Multiplicity = 1

 SCF Done:  E(RHF) =  -984.952672164     A.U. after   16 cycles
 Normal termination of Gaussian 16 at Tue Apr  8 21:35:14 2025.
 Gaussian 16:  ES64L-G16RevC.01  3-Jul-2019

 ----------------------------------------------------------------------
 #t hf aug-cc-pvdz iop(5/13=1,5/36=2,99/5=2) pseudo=read geom=check gue
 ss=(read,tcheck) scf=(maxcycle=1)
 ----------------------------------------------------------------------
 -----
 title
 -----
 Structure from the checkpoint file:  "ANI1ccx_319_conf8_mol2.chk"
 Charge =  0 Multiplicity = 1

                         Standard orientation:
 ---------------------------------------------------------------------
 Center     Atomic      Atomic             Coordinates (Angstroms)
 Number     Number       Type             X           Y           Z
 ---------------------------------------------------------------------
      1          6           0        0.325261   -2.074780   -0.108006
      2          6           0       -3.283450   -0.325926   -0.533781
      3          6           0       -1.974020    0.257381   -1.139190
      4          6           0       -0.997042    0.851755   -0.073325
      5          6           0        4.508689    1.154122    0.037622
      6          6           0        3.721069    1.517292   -1.081990
      7          6           0       -1.548771    2.171059    0.535136
      8          6           0        2.641770    0.714973   -1.292410
      9          6           0        3.031141   -0.743334    0.516736
     10          6           0        2.254920   -0.383400   -0.562223
     11          6           0        1.150891   -1.303830   -1.185330
     12          6           0       -0.027754   -1.227680    1.116190
     13          6           0        4.179000    0.026119    0.854515
     14          1           0        5.383529    1.785633    0.282920
     15          1           0       -1.967142    3.862229    0.035262
     16          1           0       -2.229369   -1.879841   -0.470692
     17          1           0       -1.496130   -0.590609   -1.643970
     18          1           0       -2.191191    1.086479   -1.827850
     19          1           0       -0.096755    1.037940   -0.601287
     20          1           0       -0.835573    0.329284    1.961100
     21          1           0        3.885329    2.404292   -1.687720
     22          1           0        0.508802   -0.892148   -1.994110
     23          1           0        2.019860    0.841921   -2.131480
     24          1           0        2.759541   -1.574229    1.177640
     25          1           0        1.696931   -2.038009   -1.741880
     26          1           0        0.978304   -2.777150    0.372016
     27          1           0       -0.716934   -3.136771   -1.544060
     28          1           0       -1.265018   -3.423571   -0.035564
     29          1           0        4.798980   -0.139909    1.713180
     30          7           0       -0.896120   -2.689931   -0.630342
     31          7           0       -0.777435   -0.113889    1.028600
     32          8           0       -3.148699   -1.565892   -0.284332
     33          8           0        0.353669   -1.648220    2.190630
     34          8           0       -1.720761    2.398579    1.682440
     35          8           0       -4.229060    0.345609   -0.272631
     36          8           0       -1.681212    3.086009   -0.460484
 ---------------------------------------------------------------------

 SCF Done:  E(RHF) =  -985.250605884     A.U. after    2 cycles

 The electronic state is 1-A.
 Alpha  occ. eigenvalues --  -20.64473 -20.59543 -20.59010 -20.54846 -20.53693
 Alpha  occ. eigenvalues --  -15.67538 -15.66053 -11.42628 -11.37722 -11.37501
 Alpha  occ. eigenvalues --  -11.33224 -11.31377 -11.28654 -11.27275 -11.26916
 Alpha  occ. eigenvalues --  -11.26774 -11.26682 -11.26442 -11.26245 -11.25062
 Alpha  occ. eigenvalues --   -1.45643  -1.42591  -1.36970  -1.36283  -1.32428
 Alpha  occ. eigenvalues --   -1.22598  -1.21048  -1.16611  -1.07051  -1.06576
 Alpha  occ. eigenvalues --   -1.02763  -1.00123  -0.95303  -0.91989  -0.85631
 Alpha  occ. eigenvalues --   -0.85253  -0.84895  -0.82517  -0.79132  -0.75450
 Alpha  occ. eigenvalues --   -0.74170  -0.72287  -0.72193  -0.70712  -0.69819
 Alpha  occ. eigenvalues --   -0.69064  -0.67694  -0.66968  -0.66413  -0.65855
 Alpha  occ. eigenvalues --   -0.64777  -0.64052  -0.63142  -0.62863  -0.60905
 Alpha  occ. eigenvalues --   -0.59996  -0.58730  -0.58500  -0.57548  -0.56552
 Alpha  occ. eigenvalues --   -0.54525  -0.53799  -0.52746  -0.51453  -0.50905
 Alpha  occ. eigenvalues --   -0.50101  -0.49334  -0.47739  -0.46201  -0.44521
 Alpha  occ. eigenvalues --   -0.43974  -0.40961  -0.35837  -0.34928
 Alpha virt. eigenvalues --    0.01507   0.02508   0.03151   0.03886   0.04424
 Alpha virt. eigenvalues --    0.04539   0.05102   0.06208   0.06722   0.07008
 Alpha virt. eigenvalues --    0.07246   0.07749   0.08556   0.08563   0.08960

 Mulliken charges:
               1
     1  C    0.578033
     2  C    0.760852
     3  C    0.429918
     4  C    1.017937
     5  C    0.896425
     6  C    0.019946
     7  C    0.615043
     8  C    1.314397
     9  C    0.784241
    10  C    0.003719
    11  C    0.489492
    12  C    0.263223
    13  C    0.253231
    14  H   -0.424156
    15  H    0.241033
    16  H    0.497399
    17  H   -0.222715
    18  H   -0.124720
    19  H   -0.283527
    20  H    0.021671
    21  H   -0.450835
    22  H   -0.366120
    23  H   -0.769062
    24  H   -0.677838
    25  H   -0.251302
    26  H   -0.203323
    27  H    0.121641
    28  H    0.066039
    29  H   -0.524704
    30  N   -0.634729
    31  N   -0.921829
    32  O   -0.403946
    33  O   -0.585396
    34  O   -0.436313
    35  O   -0.501134
    36  O   -0.592590
 Sum of Mulliken charges =  -0.00000

 Dipole moment (field-independent basis, Debye):
    X=              6.1727    Y=             -1.0134    Z=             -5.8346  Tot=              8.5541

 Test job not archived.
 1\1\GINC-SE220\SP\RHF\Aug-CC-pVDZ\C13H16N2O5\OHZDE\08-Apr-2025\0\\#t h
 f aug-cc-pvdz iop(5/13=1,5/36=2,99/5=2) pseudo=read geom=check guess=(
 read,tcheck) scf=(maxcycle=1)\\title\\0,1\C,0,0.32526,-2.07478,-0.1080
 06\C,0,-3.28345,-0.325924,-0.533781\C,0,-1.97402,0.257382,-1.13919\C,0
 ,-0.997042,0.851756,-0.0733255\C,0,4.50869,1.15412,0.0376217\C,0,3.721
 07,1.51729,-1.08199\C,0,-1.54877,2.17106,0.535136\C,0,2.64177,0.714972
 ,-1.29241\C,0,3.03114,-0.743335,0.516736\C,0,2.25492,-0.383401,-0.5622
 23\C,0,1.15089,-1.30383,-1.18533\C,0,-0.0277545,-1.22768,1.11619\C,0,4

 Normal termination of Gaussian 16 at Tue Apr  8 21:36:31 2025.
