 Gaussian 16, Revision C.01,

 ----------------------------------------------------------------------
 #t hf aug-cc-pvdz symm=none int=(grid=ultrafine) guess=(read,tcheck) s
 table=(opt,rrhf)
 ----------------------------------------------------------------------
 -----
 title
 -----
 Symbolic Z-matrix:
 Charge =  0 Multiplicity = 1

 SCF Done:  E(RHF) =  -943.005053216     A.U. after   15 cycles
 Normal termination of Gaussian 16 at Tue Apr  8 20:00:16 2025.
 Gaussian 16:  ES64L-G16RevC.01  3-Jul-2019

 ----------------------------------------------------------------------
 #t hf aug-cc-pvdz iop(5/13=1,5/36=2,99/5=2) pseudo=read geom=check gue
 ss=(read,tcheck) scf=(maxcycle=1)
 ----------------------------------------------------------------------
 -----
 title
 -----
 Structure from the checkpoint file:  "ANI1ccx_1569_conf40_mol1.chk"
 Charge =  0 Multiplicity = 1

                         Standard orientation:
 ---------------------------------------------------------------------
 Center     Atomic      Atomic             Coordinates (Angstroms)
 Number     Number       Type             X           Y           Z
 ---------------------------------------------------------------------
      1          6           0       -2.576641   -1.015841   -0.271923
      2          6           0       -1.114670   -1.405290   -0.546283
      3          6           0       -2.649021    0.477807    0.082451
      4          6           0       -1.745471    1.404640   -0.719379
      5          6           0        0.879100   -0.622286    0.718884
      6          6           0        0.526121    0.800169    1.067130
      7          6           0        1.747679   -0.724630   -0.462872
      8          6           0        3.217439   -0.422798   -0.164761
      9          1           0        0.786447    2.478960    0.996714
     10          1           0        4.757589    0.411539   -0.694495
     11          1           0        1.241369   -0.190987   -1.285040
     12          1           0        1.828590   -1.756710   -0.746818
     13          1           0        1.492119   -1.086870    1.505040
     14          1           0       -0.993712   -1.288280    1.395120
     15          1           0       -2.575611    0.632212    1.154630
     16          1           0       -3.650641    0.843981   -0.128452
     17          1           0       -3.242921   -1.257251   -1.178700
     18          1           0       -2.707860   -2.811661    0.597708
     19          1           0       -3.983950   -1.862781    1.090990
     20          1           0       -0.779373    2.895240   -0.540089
     21          7           0       -2.956060   -1.818391    0.865993
     22          7           0       -0.318975   -1.460160    0.645721
     23          8           0        3.854779    0.458731   -0.931447
     24          8           0       -0.602118   -1.697970   -1.604070
     25          8           0       -1.044151    1.138020   -1.629770
     26          8           0       -1.602981    2.595240   -0.131784
     27          8           0       -0.209607    1.041320    1.939110
     28          8           0        3.830249   -0.995181    0.718022
     29          8           0        0.904577    1.833820    0.268928
 ---------------------------------------------------------------------

 SCF Done:  E(RHF) =  -943.295454279     A.U. after    2 cycles

 The electronic state is 1-A.
 Alpha  occ. eigenvalues --  -20.64339 -20.62822 -20.62206 -20.58907 -20.57562
 Alpha  occ. eigenvalues --  -20.56442 -20.56110 -15.65487 -15.64876 -11.41298
 Alpha  occ. eigenvalues --  -11.40831 -11.40831 -11.37790 -11.31895 -11.31179
 Alpha  occ. eigenvalues --  -11.27739 -11.25664  -1.47864  -1.45461  -1.44250
 Alpha  occ. eigenvalues --   -1.36852  -1.36111  -1.34340  -1.32727  -1.22462
 Alpha  occ. eigenvalues --   -1.19080  -1.07664  -1.05521  -0.95979  -0.92100
 Alpha  occ. eigenvalues --   -0.86500  -0.84429  -0.81496  -0.76572  -0.75730
 Alpha  occ. eigenvalues --   -0.74735  -0.73661  -0.72776  -0.72594  -0.72129
 Alpha  occ. eigenvalues --   -0.70977  -0.70002  -0.67886  -0.66512  -0.66085
 Alpha  occ. eigenvalues --   -0.64592  -0.64156  -0.63176  -0.62293  -0.59703
 Alpha  occ. eigenvalues --   -0.59008  -0.57548  -0.57146  -0.55544  -0.53952
 Alpha  occ. eigenvalues --   -0.53681  -0.51886  -0.51420  -0.50610  -0.49193
 Alpha  occ. eigenvalues --   -0.48218  -0.47646  -0.44560  -0.42949  -0.40831
 Alpha virt. eigenvalues --    0.02274   0.03291   0.03858   0.04354   0.04832
 Alpha virt. eigenvalues --    0.05519   0.05960   0.07083   0.07409   0.07587
 Alpha virt. eigenvalues --    0.08744   0.09256   0.09992   0.10858   0.11343

 Mulliken charges:
               1
     1  C   -0.022715
     2  C    0.842668
     3  C    0.541917
     4  C    0.578114
     5  C   -0.112290
     6  C    0.734670
     7  C    0.538893
     8  C    0.729902
     9  H    0.274194
    10  H    0.165170
    11  H   -0.005186
    12  H    0.115594
    13  H   -0.097650
    14  H    0.176270
    15  H   -0.052176
    16  H    0.054629
    17  H   -0.036387
    18  H    0.143509
    19  H    0.006951
    20  H    0.196520
    21  N   -0.277936
    22  N   -0.659017
    23  O   -0.474647
    24  O   -0.572192
    25  O   -0.493798
    26  O   -0.535096
    27  O   -0.540364
    28  O   -0.555106
    29  O   -0.664439
 Sum of Mulliken charges =   0.00000

 Dipole moment (field-independent basis, Debye):
    X=             -3.5141    Y=              1.1044    Z=              1.6393  Tot=              4.0319

 Test job not archived.
 1\1\GINC-SE079\SP\RHF\Aug-CC-pVDZ\C8H12N2O7\OHZDE\08-Apr-2025\0\\#t hf
  aug-cc-pvdz iop(5/13=1,5/36=2,99/5=2) pseudo=read geom=check guess=(r
 ead,tcheck) scf=(maxcycle=1)\\title\\0,1\C,0,-2.57664,-1.01584,-0.2719
 23\C,0,-1.11467,-1.40529,-0.546283\C,0,-2.64902,0.477808,0.0824509\C,0
 ,-1.74547,1.40464,-0.719379\C,0,0.879101,-0.622286,0.718884\C,0,0.5261
 22,0.800169,1.06713\C,0,1.74768,-0.72463,-0.462872\C,0,3.21744,-0.4227
 99,-0.164761\H,0,0.786448,2.47896,0.996714\H,0,4.75759,0.411538,-0.694
 495\H,0,1.24137,-0.190987,-1.28504\H,0,1.82859,-1.75671,-0.746818\H,0,

 Normal termination of Gaussian 16 at Tue Apr  8 20:00:58 2025.
