 Gaussian 16, Revision C.01,

 ----------------------------------------------------------------------
 #t hf aug-cc-pvdz symm=none int=(grid=ultrafine) guess=(read,tcheck) s
 table=(opt,rrhf)
 ----------------------------------------------------------------------
 -----
 title
 -----
 Symbolic Z-matrix:
 Charge =  0 Multiplicity = 1

 SCF Done:  E(RHF) =  -371.956321435     A.U. after   14 cycles
 Normal termination of Gaussian 16 at Tue Apr  8 21:46:09 2025.
 Gaussian 16:  ES64L-G16RevC.01  3-Jul-2019

 ----------------------------------------------------------------------
 #t hf aug-cc-pvdz iop(5/13=1,5/36=2,99/5=2) pseudo=read geom=check gue
 ss=(read,tcheck) scf=(maxcycle=1)
 ----------------------------------------------------------------------
 -----
 title
 -----
 Structure from the checkpoint file:  "ANI1ccx_554_conf2_mol1.chk"
 Charge =  0 Multiplicity = 1

                         Standard orientation:
 ---------------------------------------------------------------------
 Center     Atomic      Atomic             Coordinates (Angstroms)
 Number     Number       Type             X           Y           Z
 ---------------------------------------------------------------------
      1          6           0       -1.252759   -0.160905    0.005559
      2          6           0        1.299331   -0.197122   -0.028157
      3          1           0       -2.269569    1.437530    0.292783
      4          1           0       -0.724667    1.603450    0.958666
      5          1           0       -3.242819   -0.362361    0.031931
      6          1           0       -0.092516   -1.771580    0.210004
      7          1           0        0.541314    1.671219   -0.550892
      8          1           0        2.276001    1.590629   -0.381373
      9          7           0       -1.268749    1.210120    0.245081
     10          7           0       -2.303009   -0.897240   -0.254322
     11          7           0        0.008527   -0.777023    0.004185
     12          7           0        1.376981    1.159279   -0.287222
     13          8           0        2.317071   -0.860835    0.202552
 ---------------------------------------------------------------------

 SCF Done:  E(RHF) =  -372.069694654     A.U. after    2 cycles

 The electronic state is 1-A.
 Alpha  occ. eigenvalues --  -20.54115 -15.68201 -15.67469 -15.65899 -15.62104
 Alpha  occ. eigenvalues --  -11.42215 -11.39851  -1.35953  -1.29002  -1.19005
 Alpha  occ. eigenvalues --   -1.17254  -1.11011  -0.87665  -0.82593  -0.76647
 Alpha  occ. eigenvalues --   -0.75515  -0.69186  -0.65350  -0.64960  -0.62095
 Alpha  occ. eigenvalues --   -0.60993  -0.56354  -0.47300  -0.45233  -0.43471
 Alpha  occ. eigenvalues --   -0.42949  -0.37792
 Alpha virt. eigenvalues --    0.01790   0.03246   0.04374   0.05035   0.06556
 Alpha virt. eigenvalues --    0.07781   0.10593   0.11443   0.12037   0.12948
 Alpha virt. eigenvalues --    0.14102   0.14266   0.14790   0.14934   0.16454

 Mulliken charges:
               1
     1  C    0.997087
     2  C    0.847190
     3  H    0.064372
     4  H    0.010346
     5  H    0.089195
     6  H   -0.021801
     7  H    0.065634
     8  H   -0.030007
     9  N   -0.252620
    10  N   -0.570007
    11  N   -0.520634
    12  N   -0.170344
    13  O   -0.508412
 Sum of Mulliken charges =  -0.00000

 Dipole moment (field-independent basis, Debye):
    X=             -2.6660    Y=              5.1805    Z=              1.1156  Tot=              5.9321

 Test job not archived.
 1\1\GINC-SE126\SP\RHF\Aug-CC-pVDZ\C2H6N4O1\OHZDE\08-Apr-2025\0\\#t hf
 aug-cc-pvdz iop(5/13=1,5/36=2,99/5=2) pseudo=read geom=check guess=(re
 ad,tcheck) scf=(maxcycle=1)\\title\\0,1\C,0,-1.25276,-0.160905,0.00555
 951\C,0,1.29933,-0.197121,-0.0281574\H,0,-2.26957,1.43753,0.292783\H,0
 ,-0.724668,1.60345,0.958666\H,0,-3.24282,-0.362361,0.0319313\H,0,-0.09
 25166,-1.77158,0.210004\H,0,0.541313,1.67122,-0.550892\H,0,2.276,1.590
 63,-0.381373\N,0,-1.26875,1.21012,0.245081\N,0,-2.30301,-0.89724,-0.25
 4322\N,0,0.00852645,-0.777022,0.00418494\N,0,1.37698,1.15928,-0.287222

 Normal termination of Gaussian 16 at Tue Apr  8 21:46:13 2025.
