 Gaussian 16, Revision C.01,

 ----------------------------------------------------------------------
 #t hf aug-cc-pvdz symm=none int=(grid=ultrafine) guess=(read,tcheck) s
 table=(opt,rrhf)
 ----------------------------------------------------------------------
 -----
 title
 -----
 Symbolic Z-matrix:
 Charge =  0 Multiplicity = 1

 SCF Done:  E(RHF) =  -348.516461208     A.U. after   17 cycles
 Normal termination of Gaussian 16 at Tue Apr  8 21:40:46 2025.
 Gaussian 16:  ES64L-G16RevC.01  3-Jul-2019

 ----------------------------------------------------------------------
 #t hf aug-cc-pvdz iop(5/13=1,5/36=2,99/5=2) pseudo=read geom=check gue
 ss=(read,tcheck) scf=(maxcycle=1)
 ----------------------------------------------------------------------
 -----
 title
 -----
 Structure from the checkpoint file:  "ANI1ccx_476_conf2_mol1.chk"
 Charge =  0 Multiplicity = 1

                         Standard orientation:
 ---------------------------------------------------------------------
 Center     Atomic      Atomic             Coordinates (Angstroms)
 Number     Number       Type             X           Y           Z
 ---------------------------------------------------------------------
      1          6           0        1.670280   -0.031676   -0.007982
      2          6           0        0.337809   -0.031831    0.066414
      3          1           0       -2.473150   -1.055940   -0.093918
      4          7           0        2.802080   -0.008704   -0.033653
      5          7           0       -0.431671    1.115730    0.027027
      6          7           0       -1.630040    0.772927   -0.039188
      7          7           0       -1.634410   -0.563390   -0.004684
      8          7           0       -0.473872   -1.111280    0.013830
 ---------------------------------------------------------------------

 SCF Done:  E(RHF) =  -348.613996327     A.U. after    2 cycles

 The electronic state is 1-A.
 Alpha  occ. eigenvalues --  -15.80368 -15.76913 -15.75386 -15.72333 -15.66907
 Alpha  occ. eigenvalues --  -11.37025 -11.30780  -1.51839  -1.29692  -1.24419
 Alpha  occ. eigenvalues --   -1.18980  -0.99797  -0.93775  -0.84589  -0.76921
 Alpha  occ. eigenvalues --   -0.73073  -0.62536  -0.57716  -0.55215  -0.54301
 Alpha  occ. eigenvalues --   -0.51507  -0.49653  -0.48260  -0.41073
 Alpha virt. eigenvalues --    0.01822   0.06647   0.06809   0.07985   0.08249
 Alpha virt. eigenvalues --    0.10143   0.11032   0.11259   0.12961   0.13232
 Alpha virt. eigenvalues --    0.14221   0.15020   0.16184   0.17300   0.18132

 Mulliken charges:
               1
     1  C   -1.024121
     2  C    1.878275
     3  H   -0.012481
     4  N    0.005910
     5  N   -0.463903
     6  N   -0.109010
     7  N    0.298635
     8  N   -0.573305
 Sum of Mulliken charges =   0.00000

 Dipole moment (field-independent basis, Debye):
    X=             -4.6124    Y=             -2.1221    Z=             -0.0593  Tot=              5.0775

 Test job not archived.
 1\1\GINC-SE339\SP\RHF\Aug-CC-pVDZ\C2H1N5\OHZDE\08-Apr-2025\0\\#t hf au
 g-cc-pvdz iop(5/13=1,5/36=2,99/5=2) pseudo=read geom=check guess=(read
 ,tcheck) scf=(maxcycle=1)\\title\\0,1\C,0,1.67028,-0.0316753,-0.007981
 61\C,0,0.337809,-0.0318312,0.0664136\H,0,-2.47315,-1.05594,-0.0939184\
 N,0,2.80208,-0.00870327,-0.0336528\N,0,-0.431671,1.11573,0.0270268\N,0
 ,-1.63004,0.772927,-0.0391878\N,0,-1.63441,-0.56339,-0.0046839\N,0,-0.
 473872,-1.11128,0.0138301\\Version=ES64L-G16RevC.01\State=1-A\HF=-348.
 6139963\RMSD=6.572e-03\Dipole=-1.8146537,-0.834907,-0.0233255\Quadrupo

 Normal termination of Gaussian 16 at Tue Apr  8 21:40:49 2025.
