 Gaussian 16, Revision C.01,

 ----------------------------------------------------------------------
 #t hf aug-cc-pvdz symm=none int=(grid=ultrafine) guess=(read,tcheck) s
 table=(opt,rrhf)
 ----------------------------------------------------------------------
 -----
 title
 -----
 Symbolic Z-matrix:
 Charge =  0 Multiplicity = 1

 SCF Done:  E(RHF) =  -256.787574186     A.U. after   15 cycles
 Normal termination of Gaussian 16 at Tue Apr  8 21:23:29 2025.
 Gaussian 16:  ES64L-G16RevC.01  3-Jul-2019

 ----------------------------------------------------------------------
 #t hf aug-cc-pvdz iop(5/13=1,5/36=2,99/5=2) pseudo=read geom=check gue
 ss=(read,tcheck) scf=(maxcycle=1)
 ----------------------------------------------------------------------
 -----
 title
 -----
 Structure from the checkpoint file:  "ANI1ccx_377_conf46_mol1.chk"
 Charge =  0 Multiplicity = 1

                         Standard orientation:
 ---------------------------------------------------------------------
 Center     Atomic      Atomic             Coordinates (Angstroms)
 Number     Number       Type             X           Y           Z
 ---------------------------------------------------------------------
      1          6           0       -1.057951   -0.333989   -0.002763
      2          1           0       -2.043250   -0.708843    0.071681
      3          1           0        1.956030   -0.552485   -0.028366
      4          7           0       -0.722962    0.940405    0.011000
      5          7           0        0.643068    0.961413   -0.032793
      6          7           0        1.005909   -0.299652    0.054812
      7          7           0       -0.006741   -1.135699   -0.036838
 ---------------------------------------------------------------------

 SCF Done:  E(RHF) =  -256.859151459     A.U. after    2 cycles

 The electronic state is 1-A.
 Alpha  occ. eigenvalues --  -15.78602 -15.74565 -15.69580 -15.68435 -11.31868
 Alpha  occ. eigenvalues --   -1.46578  -1.21595  -1.17647  -0.92845  -0.87695
 Alpha  occ. eigenvalues --   -0.77636  -0.68708  -0.66737  -0.56266  -0.49628
 Alpha  occ. eigenvalues --   -0.47616  -0.44367  -0.41284
 Alpha virt. eigenvalues --    0.02792   0.03851   0.08435   0.08536   0.10248
 Alpha virt. eigenvalues --    0.11656   0.12361   0.14953   0.16307   0.16499
 Alpha virt. eigenvalues --    0.17625   0.18943   0.20124   0.20352   0.21814

 Mulliken charges:
               1
     1  C    0.964598
     2  H   -0.232601
     3  H    0.035204
     4  N   -0.350195
     5  N   -0.212286
     6  N    0.217768
     7  N   -0.422488
 Sum of Mulliken charges =  -0.00000

 Dipole moment (field-independent basis, Debye):
    X=              1.4001    Y=             -1.8983    Z=              0.0302  Tot=              2.3590

 Test job not archived.
 1\1\GINC-SE110\SP\RHF\Aug-CC-pVDZ\C1H2N4\OHZDE\08-Apr-2025\0\\#t hf au
 g-cc-pvdz iop(5/13=1,5/36=2,99/5=2) pseudo=read geom=check guess=(read
 ,tcheck) scf=(maxcycle=1)\\title\\0,1\C,0,-1.05795,-0.333988,-0.002763
 44\H,0,-2.04325,-0.70884,0.0716813\H,0,1.95603,-0.552489,-0.0283656\N,
 0,-0.722959,0.940405,0.0109999\N,0,0.643071,0.961411,-0.0327934\N,0,1.
 00591,-0.299655,0.0548124\N,0,-0.00674183,-1.1357,-0.0368382\\Version=
 ES64L-G16RevC.01\State=1-A\HF=-256.8591515\RMSD=3.076e-03\Dipole=0.550
 8287,-0.7468571,0.0118655\Quadrupole=5.7892053,-5.2005082,-0.5886971,0

 Normal termination of Gaussian 16 at Tue Apr  8 21:23:31 2025.
