 Gaussian 16, Revision C.01,

 ----------------------------------------------------------------------
 #t hf aug-cc-pvdz symm=none int=(grid=ultrafine) guess=(read,tcheck) s
 table=(opt,rrhf)
 ----------------------------------------------------------------------
 -----
 title
 -----
 Symbolic Z-matrix:
 Charge =  0 Multiplicity = 1

 SCF Done:  E(RHF) =  -617.822210860     A.U. after   14 cycles
 Normal termination of Gaussian 16 at Tue Apr  8 19:15:37 2025.
 Gaussian 16:  ES64L-G16RevC.01  3-Jul-2019

 ----------------------------------------------------------------------
 #t hf aug-cc-pvdz iop(5/13=1,5/36=2,99/5=2) pseudo=read geom=check gue
 ss=(read,tcheck) scf=(maxcycle=1)
 ----------------------------------------------------------------------
 -----
 title
 -----
 Structure from the checkpoint file:  "ANI1ccx_1023_conf7_mol2.chk"
 Charge =  0 Multiplicity = 1

                         Standard orientation:
 ---------------------------------------------------------------------
 Center     Atomic      Atomic             Coordinates (Angstroms)
 Number     Number       Type             X           Y           Z
 ---------------------------------------------------------------------
      1          6           0        1.805231   -0.815436    0.015919
      2          6           0        0.698585    1.302170    0.034839
      3          6           0       -1.744132    1.569767    0.224628
      4          6           0       -2.276371    0.373270   -0.574270
      5          6           0       -1.756309   -0.985518   -0.169029
      6          1           0       -1.879927   -2.090323    1.375200
      7          1           0       -2.053781    0.496110   -1.670790
      8          1           0       -3.388551    0.383297   -0.434712
      9          1           0       -1.838552    1.377567    1.323270
     10          1           0       -0.318559    3.046179   -0.062822
     11          1           0       -2.445433    2.436656   -0.002623
     12          1           0        2.653298    1.495053    0.202698
     13          1           0        3.720241   -1.028135    0.024008
     14          1           0        2.387984   -2.669747   -0.252683
     15          1           0        0.729626   -2.454969   -0.386982
     16          1           0        1.890926    3.044222   -0.218621
     17          7           0        1.600313   -2.157058    0.077982
     18          7           0        2.991660   -0.336329    0.065168
     19          7           0        0.613615   -0.023755    0.044826
     20          7           0        1.814107    2.048952    0.097838
     21          7           0       -0.431657    2.033169   -0.176007
     22          8           0       -2.105478   -1.184373    1.109760
     23          8           0       -1.136468   -1.772662   -0.841899
 ---------------------------------------------------------------------

 SCF Done:  E(RHF) =  -618.009290870     A.U. after    2 cycles

 The electronic state is 1-A.
 Alpha  occ. eigenvalues --  -20.61636 -20.54601 -15.65196 -15.63395 -15.61122
 Alpha  occ. eigenvalues --  -15.57910 -15.55754 -11.39320 -11.37427 -11.33646
 Alpha  occ. eigenvalues --  -11.29947 -11.25948  -1.41647  -1.31686  -1.28676
 Alpha  occ. eigenvalues --   -1.23167  -1.16131  -1.09838  -1.07703  -1.03973
 Alpha  occ. eigenvalues --   -0.91749  -0.84522  -0.81488  -0.75636  -0.73505
 Alpha  occ. eigenvalues --   -0.71764  -0.69653  -0.68450  -0.67620  -0.65904
 Alpha  occ. eigenvalues --   -0.64579  -0.62791  -0.60727  -0.59019  -0.57848
 Alpha  occ. eigenvalues --   -0.54596  -0.54090  -0.52755  -0.51415  -0.49328
 Alpha  occ. eigenvalues --   -0.45354  -0.41595  -0.39744  -0.38763  -0.36901
 Alpha  occ. eigenvalues --   -0.32777
 Alpha virt. eigenvalues --    0.02230   0.03385   0.03946   0.04704   0.05464
 Alpha virt. eigenvalues --    0.05826   0.07132   0.07332   0.07956   0.09162
 Alpha virt. eigenvalues --    0.09491   0.11445   0.11701   0.12340   0.13191

 Mulliken charges:
               1
     1  C    0.919954
     2  C    0.387994
     3  C    0.709839
     4  C   -0.038388
     5  C    0.732969
     6  H    0.169746
     7  H    0.036802
     8  H    0.085349
     9  H   -0.087358
    10  H   -0.073282
    11  H   -0.095892
    12  H    0.159668
    13  H   -0.093649
    14  H    0.009507
    15  H    0.050708
    16  H   -0.006516
    17  N   -0.192243
    18  N   -0.386943
    19  N   -0.556224
    20  N   -0.246139
    21  N   -0.424215
    22  O   -0.532471
    23  O   -0.529217
 Sum of Mulliken charges =  -0.00000

 Dipole moment (field-independent basis, Debye):
    X=             -1.8938    Y=              2.9820    Z=              0.1833  Tot=              3.5373

 Test job not archived.
 1\1\GINC-SE126\SP\RHF\Aug-CC-pVDZ\C5H11N5O2\OHZDE\08-Apr-2025\0\\#t hf
  aug-cc-pvdz iop(5/13=1,5/36=2,99/5=2) pseudo=read geom=check guess=(r
 ead,tcheck) scf=(maxcycle=1)\\title\\0,1\C,0,1.80523,-0.815438,0.01591
 95\C,0,0.698587,1.30217,0.0348388\C,0,-1.74413,1.56977,0.224628\C,0,-2
 .27637,0.373274,-0.57427\C,0,-1.75631,-0.985515,-0.169029\H,0,-1.87993
 ,-2.09032,1.3752\H,0,-2.05378,0.496113,-1.67079\H,0,-3.38855,0.383302,
 -0.434712\H,0,-1.83855,1.37757,1.32327\H,0,-0.318555,3.04618,-0.062821
 9\H,0,-2.44543,2.43666,-0.00262286\H,0,2.6533,1.49505,0.202698\H,0,3.7

 Normal termination of Gaussian 16 at Tue Apr  8 19:15:55 2025.
