 Gaussian 16, Revision C.01,

 ----------------------------------------------------------------------
 #t hf aug-cc-pvdz symm=none int=(grid=ultrafine) guess=(read,tcheck) s
 table=(opt,rrhf)
 ----------------------------------------------------------------------
 -----
 title
 -----
 Symbolic Z-matrix:
 Charge =  0 Multiplicity = 1

 SCF Done:  E(RHF) =  -217.908641371     A.U. after   13 cycles
 Normal termination of Gaussian 16 at Tue Apr  8 21:13:19 2025.
 Gaussian 16:  ES64L-G16RevC.01  3-Jul-2019

 ----------------------------------------------------------------------
 #t hf aug-cc-pvdz iop(5/13=1,5/36=2,99/5=2) pseudo=read geom=check gue
 ss=(read,tcheck) scf=(maxcycle=1)
 ----------------------------------------------------------------------
 -----
 title
 -----
 Structure from the checkpoint file:  "ANI1ccx_1908_conf19_mol1.chk"
 Charge =  0 Multiplicity = 1

                         Standard orientation:
 ---------------------------------------------------------------------
 Center     Atomic      Atomic             Coordinates (Angstroms)
 Number     Number       Type             X           Y           Z
 ---------------------------------------------------------------------
      1          7           0       -2.118327    0.014655   -0.027265
      2          7           0       -1.032068   -0.097518    0.037970
      3          7           0        1.381273    0.557419   -0.000947
      4          7           0        1.769122   -0.474556   -0.009757
 ---------------------------------------------------------------------

 SCF Done:  E(RHF) =  -217.973833491     A.U. after    2 cycles

 The electronic state is 1-A.
 Alpha  occ. eigenvalues --  -15.75501 -15.74992 -15.74986 -15.74625  -1.43085
 Alpha  occ. eigenvalues --   -1.41718  -0.76940  -0.74491  -0.64856  -0.61774
 Alpha  occ. eigenvalues --   -0.61381  -0.60978  -0.59894  -0.57455
 Alpha virt. eigenvalues --    0.08789   0.10054   0.11453   0.12373   0.12875
 Alpha virt. eigenvalues --    0.13083   0.13424   0.13988   0.15493   0.19136
 Alpha virt. eigenvalues --    0.19481   0.22807   0.25750   0.26023   0.27641

 Mulliken charges:
               1
     1  N    0.007791
     2  N    0.024541
     3  N    0.001107
     4  N   -0.033439
 Sum of Mulliken charges =  -0.00000

 Dipole moment (field-independent basis, Debye):
    X=             -0.1073    Y=              0.0166    Z=              0.0066  Tot=              0.1088

 Test job not archived.
 1\1\GINC-SE132\SP\RHF\Aug-CC-pVDZ\N4\OHZDE\08-Apr-2025\0\\#t hf aug-cc
 -pvdz iop(5/13=1,5/36=2,99/5=2) pseudo=read geom=check guess=(read,tch
 eck) scf=(maxcycle=1)\\title\\0,1\N,0,-2.11833,0.014655,-0.0272655\N,0
 ,-1.03207,-0.0975184,0.0379698\N,0,1.38127,0.557419,-0.00094719\N,0,1.
 76912,-0.474556,-0.00975715\\Version=ES64L-G16RevC.01\State=1-A\HF=-21
 7.9738335\RMSD=3.065e-03\Dipole=-0.042213,0.006548,0.0025922\Quadrupol
 e=-0.6452281,-0.1117839,0.757012,0.4131199,-0.0480537,-0.0004098\PG=C0
 1 [X(N4)]\\@

 Normal termination of Gaussian 16 at Tue Apr  8 21:13:21 2025.
