 Gaussian 16, Revision C.01,

 ----------------------------------------------------------------------
 #t hf aug-cc-pvdz symm=none int=(grid=ultrafine) guess=(read,tcheck) s
 table=(opt,rrhf)
 ----------------------------------------------------------------------
 -----
 title
 -----
 Symbolic Z-matrix:
 Charge =  0 Multiplicity = 1

 SCF Done:  E(RHF) =  -456.257871685     A.U. after   11 cycles
 Normal termination of Gaussian 16 at Tue Apr  8 21:06:37 2025.
 Gaussian 16:  ES64L-G16RevC.01  3-Jul-2019

 ----------------------------------------------------------------------
 #t hf aug-cc-pvdz iop(5/13=1,5/36=2,99/5=2) pseudo=read geom=check gue
 ss=(read,tcheck) scf=(maxcycle=1)
 ----------------------------------------------------------------------
 -----
 title
 -----
 Structure from the checkpoint file:  "ANI1ccx_1844_conf357_mol1.chk"
 Charge =  0 Multiplicity = 1

                         Standard orientation:
 ---------------------------------------------------------------------
 Center     Atomic      Atomic             Coordinates (Angstroms)
 Number     Number       Type             X           Y           Z
 ---------------------------------------------------------------------
      1          1           0       -1.173978    2.543723   -0.544716
      2          1           0       -2.755101    0.085164    0.369029
      3          1           0       -3.567032   -0.901893    1.391440
      4          1           0       -1.006534   -2.999687   -0.993673
      5          1           0       -1.597693   -1.932897   -0.101696
      6          1           0        3.498080    0.797260   -0.512969
      7          1           0       -2.624538    3.075764   -0.583624
      8          1           0        2.774429   -0.325127    0.203755
      9          1           0        2.319037   -2.612701   -0.597752
     10          1           0        0.810520   -2.094119   -0.227400
     11          1           0        1.336051    1.823540    0.972619
     12          1           0        1.709751    2.008250   -0.389245
     13          8           0       -0.752183   -2.408948   -0.223833
     14          8           0        1.839497   -1.863030   -0.193338
     15          8           0       -3.037452   -0.851037    0.554530
     16          8           0        3.048010    0.566191    0.327188
     17          8           0       -2.116168    2.309094   -0.577922
     18          8           0        1.052922    2.314320    0.240153
 ---------------------------------------------------------------------

 SCF Done:  E(RHF) =  -456.411080184     A.U. after    2 cycles

 The electronic state is 1-A.
 Alpha  occ. eigenvalues --  -20.59693 -20.59532 -20.56786 -20.55628 -20.55583
 Alpha  occ. eigenvalues --  -20.54759  -1.32465  -1.31226  -1.30786  -1.30659
 Alpha  occ. eigenvalues --   -1.29110  -1.26549  -0.74470  -0.74287  -0.73358
 Alpha  occ. eigenvalues --   -0.72271  -0.70986  -0.69939  -0.62956  -0.61748
 Alpha  occ. eigenvalues --   -0.60335  -0.58837  -0.58267  -0.55653  -0.54106
 Alpha  occ. eigenvalues --   -0.53340  -0.52345  -0.51017  -0.50324  -0.49844
 Alpha virt. eigenvalues --    0.02806   0.03923   0.04601   0.05311   0.06206
 Alpha virt. eigenvalues --    0.07709   0.08235   0.08845   0.09513   0.10431
 Alpha virt. eigenvalues --    0.11029   0.11436   0.17490   0.17534   0.18836

 Mulliken charges:
               1
     1  H    0.193597
     2  H    0.226169
     3  H    0.204536
     4  H    0.202656
     5  H    0.227007
     6  H    0.179233
     7  H    0.123620
     8  H    0.195552
     9  H    0.143816
    10  H    0.398315
    11  H    0.168796
    12  H    0.181568
    13  O   -0.449250
    14  O   -0.512732
    15  O   -0.437090
    16  O   -0.375486
    17  O   -0.312913
    18  O   -0.357394
 Sum of Mulliken charges =  -0.00000

 Dipole moment (field-independent basis, Debye):
    X=             -1.8874    Y=             -1.5746    Z=             -1.9236  Tot=              3.1212

 Test job not archived.
 1\1\GINC-SE457\SP\RHF\Aug-CC-pVDZ\H12O6\OHZDE\08-Apr-2025\0\\#t hf aug
 -cc-pvdz iop(5/13=1,5/36=2,99/5=2) pseudo=read geom=check guess=(read,
 tcheck) scf=(maxcycle=1)\\title\\0,1\H,0,-1.17398,2.54372,-0.544716\H,
 0,-2.7551,0.0851596,0.369029\H,0,-3.56703,-0.901898,1.39144\H,0,-1.006
 53,-2.99969,-0.993673\H,0,-1.59769,-1.9329,-0.101696\H,0,3.49808,0.797
 262,-0.512969\H,0,-2.62454,3.07576,-0.583624\H,0,2.77443,-0.325126,0.2
 03755\H,0,2.31904,-2.6127,-0.597752\H,0,0.810523,-2.09412,-0.2274\H,0,
 1.33605,1.82354,0.972619\H,0,1.70975,2.00825,-0.389245\O,0,-0.75218,-2

 Normal termination of Gaussian 16 at Tue Apr  8 21:06:42 2025.
