 Gaussian 16, Revision C.01,

 ----------------------------------------------------------------------
 #t hf aug-cc-pvdz symm=none int=(grid=ultrafine) guess=(read,tcheck) s
 table=(opt,rrhf)
 ----------------------------------------------------------------------
 -----
 title
 -----
 Symbolic Z-matrix:
 Charge =  0 Multiplicity = 1

 SCF Done:  E(RHF) =  -1001.30732504     A.U. after   15 cycles
 Normal termination of Gaussian 16 at Tue Apr  8 22:10:49 2025.
 Gaussian 16:  ES64L-G16RevC.01  3-Jul-2019

 ----------------------------------------------------------------------
 #t hf aug-cc-pvdz iop(5/13=1,5/36=2,99/5=2) pseudo=read geom=check gue
 ss=(read,tcheck) scf=(maxcycle=1)
 ----------------------------------------------------------------------
 -----
 title
 -----
 Structure from the checkpoint file:  "ANI1ccx_64_conf4_mol1.chk"
 Charge =  0 Multiplicity = 1

                         Standard orientation:
 ---------------------------------------------------------------------
 Center     Atomic      Atomic             Coordinates (Angstroms)
 Number     Number       Type             X           Y           Z
 ---------------------------------------------------------------------
      1          6           0        1.673779    1.977532   -0.271794
      2          6           0       -3.946150    0.312401   -0.258217
      3          6           0       -2.026149   -1.255951   -0.596770
      4          6           0       -0.195901   -1.696820    1.135689
      5          6           0       -1.065979   -0.621063    0.381382
      6          6           0       -2.950940   -0.236374   -1.238171
      7          6           0        3.266250   -0.061331    0.083404
      8          6           0        3.120139    1.442443   -0.042505
      9          6           0        0.591416    1.240731    0.465820
     10          6           0        2.703211   -0.878178   -1.033221
     11          1           0       -1.619530   -0.066346    1.145549
     12          1           0        0.281737   -0.270149    2.373869
     13          1           0       -4.549291    1.176837   -1.781081
     14          1           0       -3.541709   -0.740472   -2.015811
     15          1           0       -2.344290    0.554505   -1.751201
     16          1           0       -2.626308   -2.030371   -0.100822
     17          1           0       -1.354409   -1.671821   -1.360731
     18          1           0        0.340862   -0.060671   -1.052281
     19          1           0        2.497422   -2.791098   -1.669901
     20          1           0        4.337590   -0.265435    0.169919
     21          1           0        2.796900   -0.443074    1.009149
     22          1           0        3.764149    1.729113   -0.896175
     23          1           0        3.467239    1.978313    0.854185
     24          1           0        1.441019    1.856632   -1.330301
     25          1           0        0.723279    3.799431   -0.095472
     26          1           0        1.821638    3.397892    1.039739
     27          1           0        3.200882   -2.687227   -0.125335
     28          7           0        1.648628    3.402092    0.040816
     29          7           0        3.022192   -2.233817   -1.006411
     30          7           0       -0.115725    0.326803   -0.238678
     31          8           0       -4.044110    0.010607    0.894981
     32          8           0        0.057790   -2.808089    0.672085
     33          8           0       -4.789541    1.253317   -0.844290
     34          8           0        0.472529    1.360011    1.707619
     35          8           0        1.953151   -0.487849   -1.908561
     36          8           0        0.407568   -1.236989    2.261029
 ---------------------------------------------------------------------

 SCF Done:  E(RHF) =  -1001.60969192     A.U. after    2 cycles

 The electronic state is 1-A.
 Alpha  occ. eigenvalues --  -20.63653 -20.61223 -20.58422 -20.56975 -20.56805
 Alpha  occ. eigenvalues --  -20.56741 -15.67558 -15.65552 -15.62499 -11.41685
 Alpha  occ. eigenvalues --  -11.40829 -11.39547 -11.39050 -11.31545 -11.29214
 Alpha  occ. eigenvalues --  -11.28822 -11.27397 -11.26932 -11.26918  -1.42818
 Alpha  occ. eigenvalues --   -1.40717  -1.38610  -1.36629  -1.34920  -1.31720
 Alpha  occ. eigenvalues --   -1.23180  -1.18537  -1.18259  -1.10668  -1.07938
 Alpha  occ. eigenvalues --   -1.01848  -0.96210  -0.90449  -0.88387  -0.83436
 Alpha  occ. eigenvalues --   -0.82287  -0.81243  -0.79567  -0.75521  -0.74535
 Alpha  occ. eigenvalues --   -0.73980  -0.71958  -0.70453  -0.69630  -0.69012
 Alpha  occ. eigenvalues --   -0.68777  -0.67768  -0.66687  -0.65828  -0.65019
 Alpha  occ. eigenvalues --   -0.64169  -0.63583  -0.61122  -0.60456  -0.60025
 Alpha  occ. eigenvalues --   -0.59618  -0.58267  -0.56346  -0.55298  -0.54376
 Alpha  occ. eigenvalues --   -0.53734  -0.53150  -0.52708  -0.51516  -0.50623
 Alpha  occ. eigenvalues --   -0.49563  -0.48775  -0.47836  -0.47629  -0.46737
 Alpha  occ. eigenvalues --   -0.43717  -0.41756  -0.41271
 Alpha virt. eigenvalues --    0.02001   0.02959   0.03440   0.04222   0.04569
 Alpha virt. eigenvalues --    0.04810   0.05926   0.06016   0.06583   0.07164
 Alpha virt. eigenvalues --    0.07337   0.08245   0.08408   0.08859   0.09355

 Mulliken charges:
               1
     1  C    0.268219
     2  C    0.726780
     3  C    0.438507
     4  C    0.922321
     5  C    0.245656
     6  C    0.286249
     7  C    0.428181
     8  C    0.263643
     9  C    0.668077
    10  C    0.343387
    11  H   -0.451236
    12  H    0.272984
    13  H    0.188546
    14  H   -0.011041
    15  H    0.015825
    16  H   -0.112981
    17  H    0.030146
    18  H    0.123403
    19  H    0.019274
    20  H   -0.041324
    21  H   -0.033747
    22  H    0.034176
    23  H    0.023419
    24  H   -0.174426
    25  H    0.000639
    26  H    0.089746
    27  H    0.015688
    28  N   -0.375790
    29  N   -0.214596
    30  N   -0.429931
    31  O   -0.444718
    32  O   -0.608552
    33  O   -0.560090
    34  O   -0.785592
    35  O   -0.606098
    36  O   -0.554742
 Sum of Mulliken charges =  -0.00000

 Dipole moment (field-independent basis, Debye):
    X=              2.0331    Y=              0.3474    Z=             -4.6381  Tot=              5.0761

 Test job not archived.
 1\1\GINC-SE219\SP\RHF\Aug-CC-pVDZ\C10H17N3O6\OHZDE\08-Apr-2025\0\\#t h
 f aug-cc-pvdz iop(5/13=1,5/36=2,99/5=2) pseudo=read geom=check guess=(
 read,tcheck) scf=(maxcycle=1)\\title\\0,1\C,0,1.67378,1.97753,-0.27179
 3\C,0,-3.94615,0.312403,-0.258216\C,0,-2.02615,-1.25595,-0.596769\C,0,
 -0.195902,-1.69682,1.13569\C,0,-1.06598,-0.621063,0.381383\C,0,-2.9509
 4,-0.236372,-1.23817\C,0,3.26625,-0.0613336,0.0834044\C,0,3.12014,1.44
 244,-0.0425045\C,0,0.591417,1.24073,0.465821\C,0,2.70321,-0.87818,-1.0
 3322\H,0,-1.61953,-0.0663448,1.14555\H,0,0.281737,-0.27015,2.37387\H,0

 Normal termination of Gaussian 16 at Tue Apr  8 22:11:59 2025.
