 Gaussian 16, Revision C.01,

 ----------------------------------------------------------------------
 #t hf aug-cc-pvdz symm=none int=(grid=ultrafine) guess=(read,tcheck) s
 table=(opt,rrhf)
 ----------------------------------------------------------------------
 -----
 title
 -----
 Symbolic Z-matrix:
 Charge =  0 Multiplicity = 1

 SCF Done:  E(RHF) =  -447.706699975     A.U. after   15 cycles
 Normal termination of Gaussian 16 at Tue Apr  8 22:04:51 2025.
 Gaussian 16:  ES64L-G16RevC.01  3-Jul-2019

 ----------------------------------------------------------------------
 #t hf aug-cc-pvdz iop(5/13=1,5/36=2,99/5=2) pseudo=read geom=check gue
 ss=(read,tcheck) scf=(maxcycle=1)
 ----------------------------------------------------------------------
 -----
 title
 -----
 Structure from the checkpoint file:  "ANI1ccx_921_conf1_mol2.chk"
 Charge =  0 Multiplicity = 1

                         Standard orientation:
 ---------------------------------------------------------------------
 Center     Atomic      Atomic             Coordinates (Angstroms)
 Number     Number       Type             X           Y           Z
 ---------------------------------------------------------------------
      1          6           0       -1.353799   -0.058339   -0.019661
      2          6           0       -0.832800    1.191087    0.053272
      3          6           0        0.630311    1.380542   -0.006481
      4          6           0        0.874318   -0.936512   -0.002786
      5          1           0       -2.892446   -1.128060    0.625108
      6          1           0       -3.308921    0.353527    0.007224
      7          1           0       -1.509136    2.040065    0.022443
      8          1           0        1.359800   -2.854505    0.507455
      9          1           0        2.632857   -1.851951   -0.002212
     10          1           0       -0.844418   -1.978323   -0.424401
     11          7           0       -2.681468   -0.441002   -0.095549
     12          7           0        1.429620    0.217256    0.041963
     13          7           0        1.650268   -2.085714   -0.082889
     14          7           0       -0.471392   -1.147971    0.032811
     15          8           0        1.145612    2.520074   -0.019504
 ---------------------------------------------------------------------

 SCF Done:  E(RHF) =  -447.838875678     A.U. after    2 cycles

 The electronic state is 1-A.
 Alpha  occ. eigenvalues --  -20.51469 -15.70168 -15.67761 -15.66617 -15.61087
 Alpha  occ. eigenvalues --  -11.39774 -11.36691 -11.35349 -11.23989  -1.33980
 Alpha  occ. eigenvalues --   -1.29313  -1.25054  -1.17149  -1.15163  -1.03261
 Alpha  occ. eigenvalues --   -0.89183  -0.86102  -0.77713  -0.75646  -0.71884
 Alpha  occ. eigenvalues --   -0.69681  -0.67570  -0.65234  -0.64051  -0.60055
 Alpha  occ. eigenvalues --   -0.57971  -0.54102  -0.52130  -0.46036  -0.45049
 Alpha  occ. eigenvalues --   -0.40862  -0.38344  -0.34404
 Alpha virt. eigenvalues --    0.01173   0.02413   0.04151   0.04395   0.05921
 Alpha virt. eigenvalues --    0.06511   0.10218   0.10712   0.11176   0.11647
 Alpha virt. eigenvalues --    0.12070   0.12360   0.13661   0.14177   0.14527

 Mulliken charges:
               1
     1  C    0.401314
     2  C    1.003022
     3  C    0.453399
     4  C    0.742235
     5  H    0.010543
     6  H    0.078309
     7  H   -0.482882
     8  H   -0.023528
     9  H    0.061575
    10  H   -0.043228
    11  N   -0.309785
    12  N   -0.514160
    13  N   -0.289047
    14  N   -0.514806
    15  O   -0.572961
 Sum of Mulliken charges =  -0.00000

 Dipole moment (field-independent basis, Debye):
    X=             -5.2609    Y=             -7.6984    Z=              1.4047  Tot=              9.4295

 Test job not archived.
 1\1\GINC-SE073\SP\RHF\Aug-CC-pVDZ\C4H6N4O1\OHZDE\08-Apr-2025\0\\#t hf
 aug-cc-pvdz iop(5/13=1,5/36=2,99/5=2) pseudo=read geom=check guess=(re
 ad,tcheck) scf=(maxcycle=1)\\title\\0,1\C,0,-1.3538,-0.0583345,-0.0196
 61\C,0,-0.832796,1.19109,0.0532724\C,0,0.630315,1.38054,-0.0064814\C,0
 ,0.874314,-0.936515,-0.00278564\H,0,-2.89245,-1.12805,0.625108\H,0,-3.
 30892,0.353538,0.00722353\H,0,-1.50913,2.04007,0.0224428\H,0,1.35979,-
 2.85451,0.507455\H,0,2.63285,-1.85196,-0.0022121\H,0,-0.844425,-1.9783
 2,-0.424401\N,0,-2.68147,-0.440993,-0.0955493\N,0,1.42962,0.217251,0.0

 Normal termination of Gaussian 16 at Tue Apr  8 22:04:57 2025.
