 Gaussian 16, Revision C.01,

 ----------------------------------------------------------------------
 #t hf aug-cc-pvdz symm=none int=(grid=ultrafine) guess=(read,tcheck) s
 table=(opt,rrhf)
 ----------------------------------------------------------------------
 -----
 title
 -----
 Symbolic Z-matrix:
 Charge =  0 Multiplicity = 1

 SCF Done:  E(RHF) =  -429.708705768     A.U. after   13 cycles
 Normal termination of Gaussian 16 at Tue Apr  8 21:50:17 2025.
 Gaussian 16:  ES64L-G16RevC.01  3-Jul-2019

 ----------------------------------------------------------------------
 #t hf aug-cc-pvdz iop(5/13=1,5/36=2,99/5=2) pseudo=read geom=check gue
 ss=(read,tcheck) scf=(maxcycle=1)
 ----------------------------------------------------------------------
 -----
 title
 -----
 Structure from the checkpoint file:  "ANI1ccx_712_conf2_mol2.chk"
 Charge =  0 Multiplicity = 1

                         Standard orientation:
 ---------------------------------------------------------------------
 Center     Atomic      Atomic             Coordinates (Angstroms)
 Number     Number       Type             X           Y           Z
 ---------------------------------------------------------------------
      1          6           0       -1.265110   -0.410083   -0.015821
      2          6           0        0.028708    1.697720    0.209296
      3          6           0        1.258690   -0.417779   -0.032553
      4          1           0       -2.064878    1.427223   -0.198636
      5          1           0        0.063838    1.824140    1.295520
      6          1           0       -0.012454    2.675860   -0.267071
      7          1           0        2.071912    1.399607   -0.111626
      8          1           0        0.009638   -2.022410    0.129969
      9          7           0       -1.202509    0.964325   -0.098258
     10          7           0        1.168071    0.957918   -0.266508
     11          7           0        0.001923   -1.023130    0.145581
     12          8           0       -2.293591   -1.052697   -0.049431
     13          8           0        2.296819   -1.049473    0.014507
 ---------------------------------------------------------------------

 SCF Done:  E(RHF) =  -429.841155365     A.U. after    2 cycles

 The electronic state is 1-A.
 Alpha  occ. eigenvalues --  -20.56263 -20.55578 -15.68462 -15.67852 -15.67354
 Alpha  occ. eigenvalues --  -11.42812 -11.42573 -11.35649  -1.39557  -1.37490
 Alpha  occ. eigenvalues --   -1.27881  -1.19865  -1.18534  -0.97069  -0.89210
 Alpha  occ. eigenvalues --   -0.83376  -0.76449  -0.72414  -0.69804  -0.68226
 Alpha  occ. eigenvalues --   -0.67434  -0.64232  -0.62411  -0.61189  -0.59427
 Alpha  occ. eigenvalues --   -0.50023  -0.47291  -0.44550  -0.44464  -0.41622
 Alpha virt. eigenvalues --    0.01883   0.03618   0.03865   0.05041   0.06655
 Alpha virt. eigenvalues --    0.09037   0.10138   0.10383   0.10918   0.12998
 Alpha virt. eigenvalues --    0.13892   0.14090   0.14173   0.14684   0.15009

 Mulliken charges:
               1
     1  C    0.723411
     2  C    1.368099
     3  C    0.744043
     4  H   -0.149704
     5  H   -0.209608
     6  H   -0.199060
     7  H   -0.024584
     8  H   -0.061454
     9  N   -0.386943
    10  N   -0.496563
    11  N   -0.413630
    12  O   -0.442847
    13  O   -0.451158
 Sum of Mulliken charges =  -0.00000

 Dipole moment (field-independent basis, Debye):
    X=              0.0796    Y=              5.3396    Z=              0.6910  Tot=              5.3847

 Test job not archived.
 1\1\GINC-SE044\SP\RHF\Aug-CC-pVDZ\C3H5N3O2\OHZDE\08-Apr-2025\0\\#t hf
 aug-cc-pvdz iop(5/13=1,5/36=2,99/5=2) pseudo=read geom=check guess=(re
 ad,tcheck) scf=(maxcycle=1)\\title\\0,1\C,0,-1.26511,-0.410085,-0.0158
 213\C,0,0.0287056,1.69772,0.209296\C,0,1.25869,-0.417777,-0.0325527\H,
 0,-2.06488,1.42722,-0.198636\H,0,0.063836,1.82414,1.29552\H,0,-0.01245
 69,2.67586,-0.267071\H,0,2.07191,1.39961,-0.111626\H,0,0.00964088,-2.0
 2241,0.129969\N,0,-1.20251,0.964324,-0.0982583\N,0,1.16807,0.957919,-0
 .266508\N,0,0.00192455,-1.02313,0.145581\O,0,-2.29359,-1.0527,-0.04943

 Normal termination of Gaussian 16 at Tue Apr  8 21:50:22 2025.
