 Gaussian 16, Revision C.01,

 ----------------------------------------------------------------------
 #t hf aug-cc-pvdz symm=none int=(grid=ultrafine) guess=(read,tcheck) s
 table=(opt,rrhf)
 ----------------------------------------------------------------------
 -----
 title
 -----
 Symbolic Z-matrix:
 Charge =  0 Multiplicity = 1

 SCF Done:  E(RHF) =  -761.792766192     A.U. after   14 cycles
 Normal termination of Gaussian 16 at Tue Apr  8 21:32:24 2025.
 Gaussian 16:  ES64L-G16RevC.01  3-Jul-2019

 ----------------------------------------------------------------------
 #t hf aug-cc-pvdz iop(5/13=1,5/36=2,99/5=2) pseudo=read geom=check gue
 ss=(read,tcheck) scf=(maxcycle=1)
 ----------------------------------------------------------------------
 -----
 title
 -----
 Structure from the checkpoint file:  "ANI1ccx_190_conf6_mol1.chk"
 Charge =  0 Multiplicity = 1

                         Standard orientation:
 ---------------------------------------------------------------------
 Center     Atomic      Atomic             Coordinates (Angstroms)
 Number     Number       Type             X           Y           Z
 ---------------------------------------------------------------------
      1          6           0       -2.296530    0.173582    0.948135
      2          6           0        2.256109   -1.221852   -1.384330
      3          6           0        1.703168   -2.277612    0.838838
      4          6           0        2.216919   -1.051302    0.132897
      5          6           0        2.194610    1.471708    0.055406
      6          6           0        0.930604   -1.395081   -2.069220
      7          6           0       -3.420110    0.933588   -1.016690
      8          6           0       -3.195821   -0.550338   -1.190830
      9          6           0       -2.867231   -1.048330    0.173086
     10          6           0       -0.803559   -0.034985    1.370580
     11          6           0        1.537500    0.247747    0.625758
     12          1           0        1.734148   -2.214862    1.945360
     13          1           0        1.964361    2.961858   -0.978003
     14          1           0        0.283366   -2.200401   -1.672460
     15          1           0        1.092949   -1.719451   -3.108230
     16          1           0        0.373735   -0.463436   -2.122360
     17          1           0        2.648869   -0.362787   -1.946230
     18          1           0        2.832029   -2.136862   -1.643500
     19          1           0        2.295488   -3.163332    0.540691
     20          1           0        0.653593   -2.496091    0.582418
     21          1           0        3.267279   -0.897289    0.488719
     22          1           0       -4.431180    1.082711   -0.590838
     23          1           0       -0.296655    0.880094   -0.229343
     24          1           0       -3.365760    1.438611   -1.992490
     25          1           0       -2.346721   -0.718814   -1.867610
     26          1           0       -4.081201   -0.994763   -1.672250
     27          1           0       -3.740581   -1.442379    0.702601
     28          1           0       -2.089771   -1.822240    0.140479
     29          1           0       -2.877650    0.475115    1.823060
     30          1           0       -2.514519    2.201180    0.333475
     31          1           0        1.614070    0.405949    1.733130
     32          7           0       -2.348000    1.303930   -0.073767
     33          7           0        0.094855    0.246717    0.412228
     34          8           0        3.370530    1.776358    0.181480
     35          8           0       -0.575695   -0.448719    2.500180
     36          8           0        1.357941    2.278599   -0.648869
 ---------------------------------------------------------------------

 SCF Done:  E(RHF) =  -762.022540417     A.U. after    2 cycles

 The electronic state is 1-A.
 Alpha  occ. eigenvalues --  -20.64023 -20.57410 -20.53218 -15.63897 -15.62389
 Alpha  occ. eigenvalues --  -11.41406 -11.35669 -11.30396 -11.28702 -11.26928
 Alpha  occ. eigenvalues --  -11.25144 -11.24539 -11.23742 -11.23672 -11.22440
 Alpha  occ. eigenvalues --  -11.22370  -1.43828  -1.34182  -1.32906  -1.22186
 Alpha  occ. eigenvalues --   -1.19861  -1.09506  -1.03992  -1.02369  -0.99098
 Alpha  occ. eigenvalues --   -0.97060  -0.87329  -0.85382  -0.83600  -0.80177
 Alpha  occ. eigenvalues --   -0.78288  -0.76614  -0.73862  -0.72309  -0.71086
 Alpha  occ. eigenvalues --   -0.68973  -0.67506  -0.65156  -0.63898  -0.63234
 Alpha  occ. eigenvalues --   -0.62498  -0.60831  -0.59276  -0.58574  -0.56796
 Alpha  occ. eigenvalues --   -0.55746  -0.55345  -0.53946  -0.53519  -0.52749
 Alpha  occ. eigenvalues --   -0.51523  -0.50751  -0.50212  -0.49237  -0.48965
 Alpha  occ. eigenvalues --   -0.48176  -0.47907  -0.46532  -0.45926  -0.42888
 Alpha  occ. eigenvalues --   -0.39485  -0.38444
 Alpha virt. eigenvalues --    0.02469   0.03200   0.03372   0.04007   0.05066
 Alpha virt. eigenvalues --    0.05254   0.05596   0.06086   0.06347   0.07032
 Alpha virt. eigenvalues --    0.07394   0.07686   0.07847   0.08050   0.08916

 Mulliken charges:
               1
     1  C    0.581380
     2  C    0.304653
     3  C    0.887963
     4  C   -0.600057
     5  C    0.971164
     6  C    0.601498
     7  C    0.904582
     8  C    0.167450
     9  C    0.204042
    10  C    0.435487
    11  C    0.010296
    12  H   -0.030208
    13  H    0.251683
    14  H   -0.168635
    15  H   -0.162715
    16  H   -0.203057
    17  H   -0.035040
    18  H   -0.099860
    19  H   -0.064317
    20  H   -0.163888
    21  H   -0.041092
    22  H   -0.172175
    23  H    0.030887
    24  H   -0.108817
    25  H   -0.213668
    26  H   -0.060450
    27  H   -0.112482
    28  H   -0.150589
    29  H   -0.228335
    30  H   -0.070810
    31  H    0.027427
    32  N   -0.696525
    33  N   -0.114300
    34  O   -0.586282
    35  O   -0.639345
    36  O   -0.655864
 Sum of Mulliken charges =  -0.00000

 Dipole moment (field-independent basis, Debye):
    X=             -3.2861    Y=              0.8981    Z=             -3.7517  Tot=              5.0676

 Test job not archived.
 1\1\GINC-SE016\SP\RHF\Aug-CC-pVDZ\C11H20N2O3\OHZDE\08-Apr-2025\0\\#t h
 f aug-cc-pvdz iop(5/13=1,5/36=2,99/5=2) pseudo=read geom=check guess=(
 read,tcheck) scf=(maxcycle=1)\\title\\0,1\C,0,-2.29653,0.173582,0.9481
 35\C,0,2.25611,-1.22185,-1.38433\C,0,1.70317,-2.27761,0.838838\C,0,2.2
 1692,-1.0513,0.132897\C,0,2.19461,1.47171,0.0554059\C,0,0.930605,-1.39
 508,-2.06922\C,0,-3.42011,0.933587,-1.01669\C,0,-3.19582,-0.550339,-1.
 19083\C,0,-2.86723,-1.04833,0.173086\C,0,-0.803559,-0.0349842,1.37058\
 C,0,1.5375,0.247749,0.625758\H,0,1.73415,-2.21486,1.94536\H,0,1.96436,

 Normal termination of Gaussian 16 at Tue Apr  8 21:33:24 2025.
