 Gaussian 16, Revision C.01,

 ----------------------------------------------------------------------
 #t hf aug-cc-pvdz symm=none int=(grid=ultrafine) guess=(read,tcheck) s
 table=(opt,rrhf)
 ----------------------------------------------------------------------
 -----
 title
 -----
 Symbolic Z-matrix:
 Charge =  0 Multiplicity = 1

 SCF Done:  E(RHF) =  -485.183066265     A.U. after   15 cycles
 Normal termination of Gaussian 16 at Tue Apr  8 21:42:16 2025.
 Gaussian 16:  ES64L-G16RevC.01  3-Jul-2019

 ----------------------------------------------------------------------
 #t hf aug-cc-pvdz iop(5/13=1,5/36=2,99/5=2) pseudo=read geom=check gue
 ss=(read,tcheck) scf=(maxcycle=1)
 ----------------------------------------------------------------------
 -----
 title
 -----
 Structure from the checkpoint file:  "ANI1ccx_484_conf13_mol1.chk"
 Charge =  0 Multiplicity = 1

                         Standard orientation:
 ---------------------------------------------------------------------
 Center     Atomic      Atomic             Coordinates (Angstroms)
 Number     Number       Type             X           Y           Z
 ---------------------------------------------------------------------
      1          6           0        1.269990    0.022250    0.011272
      2          6           0       -0.668586    0.782506   -0.137270
      3          1           0       -2.239809   -0.674068    0.920162
      4          1           0       -2.215999   -2.033770   -0.288802
      5          7           0       -1.547799   -1.371330    0.414722
      6          7           0       -0.696064   -0.585481   -0.468956
      7          8           0        0.692429   -1.002710   -0.349177
      8          8           0        2.474050   -0.119577    0.404263
      9          8           0        0.564963    1.197140   -0.166617
     10          8           0       -1.662140    1.372270    0.174565
 ---------------------------------------------------------------------

 SCF Done:  E(RHF) =  -485.337623327     A.U. after    2 cycles

 The electronic state is 1-A.
 Alpha  occ. eigenvalues --  -20.73496 -20.72869 -20.62626 -20.58756 -15.80626
 Alpha  occ. eigenvalues --  -15.73903 -11.50762 -11.49596  -1.62238  -1.50046
 Alpha  occ. eigenvalues --   -1.42923  -1.34847  -1.26630  -1.07828  -0.97333
 Alpha  occ. eigenvalues --   -0.94362  -0.82847  -0.79802  -0.75014  -0.72721
 Alpha  occ. eigenvalues --   -0.70643  -0.69095  -0.66892  -0.65928  -0.59511
 Alpha  occ. eigenvalues --   -0.55238  -0.54892  -0.51980  -0.50186  -0.44949
 Alpha virt. eigenvalues --    0.02286   0.04431   0.06256   0.07292   0.09175
 Alpha virt. eigenvalues --    0.10293   0.10581   0.11325   0.11944   0.12354
 Alpha virt. eigenvalues --    0.13830   0.14990   0.15776   0.17323   0.17622

 Mulliken charges:
               1
     1  C    0.749913
     2  C    0.870748
     3  H    0.205970
     4  H    0.300972
     5  N   -0.303115
     6  N   -0.231892
     7  O   -0.271240
     8  O   -0.503422
     9  O   -0.438164
    10  O   -0.379770
 Sum of Mulliken charges =   0.00000

 Dipole moment (field-independent basis, Debye):
    X=             -4.3039    Y=             -1.4885    Z=             -1.2409  Tot=              4.7201

 Test job not archived.
 1\1\GINC-SE159\SP\RHF\Aug-CC-pVDZ\C2H2N2O4\OHZDE\08-Apr-2025\0\\#t hf
 aug-cc-pvdz iop(5/13=1,5/36=2,99/5=2) pseudo=read geom=check guess=(re
 ad,tcheck) scf=(maxcycle=1)\\title\\0,1\C,0,1.26999,0.0222501,0.011272
 6\C,0,-0.668586,0.782506,-0.13727\H,0,-2.23981,-0.674068,0.920162\H,0,
 -2.216,-2.03377,-0.288802\N,0,-1.5478,-1.37133,0.414722\N,0,-0.696064,
 -0.585481,-0.468956\O,0,0.692428,-1.00271,-0.349177\O,0,2.47405,-0.119
 577,0.404263\O,0,0.564963,1.19714,-0.166617\O,0,-1.66214,1.37227,0.174
 565\\Version=ES64L-G16RevC.01\State=1-A\HF=-485.3376233\RMSD=2.683e-03

 Normal termination of Gaussian 16 at Tue Apr  8 21:42:20 2025.
