 Gaussian 16, Revision C.01,

 ----------------------------------------------------------------------
 #t hf aug-cc-pvdz symm=none int=(grid=ultrafine) guess=(read,tcheck) s
 table=(opt,rrhf)
 ----------------------------------------------------------------------
 -----
 title
 -----
 Symbolic Z-matrix:
 Charge =  0 Multiplicity = 1

 SCF Done:  E(RHF) =  -943.077258792     A.U. after   15 cycles
 Normal termination of Gaussian 16 at Tue Apr  8 20:03:12 2025.
 Gaussian 16:  ES64L-G16RevC.01  3-Jul-2019

 ----------------------------------------------------------------------
 #t hf aug-cc-pvdz iop(5/13=1,5/36=2,99/5=2) pseudo=read geom=check gue
 ss=(read,tcheck) scf=(maxcycle=1)
 ----------------------------------------------------------------------
 -----
 title
 -----
 Structure from the checkpoint file:  "ANI1ccx_1569_conf10_mol2.chk"
 Charge =  0 Multiplicity = 1

                         Standard orientation:
 ---------------------------------------------------------------------
 Center     Atomic      Atomic             Coordinates (Angstroms)
 Number     Number       Type             X           Y           Z
 ---------------------------------------------------------------------
      1          6           0        2.308808   -1.052903    0.351813
      2          6           0        0.860536   -1.239952   -0.060954
      3          6           0        2.900770    0.200864   -0.290201
      4          6           0        2.082741    1.417997   -0.056060
      5          6           0       -1.476901   -0.394026    0.503123
      6          6           0       -2.404922   -1.637698    0.215660
      7          6           0       -1.685380    0.589914   -0.625429
      8          6           0       -1.484028    2.010241   -0.121352
      9          1           0       -0.957125   -2.464030   -0.590392
     10          1           0       -1.925486    3.739382   -0.459467
     11          1           0       -2.692630    0.624887   -1.069751
     12          1           0       -0.955576    0.462483   -1.436301
     13          1           0       -1.933510    0.084714    1.388949
     14          1           0        0.283717   -0.168976    1.569639
     15          1           0        3.038860    0.113115   -1.394161
     16          1           0        3.944320    0.309914    0.066762
     17          1           0        2.428828   -0.986266    1.434229
     18          1           0        2.862537   -2.389794   -1.044201
     19          1           0        2.711846   -3.083304    0.391025
     20          1           0        1.016102    2.247638    1.217159
     21          7           0        3.071697   -2.255494   -0.060043
     22          7           0       -0.059111   -0.711602    0.791362
     23          8           0       -2.126337    2.891812   -0.875469
     24          8           0        0.496219   -1.814351   -1.082941
     25          8           0        1.744182    2.219117   -0.864079
     26          8           0        1.690771    1.514457    1.245589
     27          8           0       -3.594542   -1.584026    0.497063
     28          8           0       -0.804766    2.363730    0.827255
     29          8           0       -1.845494   -2.726578   -0.333966
 ---------------------------------------------------------------------

 SCF Done:  E(RHF) =  -943.365193215     A.U. after    2 cycles

 The electronic state is 1-A.
 Alpha  occ. eigenvalues --  -20.65926 -20.63087 -20.61444 -20.59882 -20.59034
 Alpha  occ. eigenvalues --  -20.58811 -20.56301 -15.69336 -15.63849 -11.43859
 Alpha  occ. eigenvalues --  -11.41761 -11.41169 -11.41039 -11.34283 -11.32508
 Alpha  occ. eigenvalues --  -11.29440 -11.28847  -1.47084  -1.44716  -1.42242
 Alpha  occ. eigenvalues --   -1.39999  -1.36167  -1.34626  -1.32359  -1.24489
 Alpha  occ. eigenvalues --   -1.19704  -1.10315  -1.06913  -0.98691  -0.92940
 Alpha  occ. eigenvalues --   -0.85892  -0.85822  -0.83656  -0.82157  -0.77720
 Alpha  occ. eigenvalues --   -0.77123  -0.75452  -0.73738  -0.72874  -0.71848
 Alpha  occ. eigenvalues --   -0.71151  -0.69509  -0.68664  -0.66903  -0.66630
 Alpha  occ. eigenvalues --   -0.65296  -0.64733  -0.63259  -0.62683  -0.61014
 Alpha  occ. eigenvalues --   -0.60368  -0.59553  -0.58432  -0.57201  -0.55768
 Alpha  occ. eigenvalues --   -0.54291  -0.53753  -0.52759  -0.50849  -0.49760
 Alpha  occ. eigenvalues --   -0.48949  -0.48824  -0.48270  -0.43791  -0.42748
 Alpha virt. eigenvalues --    0.02547   0.03144   0.03632   0.03945   0.05077
 Alpha virt. eigenvalues --    0.05644   0.06141   0.06496   0.07416   0.07921
 Alpha virt. eigenvalues --    0.08286   0.08835   0.09834   0.10151   0.11134

 Mulliken charges:
               1
     1  C    0.571651
     2  C    0.390264
     3  C    0.259085
     4  C    0.660124
     5  C    0.290946
     6  C    0.763509
     7  C    0.137640
     8  C    0.634297
     9  H    0.214008
    10  H    0.190545
    11  H   -0.079941
    12  H    0.019215
    13  H   -0.145761
    14  H    0.043264
    15  H    0.035713
    16  H    0.124885
    17  H   -0.191748
    18  H    0.079073
    19  H    0.005174
    20  H    0.327756
    21  N   -0.341127
    22  N   -0.116933
    23  O   -0.476345
    24  O   -0.702190
    25  O   -0.461163
    26  O   -0.661872
    27  O   -0.531590
    28  O   -0.590630
    29  O   -0.447850
 Sum of Mulliken charges =  -0.00000

 Dipole moment (field-independent basis, Debye):
    X=              3.6160    Y=              2.7065    Z=              1.5968  Tot=              4.7906

 Test job not archived.
 1\1\GINC-SE116\SP\RHF\Aug-CC-pVDZ\C8H12N2O7\OHZDE\08-Apr-2025\0\\#t hf
  aug-cc-pvdz iop(5/13=1,5/36=2,99/5=2) pseudo=read geom=check guess=(r
 ead,tcheck) scf=(maxcycle=1)\\title\\0,1\C,0,2.30881,-1.0529,0.351814\
 C,0,0.860538,-1.23995,-0.0609534\C,0,2.90077,0.200868,-0.2902\C,0,2.08
 274,1.418,-0.056059\C,0,-1.4769,-0.394027,0.503124\C,0,-2.40492,-1.637
 7,0.215661\C,0,-1.68538,0.589913,-0.625428\C,0,-1.48403,2.01024,-0.121
 351\H,0,-0.957122,-2.46403,-0.590391\H,0,-1.92549,3.73938,-0.459466\H,
 0,-2.69263,0.624884,-1.06975\H,0,-0.955576,0.462483,-1.4363\H,0,-1.933

 Normal termination of Gaussian 16 at Tue Apr  8 20:03:54 2025.
