 Gaussian 16, Revision C.01,

 ----------------------------------------------------------------------
 #t hf aug-cc-pvdz symm=none int=(grid=ultrafine) guess=(read,tcheck) s
 table=(opt,rrhf)
 ----------------------------------------------------------------------
 -----
 title
 -----
 Symbolic Z-matrix:
 Charge =  0 Multiplicity = 1

 SCF Done:  E(RHF) =  -263.686263448     A.U. after   13 cycles
 Normal termination of Gaussian 16 at Tue Apr  8 21:30:28 2025.
 Gaussian 16:  ES64L-G16RevC.01  3-Jul-2019

 ----------------------------------------------------------------------
 #t hf aug-cc-pvdz iop(5/13=1,5/36=2,99/5=2) pseudo=read geom=check gue
 ss=(read,tcheck) scf=(maxcycle=1)
 ----------------------------------------------------------------------
 -----
 title
 -----
 Structure from the checkpoint file:  "ANI1ccx_383_conf102_mol1.chk"
 Charge =  0 Multiplicity = 1

                         Standard orientation:
 ---------------------------------------------------------------------
 Center     Atomic      Atomic             Coordinates (Angstroms)
 Number     Number       Type             X           Y           Z
 ---------------------------------------------------------------------
      1          6           0        0.001243    0.101122   -0.014838
      2          1           0       -1.405342   -1.253906    0.244549
      3          1           0        1.778560   -0.393483   -0.160770
      4          8           0       -1.240020   -0.297251   -0.044241
      5          8           0        0.949847   -0.855627    0.018331
      6          8           0        0.242588    1.282960    0.026565
 ---------------------------------------------------------------------

 SCF Done:  E(RHF) =  -263.774226770     A.U. after    2 cycles

 The electronic state is 1-A.
 Alpha  occ. eigenvalues --  -20.65260 -20.65187 -20.56126 -11.46348  -1.48534
 Alpha  occ. eigenvalues --   -1.38593  -1.33454  -0.90329  -0.83212  -0.73619
 Alpha  occ. eigenvalues --   -0.71172  -0.64924  -0.63072  -0.58555  -0.50275
 Alpha  occ. eigenvalues --   -0.49953
 Alpha virt. eigenvalues --    0.02666   0.04250   0.09046   0.10021   0.12156
 Alpha virt. eigenvalues --    0.12967   0.17146   0.18031   0.19248   0.20652
 Alpha virt. eigenvalues --    0.20976   0.22263   0.25270   0.27350   0.28992

 Mulliken charges:
               1
     1  C    0.774530
     2  H    0.239088
     3  H    0.198693
     4  O   -0.406438
     5  O   -0.403123
     6  O   -0.402750
 Sum of Mulliken charges =  -0.00000

 Dipole moment (field-independent basis, Debye):
    X=              0.5727    Y=             -3.5512    Z=              0.1206  Tot=              3.5991

 Test job not archived.
 1\1\GINC-SE094\SP\RHF\Aug-CC-pVDZ\C1H2O3\OHZDE\08-Apr-2025\0\\#t hf au
 g-cc-pvdz iop(5/13=1,5/36=2,99/5=2) pseudo=read geom=check guess=(read
 ,tcheck) scf=(maxcycle=1)\\title\\0,1\C,0,0.00124173,0.101121,-0.01483
 78\H,0,-1.40534,-1.25391,0.244549\H,0,1.77856,-0.393479,-0.16077\O,0,-
 1.24002,-0.297255,-0.0442406\O,0,0.949848,-0.855625,0.0183314\O,0,0.24
 2584,1.28296,0.0265652\\Version=ES64L-G16RevC.01\State=1-A\HF=-263.774
 2268\RMSD=3.042e-03\Dipole=0.225311,-1.3971332,0.0474562\Quadrupole=2.
 822401,-2.7460866,-0.0763144,2.0380685,-1.217672,-0.5824618\PG=C01 [X(

 Normal termination of Gaussian 16 at Tue Apr  8 21:30:29 2025.
