 Gaussian 16, Revision C.01,

 ----------------------------------------------------------------------
 #t hf aug-cc-pvdz symm=none int=(grid=ultrafine) guess=(read,tcheck) s
 table=(opt,rrhf)
 ----------------------------------------------------------------------
 -----
 title
 -----
 Symbolic Z-matrix:
 Charge =  0 Multiplicity = 1

 SCF Done:  E(RHF) =  -485.833335675     A.U. after   14 cycles
 Normal termination of Gaussian 16 at Tue Apr  8 21:52:52 2025.
 Gaussian 16:  ES64L-G16RevC.01  3-Jul-2019

 ----------------------------------------------------------------------
 #t hf aug-cc-pvdz iop(5/13=1,5/36=2,99/5=2) pseudo=read geom=check gue
 ss=(read,tcheck) scf=(maxcycle=1)
 ----------------------------------------------------------------------
 -----
 title
 -----
 Structure from the checkpoint file:  "ANI1ccx_768_conf2_mol1.chk"
 Charge =  0 Multiplicity = 1

                         Standard orientation:
 ---------------------------------------------------------------------
 Center     Atomic      Atomic             Coordinates (Angstroms)
 Number     Number       Type             X           Y           Z
 ---------------------------------------------------------------------
      1          6           0       -1.888499    0.082163    0.070010
      2          6           0        1.442311   -0.981392    0.536317
      3          6           0        2.097261    0.255849   -0.096696
      4          1           0        0.428839    1.194510    0.081084
      5          1           0        2.029381   -1.842891    0.313606
      6          1           0       -0.368403   -1.867430    0.635175
      7          1           0        1.467811   -0.851104    1.670580
      8          1           0       -2.289689    1.789640    0.866282
      9          1           0       -1.562629   -1.420060   -1.090020
     10          1           0       -3.088619   -0.784374   -1.375220
     11          1           0       -3.360419    1.422730   -0.377296
     12          7           0       -2.341929   -0.911094   -0.749780
     13          7           0       -2.728669    1.079680    0.311685
     14          7           0       -0.709860    0.033788    0.596953
     15          7           0        0.053304   -1.106610    0.105409
     16          8           0        1.351481    1.337420   -0.275623
     17          8           0        3.264441    0.231194   -0.428358
 ---------------------------------------------------------------------

 SCF Done:  E(RHF) =  -485.981562131     A.U. after    2 cycles

 The electronic state is 1-A.
 Alpha  occ. eigenvalues --  -20.58781 -20.53084 -15.66963 -15.66840 -15.65961
 Alpha  occ. eigenvalues --  -15.63564 -11.39016 -11.37609 -11.28579  -1.39310
 Alpha  occ. eigenvalues --   -1.32987  -1.29592  -1.23365  -1.17768  -1.08359
 Alpha  occ. eigenvalues --   -0.93854  -0.83844  -0.81869  -0.77168  -0.76780
 Alpha  occ. eigenvalues --   -0.71458  -0.67337  -0.67039  -0.65359  -0.63413
 Alpha  occ. eigenvalues --   -0.61141  -0.58640  -0.58080  -0.55668  -0.50554
 Alpha  occ. eigenvalues --   -0.46278  -0.45204  -0.43750  -0.42146  -0.35172
 Alpha virt. eigenvalues --    0.01416   0.02583   0.03491   0.05338   0.06144
 Alpha virt. eigenvalues --    0.06542   0.07733   0.08534   0.10490   0.11393
 Alpha virt. eigenvalues --    0.12796   0.12986   0.13517   0.13645   0.14499

 Mulliken charges:
               1
     1  C    1.039769
     2  C    0.685239
     3  C    0.539261
     4  H    0.322667
     5  H   -0.266815
     6  H    0.091385
     7  H    0.087582
     8  H    0.045571
     9  H    0.051937
    10  H   -0.073792
    11  H   -0.046747
    12  N   -0.149125
    13  N   -0.232533
    14  N   -0.468738
    15  N   -0.639659
    16  O   -0.509532
    17  O   -0.476470
 Sum of Mulliken charges =  -0.00000

 Dipole moment (field-independent basis, Debye):
    X=             -8.2004    Y=             -1.4709    Z=              0.1354  Tot=              8.3323

 Test job not archived.
 1\1\GINC-SE402\SP\RHF\Aug-CC-pVDZ\C3H8N4O2\OHZDE\08-Apr-2025\0\\#t hf
 aug-cc-pvdz iop(5/13=1,5/36=2,99/5=2) pseudo=read geom=check guess=(re
 ad,tcheck) scf=(maxcycle=1)\\title\\0,1\C,0,-1.8885,0.0821633,0.070010
 3\C,0,1.44231,-0.981392,0.536317\C,0,2.09726,0.25585,-0.0966963\H,0,0.
 428838,1.19451,0.0810838\H,0,2.02938,-1.84289,0.313606\H,0,-0.368404,-
 1.86743,0.635175\H,0,1.46781,-0.851104,1.67058\H,0,-2.28969,1.78964,0.
 866282\H,0,-1.56263,-1.42006,-1.09002\H,0,-3.08862,-0.784374,-1.37522\
 H,0,-3.36042,1.42273,-0.377296\N,0,-2.34193,-0.911094,-0.74978\N,0,-2.

 Normal termination of Gaussian 16 at Tue Apr  8 21:52:59 2025.
