 Gaussian 16, Revision C.01,

 ----------------------------------------------------------------------
 #t hf aug-cc-pvdz symm=none int=(grid=ultrafine) guess=(read,tcheck) s
 table=(opt,rrhf)
 ----------------------------------------------------------------------
 -----
 title
 -----
 Symbolic Z-matrix:
 Charge =  0 Multiplicity = 1

 SCF Done:  E(RHF) =  -380.216983559     A.U. after   11 cycles
 Normal termination of Gaussian 16 at Tue Apr  8 21:04:27 2025.
 Gaussian 16:  ES64L-G16RevC.01  3-Jul-2019

 ----------------------------------------------------------------------
 #t hf aug-cc-pvdz iop(5/13=1,5/36=2,99/5=2) pseudo=read geom=check gue
 ss=(read,tcheck) scf=(maxcycle=1)
 ----------------------------------------------------------------------
 -----
 title
 -----
 Structure from the checkpoint file:  "ANI1ccx_1843_conf77_mol1.chk"
 Charge =  0 Multiplicity = 1

                         Standard orientation:
 ---------------------------------------------------------------------
 Center     Atomic      Atomic             Coordinates (Angstroms)
 Number     Number       Type             X           Y           Z
 ---------------------------------------------------------------------
      1          1           0       -1.670461    0.273843   -0.247195
      2          1           0       -2.390741    0.293597   -1.683831
      3          1           0       -0.532835   -0.811370    0.970706
      4          1           0       -1.520291   -0.541037    2.178159
      5          1           0       -0.493861   -1.259301   -0.890112
      6          1           0        0.901946   -1.423211   -0.281077
      7          1           0        1.675269    0.545416    0.070403
      8          1           0        2.927009   -0.034786   -0.752892
      9          1           0        0.001525    1.518409    0.908184
     10          1           0       -0.114048    1.618529   -0.595790
     11          8           0       -1.474661    0.317924   -1.219201
     12          8           0       -1.099811   -0.090199    1.429819
     13          8           0       -0.010897   -1.762111   -0.217907
     14          8           0        2.232659   -0.243445   -0.057452
     15          8           0        0.504771    1.755319    0.105170
 ---------------------------------------------------------------------

 SCF Done:  E(RHF) =  -380.341407356     A.U. after    2 cycles

 The electronic state is 1-A.
 Alpha  occ. eigenvalues --  -20.60466 -20.58145 -20.57166 -20.56341 -20.56080
 Alpha  occ. eigenvalues --   -1.33584  -1.31559  -1.30783  -1.29720  -1.28076
 Alpha  occ. eigenvalues --   -0.76263  -0.74249  -0.72860  -0.72133  -0.71518
 Alpha  occ. eigenvalues --   -0.64003  -0.62628  -0.60741  -0.60005  -0.56627
 Alpha  occ. eigenvalues --   -0.54365  -0.53311  -0.52260  -0.50981  -0.50797
 Alpha virt. eigenvalues --    0.02683   0.04515   0.04824   0.06848   0.07532
 Alpha virt. eigenvalues --    0.07932   0.08351   0.08810   0.09907   0.11697
 Alpha virt. eigenvalues --    0.16245   0.18687   0.19559   0.19764   0.22044

 Mulliken charges:
               1
     1  H    0.267363
     2  H    0.268986
     3  H    0.343166
     4  H    0.199396
     5  H    0.253505
     6  H    0.280137
     7  H    0.241342
     8  H    0.226911
     9  H    0.261374
    10  H    0.212795
    11  O   -0.557884
    12  O   -0.573022
    13  O   -0.508975
    14  O   -0.430076
    15  O   -0.485018
 Sum of Mulliken charges =  -0.00000

 Dipole moment (field-independent basis, Debye):
    X=             -2.7919    Y=              0.4984    Z=             -0.8508  Tot=              2.9609

 Test job not archived.
 1\1\GINC-SE048\SP\RHF\Aug-CC-pVDZ\H10O5\OHZDE\08-Apr-2025\0\\#t hf aug
 -cc-pvdz iop(5/13=1,5/36=2,99/5=2) pseudo=read geom=check guess=(read,
 tcheck) scf=(maxcycle=1)\\title\\0,1\H,0,-1.67046,0.273844,-0.247194\H
 ,0,-2.39074,0.293598,-1.68383\H,0,-0.532834,-0.811369,0.970707\H,0,-1.
 52029,-0.541036,2.17816\H,0,-0.49386,-1.2593,-0.890111\H,0,0.901947,-1
 .42321,-0.281076\H,0,1.67527,0.545416,0.0704034\H,0,2.92701,-0.0347852
 ,-0.752891\H,0,0.00152578,1.51841,0.908185\H,0,-0.114047,1.61853,-0.59
 5789\O,0,-1.47466,0.317925,-1.2192\O,0,-1.09981,-0.0901979,1.42982\O,0

 Normal termination of Gaussian 16 at Tue Apr  8 21:04:31 2025.
