 Gaussian 16, Revision C.01,

 ----------------------------------------------------------------------
 #t hf aug-cc-pvdz symm=none int=(grid=ultrafine) guess=(read,tcheck) s
 table=(opt,rrhf)
 ----------------------------------------------------------------------
 -----
 title
 -----
 Symbolic Z-matrix:
 Charge =  0 Multiplicity = 1

 SCF Done:  E(RHF) =  -595.577673787     A.U. after   16 cycles
 Normal termination of Gaussian 16 at Tue Apr  8 19:16:21 2025.
 Gaussian 16:  ES64L-G16RevC.01  3-Jul-2019

 ----------------------------------------------------------------------
 #t hf aug-cc-pvdz iop(5/13=1,5/36=2,99/5=2) pseudo=read geom=check gue
 ss=(read,tcheck) scf=(maxcycle=1)
 ----------------------------------------------------------------------
 -----
 title
 -----
 Structure from the checkpoint file:  "ANI1ccx_1158_conf7_mol1.chk"
 Charge =  0 Multiplicity = 1

                         Standard orientation:
 ---------------------------------------------------------------------
 Center     Atomic      Atomic             Coordinates (Angstroms)
 Number     Number       Type             X           Y           Z
 ---------------------------------------------------------------------
      1          6           0       -4.187421   -0.307562    0.039280
      2          6           0       -0.054829    0.218063    0.048889
      3          6           0        0.505666    2.325069   -0.093468
      4          6           0        1.342160    0.349164    0.116859
      5          6           0        2.258199   -0.806459   -0.021693
      6          1           0        3.922290    0.372552    0.227068
      7          1           0        4.369589   -1.238012    0.101320
      8          1           0        0.392561    3.378909   -0.296569
      9          1           0       -1.604250    1.670040   -0.177856
     10          1           0       -4.444051   -1.351169   -0.053706
     11          1           0       -4.592211    0.201889    0.941567
     12          1           0       -4.622720    0.273061   -0.752620
     13          1           0       -0.227664   -1.744830   -0.175640
     14          7           0        3.611349   -0.563667    0.094509
     15          7           0       -2.743571   -0.063777    0.097632
     16          7           0       -2.089141   -1.131600   -0.050991
     17          7           0       -0.779914   -0.922551    0.024705
     18          7           0       -0.585023    1.448920   -0.079387
     19          7           0        1.639450    1.724229    0.040311
     20          8           0        1.781469   -1.959121   -0.155028
 ---------------------------------------------------------------------

 SCF Done:  E(RHF) =  -595.751054234     A.U. after    2 cycles

 The electronic state is 1-A.
 Alpha  occ. eigenvalues --  -20.53031 -15.75944 -15.69524 -15.69217 -15.68460
 Alpha  occ. eigenvalues --  -15.64387 -15.63501 -11.37879 -11.34982 -11.31750
 Alpha  occ. eigenvalues --  -11.27432 -11.26318  -1.39407  -1.33150  -1.31559
 Alpha  occ. eigenvalues --   -1.21007  -1.16837  -1.14562  -1.04410  -0.97985
 Alpha  occ. eigenvalues --   -0.89610  -0.85650  -0.83308  -0.79146  -0.74501
 Alpha  occ. eigenvalues --   -0.70658  -0.70136  -0.68365  -0.65909  -0.64658
 Alpha  occ. eigenvalues --   -0.62489  -0.60979  -0.60337  -0.58294  -0.56813
 Alpha  occ. eigenvalues --   -0.56592  -0.55354  -0.45300  -0.44565  -0.43048
 Alpha  occ. eigenvalues --   -0.42655  -0.41237  -0.40208  -0.29615
 Alpha virt. eigenvalues --    0.02331   0.03403   0.03957   0.04706   0.05472
 Alpha virt. eigenvalues --    0.06299   0.07407   0.07999   0.08617   0.09470
 Alpha virt. eigenvalues --    0.10935   0.11141   0.11456   0.12358   0.12745

 Mulliken charges:
               1
     1  C    0.829789
     2  C    0.523311
     3  C    0.603727
     4  C    0.621346
     5  C    0.777671
     6  H   -0.039633
     7  H   -0.027382
     8  H   -0.345798
     9  H    0.028331
    10  H   -0.160146
    11  H   -0.078976
    12  H   -0.165059
    13  H    0.025305
    14  N   -0.175992
    15  N   -0.469869
    16  N   -0.111668
    17  N   -0.129571
    18  N   -0.302806
    19  N   -0.780919
    20  O   -0.621660
 Sum of Mulliken charges =  -0.00000

 Dipole moment (field-independent basis, Debye):
    X=             -2.4515    Y=              3.0302    Z=             -0.3232  Tot=              3.9110

 Test job not archived.
 1\1\GINC-SE035\SP\RHF\Aug-CC-pVDZ\C5H8N6O1\OHZDE\08-Apr-2025\0\\#t hf
 aug-cc-pvdz iop(5/13=1,5/36=2,99/5=2) pseudo=read geom=check guess=(re
 ad,tcheck) scf=(maxcycle=1)\\title\\0,1\C,0,-4.18742,-0.307563,0.03928
 04\C,0,-0.0548285,0.218064,0.0488887\C,0,0.505666,2.32507,-0.0934681\C
 ,0,1.34216,0.349165,0.116859\C,0,2.2582,-0.806458,-0.0216934\H,0,3.922
 29,0.372554,0.227068\H,0,4.36959,-1.23801,0.10132\H,0,0.392561,3.37891
 ,-0.296569\H,0,-1.60425,1.67004,-0.177856\H,0,-4.44405,-1.35117,-0.053
 706\H,0,-4.59221,0.201888,0.941567\H,0,-4.62272,0.27306,-0.75262\H,0,-

 Normal termination of Gaussian 16 at Tue Apr  8 19:16:34 2025.
