 Gaussian 16, Revision C.01,

 ----------------------------------------------------------------------
 #t hf aug-cc-pvdz symm=none int=(grid=ultrafine) guess=(read,tcheck) s
 table=(opt,rrhf)
 ----------------------------------------------------------------------
 -----
 title
 -----
 Symbolic Z-matrix:
 Charge =  0 Multiplicity = 1

 SCF Done:  E(RHF) =  -509.502785686     A.U. after   14 cycles
 Normal termination of Gaussian 16 at Tue Apr  8 22:08:58 2025.
 Gaussian 16:  ES64L-G16RevC.01  3-Jul-2019

 ----------------------------------------------------------------------
 #t hf aug-cc-pvdz iop(5/13=1,5/36=2,99/5=2) pseudo=read geom=check gue
 ss=(read,tcheck) scf=(maxcycle=1)
 ----------------------------------------------------------------------
 -----
 title
 -----
 Structure from the checkpoint file:  "ANI1ccx_939_conf143_mol1.chk"
 Charge =  0 Multiplicity = 1

                         Standard orientation:
 ---------------------------------------------------------------------
 Center     Atomic      Atomic             Coordinates (Angstroms)
 Number     Number       Type             X           Y           Z
 ---------------------------------------------------------------------
      1          6           0        0.413380    0.139528    0.514977
      2          6           0        2.012429   -0.177187    0.200260
      3          6           0       -0.629571   -0.739678   -0.173823
      4          6           0       -2.020731   -0.230656   -0.019943
      5          1           0        0.984650    1.885281   -0.462743
      6          1           0        0.423316    2.125461    0.902947
      7          1           0        0.422268   -0.013357    1.624260
      8          1           0       -0.338749   -0.837388   -1.254740
      9          1           0       -0.629678   -1.742909    0.224220
     10          1           0       -1.297931    1.433061   -0.383181
     11          1           0        1.471539   -1.949059   -0.340586
     12          7           0        0.243241    1.592461    0.042320
     13          8           0        2.757439    0.676110   -0.160777
     14          8           0       -2.947041   -0.984355    0.210358
     15          8           0       -2.204151    1.022500   -0.342451
     16          8           0        2.219859   -1.464299   -0.174035
 ---------------------------------------------------------------------

 SCF Done:  E(RHF) =  -509.660923212     A.U. after    2 cycles

 The electronic state is 1-A.
 Alpha  occ. eigenvalues --  -20.64585 -20.60924 -20.60295 -20.55269 -15.66862
 Alpha  occ. eigenvalues --  -11.44389 -11.39795 -11.35879 -11.29651  -1.46342
 Alpha  occ. eigenvalues --   -1.42329  -1.38045  -1.32040  -1.21779  -1.08011
 Alpha  occ. eigenvalues --   -0.94710  -0.88850  -0.83939  -0.78575  -0.74485
 Alpha  occ. eigenvalues --   -0.73044  -0.71354  -0.68310  -0.67583  -0.66296
 Alpha  occ. eigenvalues --   -0.64728  -0.61637  -0.59491  -0.56836  -0.56160
 Alpha  occ. eigenvalues --   -0.53713  -0.50334  -0.48400  -0.47176  -0.45611
 Alpha virt. eigenvalues --    0.02169   0.03096   0.03629   0.05537   0.05736
 Alpha virt. eigenvalues --    0.06387   0.07619   0.09273   0.09432   0.10221
 Alpha virt. eigenvalues --    0.11413   0.12214   0.12284   0.13188   0.13210

 Mulliken charges:
               1
     1  C   -0.042613
     2  C    0.825959
     3  C    0.365641
     4  C    0.561354
     5  H   -0.015895
     6  H    0.167535
     7  H    0.047821
     8  H    0.084465
     9  H   -0.155187
    10  H    0.389515
    11  H    0.136670
    12  N   -0.560253
    13  O   -0.418413
    14  O   -0.478987
    15  O   -0.470344
    16  O   -0.437269
 Sum of Mulliken charges =  -0.00000

 Dipole moment (field-independent basis, Debye):
    X=              3.3225    Y=              0.2519    Z=              1.1321  Tot=              3.5191

 Test job not archived.
 1\1\GINC-SE110\SP\RHF\Aug-CC-pVDZ\C4H7N1O4\OHZDE\08-Apr-2025\0\\#t hf
 aug-cc-pvdz iop(5/13=1,5/36=2,99/5=2) pseudo=read geom=check guess=(re
 ad,tcheck) scf=(maxcycle=1)\\title\\0,1\C,0,0.413381,0.139527,0.514977
 \C,0,2.01243,-0.177188,0.20026\C,0,-0.62957,-0.739679,-0.173823\C,0,-2
 .02073,-0.230656,-0.0199431\H,0,0.984651,1.88528,-0.462743\H,0,0.42331
 7,2.12546,0.902947\H,0,0.422269,-0.0133581,1.62426\H,0,-0.338748,-0.83
 7389,-1.25474\H,0,-0.629677,-1.74291,0.22422\H,0,-1.29793,1.43306,-0.3
 83181\H,0,1.47154,-1.94906,-0.340586\N,0,0.243242,1.59246,0.0423202\O,

 Normal termination of Gaussian 16 at Tue Apr  8 22:09:05 2025.
