 Gaussian 16, Revision C.01,

 ----------------------------------------------------------------------
 #t hf aug-cc-pvdz symm=none int=(grid=ultrafine) guess=(read,tcheck) s
 table=(opt,rrhf)
 ----------------------------------------------------------------------
 -----
 title
 -----
 Symbolic Z-matrix:
 Charge =  0 Multiplicity = 1

 SCF Done:  E(RHF) =  -872.200442862     A.U. after   16 cycles
 Normal termination of Gaussian 16 at Tue Apr  8 21:29:20 2025.
 Gaussian 16:  ES64L-G16RevC.01  3-Jul-2019

 ----------------------------------------------------------------------
 #t hf aug-cc-pvdz iop(5/13=1,5/36=2,99/5=2) pseudo=read geom=check gue
 ss=(read,tcheck) scf=(maxcycle=1)
 ----------------------------------------------------------------------
 -----
 title
 -----
 Structure from the checkpoint file:  "ANI1ccx_252_conf6_mol2.chk"
 Charge =  0 Multiplicity = 1

                         Standard orientation:
 ---------------------------------------------------------------------
 Center     Atomic      Atomic             Coordinates (Angstroms)
 Number     Number       Type             X           Y           Z
 ---------------------------------------------------------------------
      1          6           0        2.682679   -1.454690   -0.174324
      2          6           0       -3.911011   -1.206490    0.577724
      3          6           0       -2.982361   -0.553837    1.447300
      4          6           0       -2.047621    0.323354    0.960817
      5          6           0       -2.819501   -0.158821   -1.299160
      6          6           0       -1.942201    0.526919   -0.411198
      7          6           0       -3.827801   -1.005070   -0.808775
      8          6           0        0.742902    1.993540    0.555312
      9          6           0        0.380068    1.382440   -0.800240
     10          6           0        1.766300   -2.637970   -0.307736
     11          6           0        2.138669   -0.223456   -0.897104
     12          6           0       -1.130551    1.596660   -0.997036
     13          1           0       -1.230021    1.576400   -2.066430
     14          1           0        0.914166    3.514250    1.488830
     15          1           0       -4.600631   -1.839300    1.057190
     16          1           0       -3.068841   -0.714780    2.522060
     17          1           0       -4.550961   -1.538860   -1.466280
     18          1           0       -1.347091    0.824928    1.622670
     19          1           0       -2.734761   -0.100453   -2.360220
     20          1           0       -1.432661    2.592730   -0.629527
     21          1           0        1.525480   -2.734530   -1.374120
     22          1           0        0.378935   -0.577720   -0.063730
     23          1           0        0.996329   -2.031900    1.246340
     24          1           0        2.368070   -3.545670    0.028641
     25          1           0        3.677249   -1.636940   -0.643335
     26          1           0        3.658929   -1.417520    1.660560
     27          1           0        2.651879   -0.131985    1.536450
     28          1           0        0.967927    1.922420   -1.521940
     29          7           0        2.763489   -1.133890    1.307490
     30          7           0        0.771039   -0.036749   -0.829190
     31          8           0        1.312379    1.453900    1.482130
     32          8           0        2.864309    0.555217   -1.480730
     33          8           0        0.593705   -2.491940    0.464894
     34          8           0        0.577963    3.300060    0.601365
 ---------------------------------------------------------------------

 SCF Done:  E(RHF) =  -872.461339114     A.U. after    2 cycles

 The electronic state is 1-A.
 Alpha  occ. eigenvalues --  -20.64408 -20.57992 -20.57143 -20.54863 -15.64536
 Alpha  occ. eigenvalues --  -15.62646 -11.41247 -11.36497 -11.30651 -11.29355
 Alpha  occ. eigenvalues --  -11.29048 -11.25709 -11.25547 -11.25395 -11.25045
 Alpha  occ. eigenvalues --  -11.24841 -11.24655 -11.24524  -1.46228  -1.36371
 Alpha  occ. eigenvalues --   -1.34042  -1.32923  -1.21248  -1.15898  -1.14644
 Alpha  occ. eigenvalues --   -1.07517  -1.01634  -1.01288  -0.99024  -0.92097
 Alpha  occ. eigenvalues --   -0.87240  -0.83520  -0.83129  -0.80137  -0.78309
 Alpha  occ. eigenvalues --   -0.75638  -0.73493  -0.72126  -0.70641  -0.69301
 Alpha  occ. eigenvalues --   -0.68061  -0.66807  -0.65037  -0.64836  -0.64094
 Alpha  occ. eigenvalues --   -0.63337  -0.62166  -0.60835  -0.59990  -0.59447
 Alpha  occ. eigenvalues --   -0.58040  -0.57059  -0.55887  -0.55709  -0.53716
 Alpha  occ. eigenvalues --   -0.51986  -0.50689  -0.50351  -0.49469  -0.48971
 Alpha  occ. eigenvalues --   -0.47927  -0.47151  -0.44290  -0.42103  -0.40175
 Alpha  occ. eigenvalues --   -0.34804  -0.32792
 Alpha virt. eigenvalues --    0.02873   0.03464   0.03568   0.03810   0.05064
 Alpha virt. eigenvalues --    0.05320   0.05464   0.05742   0.06298   0.07121
 Alpha virt. eigenvalues --    0.07436   0.08147   0.08874   0.09094   0.09320

 Mulliken charges:
               1
     1  C    0.259310
     2  C    1.036962
     3  C   -0.040926
     4  C    1.169292
     5  C    0.886300
     6  C    0.229796
     7  C   -0.079797
     8  C    0.640081
     9  C    0.040592
    10  C    0.947133
    11  C    0.421165
    12  C    0.625624
    13  H   -0.148665
    14  H    0.192968
    15  H   -0.546786
    16  H   -0.543306
    17  H   -0.403179
    18  H   -0.730165
    19  H   -0.696601
    20  H   -0.033284
    21  H   -0.117008
    22  H    0.021421
    23  H    0.349598
    24  H   -0.043802
    25  H   -0.042374
    26  H    0.025659
    27  H    0.102071
    28  H   -0.257782
    29  N   -0.466318
    30  N   -0.472648
    31  O   -0.573921
    32  O   -0.590883
    33  O   -0.637218
    34  O   -0.523306
 Sum of Mulliken charges =  -0.00000

 Dipole moment (field-independent basis, Debye):
    X=             -0.7761    Y=              0.5086    Z=              1.2263  Tot=              1.5378

 Test job not archived.
 1\1\GINC-SE455\SP\RHF\Aug-CC-pVDZ\C12H16N2O4\OHZDE\08-Apr-2025\0\\#t h
 f aug-cc-pvdz iop(5/13=1,5/36=2,99/5=2) pseudo=read geom=check guess=(
 read,tcheck) scf=(maxcycle=1)\\title\\0,1\C,0,2.68268,-1.45469,-0.1743
 24\C,0,-3.91101,-1.20649,0.577724\C,0,-2.98236,-0.553837,1.4473\C,0,-2
 .04762,0.323354,0.960817\C,0,-2.8195,-0.158821,-1.29916\C,0,-1.9422,0.
 526919,-0.411198\C,0,-3.8278,-1.00507,-0.808775\C,0,0.742903,1.99354,0
 .555312\C,0,0.380069,1.38244,-0.80024\C,0,1.7663,-2.63797,-0.307736\C,
 0,2.13867,-0.223456,-0.897104\C,0,-1.13055,1.59666,-0.997036\H,0,-1.23

 Normal termination of Gaussian 16 at Tue Apr  8 21:30:19 2025.
