 Gaussian 16, Revision C.01,

 ----------------------------------------------------------------------
 #t hf aug-cc-pvdz symm=none int=(grid=ultrafine) guess=(read,tcheck) s
 table=(opt,rrhf)
 ----------------------------------------------------------------------
 -----
 title
 -----
 Symbolic Z-matrix:
 Charge =  0 Multiplicity = 1

 SCF Done:  E(RHF) =  -505.016846453     A.U. after   15 cycles
 Normal termination of Gaussian 16 at Tue Apr  8 21:39:50 2025.
 Gaussian 16:  ES64L-G16RevC.01  3-Jul-2019

 ----------------------------------------------------------------------
 #t hf aug-cc-pvdz iop(5/13=1,5/36=2,99/5=2) pseudo=read geom=check gue
 ss=(read,tcheck) scf=(maxcycle=1)
 ----------------------------------------------------------------------
 -----
 title
 -----
 Structure from the checkpoint file:  "ANI1ccx_471_conf15_mol1.chk"
 Charge =  0 Multiplicity = 1

                         Standard orientation:
 ---------------------------------------------------------------------
 Center     Atomic      Atomic             Coordinates (Angstroms)
 Number     Number       Type             X           Y           Z
 ---------------------------------------------------------------------
      1          6           0        1.401280   -0.067823   -0.036880
      2          6           0       -0.673880    0.778489   -0.071726
      3          1           0       -2.078060   -1.090040    1.020350
      4          7           0       -0.756277   -0.604062   -0.454747
      5          8           0       -1.910680   -1.264950   -0.003282
      6          8           0        0.527877   -1.132530    0.161607
      7          8           0        2.559740   -0.151151    0.188906
      8          8           0        0.717621    1.082280   -0.268999
      9          8           0       -1.518610    1.598160    0.273584
 ---------------------------------------------------------------------

 SCF Done:  E(RHF) =  -505.172555622     A.U. after    2 cycles

 The electronic state is 1-A.
 Alpha  occ. eigenvalues --  -20.72462 -20.71811 -20.70771 -20.65611 -20.61977
 Alpha  occ. eigenvalues --  -15.84849 -11.51728 -11.51033  -1.55882  -1.45802
 Alpha  occ. eigenvalues --   -1.44429  -1.40100  -1.38053  -1.14673  -0.94084
 Alpha  occ. eigenvalues --   -0.91186  -0.82507  -0.79208  -0.77253  -0.73944
 Alpha  occ. eigenvalues --   -0.72717  -0.68792  -0.66472  -0.65311  -0.62317
 Alpha  occ. eigenvalues --   -0.60957  -0.56408  -0.55651  -0.54457  -0.49720
 Alpha virt. eigenvalues --    0.02218   0.05967   0.06779   0.07560   0.07877
 Alpha virt. eigenvalues --    0.10248   0.11128   0.11513   0.11699   0.13149
 Alpha virt. eigenvalues --    0.14348   0.14804   0.16469   0.19260   0.20100

 Mulliken charges:
               1
     1  C    0.812854
     2  C    1.029274
     3  H    0.284285
     4  N    0.129175
     5  O   -0.493207
     6  O   -0.533005
     7  O   -0.330392
     8  O   -0.534082
     9  O   -0.364902
 Sum of Mulliken charges =  -0.00000

 Dipole moment (field-independent basis, Debye):
    X=             -2.2086    Y=             -0.9955    Z=              0.8732  Tot=              2.5752

 Test job not archived.
 1\1\GINC-SE338\SP\RHF\Aug-CC-pVDZ\C2H1N1O5\OHZDE\08-Apr-2025\0\\#t hf
 aug-cc-pvdz iop(5/13=1,5/36=2,99/5=2) pseudo=read geom=check guess=(re
 ad,tcheck) scf=(maxcycle=1)\\title\\0,1\C,0,1.40128,-0.0678236,-0.0368
 799\C,0,-0.67388,0.778489,-0.0717263\H,0,-2.07806,-1.09004,1.02035\N,0
 ,-0.756277,-0.604062,-0.454747\O,0,-1.91068,-1.26495,-0.00328235\O,0,0
 .527877,-1.13253,0.161607\O,0,2.55974,-0.151151,0.188906\O,0,0.717621,
 1.08228,-0.268999\O,0,-1.51861,1.59816,0.273584\\Version=ES64L-G16RevC
 .01\State=1-A\HF=-505.1725556\RMSD=2.810e-03\Dipole=-0.8689208,-0.3916

 Normal termination of Gaussian 16 at Tue Apr  8 21:39:53 2025.
