 Gaussian 16, Revision C.01,

 ----------------------------------------------------------------------
 #t hf aug-cc-pvdz symm=none int=(grid=ultrafine) guess=(read,tcheck) s
 table=(opt,rrhf)
 ----------------------------------------------------------------------
 -----
 title
 -----
 Symbolic Z-matrix:
 Charge =  0 Multiplicity = 1

 SCF Done:  E(RHF) =  -380.241010415     A.U. after   11 cycles
 Normal termination of Gaussian 16 at Tue Apr  8 20:58:33 2025.
 Gaussian 16:  ES64L-G16RevC.01  3-Jul-2019

 ----------------------------------------------------------------------
 #t hf aug-cc-pvdz iop(5/13=1,5/36=2,99/5=2) pseudo=read geom=check gue
 ss=(read,tcheck) scf=(maxcycle=1)
 ----------------------------------------------------------------------
 -----
 title
 -----
 Structure from the checkpoint file:  "ANI1ccx_1843_conf1_mol1.chk"
 Charge =  0 Multiplicity = 1

                         Standard orientation:
 ---------------------------------------------------------------------
 Center     Atomic      Atomic             Coordinates (Angstroms)
 Number     Number       Type             X           Y           Z
 ---------------------------------------------------------------------
      1          1           0        0.033520   -1.931249   -0.062615
      2          1           0        1.190225   -2.647062   -0.796864
      3          1           0       -1.927511   -0.667902   -0.060092
      4          1           0       -2.198774   -1.969894    0.737084
      5          1           0       -2.534286    1.488226    0.715906
      6          1           0       -1.192376    1.564273   -0.048669
      7          1           0        1.142084    1.622938    0.013285
      8          1           0        0.576666    2.784079   -0.861347
      9          1           0        1.900339   -0.557222    0.027739
     10          1           0        2.982331    0.199606    0.821429
     11          8           0        1.011936   -2.061132   -0.056024
     12          8           0       -1.687013   -1.629785   -0.021819
     13          8           0       -2.070797    1.110795   -0.041641
     14          8           0        0.406536    2.278570   -0.036073
     15          8           0        2.342811    0.315827    0.094826
 ---------------------------------------------------------------------

 SCF Done:  E(RHF) =  -380.368045267     A.U. after    2 cycles

 The electronic state is 1-A.
 Alpha  occ. eigenvalues --  -20.57453 -20.57350 -20.57007 -20.56970 -20.56937
 Alpha  occ. eigenvalues --   -1.31607  -1.30749  -1.30553  -1.29050  -1.28911
 Alpha  occ. eigenvalues --   -0.73163  -0.72901  -0.72705  -0.72359  -0.72176
 Alpha  occ. eigenvalues --   -0.63314  -0.62881  -0.59134  -0.58603  -0.56162
 Alpha  occ. eigenvalues --   -0.52709  -0.52235  -0.52155  -0.51978  -0.51643
 Alpha virt. eigenvalues --    0.03144   0.04552   0.04895   0.05795   0.06469
 Alpha virt. eigenvalues --    0.08453   0.08944   0.09387   0.10387   0.11444
 Alpha virt. eigenvalues --    0.17252   0.18459   0.19629   0.19798   0.20465

 Mulliken charges:
               1
     1  H    0.271099
     2  H    0.150036
     3  H    0.264168
     4  H    0.169572
     5  H    0.152022
     6  H    0.274766
     7  H    0.267791
     8  H    0.178672
     9  H    0.266265
    10  H    0.164216
    11  O   -0.421978
    12  O   -0.443482
    13  O   -0.420555
    14  O   -0.448150
    15  O   -0.424442
 Sum of Mulliken charges =  -0.00000

 Dipole moment (field-independent basis, Debye):
    X=             -0.0589    Y=             -0.2557    Z=              1.0361  Tot=              1.0688

 Test job not archived.
 1\1\GINC-SE110\SP\RHF\Aug-CC-pVDZ\H10O5\OHZDE\08-Apr-2025\0\\#t hf aug
 -cc-pvdz iop(5/13=1,5/36=2,99/5=2) pseudo=read geom=check guess=(read,
 tcheck) scf=(maxcycle=1)\\title\\0,1\H,0,0.0335239,-1.93125,-0.0626148
 \H,0,1.19023,-2.64706,-0.796864\H,0,-1.92751,-0.667907,-0.0600923\H,0,
 -2.19877,-1.9699,0.737084\H,0,-2.53429,1.48822,0.715906\H,0,-1.19238,1
 .56427,-0.0486691\H,0,1.14208,1.62294,0.0132851\H,0,0.576659,2.78408,-
 0.861347\H,0,1.90034,-0.557218,0.0277389\H,0,2.98233,0.199612,0.821429
 \O,0,1.01194,-2.06113,-0.0560244\O,0,-1.68701,-1.62979,-0.0218191\O,0,

 Normal termination of Gaussian 16 at Tue Apr  8 20:58:36 2025.
