 Gaussian 16, Revision C.01,

 ----------------------------------------------------------------------
 #t hf aug-cc-pvdz symm=none int=(grid=ultrafine) guess=(read,tcheck) s
 table=(opt,rrhf)
 ----------------------------------------------------------------------
 -----
 title
 -----
 Symbolic Z-matrix:
 Charge =  0 Multiplicity = 1

 SCF Done:  E(RHF) =  -509.554273802     A.U. after   14 cycles
 Normal termination of Gaussian 16 at Tue Apr  8 22:08:34 2025.
 Gaussian 16:  ES64L-G16RevC.01  3-Jul-2019

 ----------------------------------------------------------------------
 #t hf aug-cc-pvdz iop(5/13=1,5/36=2,99/5=2) pseudo=read geom=check gue
 ss=(read,tcheck) scf=(maxcycle=1)
 ----------------------------------------------------------------------
 -----
 title
 -----
 Structure from the checkpoint file:  "ANI1ccx_939_conf112_mol2.chk"
 Charge =  0 Multiplicity = 1

                         Standard orientation:
 ---------------------------------------------------------------------
 Center     Atomic      Atomic             Coordinates (Angstroms)
 Number     Number       Type             X           Y           Z
 ---------------------------------------------------------------------
      1          6           0       -0.742903    0.678619   -0.677485
      2          6           0       -1.271889   -0.594188   -0.077775
      3          6           0        0.765546    0.665932   -0.937439
      4          6           0        1.642401    0.064327    0.094951
      5          1           0       -1.650179    2.521240   -0.355963
      6          1           0       -1.829439    1.390880    0.902354
      7          1           0       -1.265979    0.809874   -1.635501
      8          1           0        0.948627    0.221512   -1.915601
      9          1           0        1.103091    1.695070   -0.985754
     10          1           0        1.681121   -0.176357    1.983349
     11          1           0       -1.121959   -2.406440   -0.294396
     12          7           0       -1.162079    1.792710    0.201929
     13          8           0       -2.165809   -0.725668    0.739222
     14          8           0        2.714981   -0.466020   -0.134018
     15          8           0        1.106631    0.154987    1.346699
     16          8           0       -0.667009   -1.649910   -0.642594
 ---------------------------------------------------------------------

 SCF Done:  E(RHF) =  -509.712634286     A.U. after    2 cycles

 The electronic state is 1-A.
 Alpha  occ. eigenvalues --  -20.64233 -20.62575 -20.58332 -20.56838 -15.62217
 Alpha  occ. eigenvalues --  -11.41831 -11.41075 -11.31125 -11.26869  -1.45156
 Alpha  occ. eigenvalues --   -1.42825  -1.34304  -1.33002  -1.17589  -1.05562
 Alpha  occ. eigenvalues --   -0.96111  -0.87083  -0.81868  -0.74712  -0.74094
 Alpha  occ. eigenvalues --   -0.72658  -0.68553  -0.67377  -0.66768  -0.64392
 Alpha  occ. eigenvalues --   -0.62001  -0.60630  -0.58154  -0.57146  -0.53880
 Alpha  occ. eigenvalues --   -0.51874  -0.50243  -0.48905  -0.47367  -0.40499
 Alpha virt. eigenvalues --    0.02735   0.03783   0.04294   0.04923   0.05765
 Alpha virt. eigenvalues --    0.06815   0.07747   0.09753   0.11023   0.11389
 Alpha virt. eigenvalues --    0.12156   0.13496   0.13638   0.14226   0.14583

 Mulliken charges:
               1
     1  C    0.006350
     2  C    0.819388
     3  C    0.324628
     4  C    0.660189
     5  H    0.033063
     6  H    0.111628
     7  H    0.042950
     8  H    0.042988
     9  H    0.073950
    10  H    0.129767
    11  H    0.184817
    12  N   -0.374594
    13  O   -0.526411
    14  O   -0.520934
    15  O   -0.498623
    16  O   -0.509155
 Sum of Mulliken charges =  -0.00000

 Dipole moment (field-independent basis, Debye):
    X=             -1.7344    Y=              0.7478    Z=             -1.5342  Tot=              2.4333

 Test job not archived.
 1\1\GINC-SE143\SP\RHF\Aug-CC-pVDZ\C4H7N1O4\OHZDE\08-Apr-2025\0\\#t hf
 aug-cc-pvdz iop(5/13=1,5/36=2,99/5=2) pseudo=read geom=check guess=(re
 ad,tcheck) scf=(maxcycle=1)\\title\\0,1\C,0,-0.742904,0.678619,-0.6774
 84\C,0,-1.27189,-0.594188,-0.0777745\C,0,0.765545,0.665932,-0.937438\C
 ,0,1.6424,0.0643274,0.094952\H,0,-1.65018,2.52124,-0.355962\H,0,-1.829
 44,1.39088,0.902355\H,0,-1.26598,0.809874,-1.6355\H,0,0.948626,0.22151
 2,-1.9156\H,0,1.10309,1.69507,-0.985753\H,0,1.68112,-0.176357,1.98335\
 H,0,-1.12196,-2.40644,-0.294395\N,0,-1.16208,1.79271,0.20193\O,0,-2.16

 Normal termination of Gaussian 16 at Tue Apr  8 22:08:41 2025.
