 Gaussian 16, Revision C.01,

 ----------------------------------------------------------------------
 #t hf aug-cc-pvdz symm=none int=(grid=ultrafine) guess=(read,tcheck) s
 table=(opt,rrhf)
 ----------------------------------------------------------------------
 -----
 title
 -----
 Symbolic Z-matrix:
 Charge =  0 Multiplicity = 1

 SCF Done:  E(RHF) =  -556.617052370     A.U. after   16 cycles
 Normal termination of Gaussian 16 at Tue Apr  8 22:07:05 2025.
 Gaussian 16:  ES64L-G16RevC.01  3-Jul-2019

 ----------------------------------------------------------------------
 #t hf aug-cc-pvdz iop(5/13=1,5/36=2,99/5=2) pseudo=read geom=check gue
 ss=(read,tcheck) scf=(maxcycle=1)
 ----------------------------------------------------------------------
 -----
 title
 -----
 Structure from the checkpoint file:  "ANI1ccx_926_conf2_mol2.chk"
 Charge =  0 Multiplicity = 1

                         Standard orientation:
 ---------------------------------------------------------------------
 Center     Atomic      Atomic             Coordinates (Angstroms)
 Number     Number       Type             X           Y           Z
 ---------------------------------------------------------------------
      1          6           0        2.033690   -0.301699   -0.015342
      2          6           0        0.529391   -0.216496    0.031270
      3          6           0       -2.073600   -0.172024   -0.029745
      4          6           0       -0.152687    1.080179   -0.014577
      5          1           0        0.042275    3.131539    0.018180
      6          1           0       -3.881440   -1.154034    0.185372
      7          1           0        1.522438    2.219281   -0.080443
      8          1           0        3.607511   -1.480678    0.109698
      9          1           0        2.021301   -2.317389   -0.005638
     10          1           0       -4.034031    0.542489    0.073049
     11          7           0        0.541977    2.211730    0.044658
     12          7           0        2.603591   -1.504379    0.042673
     13          7           0       -0.128446   -1.334761   -0.006402
     14          7           0       -1.448349   -1.383722   -0.021659
     15          7           0       -3.422210   -0.284533   -0.043487
     16          7           0       -1.491121    1.038248    0.036725
     17          8           0        2.764139    0.690119   -0.062176
 ---------------------------------------------------------------------

 SCF Done:  E(RHF) =  -556.779748885     A.U. after    2 cycles

 The electronic state is 1-A.
 Alpha  occ. eigenvalues --  -20.53833 -15.70579 -15.66412 -15.65741 -15.64925
 Alpha  occ. eigenvalues --  -15.64584 -15.63784 -11.38301 -11.37945 -11.37447
 Alpha  occ. eigenvalues --  -11.28995  -1.35965  -1.34007  -1.25391  -1.22996
 Alpha  occ. eigenvalues --   -1.18362  -1.14932  -1.07551  -0.92232  -0.90421
 Alpha  occ. eigenvalues --   -0.82096  -0.78437  -0.76328  -0.75705  -0.68947
 Alpha  occ. eigenvalues --   -0.68265  -0.67060  -0.64391  -0.63758  -0.62074
 Alpha  occ. eigenvalues --   -0.58630  -0.53033  -0.52700  -0.49568  -0.49195
 Alpha  occ. eigenvalues --   -0.44809  -0.42075  -0.39305  -0.38894  -0.33295
 Alpha virt. eigenvalues --    0.02809   0.03411   0.03794   0.05954   0.06545
 Alpha virt. eigenvalues --    0.07176   0.07918   0.08192   0.10073   0.11507
 Alpha virt. eigenvalues --    0.11575   0.12338   0.12623   0.13433   0.13992

 Mulliken charges:
               1
     1  C    0.345154
     2  C    0.833290
     3  C    0.892480
     4  C    0.605350
     5  H    0.031244
     6  H   -0.025145
     7  H    0.002456
     8  H    0.006854
     9  H    0.021917
    10  H    0.021974
    11  N   -0.170188
    12  N   -0.054399
    13  N   -0.623108
    14  N   -0.426769
    15  N   -0.320939
    16  N   -0.530987
    17  O   -0.609184
 Sum of Mulliken charges =   0.00000

 Dipole moment (field-independent basis, Debye):
    X=             -1.9299    Y=              0.6502    Z=              0.3597  Tot=              2.0680

 Test job not archived.
 1\1\GINC-SE088\SP\RHF\Aug-CC-pVDZ\C4H6N6O1\OHZDE\08-Apr-2025\0\\#t hf
 aug-cc-pvdz iop(5/13=1,5/36=2,99/5=2) pseudo=read geom=check guess=(re
 ad,tcheck) scf=(maxcycle=1)\\title\\0,1\C,0,2.03369,-0.3017,-0.0153416
 \C,0,0.529391,-0.216496,0.0312696\C,0,-2.0736,-0.172022,-0.0297449\C,0
 ,-0.152686,1.08018,-0.0145769\H,0,0.0422778,3.13154,0.0181799\H,0,-3.8
 8144,-1.15403,0.185372\H,0,1.52244,2.21928,-0.0804429\H,0,3.60751,-1.4
 8068,0.109698\H,0,2.0213,-2.31739,-0.00563786\H,0,-4.03403,0.542493,0.
 0730487\N,0,0.541979,2.21173,0.0446577\N,0,2.60359,-1.50438,0.0426729\

 Normal termination of Gaussian 16 at Tue Apr  8 22:07:14 2025.
