 Gaussian 16, Revision C.01,

 ----------------------------------------------------------------------
 #t hf aug-cc-pvdz symm=none int=(grid=ultrafine) guess=(read,tcheck) s
 table=(opt,rrhf)
 ----------------------------------------------------------------------
 -----
 title
 -----
 Symbolic Z-matrix:
 Charge =  0 Multiplicity = 1

 SCF Done:  E(RHF) =  -456.258617946     A.U. after   11 cycles
 Normal termination of Gaussian 16 at Tue Apr  8 21:05:42 2025.
 Gaussian 16:  ES64L-G16RevC.01  3-Jul-2019

 ----------------------------------------------------------------------
 #t hf aug-cc-pvdz iop(5/13=1,5/36=2,99/5=2) pseudo=read geom=check gue
 ss=(read,tcheck) scf=(maxcycle=1)
 ----------------------------------------------------------------------
 -----
 title
 -----
 Structure from the checkpoint file:  "ANI1ccx_1844_conf158_mol1.chk"
 Charge =  0 Multiplicity = 1

                         Standard orientation:
 ---------------------------------------------------------------------
 Center     Atomic      Atomic             Coordinates (Angstroms)
 Number     Number       Type             X           Y           Z
 ---------------------------------------------------------------------
      1          1           0        0.691527   -1.859419    1.633140
      2          1           0       -1.535848   -1.223021   -0.308759
      3          1           0       -1.596756   -2.729971   -0.456167
      4          1           0       -0.328710    1.909270    0.115519
      5          1           0       -0.845036    2.145060    1.529300
      6          1           0       -2.110840    0.827160    0.246505
      7          1           0        0.304655   -1.946969    0.145311
      8          1           0       -2.963069    0.157361   -0.937733
      9          1           0        3.182091   -0.302110   -0.832486
     10          1           0        2.234022   -0.769536    0.269442
     11          1           0        1.728010    1.214642   -0.467305
     12          1           0        1.459348    2.725952   -0.459572
     13          8           0       -1.172511    2.009119    0.612202
     14          8           0        2.781771    0.008689   -0.040642
     15          8           0       -1.079677   -2.001610   -0.776136
     16          8           0       -2.683279   -0.000373    0.054040
     17          8           0        1.110503   -1.936398    0.772862
     18          8           0        1.015769    1.902022   -0.681974
 ---------------------------------------------------------------------

 SCF Done:  E(RHF) =  -456.409838510     A.U. after    2 cycles

 The electronic state is 1-A.
 Alpha  occ. eigenvalues --  -20.57988 -20.57798 -20.57673 -20.57545 -20.57335
 Alpha  occ. eigenvalues --  -20.56788  -1.33177  -1.32186  -1.31804  -1.30004
 Alpha  occ. eigenvalues --   -1.29602  -1.26713  -0.74273  -0.74152  -0.72997
 Alpha  occ. eigenvalues --   -0.72873  -0.72171  -0.70741  -0.64392  -0.62937
 Alpha  occ. eigenvalues --   -0.62288  -0.60116  -0.58501  -0.57199  -0.53100
 Alpha  occ. eigenvalues --   -0.52737  -0.52408  -0.52152  -0.51577  -0.50330
 Alpha virt. eigenvalues --    0.02781   0.04312   0.04823   0.05309   0.06434
 Alpha virt. eigenvalues --    0.07001   0.08287   0.08630   0.09450   0.10316
 Alpha virt. eigenvalues --    0.10805   0.11184   0.16845   0.18450   0.19167

 Mulliken charges:
               1
     1  H    0.175436
     2  H    0.313529
     3  H    0.158533
     4  H    0.306798
     5  H    0.201560
     6  H    0.354596
     7  H    0.333276
     8  H    0.263401
     9  H    0.152698
    10  H    0.300116
    11  H    0.329647
    12  H    0.169276
    13  O   -0.511053
    14  O   -0.438787
    15  O   -0.474377
    16  O   -0.611335
    17  O   -0.529426
    18  O   -0.493888
 Sum of Mulliken charges =  -0.00000

 Dipole moment (field-independent basis, Debye):
    X=              0.8406    Y=              0.4071    Z=              0.9386  Tot=              1.3241

 Test job not archived.
 1\1\GINC-SE048\SP\RHF\Aug-CC-pVDZ\H12O6\OHZDE\08-Apr-2025\0\\#t hf aug
 -cc-pvdz iop(5/13=1,5/36=2,99/5=2) pseudo=read geom=check guess=(read,
 tcheck) scf=(maxcycle=1)\\title\\0,1\H,0,0.691524,-1.85942,1.63314\H,0
 ,-1.53585,-1.22302,-0.308759\H,0,-1.59676,-2.72997,-0.456167\H,0,-0.32
 8709,1.90927,0.115519\H,0,-0.845035,2.14506,1.5293\H,0,-2.11084,0.8271
 61,0.246505\H,0,0.304652,-1.94697,0.145311\H,0,-2.96307,0.157363,-0.93
 7733\H,0,3.18209,-0.302114,-0.832486\H,0,2.23402,-0.769539,0.269442\H,
 0,1.72801,1.21464,-0.467305\H,0,1.45935,2.72595,-0.459572\O,0,-1.17251

 Normal termination of Gaussian 16 at Tue Apr  8 21:05:47 2025.
