 Gaussian 16, Revision C.01,

 ----------------------------------------------------------------------
 #t hf aug-cc-pvdz symm=none int=(grid=ultrafine) guess=(read,tcheck) s
 table=(opt,rrhf)
 ----------------------------------------------------------------------
 -----
 title
 -----
 Symbolic Z-matrix:
 Charge =  0 Multiplicity = 1

 SCF Done:  E(RHF) =  -911.520292259     A.U. after   14 cycles
 Normal termination of Gaussian 16 at Tue Apr  8 21:36:27 2025.
 Gaussian 16:  ES64L-G16RevC.01  3-Jul-2019

 ----------------------------------------------------------------------
 #t hf aug-cc-pvdz iop(5/13=1,5/36=2,99/5=2) pseudo=read geom=check gue
 ss=(read,tcheck) scf=(maxcycle=1)
 ----------------------------------------------------------------------
 -----
 title
 -----
 Structure from the checkpoint file:  "ANI1ccx_191_conf16_mol1.chk"
 Charge =  0 Multiplicity = 1

                         Standard orientation:
 ---------------------------------------------------------------------
 Center     Atomic      Atomic             Coordinates (Angstroms)
 Number     Number       Type             X           Y           Z
 ---------------------------------------------------------------------
      1          6           0       -0.979628    2.139550    0.188555
      2          6           0        1.539480   -2.337091   -0.315294
      3          6           0        1.063130   -1.472440    2.090090
      4          6           0        2.019170   -1.420521    0.855449
      5          6           0        3.187671    0.178365   -0.695630
      6          6           0        0.018091   -2.191230   -0.635119
      7          6           0       -3.634470   -0.717602   -0.341121
      8          6           0       -2.718519    0.298341    0.429987
      9          6           0       -1.952879    1.165671   -0.579873
     10          6           0        0.090158    1.392450    0.965195
     11          6           0        2.168921    0.120007    0.399928
     12          1           0        1.085899   -2.533400    2.427310
     13          1           0        3.533230   -0.215132   -2.483080
     14          1           0       -0.577934   -2.653900    0.172028
     15          1           0       -0.318410   -1.126860   -0.808180
     16          1           0       -0.217541   -2.761960   -1.572950
     17          1           0        2.124920   -2.064551   -1.104220
     18          1           0        1.814669   -3.408031   -0.061370
     19          1           0        1.405940   -0.813420    2.896280
     20          1           0        0.047109   -1.143650    1.862250
     21          1           0        3.002170   -1.857511    1.205480
     22          1           0       -5.026080   -1.814908   -0.381165
     23          1           0        0.829902    0.850049   -0.935595
     24          1           0       -3.368589    0.905118    1.053360
     25          1           0       -1.831610   -0.135783    1.045270
     26          1           0       -2.581049    1.852331   -1.157450
     27          1           0       -1.395579    0.507018   -1.371630
     28          1           0       -1.577458    2.639901    0.934030
     29          1           0        0.013234    2.817160   -1.429590
     30          1           0        0.318163    3.620400   -0.233142
     31          1           0        2.607461    0.677133    1.250280
     32          7           0       -0.465283    3.159040   -0.647606
     33          7           0        0.968178    0.820133    0.081783
     34          8           0        4.362451    0.243890   -0.471668
     35          8           0        0.165727    1.322840    2.205650
     36          8           0       -3.688870   -0.702074   -1.564790
     37          8           0       -4.584600   -1.368558    0.368227
     38          8           0        2.718361   -0.011999   -1.977440
 ---------------------------------------------------------------------

 SCF Done:  E(RHF) =  -911.794513726     A.U. after    2 cycles

 The electronic state is 1-A.
 Alpha  occ. eigenvalues --  -20.64966 -20.64170 -20.58732 -20.57686 -20.55725
 Alpha  occ. eigenvalues --  -15.67209 -15.62630 -11.41954 -11.41936 -11.38125
 Alpha  occ. eigenvalues --  -11.31130 -11.29064 -11.28621 -11.26982 -11.26694
 Alpha  occ. eigenvalues --  -11.24266 -11.24025 -11.22704  -1.44664  -1.43933
 Alpha  occ. eigenvalues --   -1.35111  -1.34914  -1.32940  -1.23709  -1.20120
 Alpha  occ. eigenvalues --   -1.08428  -1.07241  -1.01634  -0.97022  -0.95741
 Alpha  occ. eigenvalues --   -0.89108  -0.87665  -0.84856  -0.82232  -0.80177
 Alpha  occ. eigenvalues --   -0.77147  -0.75195  -0.73617  -0.73497  -0.71157
 Alpha  occ. eigenvalues --   -0.70049  -0.69227  -0.67805  -0.66763  -0.66201
 Alpha  occ. eigenvalues --   -0.64946  -0.63175  -0.62753  -0.61748  -0.61349
 Alpha  occ. eigenvalues --   -0.59284  -0.58761  -0.57119  -0.55598  -0.54892
 Alpha  occ. eigenvalues --   -0.53499  -0.53111  -0.52614  -0.52111  -0.52033
 Alpha  occ. eigenvalues --   -0.50924  -0.50463  -0.49880  -0.48858  -0.48082
 Alpha  occ. eigenvalues --   -0.46926  -0.46723  -0.46027  -0.41383  -0.39140
 Alpha virt. eigenvalues --    0.02411   0.03240   0.03598   0.03961   0.04915
 Alpha virt. eigenvalues --    0.05046   0.05360   0.05822   0.06281   0.07170
 Alpha virt. eigenvalues --    0.07448   0.07763   0.08354   0.08478   0.08787

 Mulliken charges:
               1
     1  C    0.945511
     2  C    0.795407
     3  C    1.003648
     4  C   -0.683924
     5  C    0.623725
     6  C    0.572046
     7  C    0.835561
     8  C    0.271885
     9  C    0.155564
    10  C    0.414513
    11  C    0.482341
    12  H    0.022708
    13  H    0.240699
    14  H   -0.016915
    15  H   -0.434207
    16  H   -0.101351
    17  H   -0.407566
    18  H   -0.035018
    19  H   -0.035638
    20  H   -0.600513
    21  H   -0.181066
    22  H    0.204100
    23  H    0.078198
    24  H   -0.029810
    25  H    0.005668
    26  H   -0.212877
    27  H    0.007471
    28  H   -0.307970
    29  H   -0.076194
    30  H    0.058881
    31  H   -0.253444
    32  N   -0.189542
    33  N   -0.212548
    34  O   -0.473248
    35  O   -0.662648
    36  O   -0.540230
    37  O   -0.552159
    38  O   -0.711060
 Sum of Mulliken charges =  -0.00000

 Dipole moment (field-independent basis, Debye):
    X=              0.0038    Y=             -1.3492    Z=             -2.4030  Tot=              2.7559

 Test job not archived.
 1\1\GINC-SE221\SP\RHF\Aug-CC-pVDZ\C11H20N2O5\OHZDE\08-Apr-2025\0\\#t h
 f aug-cc-pvdz iop(5/13=1,5/36=2,99/5=2) pseudo=read geom=check guess=(
 read,tcheck) scf=(maxcycle=1)\\title\\0,1\C,0,-0.979629,2.13955,0.1885
 55\C,0,1.53948,-2.33709,-0.315294\C,0,1.06313,-1.47244,2.09009\C,0,2.0
 1917,-1.42052,0.855449\C,0,3.18767,0.178366,-0.69563\C,0,0.018091,-2.1
 9123,-0.635119\C,0,-3.63447,-0.717604,-0.341121\C,0,-2.71852,0.29834,0
 .429987\C,0,-1.95288,1.16567,-0.579873\C,0,0.0901572,1.39245,0.965195\
 C,0,2.16892,0.120008,0.399928\H,0,1.0859,-2.5334,2.42731\H,0,3.53323,-

 Normal termination of Gaussian 16 at Tue Apr  8 21:37:40 2025.
