 Gaussian 16, Revision C.01,

 ----------------------------------------------------------------------
 #t hf aug-cc-pvdz symm=none int=(grid=ultrafine) guess=(read,tcheck) s
 table=(opt,rrhf)
 ----------------------------------------------------------------------
 -----
 title
 -----
 Symbolic Z-matrix:
 Charge =  0 Multiplicity = 1

 SCF Done:  E(RHF) =  -809.787087047     A.U. after   14 cycles
 Normal termination of Gaussian 16 at Tue Apr  8 20:29:45 2025.
 Gaussian 16:  ES64L-G16RevC.01  3-Jul-2019

 ----------------------------------------------------------------------
 #t hf aug-cc-pvdz iop(5/13=1,5/36=2,99/5=2) pseudo=read geom=check gue
 ss=(read,tcheck) scf=(maxcycle=1)
 ----------------------------------------------------------------------
 -----
 title
 -----
 Structure from the checkpoint file:  "ANI1ccx_1634_conf13_mol1.chk"
 Charge =  0 Multiplicity = 1

                         Standard orientation:
 ---------------------------------------------------------------------
 Center     Atomic      Atomic             Coordinates (Angstroms)
 Number     Number       Type             X           Y           Z
 ---------------------------------------------------------------------
      1          6           0        2.856563    1.167382   -0.428060
      2          6           0        2.340480   -0.238485   -0.282707
      3          6           0        0.343884   -1.602261   -0.464110
      4          6           0       -1.006264   -1.478747   -1.146920
      5          6           0        0.154099   -2.047000    0.979373
      6          6           0       -0.215674   -1.047559    2.093520
      7          6           0       -1.274650    0.006869    1.952060
      8          6           0       -1.418675    1.725184    0.124413
      9          1           0       -2.046731   -0.558208   -2.380660
     10          1           0       -3.216094    2.072619   -0.729463
     11          1           0       -3.279335    1.692139    0.902703
     12          1           0       -1.255743    2.656443   -1.522080
     13          1           0        0.196523    1.178519    1.268530
     14          1           0       -1.483279    0.234651    3.031330
     15          1           0       -2.218301   -0.371224    1.566350
     16          1           0       -0.497401   -1.667239    3.046390
     17          1           0        0.690642   -0.462612    2.335560
     18          1           0       -0.639636   -2.788308    1.002890
     19          1           0        1.114063   -2.469103    1.352090
     20          1           0        0.851931   -2.387892   -1.000460
     21          1           0        0.494276    0.353561   -0.931389
     22          1           0        3.116794    1.387332   -1.472470
     23          1           0        3.716173    1.189720    0.161457
     24          1           0        1.112596    2.266127   -0.506951
     25          1           0        2.372179    3.119044    0.069649
     26          7           0        1.943746    2.170295    0.113168
     27          7           0        1.099729   -0.438357   -0.763926
     28          7           0       -0.806634    1.191042    1.259930
     29          7           0       -0.683689    2.264552   -0.764569
     30          7           0       -2.797786    1.508008    0.035962
     31          8           0        2.968817   -1.174588    0.175706
     32          8           0       -1.907216   -2.304135   -0.971911
     33          8           0       -1.185951   -0.424606   -1.994150
 ---------------------------------------------------------------------

 SCF Done:  E(RHF) =  -810.030106134     A.U. after    2 cycles

 The electronic state is 1-A.
 Alpha  occ. eigenvalues --  -20.63762 -20.57013 -20.53164 -15.66731 -15.63899
 Alpha  occ. eigenvalues --  -15.63722 -15.59764 -15.59615 -11.41337 -11.37992
 Alpha  occ. eigenvalues --  -11.35327 -11.29804 -11.27495 -11.25922 -11.24849
 Alpha  occ. eigenvalues --  -11.23602  -1.43215  -1.35107  -1.32340  -1.28472
 Alpha  occ. eigenvalues --   -1.21821  -1.17151  -1.14702  -1.12922  -1.06135
 Alpha  occ. eigenvalues --   -1.00857  -0.93800  -0.92100  -0.85209  -0.81936
 Alpha  occ. eigenvalues --   -0.80367  -0.78072  -0.74059  -0.72832  -0.72040
 Alpha  occ. eigenvalues --   -0.70279  -0.68264  -0.67071  -0.65718  -0.64970
 Alpha  occ. eigenvalues --   -0.63324  -0.62830  -0.62591  -0.61363  -0.60930
 Alpha  occ. eigenvalues --   -0.59461  -0.58283  -0.56514  -0.55400  -0.53797
 Alpha  occ. eigenvalues --   -0.53256  -0.50734  -0.50553  -0.48734  -0.48037
 Alpha  occ. eigenvalues --   -0.46516  -0.44138  -0.43154  -0.42409  -0.39312
 Alpha  occ. eigenvalues --   -0.38569  -0.36144
 Alpha virt. eigenvalues --    0.01766   0.02870   0.03496   0.03906   0.05439
 Alpha virt. eigenvalues --    0.05824   0.05904   0.06151   0.06815   0.07899
 Alpha virt. eigenvalues --    0.08100   0.08547   0.08955   0.09190   0.09925

 Mulliken charges:
               1
     1  C    1.113384
     2  C    0.105076
     3  C    0.277520
     4  C    0.934506
     5  C    0.160801
     6  C   -0.095188
     7  C    0.893814
     8  C    0.529484
     9  H    0.189922
    10  H   -0.002024
    11  H    0.027741
    12  H   -0.084669
    13  H   -0.027308
    14  H   -0.084513
    15  H   -0.296859
    16  H    0.038904
    17  H   -0.210639
    18  H   -0.093460
    19  H    0.149703
    20  H   -0.202085
    21  H    0.055394
    22  H   -0.004289
    23  H   -0.269834
    24  H    0.168122
    25  H    0.070489
    26  N   -0.539092
    27  N    0.011885
    28  N   -0.408704
    29  N   -0.320458
    30  N   -0.198895
    31  O   -0.628388
    32  O   -0.634702
    33  O   -0.625639
 Sum of Mulliken charges =  -0.00000

 Dipole moment (field-independent basis, Debye):
    X=             -4.3361    Y=              4.2553    Z=             -1.0780  Tot=              6.1702

 Test job not archived.
 1\1\GINC-SE179\SP\RHF\Aug-CC-pVDZ\C8H17N5O3\OHZDE\08-Apr-2025\0\\#t hf
  aug-cc-pvdz iop(5/13=1,5/36=2,99/5=2) pseudo=read geom=check guess=(r
 ead,tcheck) scf=(maxcycle=1)\\title\\0,1\C,0,2.85656,1.16739,-0.42806\
 C,0,2.34048,-0.238479,-0.282707\C,0,0.343888,-1.60226,-0.46411\C,0,-1.
 00626,-1.47875,-1.14692\C,0,0.154104,-2.047,0.979373\C,0,-0.215671,-1.
 04756,2.09352\C,0,-1.27465,0.00686542,1.95206\C,0,-1.41868,1.72518,0.1
 24413\H,0,-2.04673,-0.558213,-2.38066\H,0,-3.2161,2.07261,-0.729463\H,
 0,-3.27934,1.69213,0.902703\H,0,-1.25575,2.65644,-1.52208\H,0,0.19652,

 Normal termination of Gaussian 16 at Tue Apr  8 20:30:38 2025.
