 Gaussian 16, Revision C.01,

 ----------------------------------------------------------------------
 #t hf aug-cc-pvdz symm=none int=(grid=ultrafine) guess=(read,tcheck) s
 table=(opt,rrhf)
 ----------------------------------------------------------------------
 -----
 title
 -----
 Symbolic Z-matrix:
 Charge =  0 Multiplicity = 1

 SCF Done:  E(RHF) =  -720.716259406     A.U. after   14 cycles
 Normal termination of Gaussian 16 at Tue Apr  8 20:12:21 2025.
 Gaussian 16:  ES64L-G16RevC.01  3-Jul-2019

 ----------------------------------------------------------------------
 #t hf aug-cc-pvdz iop(5/13=1,5/36=2,99/5=2) pseudo=read geom=check gue
 ss=(read,tcheck) scf=(maxcycle=1)
 ----------------------------------------------------------------------
 -----
 title
 -----
 Structure from the checkpoint file:  "ANI1ccx_1618_conf11_mol2.chk"
 Charge =  0 Multiplicity = 1

                         Standard orientation:
 ---------------------------------------------------------------------
 Center     Atomic      Atomic             Coordinates (Angstroms)
 Number     Number       Type             X           Y           Z
 ---------------------------------------------------------------------
      1          6           0       -2.374670   -0.697255   -0.261168
      2          6           0       -0.891199   -0.776886    0.048974
      3          6           0       -2.972750    0.721984   -0.192860
      4          6           0        1.308300    0.339824   -0.611415
      5          6           0        2.316590   -0.870402   -0.717487
      6          6           0        1.702140    1.286940    0.586757
      7          6           0        0.981332    2.697730    0.396384
      8          6           0        1.446440    0.720541    1.988630
      9          1           0        1.133250   -2.085780    0.267554
     10          1           0        1.964880   -0.220608    2.132880
     11          1           0        0.381758    0.567104    2.148550
     12          1           0        1.881850    1.350130    2.777210
     13          1           0        1.312641    3.383890    1.154710
     14          1           0       -0.106409    2.628200    0.455447
     15          1           0        1.263031    3.143680   -0.565597
     16          1           0        2.756440    1.384340    0.392193
     17          1           0       -0.659446    0.576437   -1.422600
     18          1           0       -3.091160    1.904570   -1.783460
     19          1           0       -2.626000    1.104310    0.773411
     20          1           0       -4.091520    0.640070   -0.203461
     21          1           0       -2.563400   -1.034520   -1.215210
     22          1           0       -2.821070   -2.417480    0.682910
     23          1           0       -2.884300   -1.143400    1.648590
     24          1           0        1.566960    0.889566   -1.500060
     25          7           0       -3.140980   -1.438140    0.698659
     26          7           0       -0.090543   -0.037519   -0.813640
     27          8           0        3.440480   -0.606831   -1.079820
     28          8           0       -0.451026   -1.456210    0.971672
     29          8           0       -2.424460    1.515830   -1.173620
     30          8           0        1.948260   -2.062260   -0.263868
 ---------------------------------------------------------------------

 SCF Done:  E(RHF) =  -720.938296736     A.U. after    2 cycles

 The electronic state is 1-A.
 Alpha  occ. eigenvalues --  -20.61529 -20.60368 -20.57206 -20.54719 -15.66670
 Alpha  occ. eigenvalues --  -15.62569 -11.39116 -11.39036 -11.32265 -11.30242
 Alpha  occ. eigenvalues --  -11.29064 -11.25742 -11.23488 -11.22457  -1.40667
 Alpha  occ. eigenvalues --   -1.38182  -1.37264  -1.31569  -1.21318  -1.18960
 Alpha  occ. eigenvalues --   -1.07350  -1.00980  -0.96578  -0.93351  -0.89597
 Alpha  occ. eigenvalues --   -0.84745  -0.81564  -0.78709  -0.77106  -0.74509
 Alpha  occ. eigenvalues --   -0.72112  -0.69812  -0.67006  -0.66124  -0.65951
 Alpha  occ. eigenvalues --   -0.64440  -0.63626  -0.62201  -0.59975  -0.59526
 Alpha  occ. eigenvalues --   -0.58088  -0.57986  -0.57080  -0.55061  -0.54335
 Alpha  occ. eigenvalues --   -0.53477  -0.50776  -0.49805  -0.48251  -0.47836
 Alpha  occ. eigenvalues --   -0.47396  -0.47061  -0.45597  -0.42077  -0.39744
 Alpha virt. eigenvalues --    0.01755   0.03297   0.03604   0.03892   0.05147
 Alpha virt. eigenvalues --    0.05501   0.05856   0.06050   0.07138   0.07787
 Alpha virt. eigenvalues --    0.08013   0.08261   0.08708   0.09391   0.10212

 Mulliken charges:
               1
     1  C    0.698962
     2  C    0.259964
     3  C    0.872724
     4  C    0.464622
     5  C    0.646882
     6  C   -1.003237
     7  C    0.983081
     8  C    0.979355
     9  H    0.218123
    10  H   -0.144677
    11  H    0.026200
    12  H   -0.135349
    13  H   -0.128399
    14  H   -0.213349
    15  H   -0.096126
    16  H   -0.176922
    17  H    0.043196
    18  H    0.251299
    19  H   -0.166848
    20  H    0.035309
    21  H   -0.279685
    22  H    0.036665
    23  H    0.078806
    24  H   -0.295005
    25  N   -0.377399
    26  N   -0.324281
    27  O   -0.520215
    28  O   -0.602357
    29  O   -0.661550
    30  O   -0.469789
 Sum of Mulliken charges =  -0.00000

 Dipole moment (field-independent basis, Debye):
    X=             -6.7705    Y=              3.7335    Z=             -0.7654  Tot=              7.7695

 Test job not archived.
 1\1\GINC-SE367\SP\RHF\Aug-CC-pVDZ\C8H16N2O4\OHZDE\08-Apr-2025\0\\#t hf
  aug-cc-pvdz iop(5/13=1,5/36=2,99/5=2) pseudo=read geom=check guess=(r
 ead,tcheck) scf=(maxcycle=1)\\title\\0,1\C,0,-2.37467,-0.697255,-0.261
 168\C,0,-0.891199,-0.776886,0.0489736\C,0,-2.97275,0.721984,-0.19286\C
 ,0,1.3083,0.339824,-0.611415\C,0,2.31659,-0.870402,-0.717487\C,0,1.702
 14,1.28694,0.586757\C,0,0.981331,2.69773,0.396384\C,0,1.44644,0.720541
 ,1.98863\H,0,1.13325,-2.08578,0.267554\H,0,1.96488,-0.220608,2.13288\H
 ,0,0.381758,0.567104,2.14855\H,0,1.88185,1.35013,2.77721\H,0,1.31264,3

 Normal termination of Gaussian 16 at Tue Apr  8 20:12:49 2025.
