 Gaussian 16, Revision C.01,

 ----------------------------------------------------------------------
 #t hf aug-cc-pvdz symm=none int=(grid=ultrafine) guess=(read,tcheck) s
 table=(opt,rrhf)
 ----------------------------------------------------------------------
 -----
 title
 -----
 Symbolic Z-matrix:
 Charge =  0 Multiplicity = 1

 SCF Done:  E(RHF) =  -411.596592405     A.U. after   15 cycles
 Normal termination of Gaussian 16 at Tue Apr  8 21:43:52 2025.
 Gaussian 16:  ES64L-G16RevC.01  3-Jul-2019

 ----------------------------------------------------------------------
 #t hf aug-cc-pvdz iop(5/13=1,5/36=2,99/5=2) pseudo=read geom=check gue
 ss=(read,tcheck) scf=(maxcycle=1)
 ----------------------------------------------------------------------
 -----
 title
 -----
 Structure from the checkpoint file:  "ANI1ccx_516_conf1_mol2.chk"
 Charge =  0 Multiplicity = 1

                         Standard orientation:
 ---------------------------------------------------------------------
 Center     Atomic      Atomic             Coordinates (Angstroms)
 Number     Number       Type             X           Y           Z
 ---------------------------------------------------------------------
      1          6           0       -0.130069    0.782191   -0.080085
      2          6           0        0.854105   -0.399878   -0.066992
      3          1           0       -1.848969   -1.263401    1.115080
      4          1           0       -1.599559   -1.415351   -0.523864
      5          1           0       -2.062791    1.219279   -0.045660
      6          1           0        2.555451   -0.866674    0.378615
      7          7           0       -2.037150   -0.848782    0.209514
      8          7           0       -1.425350    0.435545    0.114370
      9          8           0        0.220496    1.924500   -0.239577
     10          8           0        2.025910   -0.067004    0.461941
     11          8           0        0.609738   -1.491879   -0.510977
 ---------------------------------------------------------------------

 SCF Done:  E(RHF) =  -411.725526210     A.U. after    2 cycles

 The electronic state is 1-A.
 Alpha  occ. eigenvalues --  -20.65753 -20.60672 -20.57026 -15.69667 -15.67695
 Alpha  occ. eigenvalues --  -11.43895 -11.40137  -1.47264  -1.38579  -1.37012
 Alpha  occ. eigenvalues --   -1.26998  -1.07473  -0.96419  -0.83740  -0.76057
 Alpha  occ. eigenvalues --   -0.74861  -0.70844  -0.70471  -0.67819  -0.67380
 Alpha  occ. eigenvalues --   -0.62910  -0.59135  -0.54982  -0.53835  -0.49149
 Alpha  occ. eigenvalues --   -0.44003  -0.41704
 Alpha virt. eigenvalues --    0.02985   0.04127   0.04737   0.05366   0.07789
 Alpha virt. eigenvalues --    0.10007   0.10615   0.11026   0.11823   0.12405
 Alpha virt. eigenvalues --    0.13646   0.14924   0.16891   0.17868   0.18925

 Mulliken charges:
               1
     1  C    0.528767
     2  C    0.616513
     3  H    0.083512
     4  H    0.139304
     5  H    0.034179
     6  H    0.189971
     7  N   -0.045042
     8  N   -0.240230
     9  O   -0.433548
    10  O   -0.422111
    11  O   -0.451315
 Sum of Mulliken charges =  -0.00000

 Dipole moment (field-independent basis, Debye):
    X=             -0.2050    Y=             -2.6829    Z=              1.1914  Tot=              2.9427

 Test job not archived.
 1\1\GINC-SE343\SP\RHF\Aug-CC-pVDZ\C2H4N2O3\OHZDE\08-Apr-2025\0\\#t hf
 aug-cc-pvdz iop(5/13=1,5/36=2,99/5=2) pseudo=read geom=check guess=(re
 ad,tcheck) scf=(maxcycle=1)\\title\\0,1\C,0,-0.130068,0.782191,-0.0800
 847\C,0,0.854105,-0.399879,-0.0669916\H,0,-1.84897,-1.2634,1.11508\H,0
 ,-1.59956,-1.41535,-0.523864\H,0,-2.06279,1.21928,-0.0456604\H,0,2.555
 45,-0.866676,0.378615\N,0,-2.03715,-0.848781,0.209514\N,0,-1.42535,0.4
 35546,0.11437\O,0,0.220497,1.9245,-0.239577\O,0,2.02591,-0.0670058,0.4
 61941\O,0,0.609737,-1.49188,-0.510977\\Version=ES64L-G16RevC.01\State=

 Normal termination of Gaussian 16 at Tue Apr  8 21:43:56 2025.
