 Gaussian 16, Revision C.01,

 ----------------------------------------------------------------------
 #t hf aug-cc-pvdz symm=none int=(grid=ultrafine) guess=(read,tcheck) s
 table=(opt,rrhf)
 ----------------------------------------------------------------------
 -----
 title
 -----
 Symbolic Z-matrix:
 Charge =  0 Multiplicity = 1

 SCF Done:  E(RHF) =  -221.202808706     A.U. after   14 cycles
 Normal termination of Gaussian 16 at Tue Apr  8 21:12:21 2025.
 Gaussian 16:  ES64L-G16RevC.01  3-Jul-2019

 ----------------------------------------------------------------------
 #t hf aug-cc-pvdz iop(5/13=1,5/36=2,99/5=2) pseudo=read geom=check gue
 ss=(read,tcheck) scf=(maxcycle=1)
 ----------------------------------------------------------------------
 -----
 title
 -----
 Structure from the checkpoint file:  "ANI1ccx_1899_conf12_mol2.chk"
 Charge =  0 Multiplicity = 1

                         Standard orientation:
 ---------------------------------------------------------------------
 Center     Atomic      Atomic             Coordinates (Angstroms)
 Number     Number       Type             X           Y           Z
 ---------------------------------------------------------------------
      1          1           0       -1.937131    1.440790   -0.194501
      2          1           0       -0.630685    0.537465   -0.036573
      3          1           0       -1.736091   -1.176270    0.645489
      4          1           0       -2.982281   -0.825994   -0.338641
      5          1           0        2.727059    0.540999    1.073960
      6          1           0        3.045059   -1.035720   -0.205917
      7          7           0       -1.551861    0.514048   -0.440329
      8          7           0       -2.360691   -0.416996    0.362202
      9          7           0        1.962329    0.458729    0.370006
     10          7           0        2.166519   -0.481675   -0.426710
 ---------------------------------------------------------------------

 SCF Done:  E(RHF) =  -221.268133197     A.U. after    2 cycles

 The electronic state is 1-A.
 Alpha  occ. eigenvalues --  -15.72008 -15.71812 -15.62583 -15.61940  -1.32040
 Alpha  occ. eigenvalues --   -1.19291  -0.97063  -0.91202  -0.75855  -0.67654
 Alpha  occ. eigenvalues --   -0.58539  -0.57489  -0.56669  -0.52302  -0.47957
 Alpha  occ. eigenvalues --   -0.41577  -0.34514
 Alpha virt. eigenvalues --    0.02435   0.03985   0.05102   0.05899   0.07159
 Alpha virt. eigenvalues --    0.09033   0.09647   0.14260   0.14839   0.16154
 Alpha virt. eigenvalues --    0.16328   0.18511   0.19250   0.19858   0.20416

 Mulliken charges:
               1
     1  H    0.138970
     2  H   -0.002203
     3  H    0.052633
     4  H    0.103352
     5  H    0.048387
     6  H    0.073207
     7  N   -0.121648
     8  N   -0.161982
     9  N   -0.029441
    10  N   -0.101275
 Sum of Mulliken charges =  -0.00000

 Dipole moment (field-independent basis, Debye):
    X=              3.7299    Y=             -1.0652    Z=              1.7380  Tot=              4.2505

 Test job not archived.
 1\1\GINC-SE090\SP\RHF\Aug-CC-pVDZ\H6N4\OHZDE\08-Apr-2025\0\\#t hf aug-
 cc-pvdz iop(5/13=1,5/36=2,99/5=2) pseudo=read geom=check guess=(read,t
 check) scf=(maxcycle=1)\\title\\0,1\H,0,-1.93713,1.44079,-0.194501\H,0
 ,-0.630684,0.537465,-0.0365732\H,0,-1.73609,-1.17627,0.645489\H,0,-2.9
 8228,-0.825994,-0.338641\H,0,2.72706,0.540999,1.07396\H,0,3.04506,-1.0
 3572,-0.205917\N,0,-1.55186,0.514048,-0.440329\N,0,-2.36069,-0.416996,
 0.362202\N,0,1.96233,0.458729,0.370006\N,0,2.16652,-0.481675,-0.42671\
 \Version=ES64L-G16RevC.01\State=1-A\HF=-221.2681332\RMSD=1.597e-03\Dip

 Normal termination of Gaussian 16 at Tue Apr  8 21:12:23 2025.
