 Gaussian 16, Revision C.01,

 ----------------------------------------------------------------------
 #t hf aug-cc-pvdz symm=none int=(grid=ultrafine) guess=(read,tcheck) s
 table=(opt,rrhf)
 ----------------------------------------------------------------------
 -----
 title
 -----
 Symbolic Z-matrix:
 Charge =  0 Multiplicity = 1

 SCF Done:  E(RHF) =  -962.275517611     A.U. after   14 cycles
 Normal termination of Gaussian 16 at Tue Apr  8 20:50:53 2025.
 Gaussian 16:  ES64L-G16RevC.01  3-Jul-2019

 ----------------------------------------------------------------------
 #t hf aug-cc-pvdz iop(5/13=1,5/36=2,99/5=2) pseudo=read geom=check gue
 ss=(read,tcheck) scf=(maxcycle=1)
 ----------------------------------------------------------------------
 -----
 title
 -----
 Structure from the checkpoint file:  "ANI1ccx_1756_conf2_mol1.chk"
 Charge =  0 Multiplicity = 1

                         Standard orientation:
 ---------------------------------------------------------------------
 Center     Atomic      Atomic             Coordinates (Angstroms)
 Number     Number       Type             X           Y           Z
 ---------------------------------------------------------------------
      1          6           0       -1.328291   -1.818260   -0.508712
      2          6           0       -0.210798   -0.852145   -0.665452
      3          6           0       -2.158550   -1.610269    0.767978
      4          6           0       -2.386310   -0.217929    1.203160
      5          6           0       -3.350010    0.552921    0.220454
      6          6           0        1.974700   -0.109880   -0.158782
      7          6           0        3.261550   -0.797407    0.214686
      8          6           0        1.678511    1.097879    0.782997
      9          6           0        0.924171    2.268520    0.164579
     10          1           0        5.107800   -0.568288   -0.014706
     11          1           0        0.899557    3.606060   -1.043510
     12          1           0        2.646721    1.569549    1.052250
     13          1           0        1.138040    0.779550    1.683460
     14          1           0        1.996110    0.260677   -1.194400
     15          1           0        1.224849   -2.019661    0.315360
     16          1           0       -2.157009    2.279711    0.289644
     17          1           0       -3.591839    2.343731   -0.699244
     18          1           0       -2.844830   -0.135018    2.237000
     19          1           0       -1.460840    0.346063    1.161130
     20          1           0       -1.701671   -2.203379    1.534560
     21          1           0       -3.172511   -2.066269    0.556443
     22          1           0       -1.936800   -1.593879   -1.394290
     23          1           0       -0.456487   -3.387820   -1.456610
     24          1           0       -1.567581   -3.838759   -0.357458
     25          7           0       -0.879960   -3.165400   -0.562434
     26          7           0       -2.951109    1.818601   -0.084561
     27          7           0        0.974385   -1.111750   -0.091117
     28          8           0       -0.328268    0.238971   -1.212580
     29          8           0       -4.321990   -0.048155   -0.275685
     30          8           0        3.373469   -1.899881    0.738027
     31          8           0       -0.113833    2.761510    0.615090
     32          8           0        1.491541    2.836249   -0.919053
     33          8           0        4.329510   -0.044070   -0.149332
 ---------------------------------------------------------------------

 SCF Done:  E(RHF) =  -962.567544246     A.U. after    2 cycles

 The electronic state is 1-A.
 Alpha  occ. eigenvalues --  -20.65377 -20.63980 -20.60200 -20.57482 -20.54364
 Alpha  occ. eigenvalues --  -20.52032 -15.65990 -15.63168 -15.62013 -11.43703
 Alpha  occ. eigenvalues --  -11.42508 -11.36571 -11.35667 -11.32846 -11.29337
 Alpha  occ. eigenvalues --  -11.28092 -11.24743 -11.24326  -1.45449  -1.43864
 Alpha  occ. eigenvalues --   -1.37026  -1.35536  -1.32431  -1.31213  -1.22944
 Alpha  occ. eigenvalues --   -1.19373  -1.15842  -1.08158  -1.05902  -0.99187
 Alpha  occ. eigenvalues --   -0.94958  -0.88408  -0.85203  -0.83459  -0.81138
 Alpha  occ. eigenvalues --   -0.77751  -0.75362  -0.74047  -0.73111  -0.71684
 Alpha  occ. eigenvalues --   -0.70148  -0.69724  -0.68996  -0.67824  -0.67502
 Alpha  occ. eigenvalues --   -0.65966  -0.65786  -0.64383  -0.63504  -0.62310
 Alpha  occ. eigenvalues --   -0.60687  -0.59762  -0.59496  -0.58071  -0.57149
 Alpha  occ. eigenvalues --   -0.55721  -0.53622  -0.52863  -0.52649  -0.51623
 Alpha  occ. eigenvalues --   -0.51017  -0.49746  -0.49344  -0.48019  -0.45129
 Alpha  occ. eigenvalues --   -0.41508  -0.41334  -0.39944  -0.39642
 Alpha virt. eigenvalues --    0.02509   0.03300   0.03479   0.03803   0.05172
 Alpha virt. eigenvalues --    0.05321   0.05805   0.06110   0.06896   0.07354
 Alpha virt. eigenvalues --    0.07917   0.08527   0.09082   0.09639   0.10107

 Mulliken charges:
               1
     1  C    0.731990
     2  C    0.308986
     3  C    0.545555
     4  C    0.167097
     5  C    0.686588
     6  C   -0.094204
     7  C    0.936362
     8  C    0.490169
     9  C    0.917766
    10  H    0.201841
    11  H    0.218161
    12  H    0.067776
    13  H   -0.023054
    14  H   -0.166922
    15  H    0.010875
    16  H    0.011107
    17  H    0.005322
    18  H    0.063608
    19  H   -0.405115
    20  H   -0.141221
    21  H    0.094252
    22  H   -0.132842
    23  H   -0.012839
    24  H   -0.076337
    25  N   -0.165426
    26  N   -0.128651
    27  N   -0.508918
    28  O   -0.622793
    29  O   -0.647840
    30  O   -0.545890
    31  O   -0.681364
    32  O   -0.579794
    33  O   -0.524247
 Sum of Mulliken charges =  -0.00000

 Dipole moment (field-independent basis, Debye):
    X=              5.5313    Y=             -0.1841    Z=              0.6602  Tot=              5.5736

 Test job not archived.
 1\1\GINC-SE252\SP\RHF\Aug-CC-pVDZ\C9H15N3O6\OHZDE\08-Apr-2025\0\\#t hf
  aug-cc-pvdz iop(5/13=1,5/36=2,99/5=2) pseudo=read geom=check guess=(r
 ead,tcheck) scf=(maxcycle=1)\\title\\0,1\C,0,-1.32829,-1.81826,-0.5087
 12\C,0,-0.210798,-0.852145,-0.665452\C,0,-2.15855,-1.61027,0.767978\C,
 0,-2.38631,-0.21793,1.20316\C,0,-3.35001,0.55292,0.220454\C,0,1.9747,-
 0.109879,-0.158782\C,0,3.26155,-0.797406,0.214686\C,0,1.67851,1.09788,
 0.782997\C,0,0.92417,2.26852,0.164579\H,0,5.1078,-0.568286,-0.0147054\
 H,0,0.899555,3.60606,-1.04351\H,0,2.64672,1.56955,1.05225\H,0,1.13804,

 Normal termination of Gaussian 16 at Tue Apr  8 20:51:44 2025.
