 Gaussian 16, Revision C.01,

 ----------------------------------------------------------------------
 #t hf aug-cc-pvdz symm=none int=(grid=ultrafine) guess=(read,tcheck) s
 table=(opt,rrhf)
 ----------------------------------------------------------------------
 -----
 title
 -----
 Symbolic Z-matrix:
 Charge =  0 Multiplicity = 1

 SCF Done:  E(RHF) =  -528.741303536     A.U. after   15 cycles
 Normal termination of Gaussian 16 at Tue Apr  8 22:15:56 2025.
 Gaussian 16:  ES64L-G16RevC.01  3-Jul-2019

 ----------------------------------------------------------------------
 #t hf aug-cc-pvdz iop(5/13=1,5/36=2,99/5=2) pseudo=read geom=check gue
 ss=(read,tcheck) scf=(maxcycle=1)
 ----------------------------------------------------------------------
 -----
 title
 -----
 Structure from the checkpoint file:  "ANI1ccx_998_conf10_mol2.chk"
 Charge =  0 Multiplicity = 1

                         Standard orientation:
 ---------------------------------------------------------------------
 Center     Atomic      Atomic             Coordinates (Angstroms)
 Number     Number       Type             X           Y           Z
 ---------------------------------------------------------------------
      1          6           0        1.508589   -0.375784   -0.447037
      2          6           0        0.903455    0.997799   -0.127177
      3          6           0        0.346218   -1.468709   -0.382763
      4          6           0       -0.930785   -0.838415   -0.997025
      5          6           0       -1.738771   -0.329496    0.168610
      6          1           0        1.500629    0.614456    1.552350
      7          1           0       -3.198411    1.020499    0.661725
      8          1           0       -2.052732    1.511860   -0.569022
      9          1           0       -1.422830   -1.682760   -1.470070
     10          1           0       -0.738663   -0.063029   -1.803060
     11          1           0        0.245618   -1.808429    0.645265
     12          1           0        0.608916   -2.335059   -0.912307
     13          1           0        1.815749   -0.310815   -1.490590
     14          1           0        2.728940   -1.698907    0.436282
     15          1           0        3.529319   -0.282206    0.188562
     16          7           0        2.648020   -0.692788    0.463535
     17          7           0       -2.560081    0.771744   -0.074055
     18          8           0        0.389575    1.671831   -0.987651
     19          8           0       -1.886660   -0.974976    1.173820
     20          8           0        0.976542    1.374311    1.157190
 ---------------------------------------------------------------------

 SCF Done:  E(RHF) =  -528.903795964     A.U. after    2 cycles

 The electronic state is 1-A.
 Alpha  occ. eigenvalues --  -20.63046 -20.56730 -20.54006 -15.65301 -15.63283
 Alpha  occ. eigenvalues --  -11.40369 -11.36106 -11.30982 -11.26100 -11.25786
 Alpha  occ. eigenvalues --   -1.42643  -1.35902  -1.33731  -1.18940  -1.15756
 Alpha  occ. eigenvalues --   -1.07014  -0.96482  -0.88761  -0.82210  -0.76888
 Alpha  occ. eigenvalues --   -0.73586  -0.71886  -0.69712  -0.69190  -0.68077
 Alpha  occ. eigenvalues --   -0.66936  -0.63224  -0.61954  -0.60702  -0.58736
 Alpha  occ. eigenvalues --   -0.55990  -0.54949  -0.53008  -0.49950  -0.48922
 Alpha  occ. eigenvalues --   -0.46353  -0.44558  -0.43559  -0.41245
 Alpha virt. eigenvalues --    0.02261   0.03578   0.04165   0.04595   0.05744
 Alpha virt. eigenvalues --    0.06604   0.06862   0.07453   0.08421   0.09446
 Alpha virt. eigenvalues --    0.10480   0.11793   0.12106   0.12536   0.13033

 Mulliken charges:
               1
     1  C    0.352006
     2  C    0.666886
     3  C    0.741488
     4  C    0.251997
     5  C    0.544685
     6  H    0.301054
     7  H   -0.028040
     8  H    0.109161
     9  H   -0.074102
    10  H   -0.020376
    11  H   -0.204878
    12  H   -0.273088
    13  H   -0.117079
    14  H    0.084039
    15  H    0.016946
    16  N   -0.415457
    17  N   -0.249413
    18  O   -0.581964
    19  O   -0.534336
    20  O   -0.569532
 Sum of Mulliken charges =  -0.00000

 Dipole moment (field-independent basis, Debye):
    X=              3.5884    Y=             -2.1919    Z=             -1.9942  Tot=              4.6538

 Test job not archived.
 1\1\GINC-SE364\SP\RHF\Aug-CC-pVDZ\C5H10N2O3\OHZDE\08-Apr-2025\0\\#t hf
  aug-cc-pvdz iop(5/13=1,5/36=2,99/5=2) pseudo=read geom=check guess=(r
 ead,tcheck) scf=(maxcycle=1)\\title\\0,1\C,0,1.50859,-0.375786,-0.4470
 37\C,0,0.903456,0.997798,-0.127177\C,0,0.346218,-1.46871,-0.382763\C,0
 ,-0.930785,-0.838415,-0.997025\C,0,-1.73877,-0.329496,0.16861\H,0,1.50
 063,0.614454,1.55235\H,0,-3.19841,1.0205,0.661725\H,0,-2.05273,1.51186
 ,-0.569022\H,0,-1.42283,-1.68276,-1.47007\H,0,-0.738662,-0.063029,-1.8
 0306\H,0,0.245618,-1.80843,0.645265\H,0,0.608915,-2.33506,-0.912307\H,

 Normal termination of Gaussian 16 at Tue Apr  8 22:16:07 2025.
