 Gaussian 16, Revision C.01,

 ----------------------------------------------------------------------
 #t hf aug-cc-pvdz symm=none int=(grid=ultrafine) guess=(read,tcheck) s
 table=(opt,rrhf)
 ----------------------------------------------------------------------
 -----
 title
 -----
 Symbolic Z-matrix:
 Charge =  0 Multiplicity = 1

 SCF Done:  E(RHF) =  -761.795511718     A.U. after   14 cycles
 Normal termination of Gaussian 16 at Tue Apr  8 21:32:25 2025.
 Gaussian 16:  ES64L-G16RevC.01  3-Jul-2019

 ----------------------------------------------------------------------
 #t hf aug-cc-pvdz iop(5/13=1,5/36=2,99/5=2) pseudo=read geom=check gue
 ss=(read,tcheck) scf=(maxcycle=1)
 ----------------------------------------------------------------------
 -----
 title
 -----
 Structure from the checkpoint file:  "ANI1ccx_190_conf5_mol1.chk"
 Charge =  0 Multiplicity = 1

                         Standard orientation:
 ---------------------------------------------------------------------
 Center     Atomic      Atomic             Coordinates (Angstroms)
 Number     Number       Type             X           Y           Z
 ---------------------------------------------------------------------
      1          6           0       -2.297160    0.147944    0.910671
      2          6           0        2.283791   -1.168469   -1.407780
      3          6           0        1.722321   -2.308519    0.746974
      4          6           0        2.304481   -1.035669    0.129319
      5          6           0        2.170530    1.481761    0.068834
      6          6           0        0.906993   -1.349959   -2.070220
      7          6           0       -3.435140    0.977683   -0.987095
      8          6           0       -3.190999   -0.535432   -1.252660
      9          6           0       -2.787879   -1.118151    0.126078
     10          6           0       -0.849291   -0.054980    1.426930
     11          6           0        1.517050    0.247609    0.621500
     12          1           0        1.704051   -2.352119    1.837240
     13          1           0        1.892429    3.073621   -0.774760
     14          1           0        0.276661   -2.153510   -1.674460
     15          1           0        1.071111   -1.544259   -3.138200
     16          1           0        0.431829   -0.370266   -2.044050
     17          1           0        2.764621   -0.271520   -1.821020
     18          1           0        2.899531   -2.044449   -1.654550
     19          1           0        2.286002   -3.175999    0.410038
     20          1           0        0.677113   -2.468200    0.445670
     21          1           0        3.367421   -0.848071    0.465975
     22          1           0       -4.414480    1.168578   -0.540450
     23          1           0       -0.296153    0.979693   -0.141363
     24          1           0       -3.383390    1.618619   -1.894720
     25          1           0       -2.367439   -0.642604   -1.966840
     26          1           0       -4.070099   -1.037991   -1.650350
     27          1           0       -3.704519   -1.507351    0.573516
     28          1           0       -2.078949   -1.946571    0.127764
     29          1           0       -2.957330    0.361888    1.736560
     30          1           0       -2.487740    2.151979    0.409352
     31          1           0        1.681730    0.240109    1.706000
     32          7           0       -2.353520    1.271879   -0.057349
     33          7           0        0.084252    0.237811    0.451713
     34          8           0        3.333920    1.793071    0.117193
     35          8           0       -0.570983   -0.542221    2.506510
     36          8           0        1.302600    2.311361   -0.504598
 ---------------------------------------------------------------------

 SCF Done:  E(RHF) =  -762.025761924     A.U. after    2 cycles

 The electronic state is 1-A.
 Alpha  occ. eigenvalues --  -20.63884 -20.56762 -20.53911 -15.63546 -15.62637
 Alpha  occ. eigenvalues --  -11.40526 -11.36130 -11.29349 -11.28754 -11.27570
 Alpha  occ. eigenvalues --  -11.25103 -11.25063 -11.24486 -11.23119 -11.22299
 Alpha  occ. eigenvalues --  -11.21749  -1.44721  -1.34714  -1.33057  -1.22070
 Alpha  occ. eigenvalues --   -1.19550  -1.08100  -1.03216  -1.01625  -0.98407
 Alpha  occ. eigenvalues --   -0.96139  -0.87405  -0.85243  -0.83464  -0.81125
 Alpha  occ. eigenvalues --   -0.77749  -0.75373  -0.74069  -0.71794  -0.71268
 Alpha  occ. eigenvalues --   -0.68649  -0.67641  -0.65184  -0.63463  -0.62690
 Alpha  occ. eigenvalues --   -0.62129  -0.60578  -0.59191  -0.58156  -0.56567
 Alpha  occ. eigenvalues --   -0.56161  -0.54959  -0.54384  -0.53796  -0.52267
 Alpha  occ. eigenvalues --   -0.51220  -0.50442  -0.50177  -0.49811  -0.48679
 Alpha  occ. eigenvalues --   -0.47930  -0.47540  -0.46798  -0.45305  -0.43499
 Alpha  occ. eigenvalues --   -0.38600  -0.38248
 Alpha virt. eigenvalues --    0.02402   0.03207   0.03375   0.04042   0.05027
 Alpha virt. eigenvalues --    0.05306   0.05672   0.06089   0.06340   0.06991
 Alpha virt. eigenvalues --    0.07343   0.07756   0.07915   0.08015   0.08968

 Mulliken charges:
               1
     1  C    0.724576
     2  C    0.293185
     3  C    1.039221
     4  C   -0.656031
     5  C    0.967667
     6  C    0.743652
     7  C    0.923598
     8  C    0.297759
     9  C    0.262661
    10  C    0.535255
    11  C    0.381475
    12  H   -0.134281
    13  H    0.292419
    14  H   -0.162701
    15  H   -0.150366
    16  H   -0.126731
    17  H   -0.060027
    18  H   -0.161384
    19  H   -0.119176
    20  H   -0.247624
    21  H   -0.118138
    22  H   -0.262402
    23  H    0.162078
    24  H   -0.145217
    25  H   -0.220324
    26  H   -0.122310
    27  H   -0.139056
    28  H   -0.295346
    29  H   -0.238722
    30  H   -0.039405
    31  H   -0.080209
    32  N   -0.777281
    33  N   -0.487510
    34  O   -0.563665
    35  O   -0.651317
    36  O   -0.664321
 Sum of Mulliken charges =  -0.00000

 Dipole moment (field-independent basis, Debye):
    X=             -3.7032    Y=              1.3426    Z=             -3.2741  Tot=              5.1221

 Test job not archived.
 1\1\GINC-SE186\SP\RHF\Aug-CC-pVDZ\C11H20N2O3\OHZDE\08-Apr-2025\0\\#t h
 f aug-cc-pvdz iop(5/13=1,5/36=2,99/5=2) pseudo=read geom=check guess=(
 read,tcheck) scf=(maxcycle=1)\\title\\0,1\C,0,-2.29716,0.147945,0.9106
 71\C,0,2.28379,-1.16847,-1.40778\C,0,1.72232,-2.30852,0.746974\C,0,2.3
 0448,-1.03567,0.129319\C,0,2.17053,1.48176,0.0688343\C,0,0.906992,-1.3
 4996,-2.07022\C,0,-3.43514,0.977684,-0.987095\C,0,-3.191,-0.535431,-1.
 25266\C,0,-2.78788,-1.11815,0.126078\C,0,-0.849291,-0.0549803,1.42693\
 C,0,1.51705,0.247608,0.6215\H,0,1.70405,-2.35212,1.83724\H,0,1.89243,3

 Normal termination of Gaussian 16 at Tue Apr  8 21:33:25 2025.
