 Gaussian 16, Revision C.01,

 ----------------------------------------------------------------------
 #t hf aug-cc-pvdz symm=none int=(grid=ultrafine) guess=(read,tcheck) s
 table=(opt,rrhf)
 ----------------------------------------------------------------------
 -----
 title
 -----
 Symbolic Z-matrix:
 Charge =  0 Multiplicity = 1

 SCF Done:  E(RHF) =  -722.653395206     A.U. after   14 cycles
 Normal termination of Gaussian 16 at Tue Apr  8 22:04:15 2025.
 Gaussian 16:  ES64L-G16RevC.01  3-Jul-2019

 ----------------------------------------------------------------------
 #t hf aug-cc-pvdz iop(5/13=1,5/36=2,99/5=2) pseudo=read geom=check gue
 ss=(read,tcheck) scf=(maxcycle=1)
 ----------------------------------------------------------------------
 -----
 title
 -----
 Structure from the checkpoint file:  "ANI1ccx_67_conf9_mol1.chk"
 Charge =  0 Multiplicity = 1

                         Standard orientation:
 ---------------------------------------------------------------------
 Center     Atomic      Atomic             Coordinates (Angstroms)
 Number     Number       Type             X           Y           Z
 ---------------------------------------------------------------------
      1          6           0        1.885761   -1.062940   -0.159576
      2          6           0       -2.130289   -1.040971    1.440731
      3          6           0       -2.692389   -0.834725    0.082383
      4          6           0       -1.822280    1.590949   -0.119632
      5          6           0       -1.716240    0.155085   -0.744641
      6          6           0       -2.994769   -2.149231   -0.643894
      7          6           0        3.694140    0.276597    0.581904
      8          6           0        2.989351   -0.943618    0.876416
      9          6           0        0.595424   -0.286354    0.189531
     10          6           0        3.343920    0.755735   -0.773554
     11          1           0       -3.647330   -0.180387    0.006026
     12          1           0       -0.096388    1.512100    0.688370
     13          1           0       -3.720029   -2.754621   -0.053424
     14          1           0       -3.503799   -1.799691   -1.536529
     15          1           0       -2.151239   -2.794231   -0.822760
     16          1           0       -1.211019   -1.635861    1.272421
     17          1           0       -1.919490   -0.101221    1.861301
     18          1           0       -2.694809   -1.736931    2.040841
     19          1           0       -2.143800    0.155305   -1.797179
     20          1           0        4.284050    1.164321   -1.445219
     21          1           0        2.792650    1.704411   -0.827559
     22          1           0        3.216130    1.063491    1.187771
     23          1           0        4.828230    0.080003    0.563014
     24          1           0        2.562381   -0.911479    1.999431
     25          1           0        3.590491   -1.903189    0.758485
     26          1           0        1.635361   -2.120290   -0.511016
     27          1           0        1.914530   -0.076222   -2.037719
     28          1           0       -0.092488   -0.902312   -1.685929
     29          7           0        2.611870   -0.315724   -1.329179
     30          7           0       -0.308749   -0.311356   -0.865441
     31          8           0       -2.965490    2.062749   -0.261252
     32          8           0        0.502187    0.327232    1.214891
     33          8           0       -0.871828    2.217920    0.461867
 ---------------------------------------------------------------------

 SCF Done:  E(RHF) =  -722.870825025     A.U. after    2 cycles

 The electronic state is 1-A.
 Alpha  occ. eigenvalues --  -20.60173 -20.60152 -20.52722 -15.69361 -15.63860
 Alpha  occ. eigenvalues --  -11.41524 -11.38707 -11.32106 -11.31480 -11.27900
 Alpha  occ. eigenvalues --  -11.26109 -11.26073 -11.24148 -11.24073 -11.22524
 Alpha  occ. eigenvalues --   -1.44068  -1.40118  -1.28773  -1.24030  -1.21913
 Alpha  occ. eigenvalues --   -1.08953  -1.05301  -1.02244  -0.96395  -0.95033
 Alpha  occ. eigenvalues --   -0.87769  -0.83012  -0.82052  -0.79505  -0.78321
 Alpha  occ. eigenvalues --   -0.75323  -0.73512  -0.70894  -0.68636  -0.67711
 Alpha  occ. eigenvalues --   -0.65764  -0.64756  -0.64139  -0.62815  -0.62408
 Alpha  occ. eigenvalues --   -0.60798  -0.58414  -0.57431  -0.55995  -0.54916
 Alpha  occ. eigenvalues --   -0.53883  -0.53447  -0.51953  -0.51590  -0.50479
 Alpha  occ. eigenvalues --   -0.49110  -0.48353  -0.47854  -0.45862  -0.45729
 Alpha  occ. eigenvalues --   -0.44880  -0.40955  -0.37214
 Alpha virt. eigenvalues --    0.01850   0.02886   0.03209   0.03963   0.04795
 Alpha virt. eigenvalues --    0.05114   0.05699   0.06238   0.06701   0.06922
 Alpha virt. eigenvalues --    0.07066   0.07983   0.08125   0.08452   0.09161

 Mulliken charges:
               1
     1  C    0.404312
     2  C    1.070252
     3  C   -1.219720
     4  C    0.796422
     5  C    0.029968
     6  C    0.732396
     7  C   -0.285152
     8  C    0.162951
     9  C    0.289202
    10  C    0.898667
    11  H    0.003349
    12  H    0.480928
    13  H    0.047626
    14  H    0.005501
    15  H   -0.148737
    16  H    0.122915
    17  H   -0.099353
    18  H   -0.212553
    19  H   -0.172725
    20  H    0.052926
    21  H   -0.395376
    22  H    0.105093
    23  H    0.095433
    24  H    0.157865
    25  H    0.074367
    26  H   -0.255424
    27  H   -0.034857
    28  H   -0.036364
    29  N   -0.598661
    30  N   -0.277039
    31  O   -0.605976
    32  O   -0.681567
    33  O   -0.506668
 Sum of Mulliken charges =  -0.00000

 Dipole moment (field-independent basis, Debye):
    X=              3.4440    Y=             -5.8630    Z=             -2.2096  Tot=              7.1497

 Test job not archived.
 1\1\GINC-SE329\SP\RHF\Aug-CC-pVDZ\C10H18N2O3\OHZDE\08-Apr-2025\0\\#t h
 f aug-cc-pvdz iop(5/13=1,5/36=2,99/5=2) pseudo=read geom=check guess=(
 read,tcheck) scf=(maxcycle=1)\\title\\0,1\C,0,1.88576,-1.06294,-0.1595
 77\C,0,-2.13029,-1.04097,1.44073\C,0,-2.69239,-0.834724,0.082382\C,0,-
 1.82228,1.59095,-0.119633\C,0,-1.71624,0.155086,-0.744642\C,0,-2.99477
 ,-2.14923,-0.643895\C,0,3.69414,0.276596,0.581903\C,0,2.98935,-0.94361
 9,0.876415\C,0,0.595424,-0.286354,0.18953\C,0,3.34392,0.755734,-0.7735
 55\H,0,-3.64733,-0.180386,0.00602527\H,0,-0.0963875,1.5121,0.688369\H,

 Normal termination of Gaussian 16 at Tue Apr  8 22:05:00 2025.
