 Gaussian 16, Revision C.01,

 ----------------------------------------------------------------------
 #t hf aug-cc-pvdz symm=none int=(grid=ultrafine) guess=(read,tcheck) s
 table=(opt,rrhf)
 ----------------------------------------------------------------------
 -----
 title
 -----
 Symbolic Z-matrix:
 Charge =  0 Multiplicity = 1

 SCF Done:  E(RHF) =  -696.560693041     A.U. after   14 cycles
 Normal termination of Gaussian 16 at Tue Apr  8 19:19:59 2025.
 Gaussian 16:  ES64L-G16RevC.01  3-Jul-2019

 ----------------------------------------------------------------------
 #t hf aug-cc-pvdz iop(5/13=1,5/36=2,99/5=2) pseudo=read geom=check gue
 ss=(read,tcheck) scf=(maxcycle=1)
 ----------------------------------------------------------------------
 -----
 title
 -----
 Structure from the checkpoint file:  "ANI1ccx_1205_conf26_mol2.chk"
 Charge =  0 Multiplicity = 1

                         Standard orientation:
 ---------------------------------------------------------------------
 Center     Atomic      Atomic             Coordinates (Angstroms)
 Number     Number       Type             X           Y           Z
 ---------------------------------------------------------------------
      1          6           0        0.820666    0.978221   -0.722698
      2          6           0        0.309424    1.158191    0.711660
      3          6           0        2.119400    0.139829   -0.672487
      4          6           0        1.862331   -1.242079   -0.086031
      5          6           0       -2.125890    0.804412    0.031531
      6          6           0       -2.659310   -0.606607   -0.213206
      7          1           0       -0.984028   -1.286830    0.517124
      8          1           0       -2.994570    1.373979    0.399756
      9          1           0       -1.888320    1.225370   -0.958717
     10          1           0       -1.209980    1.098490    1.955300
     11          1           0        3.890771   -1.774838   -0.167564
     12          1           0        2.794811   -2.969319    0.382829
     13          1           0        2.572800    0.010032   -1.674630
     14          1           0        2.921890    0.643901   -0.055892
     15          1           0        0.149833    0.462500   -1.438030
     16          1           0        0.255731    2.818221   -1.235170
     17          1           0        1.740799    2.772111   -0.674733
     18          7           0        1.116919    2.281701   -1.303860
     19          7           0        2.924041   -2.076879   -0.063681
     20          7           0       -1.010900    0.947565    0.971583
     21          8           0        1.021980    1.535181    1.630960
     22          8           0        0.764044   -1.589839    0.342409
     23          8           0       -3.721250   -0.823567   -0.780706
     24          8           0       -1.867259   -1.600790    0.235939
 ---------------------------------------------------------------------

 SCF Done:  E(RHF) =  -696.771810533     A.U. after    2 cycles

 The electronic state is 1-A.
 Alpha  occ. eigenvalues --  -20.60072 -20.57097 -20.55503 -20.55286 -15.67705
 Alpha  occ. eigenvalues --  -15.67276 -15.64180 -11.40207 -11.39756 -11.38534
 Alpha  occ. eigenvalues --  -11.32056 -11.31464 -11.28505  -1.39858  -1.38136
 Alpha  occ. eigenvalues --   -1.36916  -1.30866  -1.21843  -1.20869  -1.19734
 Alpha  occ. eigenvalues --   -1.04724  -1.00815  -0.92790  -0.84813  -0.82157
 Alpha  occ. eigenvalues --   -0.79640  -0.75046  -0.74518  -0.73107  -0.71266
 Alpha  occ. eigenvalues --   -0.70740  -0.66939  -0.66063  -0.64731  -0.64333
 Alpha  occ. eigenvalues --   -0.63390  -0.61807  -0.59940  -0.57408  -0.57077
 Alpha  occ. eigenvalues --   -0.55946  -0.54651  -0.52845  -0.48945  -0.48006
 Alpha  occ. eigenvalues --   -0.47668  -0.47147  -0.45004  -0.42233  -0.41312
 Alpha virt. eigenvalues --    0.01883   0.02939   0.03677   0.04010   0.04884
 Alpha virt. eigenvalues --    0.05466   0.06397   0.07172   0.08455   0.08896
 Alpha virt. eigenvalues --    0.09530   0.09724   0.11401   0.11793   0.11956

 Mulliken charges:
               1
     1  C   -0.154900
     2  C    0.980815
     3  C    0.481363
     4  C    0.570366
     5  C    0.607435
     6  C    0.612097
     7  H    0.323423
     8  H   -0.105570
     9  H    0.007826
    10  H   -0.024152
    11  H   -0.017289
    12  H    0.003723
    13  H    0.056047
    14  H    0.029114
    15  H   -0.332030
    16  H    0.017066
    17  H    0.059359
    18  N   -0.204548
    19  N   -0.154403
    20  N   -0.563069
    21  O   -0.617326
    22  O   -0.585593
    23  O   -0.539164
    24  O   -0.450590
 Sum of Mulliken charges =  -0.00000

 Dipole moment (field-independent basis, Debye):
    X=              6.1239    Y=              2.1092    Z=             -0.3427  Tot=              6.4860

 Test job not archived.
 1\1\GINC-SE220\SP\RHF\Aug-CC-pVDZ\C6H11N3O4\OHZDE\08-Apr-2025\0\\#t hf
  aug-cc-pvdz iop(5/13=1,5/36=2,99/5=2) pseudo=read geom=check guess=(r
 ead,tcheck) scf=(maxcycle=1)\\title\\0,1\C,0,0.820666,0.97822,-0.72269
 8\C,0,0.309424,1.15819,0.71166\C,0,2.1194,0.139828,-0.672487\C,0,1.862
 33,-1.24208,-0.0860314\C,0,-2.12589,0.804412,0.0315314\C,0,-2.65931,-0
 .606607,-0.213206\H,0,-0.984029,-1.28683,0.517124\H,0,-2.99457,1.37398
 ,0.399756\H,0,-1.88832,1.22537,-0.958717\H,0,-1.20998,1.09849,1.9553\H
 ,0,3.89077,-1.77484,-0.167564\H,0,2.79481,-2.96932,0.382829\H,0,2.5728

 Normal termination of Gaussian 16 at Tue Apr  8 19:20:20 2025.
