 Gaussian 16, Revision C.01,

 ----------------------------------------------------------------------
 #t hf aug-cc-pvdz symm=none int=(grid=ultrafine) guess=(read,tcheck) s
 table=(opt,rrhf)
 ----------------------------------------------------------------------
 -----
 title
 -----
 Symbolic Z-matrix:
 Charge =  0 Multiplicity = 1

 SCF Done:  E(RHF) =  -276.571657979     A.U. after   16 cycles
 Normal termination of Gaussian 16 at Tue Apr  8 21:17:23 2025.
 Gaussian 16:  ES64L-G16RevC.01  3-Jul-2019

 ----------------------------------------------------------------------
 #t hf aug-cc-pvdz iop(5/13=1,5/36=2,99/5=2) pseudo=read geom=check gue
 ss=(read,tcheck) scf=(maxcycle=1)
 ----------------------------------------------------------------------
 -----
 title
 -----
 Structure from the checkpoint file:  "ANI1ccx_370_conf88_mol1.chk"
 Charge =  0 Multiplicity = 1

                         Standard orientation:
 ---------------------------------------------------------------------
 Center     Atomic      Atomic             Coordinates (Angstroms)
 Number     Number       Type             X           Y           Z
 ---------------------------------------------------------------------
      1          6           0        1.049300    0.047079    0.010576
      2          1           0        2.128750    0.089168    0.068557
      3          7           0        0.499631   -1.122669   -0.018575
      4          7           0       -0.895091   -0.737149    0.008649
      5          7           0       -1.121590    0.475686    0.007800
      6          8           0        0.274350    1.164660   -0.014642
 ---------------------------------------------------------------------

 SCF Done:  E(RHF) =  -276.649435253     A.U. after    2 cycles

 The electronic state is 1-A.
 Alpha  occ. eigenvalues --  -20.69771 -15.80610 -15.77382 -15.71202 -11.40759
 Alpha  occ. eigenvalues --   -1.49238  -1.32538  -1.21870  -0.90810  -0.87639
 Alpha  occ. eigenvalues --   -0.76124  -0.70469  -0.65206  -0.60671  -0.54510
 Alpha  occ. eigenvalues --   -0.52897  -0.49563  -0.46483
 Alpha virt. eigenvalues --    0.02943   0.06481   0.07812   0.09173   0.09676
 Alpha virt. eigenvalues --    0.12217   0.12939   0.14756   0.15097   0.17603
 Alpha virt. eigenvalues --    0.18438   0.18687   0.20662   0.21253   0.22775

 Mulliken charges:
               1
     1  C    0.973148
     2  H   -0.149416
     3  N   -0.342139
     4  N   -0.030502
     5  N    0.095768
     6  O   -0.546859
 Sum of Mulliken charges =  -0.00000

 Dipole moment (field-independent basis, Debye):
    X=              2.2345    Y=              0.4156    Z=              0.0931  Tot=              2.2747

 Test job not archived.
 1\1\GINC-SE060\SP\RHF\Aug-CC-pVDZ\C1H1N3O1\OHZDE\08-Apr-2025\0\\#t hf
 aug-cc-pvdz iop(5/13=1,5/36=2,99/5=2) pseudo=read geom=check guess=(re
 ad,tcheck) scf=(maxcycle=1)\\title\\0,1\C,0,1.0493,0.0470776,0.0105764
 \H,0,2.12875,0.0891662,0.0685568\N,0,0.49963,-1.12267,-0.0185748\N,0,-
 0.895092,-0.737148,0.00864872\N,0,-1.12159,0.475687,0.00779993\O,0,0.2
 74351,1.16466,-0.0146415\\Version=ES64L-G16RevC.01\State=1-A\HF=-276.6
 494353\RMSD=3.011e-03\Dipole=0.8791079,0.1635056,0.0366159\Quadrupole=
 2.8486417,-3.6214519,0.7728102,0.7076376,0.1540316,0.0107123\PG=C01 [X

 Normal termination of Gaussian 16 at Tue Apr  8 21:17:25 2025.
