 Gaussian 16, Revision C.01,

 ----------------------------------------------------------------------
 #t hf aug-cc-pvdz symm=none int=(grid=ultrafine) guess=(read,tcheck) s
 table=(opt,rrhf)
 ----------------------------------------------------------------------
 -----
 title
 -----
 Symbolic Z-matrix:
 Charge =  0 Multiplicity = 1

 SCF Done:  E(RHF) =  -642.649705247     A.U. after   14 cycles
 Normal termination of Gaussian 16 at Tue Apr  8 19:17:18 2025.
 Gaussian 16:  ES64L-G16RevC.01  3-Jul-2019

 ----------------------------------------------------------------------
 #t hf aug-cc-pvdz iop(5/13=1,5/36=2,99/5=2) pseudo=read geom=check gue
 ss=(read,tcheck) scf=(maxcycle=1)
 ----------------------------------------------------------------------
 -----
 title
 -----
 Structure from the checkpoint file:  "ANI1ccx_1214_conf1_mol2.chk"
 Charge =  0 Multiplicity = 1

                         Standard orientation:
 ---------------------------------------------------------------------
 Center     Atomic      Atomic             Coordinates (Angstroms)
 Number     Number       Type             X           Y           Z
 ---------------------------------------------------------------------
      1          6           0       -1.477140   -0.414963   -0.521099
      2          6           0       -0.101112   -0.014516   -0.137478
      3          6           0       -2.502120    0.317938    0.412276
      4          6           0       -2.803139    1.731410   -0.031668
      5          6           0        2.170700   -0.852498    0.621525
      6          6           0        3.225790    0.131631    0.031633
      7          1           0        1.866791    1.538770   -0.146650
      8          1           0        2.618800   -1.831311    0.497465
      9          1           0        2.093340   -0.626076    1.729660
     10          1           0        0.483076   -1.885090    0.053807
     11          1           0       -3.566679    2.131540    0.668748
     12          1           0       -1.904169    2.353630   -0.052287
     13          1           0       -3.144289    1.654360   -1.038130
     14          1           0       -4.336840   -0.059189    0.911120
     15          1           0       -2.151260    0.233573    1.463050
     16          1           0       -1.628650   -0.074491   -1.538240
     17          1           0       -1.602160   -2.255740   -1.351270
     18          1           0       -2.590420   -1.964130   -0.075024
     19          7           0       -1.614330   -1.876760   -0.379032
     20          7           0        0.869943   -0.955513   -0.037750
     21          8           0        0.069138    1.176330    0.112469
     22          8           0       -3.734040   -0.416955    0.236653
     23          8           0        4.394220   -0.169447    0.060139
     24          8           0        2.770091    1.312079   -0.466250
 ---------------------------------------------------------------------

 SCF Done:  E(RHF) =  -642.847039676     A.U. after    2 cycles

 The electronic state is 1-A.
 Alpha  occ. eigenvalues --  -20.60335 -20.60056 -20.56300 -20.55885 -15.67482
 Alpha  occ. eigenvalues --  -15.63624 -11.40183 -11.38598 -11.32384 -11.31695
 Alpha  occ. eigenvalues --  -11.30018 -11.23579  -1.40107  -1.37897  -1.35048
 Alpha  occ. eigenvalues --   -1.31753  -1.23084  -1.17971  -1.04396  -1.00997
 Alpha  occ. eigenvalues --   -0.94465  -0.85935  -0.83115  -0.80318  -0.76007
 Alpha  occ. eigenvalues --   -0.73057  -0.71034  -0.69449  -0.68283  -0.66317
 Alpha  occ. eigenvalues --   -0.65135  -0.63323  -0.62254  -0.61339  -0.60237
 Alpha  occ. eigenvalues --   -0.58445  -0.57856  -0.56934  -0.55725  -0.53632
 Alpha  occ. eigenvalues --   -0.49720  -0.48770  -0.48524  -0.47654  -0.47221
 Alpha  occ. eigenvalues --   -0.42872  -0.42020
 Alpha virt. eigenvalues --    0.02376   0.02936   0.03402   0.04306   0.05229
 Alpha virt. eigenvalues --    0.05880   0.06093   0.06721   0.07135   0.08567
 Alpha virt. eigenvalues --    0.08912   0.09426   0.10569   0.11727   0.12410

 Mulliken charges:
               1
     1  C    0.382991
     2  C    0.472457
     3  C    0.307577
     4  C    0.434562
     5  C    0.482829
     6  C    0.577449
     7  H    0.230748
     8  H   -0.183090
     9  H    0.105033
    10  H    0.017241
    11  H   -0.026321
    12  H    0.000706
    13  H    0.035362
    14  H    0.196335
    15  H   -0.153846
    16  H    0.017805
    17  H    0.114675
    18  H    0.106556
    19  N   -0.466765
    20  N   -0.342486
    21  O   -0.673832
    22  O   -0.696847
    23  O   -0.453695
    24  O   -0.485445
 Sum of Mulliken charges =  -0.00000

 Dipole moment (field-independent basis, Debye):
    X=             -6.8709    Y=             -2.4374    Z=              1.3065  Tot=              7.4065

 Test job not archived.
 1\1\GINC-SE368\SP\RHF\Aug-CC-pVDZ\C6H12N2O4\OHZDE\08-Apr-2025\0\\#t hf
  aug-cc-pvdz iop(5/13=1,5/36=2,99/5=2) pseudo=read geom=check guess=(r
 ead,tcheck) scf=(maxcycle=1)\\title\\0,1\C,0,-1.47714,-0.414963,-0.521
 099\C,0,-0.101112,-0.0145155,-0.137478\C,0,-2.50212,0.317938,0.412276\
 C,0,-2.80314,1.73141,-0.0316684\C,0,2.1707,-0.852497,0.621525\C,0,3.22
 579,0.131632,0.0316331\H,0,1.86679,1.53877,-0.14665\H,0,2.6188,-1.8313
 1,0.497465\H,0,2.09334,-0.626075,1.72966\H,0,0.483076,-1.88509,0.05380
 67\H,0,-3.56668,2.13154,0.668748\H,0,-1.90417,2.35363,-0.0522869\H,0,-

 Normal termination of Gaussian 16 at Tue Apr  8 19:17:32 2025.
