 Gaussian 16, Revision C.01,

 ----------------------------------------------------------------------
 #t hf aug-cc-pvdz symm=none int=(grid=ultrafine) guess=(read,tcheck) s
 table=(opt,rrhf)
 ----------------------------------------------------------------------
 -----
 title
 -----
 Symbolic Z-matrix:
 Charge =  0 Multiplicity = 1

 SCF Done:  E(RHF) =  -304.171731938     A.U. after   12 cycles
 Normal termination of Gaussian 16 at Tue Apr  8 21:12:23 2025.
 Gaussian 16:  ES64L-G16RevC.01  3-Jul-2019

 ----------------------------------------------------------------------
 #t hf aug-cc-pvdz iop(5/13=1,5/36=2,99/5=2) pseudo=read geom=check gue
 ss=(read,tcheck) scf=(maxcycle=1)
 ----------------------------------------------------------------------
 -----
 title
 -----
 Structure from the checkpoint file:  "ANI1ccx_1904_conf29_mol1.chk"
 Charge =  0 Multiplicity = 1

                         Standard orientation:
 ---------------------------------------------------------------------
 Center     Atomic      Atomic             Coordinates (Angstroms)
 Number     Number       Type             X           Y           Z
 ---------------------------------------------------------------------
      1          1           0       -0.261045   -2.544810   -0.514555
      2          1           0        0.555037   -1.324281    0.026003
      3          1           0       -1.506240   -0.579816   -0.077274
      4          1           0       -2.506608    0.300824    0.724994
      5          1           0       -0.532525    1.409911   -0.197292
      6          1           0        0.200564    2.654479    0.552643
      7          1           0        1.474842    0.530527    0.137828
      8          1           0        2.533951   -0.245431   -0.710053
      9          8           0       -0.300004   -1.760779    0.111447
     10          8           0       -2.008648    0.260990   -0.127029
     11          8           0        0.359655    1.808989   -0.062871
     12          8           0        1.954251   -0.334375    0.085666
 ---------------------------------------------------------------------

 SCF Done:  E(RHF) =  -304.272245476     A.U. after    2 cycles

 The electronic state is 1-A.
 Alpha  occ. eigenvalues --  -20.58862 -20.57263 -20.57246 -20.56574  -1.31536
 Alpha  occ. eigenvalues --   -1.29835  -1.29436  -1.27944  -0.73728  -0.72328
 Alpha  occ. eigenvalues --   -0.71818  -0.71123  -0.62928  -0.60954  -0.58557
 Alpha  occ. eigenvalues --   -0.56558  -0.53060  -0.52286  -0.51719  -0.51214
 Alpha virt. eigenvalues --    0.03019   0.04448   0.05188   0.06293   0.07904
 Alpha virt. eigenvalues --    0.08361   0.09704   0.11134   0.17255   0.17865
 Alpha virt. eigenvalues --    0.18626   0.20152   0.21307   0.21839   0.22471

 Mulliken charges:
               1
     1  H    0.203729
     2  H    0.231152
     3  H    0.260478
     4  H    0.191928
     5  H    0.232752
     6  H    0.260018
     7  H    0.271388
     8  H    0.192149
     9  O   -0.423625
    10  O   -0.450339
    11  O   -0.494112
    12  O   -0.475519
 Sum of Mulliken charges =   0.00000

 Dipole moment (field-independent basis, Debye):
    X=              0.1006    Y=              0.5060    Z=             -0.1148  Tot=              0.5285

 Test job not archived.
 1\1\GINC-SE455\SP\RHF\Aug-CC-pVDZ\H8O4\OHZDE\08-Apr-2025\0\\#t hf aug-
 cc-pvdz iop(5/13=1,5/36=2,99/5=2) pseudo=read geom=check guess=(read,t
 check) scf=(maxcycle=1)\\title\\0,1\H,0,-0.261041,-2.54481,-0.514555\H
 ,0,0.555038,-1.32428,0.0260034\H,0,-1.50624,-0.579819,-0.0772743\H,0,-
 2.50661,0.300819,0.724994\H,0,-0.532529,1.40991,-0.197292\H,0,0.200557
 ,2.65448,0.552643\H,0,1.47484,0.53053,0.137828\H,0,2.53395,-0.245426,-
 0.710053\O,0,-0.300002,-1.76078,0.111447\O,0,-2.00865,0.260986,-0.1270
 29\O,0,0.35965,1.80899,-0.0628707\O,0,1.95425,-0.334371,0.0856657\\Ver

 Normal termination of Gaussian 16 at Tue Apr  8 21:12:26 2025.
