 Gaussian 16, Revision C.01,

 ----------------------------------------------------------------------
 #t hf aug-cc-pvdz symm=none int=(grid=ultrafine) guess=(read,tcheck) s
 table=(opt,rrhf)
 ----------------------------------------------------------------------
 -----
 title
 -----
 Symbolic Z-matrix:
 Charge =  0 Multiplicity = 1

 SCF Done:  E(RHF) =  -608.512133735     A.U. after   13 cycles

 1\1\GINC-SE343\Stability\RHF\Aug-CC-pVDZ\C6H12O5\OHZDE\08-Apr-2025\0\\
 #t hf aug-cc-pvdz symm=none int=(grid=ultrafine) guess=(read,tcheck) s
 table=(opt,rrhf)\\title\\0,1\C,0,-1.62871,-0.702424,-0.125931\C,0,-0.5
 1862,-1.89542,-0.237679\C,0,0.957535,-1.36972,-0.0631569\C,0,1.07054,-
 0.0529721,0.813692\C,0,0.143988,1.0609,0.466614\C,0,-0.972857,0.586804
 ,-0.551209\H,0,-1.47851,2.30681,-0.295801\H,0,-0.47337,0.413608,-1.500
 11\H,0,1.39623,2.00585,-0.833487\H,0,-0.410734,1.31899,1.35257\H,0,2.7
 2701,0.699147,-0.00588507\H,0,0.676226,-0.3882,1.85005\H,0,2.41105,-0.

 Normal termination of Gaussian 16 at Tue Apr  8 19:19:15 2025.
 Gaussian 16:  ES64L-G16RevC.01  3-Jul-2019

 ----------------------------------------------------------------------
 #t hf aug-cc-pvdz iop(5/13=1,5/36=2,99/5=2) pseudo=read geom=check gue
 ss=(read,tcheck) scf=(maxcycle=1)
 ----------------------------------------------------------------------
 -----
 title
 -----
 Structure from the checkpoint file:  "ANI1ccx_1226_conf3_mol1.chk"
 Charge =  0 Multiplicity = 1

                         Standard orientation:
 ---------------------------------------------------------------------
 Center     Atomic      Atomic             Coordinates (Angstroms)
 Number     Number       Type             X           Y           Z
 ---------------------------------------------------------------------
      1          6           0       -1.628711   -0.702421   -0.125931
      2          6           0       -0.518624   -1.895419   -0.237679
      3          6           0        0.957533   -1.369723   -0.063157
      4          6           0        1.070541   -0.052975    0.813692
      5          6           0        0.143991    1.060899    0.466614
      6          6           0       -0.972855    0.586806   -0.551209
      7          1           0       -1.478504    2.306813   -0.295801
      8          1           0       -0.473368    0.413609   -1.500110
      9          1           0        1.396236    2.005846   -0.833487
     10          1           0       -0.410730    1.318990    1.352570
     11          1           0        2.727013    0.699140   -0.005885
     12          1           0        0.676226   -0.388202    1.850050
     13          1           0        2.411049   -0.990615   -1.265890
     14          1           0        1.537236   -2.244014    0.468754
     15          1           0       -0.724938   -2.560109    0.589976
     16          1           0       -0.584286   -2.540299   -1.106170
     17          1           0       -2.497861   -0.697156   -0.793610
     18          1           0       -2.379493   -1.560055    1.572110
     19          8           0       -2.065691   -0.695099    1.177740
     20          8           0        1.498188   -1.262934   -1.346310
     21          8           0        2.412062    0.458042    0.877436
     22          8           0        0.733737    2.245578   -0.133389
     23          8           0       -1.892025    1.563544   -0.806288
 ---------------------------------------------------------------------

 SCF Done:  E(RHF) =  -608.695626202     A.U. after    2 cycles

 The electronic state is 1-A.
 Alpha  occ. eigenvalues --  -20.59803 -20.59462 -20.59193 -20.58053 -20.56784
 Alpha  occ. eigenvalues --  -11.32238 -11.31985 -11.30100 -11.29820 -11.28246
 Alpha  occ. eigenvalues --  -11.25120  -1.36712  -1.35335  -1.34114  -1.33003
 Alpha  occ. eigenvalues --   -1.30754  -1.07887  -0.99762  -0.97860  -0.87103
 Alpha  occ. eigenvalues --   -0.84693  -0.79665  -0.75017  -0.73939  -0.71465
 Alpha  occ. eigenvalues --   -0.70699  -0.67704  -0.65800  -0.63993  -0.63399
 Alpha  occ. eigenvalues --   -0.62729  -0.60292  -0.59367  -0.57766  -0.56020
 Alpha  occ. eigenvalues --   -0.54504  -0.53613  -0.52719  -0.50490  -0.48987
 Alpha  occ. eigenvalues --   -0.46476  -0.44330  -0.43186  -0.41630
 Alpha virt. eigenvalues --    0.02579   0.03226   0.04506   0.04685   0.05794
 Alpha virt. eigenvalues --    0.06054   0.06424   0.06574   0.06854   0.08418
 Alpha virt. eigenvalues --    0.08960   0.09313   0.12160   0.12724   0.13385

 Mulliken charges:
               1
     1  C    0.722315
     2  C    0.588547
     3  C    0.327261
     4  C    0.228312
     5  C    0.396806
     6  C    0.688795
     7  H    0.252196
     8  H   -0.229380
     9  H    0.161739
    10  H   -0.142138
    11  H    0.119151
    12  H    0.163117
    13  H    0.119772
    14  H   -0.024295
    15  H   -0.161277
    16  H   -0.132464
    17  H   -0.100648
    18  H    0.222686
    19  O   -0.742924
    20  O   -0.566544
    21  O   -0.558772
    22  O   -0.661738
    23  O   -0.670515
 Sum of Mulliken charges =  -0.00000

 Dipole moment (field-independent basis, Debye):
    X=              1.5913    Y=             -2.9992    Z=              0.0582  Tot=              3.3957

 Test job not archived.
 1\1\GINC-SE343\SP\RHF\Aug-CC-pVDZ\C6H12O5\OHZDE\08-Apr-2025\0\\#t hf a
 ug-cc-pvdz iop(5/13=1,5/36=2,99/5=2) pseudo=read geom=check guess=(rea
 d,tcheck) scf=(maxcycle=1)\\title\\0,1\C,0,-1.62871,-0.702424,-0.12593
 1\C,0,-0.51862,-1.89542,-0.237679\C,0,0.957535,-1.36972,-0.0631569\C,0
 ,1.07054,-0.0529721,0.813692\C,0,0.143988,1.0609,0.466614\C,0,-0.97285
 7,0.586804,-0.551209\H,0,-1.47851,2.30681,-0.295801\H,0,-0.47337,0.413
 608,-1.50011\H,0,1.39623,2.00585,-0.833487\H,0,-0.410734,1.31899,1.352
 57\H,0,2.72701,0.699147,-0.00588507\H,0,0.676226,-0.3882,1.85005\H,0,2

 Normal termination of Gaussian 16 at Tue Apr  8 19:19:31 2025.
