 Gaussian 16, Revision C.01,

 ----------------------------------------------------------------------
 #t hf aug-cc-pvdz symm=none int=(grid=ultrafine) guess=(read,tcheck) s
 table=(opt,rrhf)
 ----------------------------------------------------------------------
 -----
 title
 -----
 Symbolic Z-matrix:
 Charge =  0 Multiplicity = 1

 SCF Done:  E(RHF) =  -794.440659684     A.U. after   14 cycles
 Normal termination of Gaussian 16 at Tue Apr  8 20:05:02 2025.
 Gaussian 16:  ES64L-G16RevC.01  3-Jul-2019

 ----------------------------------------------------------------------
 #t hf aug-cc-pvdz iop(5/13=1,5/36=2,99/5=2) pseudo=read geom=check gue
 ss=(read,tcheck) scf=(maxcycle=1)
 ----------------------------------------------------------------------
 -----
 title
 -----
 Structure from the checkpoint file:  "ANI1ccx_1592_conf13_mol1.chk"
 Charge =  0 Multiplicity = 1

                         Standard orientation:
 ---------------------------------------------------------------------
 Center     Atomic      Atomic             Coordinates (Angstroms)
 Number     Number       Type             X           Y           Z
 ---------------------------------------------------------------------
      1          6           0        0.235712    1.090619   -0.298364
      2          6           0       -1.113689    1.666880    0.135220
      3          6           0        1.224111    1.112178    0.918618
      4          6           0        2.655980    0.708089    0.483138
      5          6           0        2.865289   -0.750080    0.208379
      6          6           0       -1.598681   -0.734153    0.727547
      7          6           0       -1.857861   -1.257689   -0.730147
      8          6           0       -2.616292   -1.350478    1.683840
      9          1           0       -0.209360   -2.169611   -0.448832
     10          1           0       -3.692581   -1.200447    1.470200
     11          1           0       -2.415621   -0.871971    2.673830
     12          1           0       -2.534493   -2.465528    1.807780
     13          1           0       -0.592497   -1.098310    0.962585
     14          1           0       -2.689509    1.014432    1.167340
     15          1           0        4.067388   -2.050135   -0.209206
     16          1           0        2.960871    1.311086   -0.382034
     17          1           0        3.363421    1.053796    1.288360
     18          1           0        1.290112    2.112858    1.334780
     19          1           0        0.864501    0.507030    1.772060
     20          1           0       -0.018910    0.136864   -0.719149
     21          1           0        0.263077    1.751999   -2.287240
     22          1           0        0.782444    2.899798   -1.283040
     23          7           0        0.800401    1.902008   -1.444290
     24          7           0       -1.862340    0.712933    0.716697
     25          8           0       -1.441337    2.841921   -0.014626
     26          8           0        1.970268   -1.412293   -0.293039
     27          8           0        4.128899   -1.171155    0.222883
     28          8           0       -2.846721   -0.967284   -1.345970
     29          8           0       -0.907694   -2.059770   -1.172210
 ---------------------------------------------------------------------

 SCF Done:  E(RHF) =  -794.683568483     A.U. after    2 cycles

 The electronic state is 1-A.
 Alpha  occ. eigenvalues --  -20.65596 -20.63867 -20.58773 -20.56297 -20.54031
 Alpha  occ. eigenvalues --  -15.66204 -15.61002 -11.42635 -11.40041 -11.36380
 Alpha  occ. eigenvalues --  -11.33114 -11.29197 -11.27439 -11.27346 -11.27290
 Alpha  occ. eigenvalues --   -1.45743  -1.43318  -1.34866  -1.34592  -1.33695
 Alpha  occ. eigenvalues --   -1.22764  -1.15309  -1.06990  -1.05503  -0.98100
 Alpha  occ. eigenvalues --   -0.91935  -0.90184  -0.84650  -0.82667  -0.79346
 Alpha  occ. eigenvalues --   -0.75229  -0.74492  -0.72875  -0.71393  -0.70490
 Alpha  occ. eigenvalues --   -0.68519  -0.67270  -0.66177  -0.65400  -0.64370
 Alpha  occ. eigenvalues --   -0.62747  -0.60990  -0.59068  -0.58204  -0.57591
 Alpha  occ. eigenvalues --   -0.56798  -0.55392  -0.55149  -0.54094  -0.53299
 Alpha  occ. eigenvalues --   -0.52511  -0.50963  -0.49866  -0.48676  -0.46662
 Alpha  occ. eigenvalues --   -0.44422  -0.40758  -0.39269
 Alpha virt. eigenvalues --    0.01970   0.03067   0.03456   0.04525   0.04782
 Alpha virt. eigenvalues --    0.05478   0.06152   0.06484   0.07370   0.07521
 Alpha virt. eigenvalues --    0.07992   0.08646   0.09092   0.10317   0.10722

 Mulliken charges:
               1
     1  C    0.661048
     2  C    0.477414
     3  C    0.283498
     4  C    0.459159
     5  C    0.430373
     6  C    0.206736
     7  C    0.784938
     8  C    0.789770
     9  H    0.373049
    10  H   -0.054011
    11  H    0.048006
    12  H   -0.028749
    13  H   -0.396436
    14  H   -0.104642
    15  H    0.196717
    16  H    0.029592
    17  H    0.068250
    18  H   -0.127348
    19  H   -0.283150
    20  H   -0.419522
    21  H   -0.028619
    22  H    0.011332
    23  N   -0.309708
    24  N   -0.407233
    25  O   -0.588795
    26  O   -0.520551
    27  O   -0.468699
    28  O   -0.523304
    29  O   -0.559116
 Sum of Mulliken charges =  -0.00000

 Dipole moment (field-independent basis, Debye):
    X=              4.1022    Y=             -2.9113    Z=              5.2618  Tot=              7.2794

 Test job not archived.
 1\1\GINC-SE090\SP\RHF\Aug-CC-pVDZ\C8H14N2O5\OHZDE\08-Apr-2025\0\\#t hf
  aug-cc-pvdz iop(5/13=1,5/36=2,99/5=2) pseudo=read geom=check guess=(r
 ead,tcheck) scf=(maxcycle=1)\\title\\0,1\C,0,0.235711,1.09062,-0.29836
 4\C,0,-1.11369,1.66688,0.13522\C,0,1.22411,1.11218,0.918618\C,0,2.6559
 8,0.708092,0.483138\C,0,2.86529,-0.750076,0.208379\C,0,-1.59868,-0.734
 154,0.727547\C,0,-1.85786,-1.25769,-0.730147\C,0,-2.61629,-1.35048,1.6
 8384\H,0,-0.209358,-2.16961,-0.448832\H,0,-3.69258,-1.20045,1.4702\H,0
 ,-2.41562,-0.871973,2.67383\H,0,-2.53449,-2.46553,1.80778\H,0,-0.59249

 Normal termination of Gaussian 16 at Tue Apr  8 20:05:36 2025.
