 Gaussian 16, Revision C.01,

 ----------------------------------------------------------------------
 #t hf aug-cc-pvdz symm=none int=(grid=ultrafine) guess=(read,tcheck) s
 table=(opt,rrhf)
 ----------------------------------------------------------------------
 -----
 title
 -----
 Symbolic Z-matrix:
 Charge =  0 Multiplicity = 1

 SCF Done:  E(RHF) =  -489.412881533     A.U. after   16 cycles
 Normal termination of Gaussian 16 at Tue Apr  8 19:21:02 2025.
 Gaussian 16:  ES64L-G16RevC.01  3-Jul-2019

 ----------------------------------------------------------------------
 #t hf aug-cc-pvdz iop(5/13=1,5/36=2,99/5=2) pseudo=read geom=check gue
 ss=(read,tcheck) scf=(maxcycle=1)
 ----------------------------------------------------------------------
 -----
 title
 -----
 Structure from the checkpoint file:  "ANI1ccx_1315_conf1_mol2.chk"
 Charge =  0 Multiplicity = 1

                         Standard orientation:
 ---------------------------------------------------------------------
 Center     Atomic      Atomic             Coordinates (Angstroms)
 Number     Number       Type             X           Y           Z
 ---------------------------------------------------------------------
      1          6           0        2.075300   -0.003766   -0.003100
      2          6           0        1.406690    1.229780   -0.053310
      3          6           0        0.027610    1.267570   -0.050062
      4          6           0       -0.669965    0.056815   -0.019869
      5          6           0        1.291090   -1.183880   -0.070813
      6          6           0       -2.181060    0.081483    0.023209
      7          1           0        3.832440   -0.944732    0.411467
      8          1           0        4.005290    0.715446    0.214696
      9          1           0        1.935890    2.222630   -0.064172
     10          1           0       -0.549892    2.201790   -0.084088
     11          1           0        1.801200   -2.126180   -0.073716
     12          1           0       -2.079390   -1.815601   -0.055893
     13          7           0        3.452600   -0.116113    0.032498
     14          7           0       -0.025032   -1.126970   -0.028170
     15          8           0       -2.766430   -1.138311    0.020130
     16          8           0       -2.813130    1.108339    0.063004
 ---------------------------------------------------------------------

 SCF Done:  E(RHF) =  -489.558589042     A.U. after    2 cycles

 The electronic state is 1-A.
 Alpha  occ. eigenvalues --  -20.61172 -20.55405 -15.66741 -15.66200 -11.39760
 Alpha  occ. eigenvalues --  -11.33056 -11.30163 -11.29804 -11.27962 -11.27699
 Alpha  occ. eigenvalues --   -1.40841  -1.32235  -1.26483  -1.21232  -1.08591
 Alpha  occ. eigenvalues --   -1.03819  -0.90011  -0.88532  -0.83019  -0.77706
 Alpha  occ. eigenvalues --   -0.74333  -0.72304  -0.67465  -0.65531  -0.64357
 Alpha  occ. eigenvalues --   -0.63872  -0.62015  -0.58414  -0.57828  -0.56735
 Alpha  occ. eigenvalues --   -0.50432  -0.48751  -0.47622  -0.43631  -0.40002
 Alpha  occ. eigenvalues --   -0.32644
 Alpha virt. eigenvalues --    0.01843   0.02897   0.04055   0.05784   0.06438
 Alpha virt. eigenvalues --    0.06981   0.07342   0.08553   0.09221   0.09911
 Alpha virt. eigenvalues --    0.10566   0.11851   0.12326   0.12737   0.13089

 Mulliken charges:
               1
     1  C    0.442423
     2  C    0.197318
     3  C    0.704981
     4  C    0.434073
     5  C    0.693710
     6  C    0.528557
     7  H   -0.101930
     8  H   -0.010241
     9  H   -0.441271
    10  H   -0.478370
    11  H   -0.404595
    12  H    0.191676
    13  N   -0.268885
    14  N   -0.565488
    15  O   -0.470282
    16  O   -0.451677
 Sum of Mulliken charges =  -0.00000

 Dipole moment (field-independent basis, Debye):
    X=              7.8094    Y=             -0.8577    Z=              0.5918  Tot=              7.8787

 Test job not archived.
 1\1\GINC-SE102\SP\RHF\Aug-CC-pVDZ\C6H6N2O2\OHZDE\08-Apr-2025\0\\#t hf
 aug-cc-pvdz iop(5/13=1,5/36=2,99/5=2) pseudo=read geom=check guess=(re
 ad,tcheck) scf=(maxcycle=1)\\title\\0,1\C,0,2.0753,-0.00376524,-0.0030
 996\C,0,1.40669,1.22978,-0.0533098\C,0,0.0276101,1.26757,-0.0500624\C,
 0,-0.669965,0.0568153,-0.0198687\C,0,1.29109,-1.18388,-0.0708131\C,0,-
 2.18106,0.0814834,0.0232093\H,0,3.83244,-0.944732,0.411467\H,0,4.00529
 ,0.715446,0.214696\H,0,1.93589,2.22263,-0.0641719\H,0,-0.549892,2.2017
 9,-0.0840881\H,0,1.8012,-2.12618,-0.0737158\H,0,-2.07939,-1.8156,-0.05

 Normal termination of Gaussian 16 at Tue Apr  8 19:21:10 2025.
