 Gaussian 16, Revision C.01,

 ----------------------------------------------------------------------
 #t hf aug-cc-pvdz symm=none int=(grid=ultrafine) guess=(read,tcheck) s
 table=(opt,rrhf)
 ----------------------------------------------------------------------
 -----
 title
 -----
 Symbolic Z-matrix:
 Charge =  0 Multiplicity = 1

 SCF Done:  E(RHF) =  -353.623566392     A.U. after   14 cycles
 Normal termination of Gaussian 16 at Tue Apr  8 21:48:55 2025.
 Gaussian 16:  ES64L-G16RevC.01  3-Jul-2019

 ----------------------------------------------------------------------
 #t hf aug-cc-pvdz iop(5/13=1,5/36=2,99/5=2) pseudo=read geom=check gue
 ss=(read,tcheck) scf=(maxcycle=1)
 ----------------------------------------------------------------------
 -----
 title
 -----
 Structure from the checkpoint file:  "ANI1ccx_675_conf3_mol2.chk"
 Charge =  0 Multiplicity = 1

                         Standard orientation:
 ---------------------------------------------------------------------
 Center     Atomic      Atomic             Coordinates (Angstroms)
 Number     Number       Type             X           Y           Z
 ---------------------------------------------------------------------
      1          6           0        0.865849    0.048972   -0.016594
      2          6           0       -1.037893   -1.140238    0.000447
      3          6           0       -1.111460    1.091512    0.031146
      4          1           0        2.474808   -0.850009    0.094596
      5          1           0       -1.569184   -2.058197    0.000658
      6          1           0       -1.720199    1.991813   -0.031294
      7          7           0        0.280455   -1.141129   -0.035184
      8          7           0       -1.785901   -0.074004    0.024122
      9          7           0        0.209253    1.233241   -0.039400
     10          8           0        2.198619    0.098520    0.024909
 ---------------------------------------------------------------------

 SCF Done:  E(RHF) =  -353.727739142     A.U. after    2 cycles

 The electronic state is 1-A.
 Alpha  occ. eigenvalues --  -20.64508 -15.65380 -15.65017 -15.64156 -11.42238
 Alpha  occ. eigenvalues --  -11.36000 -11.35313  -1.42954  -1.32811  -1.19571
 Alpha  occ. eigenvalues --   -1.17645  -0.94463  -0.92099  -0.80695  -0.77371
 Alpha  occ. eigenvalues --   -0.68827  -0.66987  -0.64527  -0.60907  -0.57730
 Alpha  occ. eigenvalues --   -0.57183  -0.44999  -0.44234  -0.43639  -0.41573
 Alpha virt. eigenvalues --    0.03189   0.03836   0.04377   0.06585   0.07732
 Alpha virt. eigenvalues --    0.09436   0.10270   0.10800   0.10902   0.12857
 Alpha virt. eigenvalues --    0.13549   0.14332   0.14348   0.15720   0.16184

 Mulliken charges:
               1
     1  C    0.699546
     2  C    0.727420
     3  C    0.742654
     4  H    0.183012
     5  H   -0.296830
     6  H   -0.211246
     7  N   -0.422476
     8  N   -0.466875
     9  N   -0.494578
    10  O   -0.460627
 Sum of Mulliken charges =  -0.00000

 Dipole moment (field-independent basis, Debye):
    X=             -0.2581    Y=             -1.5936    Z=              0.1650  Tot=              1.6228

 Test job not archived.
 1\1\GINC-SE094\SP\RHF\Aug-CC-pVDZ\C3H3N3O1\OHZDE\08-Apr-2025\0\\#t hf
 aug-cc-pvdz iop(5/13=1,5/36=2,99/5=2) pseudo=read geom=check guess=(re
 ad,tcheck) scf=(maxcycle=1)\\title\\0,1\C,0,0.86585,0.0489722,-0.01659
 36\C,0,-1.03789,-1.14024,0.0004472\C,0,-1.11146,1.09151,0.0311457\H,0,
 2.47481,-0.850007,0.0945963\H,0,-1.56918,-2.0582,0.00065835\H,0,-1.720
 2,1.99181,-0.0312938\N,0,0.280458,-1.14113,-0.0351839\N,0,-1.7859,-0.0
 740075,0.0241221\N,0,0.209253,1.23324,-0.0394\O,0,2.19862,0.0985219,0.
 0249095\\Version=ES64L-G16RevC.01\State=1-A\HF=-353.7277391\RMSD=2.296

 Normal termination of Gaussian 16 at Tue Apr  8 21:48:59 2025.
