 Gaussian 16, Revision C.01,

 ----------------------------------------------------------------------
 #t hf aug-cc-pvdz symm=none int=(grid=ultrafine) guess=(read,tcheck) s
 table=(opt,rrhf)
 ----------------------------------------------------------------------
 -----
 title
 -----
 Symbolic Z-matrix:
 Charge =  0 Multiplicity = 1

 SCF Done:  E(RHF) =  -755.426756454     A.U. after   14 cycles
 Normal termination of Gaussian 16 at Tue Apr  8 19:34:18 2025.
 Gaussian 16:  ES64L-G16RevC.01  3-Jul-2019

 ----------------------------------------------------------------------
 #t hf aug-cc-pvdz iop(5/13=1,5/36=2,99/5=2) pseudo=read geom=check gue
 ss=(read,tcheck) scf=(maxcycle=1)
 ----------------------------------------------------------------------
 -----
 title
 -----
 Structure from the checkpoint file:  "ANI1ccx_1405_conf14_mol2.chk"
 Charge =  0 Multiplicity = 1

                         Standard orientation:
 ---------------------------------------------------------------------
 Center     Atomic      Atomic             Coordinates (Angstroms)
 Number     Number       Type             X           Y           Z
 ---------------------------------------------------------------------
      1          6           0        0.794434   -1.589739    0.579857
      2          6           0        0.267092   -1.184549   -0.826072
      3          6           0        0.965024   -0.394161    1.524710
      4          6           0        1.993930    0.653867    1.154050
      5          6           0        1.557020    1.588101    0.052251
      6          6           0       -2.110089   -0.963074   -0.058848
      7          6           0       -2.849920    0.323670    0.196256
      8          1           0       -1.259770    1.225300   -0.446272
      9          1           0       -2.844539   -1.641250   -0.532792
     10          1           0       -1.847839   -1.442160    0.908645
     11          1           0       -1.300860   -0.590505   -1.960120
     12          1           0        2.100129    2.793481   -1.203160
     13          1           0        2.201510    1.301801    2.030420
     14          1           0        2.967490    0.209192    0.907811
     15          1           0        1.353241   -0.761339    2.491140
     16          1           0       -0.012499    0.100168    1.647300
     17          1           0        0.049675   -2.246819    1.047510
     18          1           0        1.903111   -3.160049   -0.031305
     19          1           0        2.712951   -1.757989   -0.196898
     20          7           0        2.091641   -2.276479    0.439763
     21          7           0       -1.030059   -0.830443   -0.993553
     22          8           0        1.032711   -1.155349   -1.785720
     23          8           0        0.404163    1.676981   -0.371508
     24          8           0        2.537720    2.308481   -0.474950
     25          8           0       -3.909200    0.364599    0.759420
     26          8           0       -2.210220    1.444530   -0.192114
 ---------------------------------------------------------------------

 SCF Done:  E(RHF) =  -755.658042869     A.U. after    2 cycles

 The electronic state is 1-A.
 Alpha  occ. eigenvalues --  -20.65745 -20.60401 -20.59211 -20.55453 -20.55292
 Alpha  occ. eigenvalues --  -15.67589 -15.62764 -11.43434 -11.39399 -11.38294
 Alpha  occ. eigenvalues --  -11.31800 -11.31061 -11.28493 -11.27312  -1.46138
 Alpha  occ. eigenvalues --   -1.40745  -1.36564  -1.34974  -1.31772  -1.22882
 Alpha  occ. eigenvalues --   -1.17963  -1.08902  -1.01539  -0.98686  -0.90756
 Alpha  occ. eigenvalues --   -0.83800  -0.83077  -0.78542  -0.77244  -0.74097
 Alpha  occ. eigenvalues --   -0.73626  -0.72694  -0.70665  -0.70204  -0.67308
 Alpha  occ. eigenvalues --   -0.66619  -0.64892  -0.63937  -0.62458  -0.60652
 Alpha  occ. eigenvalues --   -0.60123  -0.59403  -0.57197  -0.56730  -0.55526
 Alpha  occ. eigenvalues --   -0.53166  -0.52689  -0.51365  -0.50069  -0.48379
 Alpha  occ. eigenvalues --   -0.47985  -0.45731  -0.41909  -0.41271
 Alpha virt. eigenvalues --    0.02570   0.02961   0.03399   0.04159   0.04773
 Alpha virt. eigenvalues --    0.05925   0.06186   0.06780   0.07720   0.08045
 Alpha virt. eigenvalues --    0.09350   0.09706   0.09862   0.11121   0.11598

 Mulliken charges:
               1
     1  C    0.185342
     2  C    0.706805
     3  C    0.591844
     4  C    0.120758
     5  C    0.464095
     6  C    0.517954
     7  C    0.598225
     8  H    0.367070
     9  H   -0.102230
    10  H   -0.067456
    11  H   -0.019039
    12  H    0.182175
    13  H    0.056542
    14  H   -0.052882
    15  H   -0.009843
    16  H   -0.135870
    17  H   -0.119909
    18  H   -0.009200
    19  H    0.117824
    20  N   -0.383252
    21  N   -0.394865
    22  O   -0.614001
    23  O   -0.547988
    24  O   -0.474319
    25  O   -0.501867
    26  O   -0.475911
 Sum of Mulliken charges =  -0.00000

 Dipole moment (field-independent basis, Debye):
    X=              3.8197    Y=             -1.7564    Z=              0.4682  Tot=              4.2301

 Test job not archived.
 1\1\GINC-SE092\SP\RHF\Aug-CC-pVDZ\C7H12N2O5\OHZDE\08-Apr-2025\0\\#t hf
  aug-cc-pvdz iop(5/13=1,5/36=2,99/5=2) pseudo=read geom=check guess=(r
 ead,tcheck) scf=(maxcycle=1)\\title\\0,1\C,0,0.794433,-1.58974,0.57985
 7\C,0,0.267091,-1.18455,-0.826072\C,0,0.965024,-0.394162,1.52471\C,0,1
 .99393,0.653866,1.15405\C,0,1.55702,1.5881,0.0522511\C,0,-2.11009,-0.9
 63074,-0.0588482\C,0,-2.84992,0.32367,0.196256\H,0,-1.25977,1.2253,-0.
 446272\H,0,-2.84454,-1.64125,-0.532792\H,0,-1.84784,-1.44216,0.908645\
 H,0,-1.30086,-0.590505,-1.96012\H,0,2.10013,2.79348,-1.20316\H,0,2.201

 Normal termination of Gaussian 16 at Tue Apr  8 19:34:48 2025.
