 Gaussian 16, Revision C.01,

 ----------------------------------------------------------------------
 #t hf aug-cc-pvdz symm=none int=(grid=ultrafine) guess=(read,tcheck) s
 table=(opt,rrhf)
 ----------------------------------------------------------------------
 -----
 title
 -----
 Symbolic Z-matrix:
 Charge =  0 Multiplicity = 1

 SCF Done:  E(RHF) =  -222.377689583     A.U. after   12 cycles
 Normal termination of Gaussian 16 at Tue Apr  8 21:12:22 2025.
 Gaussian 16:  ES64L-G16RevC.01  3-Jul-2019

 ----------------------------------------------------------------------
 #t hf aug-cc-pvdz iop(5/13=1,5/36=2,99/5=2) pseudo=read geom=check gue
 ss=(read,tcheck) scf=(maxcycle=1)
 ----------------------------------------------------------------------
 -----
 title
 -----
 Structure from the checkpoint file:  "ANI1ccx_1903_conf9_mol1.chk"
 Charge =  0 Multiplicity = 1

                         Standard orientation:
 ---------------------------------------------------------------------
 Center     Atomic      Atomic             Coordinates (Angstroms)
 Number     Number       Type             X           Y           Z
 ---------------------------------------------------------------------
      1          1           0       -2.974290   -0.307409   -0.796249
      2          1           0       -2.979840    0.438738    0.659527
      3          1           0       -1.136360   -1.119930    0.770343
      4          1           0       -0.448154    0.382195    0.442062
      5          1           0        2.247540   -1.033301    0.700810
      6          1           0        0.965334   -1.059130   -0.414076
      7          1           0        1.747641    1.295650   -0.799457
      8          1           0        2.355871    1.203069    0.654108
      9          7           0       -2.368060    0.303245   -0.152352
     10          7           0       -1.093990   -0.345094    0.136971
     11          7           0        1.842060   -0.669943   -0.219783
     12          7           0        1.651740    0.740381    0.061298
 ---------------------------------------------------------------------

 SCF Done:  E(RHF) =  -222.447272574     A.U. after    2 cycles

 The electronic state is 1-A.
 Alpha  occ. eigenvalues --  -15.63862 -15.63591 -15.63418 -15.62302  -1.20617
 Alpha  occ. eigenvalues --   -1.18738  -0.98519  -0.97300  -0.69179  -0.66904
 Alpha  occ. eigenvalues --   -0.64076  -0.61524  -0.59419  -0.56702  -0.49131
 Alpha  occ. eigenvalues --   -0.40825  -0.38357  -0.34191
 Alpha virt. eigenvalues --    0.03364   0.03887   0.04299   0.05134   0.06868
 Alpha virt. eigenvalues --    0.07557   0.08958   0.09431   0.15765   0.17100
 Alpha virt. eigenvalues --    0.17537   0.17747   0.18322   0.18803   0.19603

 Mulliken charges:
               1
     1  H    0.124847
     2  H    0.024782
     3  H    0.012055
     4  H    0.183527
     5  H    0.172246
     6  H    0.021854
     7  H    0.101636
     8  H    0.046225
     9  N   -0.205264
    10  N   -0.123596
    11  N   -0.004725
    12  N   -0.353587
 Sum of Mulliken charges =   0.00000

 Dipole moment (field-independent basis, Debye):
    X=             -0.1597    Y=             -0.5242    Z=              2.2913  Tot=              2.3559

 Test job not archived.
 1\1\GINC-SE252\SP\RHF\Aug-CC-pVDZ\H8N4\OHZDE\08-Apr-2025\0\\#t hf aug-
 cc-pvdz iop(5/13=1,5/36=2,99/5=2) pseudo=read geom=check guess=(read,t
 check) scf=(maxcycle=1)\\title\\0,1\H,0,-2.97429,-0.30741,-0.796249\H,
 0,-2.97984,0.438737,0.659527\H,0,-1.13636,-1.11993,0.770343\H,0,-0.448
 154,0.382195,0.442062\H,0,2.24754,-1.0333,0.70081\H,0,0.965334,-1.0591
 3,-0.414076\H,0,1.74764,1.29565,-0.799457\H,0,2.35587,1.20307,0.654108
 \N,0,-2.36806,0.303244,-0.152352\N,0,-1.09399,-0.345094,0.136971\N,0,1
 .84206,-0.669943,-0.219783\N,0,1.65174,0.740381,0.0612976\\Version=ES6

 Normal termination of Gaussian 16 at Tue Apr  8 21:12:24 2025.
