 Gaussian 16, Revision C.01,

 ----------------------------------------------------------------------
 #t hf aug-cc-pvdz symm=none int=(grid=ultrafine) guess=(read,tcheck) s
 table=(opt,rrhf)
 ----------------------------------------------------------------------
 -----
 title
 -----
 Symbolic Z-matrix:
 Charge =  0 Multiplicity = 1

 SCF Done:  E(RHF) =  -263.695738075     A.U. after   13 cycles
 Normal termination of Gaussian 16 at Tue Apr  8 21:30:28 2025.
 Gaussian 16:  ES64L-G16RevC.01  3-Jul-2019

 ----------------------------------------------------------------------
 #t hf aug-cc-pvdz iop(5/13=1,5/36=2,99/5=2) pseudo=read geom=check gue
 ss=(read,tcheck) scf=(maxcycle=1)
 ----------------------------------------------------------------------
 -----
 title
 -----
 Structure from the checkpoint file:  "ANI1ccx_383_conf102_mol2.chk"
 Charge =  0 Multiplicity = 1

                         Standard orientation:
 ---------------------------------------------------------------------
 Center     Atomic      Atomic             Coordinates (Angstroms)
 Number     Number       Type             X           Y           Z
 ---------------------------------------------------------------------
      1          6           0       -0.056877   -0.133259    0.000510
      2          1           0        1.628240    0.708151    0.000699
      3          1           0       -1.445585    1.119681    0.003719
      4          8           0        1.276991   -0.193698   -0.000133
      5          8           0       -0.476500    1.153093   -0.000517
      6          8           0       -0.780665   -1.087930   -0.000285
 ---------------------------------------------------------------------

 SCF Done:  E(RHF) =  -263.783232301     A.U. after    2 cycles

 The electronic state is 1-A.
 Alpha  occ. eigenvalues --  -20.65380 -20.64958 -20.57440 -11.46863  -1.48665
 Alpha  occ. eigenvalues --   -1.38045  -1.35225  -0.90060  -0.83032  -0.74160
 Alpha  occ. eigenvalues --   -0.70993  -0.65617  -0.64080  -0.58351  -0.51427
 Alpha  occ. eigenvalues --   -0.51136
 Alpha virt. eigenvalues --    0.02808   0.04454   0.09060   0.09927   0.12419
 Alpha virt. eigenvalues --    0.12660   0.17589   0.18906   0.19035   0.20279
 Alpha virt. eigenvalues --    0.21101   0.22071   0.25292   0.27075   0.28533

 Mulliken charges:
               1
     1  C    0.788486
     2  H    0.190775
     3  H    0.193849
     4  O   -0.387152
     5  O   -0.411335
     6  O   -0.374623
 Sum of Mulliken charges =  -0.00000

 Dipole moment (field-independent basis, Debye):
    X=              0.3363    Y=              3.4723    Z=              0.0119  Tot=              3.4886

 Test job not archived.
 1\1\GINC-SE247\SP\RHF\Aug-CC-pVDZ\C1H2O3\OHZDE\08-Apr-2025\0\\#t hf au
 g-cc-pvdz iop(5/13=1,5/36=2,99/5=2) pseudo=read geom=check guess=(read
 ,tcheck) scf=(maxcycle=1)\\title\\0,1\C,0,-0.0568778,-0.133258,0.00051
 027\H,0,1.62825,0.708131,0.00069907\H,0,-1.44557,1.1197,0.00371937\O,0
 ,1.27699,-0.193713,-0.00013333\O,0,-0.476485,1.1531,-0.00051663\O,0,-0
 .780678,-1.08792,-0.00028503\\Version=ES64L-G16RevC.01\State=1-A\HF=-2
 63.7832323\RMSD=3.077e-03\Dipole=0.1323301,1.3661171,0.0046623\Quadrup
 ole=2.5070065,-2.4889168,-0.0180897,-0.7895916,-0.0085744,0.0080345\PG

 Normal termination of Gaussian 16 at Tue Apr  8 21:30:29 2025.
