 Gaussian 16, Revision C.01,

 ----------------------------------------------------------------------
 #t hf aug-cc-pvdz symm=none int=(grid=ultrafine) guess=(read,tcheck) s
 table=(opt,rrhf)
 ----------------------------------------------------------------------
 -----
 title
 -----
 Symbolic Z-matrix:
 Charge =  0 Multiplicity = 1

 SCF Done:  E(RHF) =  -480.733205257     A.U. after   15 cycles
 Normal termination of Gaussian 16 at Tue Apr  8 21:46:29 2025.
 Gaussian 16:  ES64L-G16RevC.01  3-Jul-2019

 ----------------------------------------------------------------------
 #t hf aug-cc-pvdz iop(5/13=1,5/36=2,99/5=2) pseudo=read geom=check gue
 ss=(read,tcheck) scf=(maxcycle=1)
 ----------------------------------------------------------------------
 -----
 title
 -----
 Structure from the checkpoint file:  "ANI1ccx_558_conf4_mol1.chk"
 Charge =  0 Multiplicity = 1

                         Standard orientation:
 ---------------------------------------------------------------------
 Center     Atomic      Atomic             Coordinates (Angstroms)
 Number     Number       Type             X           Y           Z
 ---------------------------------------------------------------------
      1          6           0       -1.065552   -0.806374   -0.125857
      2          6           0        1.165218   -0.626264   -0.176246
      3          1           0        1.689579    2.407494   -0.124904
      4          1           0        1.667605    1.373564    1.111560
      5          1           0       -1.384382    2.305515   -0.246054
      6          1           0       -2.430946    1.064289    0.187625
      7          1           0        0.182518   -2.493280    0.286941
      8          1           0        2.753765   -1.651819    0.296175
      9          7           0        1.091046    1.702456    0.359118
     10          7           0        0.655053    0.643886   -0.458813
     11          7           0       -0.788901    0.490911   -0.531890
     12          7           0       -1.471235    1.387325    0.205532
     13          7           0        0.126858   -1.521090    0.031858
     14          7           0        2.427278   -0.711294    0.098983
     15          8           0       -2.169603   -1.044412    0.295969
 ---------------------------------------------------------------------

 SCF Done:  E(RHF) =  -480.875964231     A.U. after    2 cycles

 The electronic state is 1-A.
 Alpha  occ. eigenvalues --  -20.56739 -15.71855 -15.71112 -15.71103 -15.66452
 Alpha  occ. eigenvalues --  -15.64930 -15.61188 -11.42150 -11.39731  -1.43216
 Alpha  occ. eigenvalues --   -1.35527  -1.28018  -1.22892  -1.15245  -1.08631
 Alpha  occ. eigenvalues --   -0.98358  -0.87556  -0.83138  -0.77703  -0.72973
 Alpha  occ. eigenvalues --   -0.71704  -0.69700  -0.67100  -0.65288  -0.64101
 Alpha  occ. eigenvalues --   -0.60155  -0.57407  -0.54045  -0.49946  -0.46101
 Alpha  occ. eigenvalues --   -0.44763  -0.42431  -0.39284  -0.32810
 Alpha virt. eigenvalues --    0.02367   0.03488   0.04156   0.05274   0.06472
 Alpha virt. eigenvalues --    0.08002   0.09198   0.10873   0.11661   0.12220
 Alpha virt. eigenvalues --    0.12943   0.13801   0.14238   0.14838   0.15881

 Mulliken charges:
               1
     1  C    0.976132
     2  C    0.991881
     3  H    0.112419
     4  H    0.009730
     5  H    0.113571
     6  H    0.066518
     7  H   -0.083551
     8  H   -0.031211
     9  N    0.071521
    10  N   -0.518529
    11  N   -0.561121
    12  N    0.062293
    13  N   -0.378939
    14  N   -0.358021
    15  O   -0.472695
 Sum of Mulliken charges =  -0.00000

 Dipole moment (field-independent basis, Debye):
    X=              1.5057    Y=             -0.4508    Z=             -0.4007  Tot=              1.6220

 Test job not archived.
 1\1\GINC-SE455\SP\RHF\Aug-CC-pVDZ\C2H6N6O1\OHZDE\08-Apr-2025\0\\#t hf
 aug-cc-pvdz iop(5/13=1,5/36=2,99/5=2) pseudo=read geom=check guess=(re
 ad,tcheck) scf=(maxcycle=1)\\title\\0,1\C,0,-1.06555,-0.806378,-0.1258
 57\C,0,1.16522,-0.62626,-0.176246\H,0,1.68957,2.4075,-0.124904\H,0,1.6
 676,1.37357,1.11156\H,0,-1.38439,2.30551,-0.246054\H,0,-2.43095,1.0642
 8,0.187625\H,0,0.182526,-2.49328,0.286941\H,0,2.75377,-1.65181,0.29617
 5\N,0,1.09104,1.70246,0.359118\N,0,0.65505,0.643888,-0.458813\N,0,-0.7
 88903,0.490908,-0.53189\N,0,-1.47124,1.38732,0.205532\N,0,0.126863,-1.

 Normal termination of Gaussian 16 at Tue Apr  8 21:46:35 2025.
