 Gaussian 16, Revision C.01,

 ----------------------------------------------------------------------
 #t hf aug-cc-pvdz symm=none int=(grid=ultrafine) guess=(read,tcheck) s
 table=(opt,rrhf)
 ----------------------------------------------------------------------
 -----
 title
 -----
 Symbolic Z-matrix:
 Charge =  0 Multiplicity = 1

 SCF Done:  E(RHF) =  -752.384945277     A.U. after   15 cycles
 Normal termination of Gaussian 16 at Tue Apr  8 19:58:57 2025.
 Gaussian 16:  ES64L-G16RevC.01  3-Jul-2019

 ----------------------------------------------------------------------
 #t hf aug-cc-pvdz iop(5/13=1,5/36=2,99/5=2) pseudo=read geom=check gue
 ss=(read,tcheck) scf=(maxcycle=1)
 ----------------------------------------------------------------------
 -----
 title
 -----
 Structure from the checkpoint file:  "ANI1ccx_1572_conf9_mol1.chk"
 Charge =  0 Multiplicity = 1

                         Standard orientation:
 ---------------------------------------------------------------------
 Center     Atomic      Atomic             Coordinates (Angstroms)
 Number     Number       Type             X           Y           Z
 ---------------------------------------------------------------------
      1          6           0       -0.670599    2.682029   -0.616522
      2          6           0       -1.098112    1.312188   -0.126288
      3          6           0       -0.599494   -1.163791   -0.495048
      4          6           0       -1.925504   -1.970614   -0.136032
      5          6           0        0.390629   -1.339559    0.672194
      6          6           0        1.678113   -0.653641    0.356110
      7          6           0        2.223110    0.376361    1.002350
      8          6           0        3.607702   -0.423889   -0.564895
      9          1           0       -2.580028   -0.359628    0.688181
     10          1           0        4.086818    1.466490    0.676904
     11          1           0        4.566663   -0.691445   -0.953782
     12          1           0        1.785119    0.959911    1.848960
     13          1           0        0.305616   -2.379079    0.882224
     14          1           0       -0.022983   -0.798976    1.560290
     15          1           0       -0.269851   -1.702060   -1.330630
     16          1           0        0.085837    0.317677   -1.625050
     17          1           0       -0.641933    2.592149   -1.671090
     18          1           0        0.415172    2.901501   -0.335969
     19          1           0       -1.905618    3.760856    0.732047
     20          1           0       -2.281128    3.939955   -0.760727
     21          7           0       -1.482858    3.787707   -0.215016
     22          7           0       -0.578096    0.266235   -0.801956
     23          7           0        2.543204   -1.206284   -0.615431
     24          7           0        3.475230    0.595695    0.405444
     25          8           0       -1.800362    1.152766    0.891057
     26          8           0       -2.022542   -3.159815   -0.464740
     27          8           0       -2.787236   -1.371116    0.614448
 ---------------------------------------------------------------------

 SCF Done:  E(RHF) =  -752.609514035     A.U. after    2 cycles

 The electronic state is 1-A.
 Alpha  occ. eigenvalues --  -20.60820 -20.57453 -20.54236 -15.70980 -15.68644
 Alpha  occ. eigenvalues --  -15.63970 -15.62573 -11.40183 -11.39360 -11.34001
 Alpha  occ. eigenvalues --  -11.30596 -11.30563 -11.29105 -11.27522 -11.25310
 Alpha  occ. eigenvalues --   -1.41132  -1.37495  -1.30876  -1.29745  -1.23211
 Alpha  occ. eigenvalues --   -1.18046  -1.13979  -1.07645  -1.02040  -0.96357
 Alpha  occ. eigenvalues --   -0.90152  -0.85052  -0.83389  -0.81568  -0.77722
 Alpha  occ. eigenvalues --   -0.75124  -0.74245  -0.73060  -0.69291  -0.67286
 Alpha  occ. eigenvalues --   -0.66144  -0.64742  -0.63832  -0.62804  -0.62210
 Alpha  occ. eigenvalues --   -0.61484  -0.60913  -0.59744  -0.57857  -0.56022
 Alpha  occ. eigenvalues --   -0.54955  -0.53486  -0.52318  -0.48049  -0.46950
 Alpha  occ. eigenvalues --   -0.46028  -0.45720  -0.41657  -0.41011  -0.40553
 Alpha  occ. eigenvalues --   -0.34418
 Alpha virt. eigenvalues --    0.01428   0.02638   0.02954   0.03952   0.04552
 Alpha virt. eigenvalues --    0.05414   0.06120   0.06576   0.07192   0.07970
 Alpha virt. eigenvalues --    0.08675   0.09114   0.09721   0.10068   0.10631

 Mulliken charges:
               1
     1  C    0.760297
     2  C    0.457435
     3  C    0.265321
     4  C    0.733546
     5  C    0.200279
     6  C    0.254455
     7  C    1.070183
     8  C    1.066511
     9  H    0.336167
    10  H    0.061511
    11  H   -0.349234
    12  H   -0.273291
    13  H   -0.178860
    14  H   -0.031204
    15  H   -0.396779
    16  H    0.082928
    17  H   -0.184640
    18  H    0.031216
    19  H    0.064172
    20  H   -0.056994
    21  N   -0.291383
    22  N   -0.125858
    23  N   -0.859681
    24  N   -0.813145
    25  O   -0.779839
    26  O   -0.562261
    27  O   -0.480853
 Sum of Mulliken charges =  -0.00000

 Dipole moment (field-independent basis, Debye):
    X=              6.1048    Y=              7.3234    Z=             -1.1077  Tot=              9.5983

 Test job not archived.
 1\1\GINC-SE184\SP\RHF\Aug-CC-pVDZ\C8H12N4O3\OHZDE\08-Apr-2025\0\\#t hf
  aug-cc-pvdz iop(5/13=1,5/36=2,99/5=2) pseudo=read geom=check guess=(r
 ead,tcheck) scf=(maxcycle=1)\\title\\0,1\C,0,-0.670594,2.68203,-0.6165
 22\C,0,-1.09811,1.31219,-0.126288\C,0,-0.599498,-1.16379,-0.495048\C,0
 ,-1.92551,-1.97061,-0.136032\C,0,0.390625,-1.33956,0.672194\C,0,1.6781
 1,-0.653645,0.35611\C,0,2.22311,0.376356,1.00235\C,0,3.6077,-0.423897,
 -0.564895\H,0,-2.58003,-0.359622,0.688181\H,0,4.08682,1.46648,0.676904
 \H,0,4.56666,-0.691456,-0.953782\H,0,1.78512,0.959907,1.84896\H,0,0.30

 Normal termination of Gaussian 16 at Tue Apr  8 19:59:27 2025.
