 Gaussian 16, Revision C.01,

 ----------------------------------------------------------------------
 #t hf aug-cc-pvdz symm=none int=(grid=ultrafine) guess=(read,tcheck) s
 table=(opt,rrhf)
 ----------------------------------------------------------------------
 -----
 title
 -----
 Symbolic Z-matrix:
 Charge =  0 Multiplicity = 1

 SCF Done:  E(RHF) =  -311.841848437     A.U. after   16 cycles
 Normal termination of Gaussian 16 at Tue Apr  8 21:33:35 2025.
 Gaussian 16:  ES64L-G16RevC.01  3-Jul-2019

 ----------------------------------------------------------------------
 #t hf aug-cc-pvdz iop(5/13=1,5/36=2,99/5=2) pseudo=read geom=check gue
 ss=(read,tcheck) scf=(maxcycle=1)
 ----------------------------------------------------------------------
 -----
 title
 -----
 Structure from the checkpoint file:  "ANI1ccx_392_conf6_mol1.chk"
 Charge =  0 Multiplicity = 1

                         Standard orientation:
 ---------------------------------------------------------------------
 Center     Atomic      Atomic             Coordinates (Angstroms)
 Number     Number       Type             X           Y           Z
 ---------------------------------------------------------------------
      1          6           0       -0.613079   -0.027945   -0.002942
      2          1           0       -2.450848    0.862647    0.015153
      3          1           0       -2.535549   -0.858274    0.208036
      4          1           0        2.216711   -1.041431    0.009858
      5          7           0       -2.008728   -0.011862   -0.018698
      6          7           0        0.114691    1.112429   -0.002945
      7          7           0        1.371162    0.746830    0.000177
      8          7           0        1.340002   -0.562223    0.031956
      9          7           0        0.104040   -1.113071   -0.041260
 ---------------------------------------------------------------------

 SCF Done:  E(RHF) =  -311.929968942     A.U. after    2 cycles

 The electronic state is 1-A.
 Alpha  occ. eigenvalues --  -15.76068 -15.74644 -15.67696 -15.66579 -15.64685
 Alpha  occ. eigenvalues --  -11.35572  -1.45972  -1.22398  -1.21167  -1.11429
 Alpha  occ. eigenvalues --   -0.90851  -0.84656  -0.78030  -0.69668  -0.68129
 Alpha  occ. eigenvalues --   -0.66315  -0.56758  -0.50677  -0.49565  -0.46139
 Alpha  occ. eigenvalues --   -0.43466  -0.35304
 Alpha virt. eigenvalues --    0.02866   0.03459   0.05664   0.08772   0.10592
 Alpha virt. eigenvalues --    0.11170   0.11915   0.14071   0.15119   0.15343
 Alpha virt. eigenvalues --    0.17081   0.17296   0.17945   0.20063   0.20137

 Mulliken charges:
               1
     1  C    1.123716
     2  H   -0.065111
     3  H   -0.006479
     4  H    0.016167
     5  N   -0.260859
     6  N   -0.390188
     7  N   -0.137594
     8  N    0.120567
     9  N   -0.400219
 Sum of Mulliken charges =  -0.00000

 Dipole moment (field-independent basis, Debye):
    X=             -0.4225    Y=             -1.7907    Z=              0.4617  Tot=              1.8969

 Test job not archived.
 1\1\GINC-SE109\SP\RHF\Aug-CC-pVDZ\C1H3N5\OHZDE\08-Apr-2025\0\\#t hf au
 g-cc-pvdz iop(5/13=1,5/36=2,99/5=2) pseudo=read geom=check guess=(read
 ,tcheck) scf=(maxcycle=1)\\title\\0,1\C,0,-0.613081,-0.0279449,-0.0029
 4194\H,0,-2.45085,0.862647,0.0151533\H,0,-2.53555,-0.858274,0.208036\H
 ,0,2.21671,-1.04143,0.00985761\N,0,-2.00873,-0.0118615,-0.0186982\N,0,
 0.114689,1.11243,-0.00294544\N,0,1.37116,0.746831,0.00017664\N,0,1.34,
 -0.562222,0.0319564\N,0,0.104039,-1.11307,-0.0412602\\Version=ES64L-G1
 6RevC.01\State=1-A\HF=-311.9299689\RMSD=2.897e-03\Dipole=-0.1662161,-0

 Normal termination of Gaussian 16 at Tue Apr  8 21:33:38 2025.
