 Gaussian 16, Revision C.01,

 ----------------------------------------------------------------------
 #t hf aug-cc-pvdz symm=none int=(grid=ultrafine) guess=(read,tcheck) s
 table=(opt,rrhf)
 ----------------------------------------------------------------------
 -----
 title
 -----
 Symbolic Z-matrix:
 Charge =  0 Multiplicity = 1

 SCF Done:  E(RHF) =  -351.484460696     A.U. after   15 cycles
 Normal termination of Gaussian 16 at Tue Apr  8 21:17:24 2025.
 Gaussian 16:  ES64L-G16RevC.01  3-Jul-2019

 ----------------------------------------------------------------------
 #t hf aug-cc-pvdz iop(5/13=1,5/36=2,99/5=2) pseudo=read geom=check gue
 ss=(read,tcheck) scf=(maxcycle=1)
 ----------------------------------------------------------------------
 -----
 title
 -----
 Structure from the checkpoint file:  "ANI1ccx_371_conf10_mol1.chk"
 Charge =  0 Multiplicity = 1

                         Standard orientation:
 ---------------------------------------------------------------------
 Center     Atomic      Atomic             Coordinates (Angstroms)
 Number     Number       Type             X           Y           Z
 ---------------------------------------------------------------------
      1          6           0       -0.769007   -0.022377    0.045010
      2          1           0       -0.168091    2.056961    0.115298
      3          7           0        0.104391    1.048681    0.014691
      4          7           0        1.405279    0.601205   -0.033902
      5          7           0        1.372470   -0.631681   -0.018748
      6          8           0       -1.964780    0.000061   -0.045800
      7          8           0        0.040675   -1.131329    0.030845
 ---------------------------------------------------------------------

 SCF Done:  E(RHF) =  -351.589294706     A.U. after    2 cycles

 The electronic state is 1-A.
 Alpha  occ. eigenvalues --  -20.70746 -20.58776 -15.80217 -15.79933 -15.75445
 Alpha  occ. eigenvalues --  -11.46812  -1.54699  -1.40188  -1.35235  -1.21869
 Alpha  occ. eigenvalues --   -0.94337  -0.91976  -0.80912  -0.75603  -0.70876
 Alpha  occ. eigenvalues --   -0.68108  -0.60961  -0.59434  -0.58079  -0.57193
 Alpha  occ. eigenvalues --   -0.48587  -0.44070
 Alpha virt. eigenvalues --    0.02362   0.07810   0.08182   0.08902   0.09574
 Alpha virt. eigenvalues --    0.11782   0.12227   0.12710   0.15538   0.16549
 Alpha virt. eigenvalues --    0.17039   0.18807   0.18940   0.20768   0.24058

 Mulliken charges:
               1
     1  C    0.846514
     2  H    0.060455
     3  N   -0.184214
     4  N    0.083572
     5  N    0.115853
     6  O   -0.376385
     7  O   -0.545796
 Sum of Mulliken charges =   0.00000

 Dipole moment (field-independent basis, Debye):
    X=              1.6823    Y=              3.2022    Z=              0.4126  Tot=              3.6407

 Test job not archived.
 1\1\GINC-SE460\SP\RHF\Aug-CC-pVDZ\C1H1N3O2\OHZDE\08-Apr-2025\0\\#t hf
 aug-cc-pvdz iop(5/13=1,5/36=2,99/5=2) pseudo=read geom=check guess=(re
 ad,tcheck) scf=(maxcycle=1)\\title\\0,1\C,0,-0.769007,-0.0223781,0.045
 0096\H,0,-0.168089,2.05696,0.115298\N,0,0.104392,1.04868,0.0146909\N,0
 ,1.40528,0.601203,-0.0339022\N,0,1.37247,-0.631683,-0.0187479\O,0,-1.9
 6478,0.0000608,-0.0458\O,0,0.0406747,-1.13133,0.0308448\\Version=ES64L
 -G16RevC.01\State=1-A\HF=-351.5892947\RMSD=3.310e-03\Dipole=0.6618676,
 1.2598516,0.1623349\Quadrupole=-6.3087023,4.3162332,1.9924692,-0.33936

 Normal termination of Gaussian 16 at Tue Apr  8 21:17:26 2025.
