 Gaussian 16, Revision C.01,

 ----------------------------------------------------------------------
 #t hf aug-cc-pvdz symm=none int=(grid=ultrafine) guess=(read,tcheck) s
 table=(opt,rrhf)
 ----------------------------------------------------------------------
 -----
 title
 -----
 Symbolic Z-matrix:
 Charge =  0 Multiplicity = 1

 SCF Done:  E(RHF) =  -759.723380539     A.U. after   14 cycles
 Normal termination of Gaussian 16 at Tue Apr  8 20:57:02 2025.
 Gaussian 16:  ES64L-G16RevC.01  3-Jul-2019

 ----------------------------------------------------------------------
 #t hf aug-cc-pvdz iop(5/13=1,5/36=2,99/5=2) pseudo=read geom=check gue
 ss=(read,tcheck) scf=(maxcycle=1)
 ----------------------------------------------------------------------
 -----
 title
 -----
 Structure from the checkpoint file:  "ANI1ccx_1777_conf5_mol1.chk"
 Charge =  0 Multiplicity = 1

                         Standard orientation:
 ---------------------------------------------------------------------
 Center     Atomic      Atomic             Coordinates (Angstroms)
 Number     Number       Type             X           Y           Z
 ---------------------------------------------------------------------
      1          6           0       -2.698650    0.276384    0.195120
      2          6           0        3.336780   -0.280744   -0.934861
      3          6           0        2.178640    1.817439   -1.139010
      4          6           0        1.980740    0.329328   -1.112140
      5          6           0        3.297990   -1.773541   -0.784627
      6          6           0        0.990258   -0.144298   -0.019005
      7          6           0       -3.638090   -0.737527   -0.394855
      8          6           0       -1.300050   -0.381540    0.101971
      9          6           0        1.457770    0.276826    1.301310
     10          1           0        2.846500    2.034889   -1.992860
     11          1           0        2.982440   -0.089618    2.461100
     12          1           0        2.647950   -2.147451    0.025915
     13          1           0        4.371200   -2.076161   -0.570475
     14          1           0        3.059170   -2.249911   -1.735580
     15          1           0        3.829240    0.118826   -0.053538
     16          1           0        4.063110   -0.062234   -1.810210
     17          1           0        1.207360    2.317399   -1.335530
     18          1           0        2.726870    2.251589   -0.276107
     19          1           0        0.908708   -1.273351   -0.104368
     20          1           0       -0.400212    1.389579    0.188187
     21          1           0       -5.636630   -1.088721   -0.398444
     22          1           0       -3.619490   -0.625575   -1.494990
     23          1           0       -3.286580   -1.721951   -0.097470
     24          1           0       -2.992440    0.314325    1.307020
     25          1           0       -2.448890    1.468559   -1.386360
     26          1           0       -3.801760    1.821119   -0.507285
     27          1           0        1.480470    0.029148   -2.074490
     28          7           0       -2.780330    1.539329   -0.428144
     29          7           0       -0.297809    0.431775   -0.261134
     30          8           0        1.067770    1.120799    2.046370
     31          8           0       -1.164670   -1.580601    0.280396
     32          8           0       -5.036070   -0.447345    0.018045
     33          8           0        2.630180   -0.405625    1.579820
 ---------------------------------------------------------------------

 SCF Done:  E(RHF) =  -759.954481435     A.U. after    2 cycles

 The electronic state is 1-A.
 Alpha  occ. eigenvalues --  -20.62286 -20.58510 -20.57657 -20.55114 -15.66043
 Alpha  occ. eigenvalues --  -15.62444 -11.40814 -11.37157 -11.29378 -11.28823
 Alpha  occ. eigenvalues --  -11.28755 -11.25325 -11.23441 -11.22777 -11.21997
 Alpha  occ. eigenvalues --   -1.43343  -1.37179  -1.33493  -1.30309  -1.23466
 Alpha  occ. eigenvalues --   -1.18421  -1.10531  -1.01294  -0.99036  -0.98085
 Alpha  occ. eigenvalues --   -0.87513  -0.86070  -0.82651  -0.79456  -0.77208
 Alpha  occ. eigenvalues --   -0.74612  -0.73085  -0.70360  -0.69013  -0.67885
 Alpha  occ. eigenvalues --   -0.66154  -0.65549  -0.64481  -0.62640  -0.61640
 Alpha  occ. eigenvalues --   -0.60570  -0.60202  -0.59241  -0.57624  -0.56765
 Alpha  occ. eigenvalues --   -0.54622  -0.54186  -0.52747  -0.52529  -0.51981
 Alpha  occ. eigenvalues --   -0.50521  -0.48534  -0.47580  -0.47087  -0.46092
 Alpha  occ. eigenvalues --   -0.45908  -0.44552  -0.42239  -0.39844
 Alpha virt. eigenvalues --    0.02909   0.03201   0.03760   0.04164   0.04990
 Alpha virt. eigenvalues --    0.05374   0.05538   0.06466   0.06765   0.07075
 Alpha virt. eigenvalues --    0.07643   0.07686   0.08101   0.08922   0.09326

 Mulliken charges:
               1
     1  C    0.219474
     2  C    0.558975
     3  C    0.833283
     4  C   -0.443107
     5  C    0.488259
     6  C   -0.183085
     7  C    1.303622
     8  C    0.018154
     9  C    0.440269
    10  H   -0.015574
    11  H    0.268637
    12  H   -0.014315
    13  H    0.023117
    14  H   -0.081516
    15  H   -0.051727
    16  H   -0.054600
    17  H   -0.045182
    18  H   -0.039372
    19  H   -0.048500
    20  H    0.222512
    21  H    0.170956
    22  H   -0.153012
    23  H   -0.193176
    24  H    0.093509
    25  H    0.065538
    26  H    0.097275
    27  H   -0.127135
    28  N   -0.333202
    29  N   -0.525978
    30  O   -0.483144
    31  O   -0.573198
    32  O   -0.710018
    33  O   -0.727738
 Sum of Mulliken charges =  -0.00000

 Dipole moment (field-independent basis, Debye):
    X=              1.0575    Y=              0.4158    Z=             -2.6184  Tot=              2.8543

 Test job not archived.
 1\1\GINC-SE458\SP\RHF\Aug-CC-pVDZ\C9H18N2O4\OHZDE\08-Apr-2025\0\\#t hf
  aug-cc-pvdz iop(5/13=1,5/36=2,99/5=2) pseudo=read geom=check guess=(r
 ead,tcheck) scf=(maxcycle=1)\\title\\0,1\C,0,-2.69865,0.276385,0.19512
 \C,0,3.33678,-0.280743,-0.934861\C,0,2.17864,1.81744,-1.13901\C,0,1.98
 074,0.329329,-1.11214\C,0,3.29799,-1.77354,-0.784627\C,0,0.990258,-0.1
 44297,-0.0190042\C,0,-3.63809,-0.737526,-0.394855\C,0,-1.30005,-0.3815
 39,0.101971\C,0,1.45777,0.276827,1.30131\H,0,2.8465,2.03489,-1.99286\H
 ,0,2.98244,-0.0896177,2.4611\H,0,2.64795,-2.14745,0.0259159\H,0,4.3712

 Normal termination of Gaussian 16 at Tue Apr  8 20:57:43 2025.
