 Gaussian 16, Revision C.01,

 ----------------------------------------------------------------------
 #t hf aug-cc-pvdz symm=none int=(grid=ultrafine) guess=(read,tcheck) s
 table=(opt,rrhf)
 ----------------------------------------------------------------------
 -----
 title
 -----
 Symbolic Z-matrix:
 Charge =  0 Multiplicity = 1

 SCF Done:  E(RHF) =  -595.593783896     A.U. after   16 cycles
 Normal termination of Gaussian 16 at Tue Apr  8 19:16:28 2025.
 Gaussian 16:  ES64L-G16RevC.01  3-Jul-2019

 ----------------------------------------------------------------------
 #t hf aug-cc-pvdz iop(5/13=1,5/36=2,99/5=2) pseudo=read geom=check gue
 ss=(read,tcheck) scf=(maxcycle=1)
 ----------------------------------------------------------------------
 -----
 title
 -----
 Structure from the checkpoint file:  "ANI1ccx_1158_conf7_mol2.chk"
 Charge =  0 Multiplicity = 1

                         Standard orientation:
 ---------------------------------------------------------------------
 Center     Atomic      Atomic             Coordinates (Angstroms)
 Number     Number       Type             X           Y           Z
 ---------------------------------------------------------------------
      1          6           0       -4.228060   -0.298486    0.047911
      2          6           0       -0.059892    0.219412   -0.017299
      3          6           0        0.551943    2.304861    0.025274
      4          6           0        1.303829    0.309533   -0.038099
      5          6           0        2.280330   -0.819845   -0.016180
      6          1           0        3.828299    0.506174   -0.088365
      7          1           0        4.268410   -1.226707    0.026593
      8          1           0        0.469257    3.390741    0.076259
      9          1           0       -1.554041    1.643200   -0.004626
     10          1           0       -4.438830   -1.357251    0.165885
     11          1           0       -4.679100    0.261022    0.887713
     12          1           0       -4.674800    0.103297   -0.864909
     13          1           0       -0.221048   -1.808459   -0.054999
     14          7           0        3.580320   -0.485897    0.039585
     15          7           0       -2.776980   -0.009057   -0.002774
     16          7           0       -2.127740   -1.085560   -0.051302
     17          7           0       -0.799674   -0.960880   -0.073698
     18          7           0       -0.557254    1.482471    0.028478
     19          7           0        1.670789    1.639302   -0.037916
     20          8           0        1.873341   -1.983438    0.066274
 ---------------------------------------------------------------------

 SCF Done:  E(RHF) =  -595.768384269     A.U. after    2 cycles

 The electronic state is 1-A.
 Alpha  occ. eigenvalues --  -20.53038 -15.75669 -15.69769 -15.69421 -15.68306
 Alpha  occ. eigenvalues --  -15.64772 -15.63237 -11.36924 -11.34086 -11.32087
 Alpha  occ. eigenvalues --  -11.27456 -11.25898  -1.38397  -1.34244  -1.32476
 Alpha  occ. eigenvalues --   -1.20238  -1.17915  -1.14985  -1.03949  -0.97389
 Alpha  occ. eigenvalues --   -0.88694  -0.85297  -0.84545  -0.78547  -0.74502
 Alpha  occ. eigenvalues --   -0.71467  -0.70031  -0.68249  -0.65703  -0.65213
 Alpha  occ. eigenvalues --   -0.62169  -0.61636  -0.60385  -0.58556  -0.57513
 Alpha  occ. eigenvalues --   -0.55800  -0.55150  -0.45916  -0.44423  -0.42812
 Alpha  occ. eigenvalues --   -0.42005  -0.41445  -0.40847  -0.29949
 Alpha virt. eigenvalues --    0.02529   0.03393   0.03966   0.04750   0.05501
 Alpha virt. eigenvalues --    0.06231   0.07416   0.08121   0.08610   0.10320
 Alpha virt. eigenvalues --    0.10873   0.10969   0.11687   0.12378   0.13121

 Mulliken charges:
               1
     1  C    0.807906
     2  C    0.418236
     3  C    0.543171
     4  C    0.741659
     5  C    0.629344
     6  H    0.064538
     7  H    0.021890
     8  H   -0.310936
     9  H   -0.032790
    10  H   -0.155371
    11  H   -0.106109
    12  H   -0.111757
    13  H    0.006489
    14  N   -0.186122
    15  N   -0.513065
    16  N   -0.125915
    17  N   -0.158022
    18  N   -0.153038
    19  N   -0.778824
    20  O   -0.601283
 Sum of Mulliken charges =  -0.00000

 Dipole moment (field-independent basis, Debye):
    X=             -2.0211    Y=              2.9833    Z=             -0.2474  Tot=              3.6119

 Test job not archived.
 1\1\GINC-SE048\SP\RHF\Aug-CC-pVDZ\C5H8N6O1\OHZDE\08-Apr-2025\0\\#t hf
 aug-cc-pvdz iop(5/13=1,5/36=2,99/5=2) pseudo=read geom=check guess=(re
 ad,tcheck) scf=(maxcycle=1)\\title\\0,1\C,0,-4.22806,-0.298485,0.04791
 12\C,0,-0.0598916,0.219411,-0.0172988\C,0,0.551945,2.30486,0.025274\C,
 0,1.30383,0.309531,-0.0380986\C,0,2.28033,-0.819847,-0.0161797\H,0,3.8
 283,0.506171,-0.088365\H,0,4.26841,-1.22671,0.0265934\H,0,0.469259,3.3
 9074,0.0762587\H,0,-1.55404,1.6432,-0.00462573\H,0,-4.43883,-1.35725,0
 .165885\H,0,-4.6791,0.261023,0.887713\H,0,-4.6748,0.103298,-0.864909\H

 Normal termination of Gaussian 16 at Tue Apr  8 19:16:41 2025.
