 Gaussian 16, Revision C.01,

 ----------------------------------------------------------------------
 #t hf aug-cc-pvdz symm=none int=(grid=ultrafine) guess=(read,tcheck) s
 table=(opt,rrhf)
 ----------------------------------------------------------------------
 -----
 title
 -----
 Symbolic Z-matrix:
 Charge =  0 Multiplicity = 1

 SCF Done:  E(RHF) =  -414.368439773     A.U. after   14 cycles
 Normal termination of Gaussian 16 at Tue Apr  8 21:35:42 2025.
 Gaussian 16:  ES64L-G16RevC.01  3-Jul-2019

 ----------------------------------------------------------------------
 #t hf aug-cc-pvdz iop(5/13=1,5/36=2,99/5=2) pseudo=read geom=check gue
 ss=(read,tcheck) scf=(maxcycle=1)
 ----------------------------------------------------------------------
 -----
 title
 -----
 Structure from the checkpoint file:  "ANI1ccx_410_conf5_mol1.chk"
 Charge =  0 Multiplicity = 1

                         Standard orientation:
 ---------------------------------------------------------------------
 Center     Atomic      Atomic             Coordinates (Angstroms)
 Number     Number       Type             X           Y           Z
 ---------------------------------------------------------------------
      1          6           0        2.102519   -0.109613    0.247709
      2          1           0       -1.417341   -0.443414    1.340680
      3          1           0       -3.540751   -0.248446   -0.396827
      4          1           0        1.681929    1.650151    0.756636
      5          1           0        1.701029   -0.372344    1.247390
      6          8           0       -1.307321   -0.899551    0.491069
      7          8           0       -1.681081    0.123385   -0.433895
      8          8           0       -2.996601    0.513798   -0.124051
      9          8           0        2.144769    1.204291    0.041473
     10          8           0        2.460239   -0.932954   -0.528864
 ---------------------------------------------------------------------

 SCF Done:  E(RHF) =  -414.506499320     A.U. after    2 cycles

 The electronic state is 1-A.
 Alpha  occ. eigenvalues --  -20.72861 -20.67484 -20.67443 -20.63902 -20.56989
 Alpha  occ. eigenvalues --  -11.40329  -1.51888  -1.43650  -1.35020  -1.34861
 Alpha  occ. eigenvalues --   -1.14482  -0.87498  -0.81800  -0.80392  -0.72176
 Alpha  occ. eigenvalues --   -0.71336  -0.69495  -0.68547  -0.65494  -0.61142
 Alpha  occ. eigenvalues --   -0.57016  -0.55498  -0.52244  -0.50883  -0.47723
 Alpha virt. eigenvalues --    0.02118   0.03967   0.04677   0.05865   0.09906
 Alpha virt. eigenvalues --    0.11220   0.12224   0.13338   0.14211   0.14959
 Alpha virt. eigenvalues --    0.15956   0.17915   0.19065   0.19794   0.20531

 Mulliken charges:
               1
     1  C    0.746969
     2  H    0.249563
     3  H    0.245773
     4  H    0.190294
     5  H   -0.178879
     6  O   -0.204223
     7  O   -0.056682
     8  O   -0.230524
     9  O   -0.385697
    10  O   -0.376594
 Sum of Mulliken charges =  -0.00000

 Dipole moment (field-independent basis, Debye):
    X=             -3.3780    Y=              1.3784    Z=              4.6463  Tot=              5.9076

 Test job not archived.
 1\1\GINC-SE364\SP\RHF\Aug-CC-pVDZ\C1H4O5\OHZDE\08-Apr-2025\0\\#t hf au
 g-cc-pvdz iop(5/13=1,5/36=2,99/5=2) pseudo=read geom=check guess=(read
 ,tcheck) scf=(maxcycle=1)\\title\\0,1\C,0,2.10252,-0.109614,0.247709\H
 ,0,-1.41734,-0.443415,1.34068\H,0,-3.54075,-0.248447,-0.396827\H,0,1.6
 8193,1.65015,0.756636\H,0,1.70103,-0.372345,1.24739\O,0,-1.30732,-0.89
 9552,0.491069\O,0,-1.68108,0.123384,-0.433895\O,0,-2.9966,0.513797,-0.
 124051\O,0,2.14477,1.20429,0.0414733\O,0,2.46024,-0.932955,-0.528864\\
 Version=ES64L-G16RevC.01\State=1-A\HF=-414.5064993\RMSD=2.257e-03\Dipo

 Normal termination of Gaussian 16 at Tue Apr  8 21:35:44 2025.
