 Gaussian 16, Revision C.01,

 ----------------------------------------------------------------------
 #t hf aug-cc-pvdz symm=none int=(grid=ultrafine) guess=(read,tcheck) s
 table=(opt,rrhf)
 ----------------------------------------------------------------------
 -----
 title
 -----
 Symbolic Z-matrix:
 Charge =  0 Multiplicity = 1

 SCF Done:  E(RHF) =  -833.434709151     A.U. after   14 cycles
 Normal termination of Gaussian 16 at Tue Apr  8 20:50:38 2025.
 Gaussian 16:  ES64L-G16RevC.01  3-Jul-2019

 ----------------------------------------------------------------------
 #t hf aug-cc-pvdz iop(5/13=1,5/36=2,99/5=2) pseudo=read geom=check gue
 ss=(read,tcheck) scf=(maxcycle=1)
 ----------------------------------------------------------------------
 -----
 title
 -----
 Structure from the checkpoint file:  "ANI1ccx_1760_conf34_mol1.chk"
 Charge =  0 Multiplicity = 1

                         Standard orientation:
 ---------------------------------------------------------------------
 Center     Atomic      Atomic             Coordinates (Angstroms)
 Number     Number       Type             X           Y           Z
 ---------------------------------------------------------------------
      1          6           0        1.881779    0.964160   -0.780898
      2          6           0       -1.994098   -1.906191    0.484066
      3          6           0       -2.173549   -0.983024   -0.789555
      4          6           0       -2.073711    1.011919    0.837849
      5          6           0       -3.574979   -1.187812   -1.308760
      6          6           0        2.926481   -0.965445    0.473481
      7          6           0        2.941140    0.591228    0.298342
      8          6           0        0.551979    0.204863   -0.531299
      9          6           0       -1.836360    0.496227   -0.582702
     10          1           0       -1.001668   -2.275410    0.752706
     11          1           0       -1.497512    2.208539    2.229220
     12          1           0       -3.814949   -0.636542   -2.180900
     13          1           0       -4.206649   -0.911679   -0.447877
     14          1           0       -3.791428   -2.259553   -1.472710
     15          1           0       -2.391709   -1.547351    1.440000
     16          1           0       -2.583748   -2.858022    0.225644
     17          1           0       -1.517459   -1.391371   -1.566420
     18          1           0       -0.446053    1.681820   -1.551930
     19          1           0        3.106751   -1.042757   -1.492870
     20          1           0        3.924989    0.984173    0.030509
     21          1           0        2.566549    1.100702    1.186960
     22          1           0        2.233160    0.544370   -1.733660
     23          1           0        1.648208    2.782662    0.041507
     24          1           0        2.429338    2.899402   -1.324880
     25          1           0       -2.565711    1.099268   -1.146800
     26          7           0        1.653388    2.395242   -0.890158
     27          7           0       -0.530706    0.824190   -1.051320
     28          8           0       -2.758130    0.472789    1.666350
     29          8           0        0.509517   -0.777391    0.180301
     30          8           0        2.910431   -1.592007    1.531040
     31          8           0        3.182581   -1.607397   -0.648561
     32          8           0       -1.324771    1.970279    1.270710
 ---------------------------------------------------------------------

 SCF Done:  E(RHF) =  -833.690984863     A.U. after    2 cycles

 The electronic state is 1-A.
 Alpha  occ. eigenvalues --  -20.63295 -20.62689 -20.55795 -20.55107 -20.53435
 Alpha  occ. eigenvalues --  -15.66334 -15.65451 -11.39717 -11.39626 -11.38434
 Alpha  occ. eigenvalues --  -11.32319 -11.31145 -11.28000 -11.24359 -11.21766
 Alpha  occ. eigenvalues --  -11.19552  -1.45383  -1.41480  -1.37894  -1.32170
 Alpha  occ. eigenvalues --   -1.29448  -1.24073  -1.20524  -1.07752  -1.04459
 Alpha  occ. eigenvalues --   -0.99239  -0.92050  -0.90258  -0.86917  -0.84322
 Alpha  occ. eigenvalues --   -0.82525  -0.78303  -0.75374  -0.74319  -0.72031
 Alpha  occ. eigenvalues --   -0.71637  -0.69520  -0.67861  -0.66283  -0.66130
 Alpha  occ. eigenvalues --   -0.65222  -0.62925  -0.61771  -0.61315  -0.60040
 Alpha  occ. eigenvalues --   -0.59261  -0.58153  -0.57893  -0.55667  -0.54231
 Alpha  occ. eigenvalues --   -0.52839  -0.51833  -0.49501  -0.49272  -0.47623
 Alpha  occ. eigenvalues --   -0.47272  -0.46655  -0.46490  -0.44544  -0.43902
 Alpha  occ. eigenvalues --   -0.41789  -0.40816
 Alpha virt. eigenvalues --    0.01305   0.02346   0.02628   0.03954   0.04579
 Alpha virt. eigenvalues --    0.05151   0.05873   0.06413   0.06914   0.07237
 Alpha virt. eigenvalues --    0.07877   0.07989   0.08502   0.08594   0.09875

 Mulliken charges:
               1
     1  C    0.204473
     2  C    0.985048
     3  C   -0.777982
     4  C    0.756058
     5  C    1.043005
     6  C    0.896199
     7  C    0.608540
     8  C   -0.016408
     9  C   -0.083863
    10  H   -0.235989
    11  H    0.270020
    12  H   -0.171664
    13  H    0.148625
    14  H   -0.050594
    15  H   -0.147315
    16  H    0.021493
    17  H   -0.213344
    18  H   -0.061355
    19  H    0.280222
    20  H    0.017334
    21  H   -0.073119
    22  H   -0.111583
    23  H    0.069428
    24  H    0.018746
    25  H   -0.113348
    26  N   -0.345767
    27  N   -0.159713
    28  O   -0.559446
    29  O   -0.439017
    30  O   -0.563291
    31  O   -0.558326
    32  O   -0.637066
 Sum of Mulliken charges =  -0.00000

 Dipole moment (field-independent basis, Debye):
    X=              1.2225    Y=              8.3463    Z=             -5.9243  Tot=             10.3079

 Test job not archived.
 1\1\GINC-SE015\SP\RHF\Aug-CC-pVDZ\C9H16N2O5\OHZDE\08-Apr-2025\0\\#t hf
  aug-cc-pvdz iop(5/13=1,5/36=2,99/5=2) pseudo=read geom=check guess=(r
 ead,tcheck) scf=(maxcycle=1)\\title\\0,1\C,0,1.88178,0.964158,-0.78089
 8\C,0,-1.9941,-1.90619,0.484066\C,0,-2.17355,-0.983023,-0.789555\C,0,-
 2.07371,1.01192,0.837849\C,0,-3.57498,-1.18781,-1.30876\C,0,2.92648,-0
 .965448,0.473481\C,0,2.94114,0.591225,0.298342\C,0,0.551979,0.204862,-
 0.531299\C,0,-1.83636,0.496228,-0.582702\H,0,-1.00167,-2.27541,0.75270
 6\H,0,-1.49751,2.20854,2.22922\H,0,-3.81495,-0.636539,-2.1809\H,0,-4.2

 Normal termination of Gaussian 16 at Tue Apr  8 20:51:24 2025.
