 Gaussian 16, Revision C.01,

 ----------------------------------------------------------------------
 #t hf aug-cc-pvdz symm=none int=(grid=ultrafine) guess=(read,tcheck) s
 table=(opt,rrhf)
 ----------------------------------------------------------------------
 -----
 title
 -----
 Symbolic Z-matrix:
 Charge =  0 Multiplicity = 1

 SCF Done:  E(RHF) =  -872.545308428     A.U. after   14 cycles
 Normal termination of Gaussian 16 at Tue Apr  8 22:06:52 2025.
 Gaussian 16:  ES64L-G16RevC.01  3-Jul-2019

 ----------------------------------------------------------------------
 #t hf aug-cc-pvdz iop(5/13=1,5/36=2,99/5=2) pseudo=read geom=check gue
 ss=(read,tcheck) scf=(maxcycle=1)
 ----------------------------------------------------------------------
 -----
 title
 -----
 Structure from the checkpoint file:  "ANI1ccx_68_conf1_mol2.chk"
 Charge =  0 Multiplicity = 1

                         Standard orientation:
 ---------------------------------------------------------------------
 Center     Atomic      Atomic             Coordinates (Angstroms)
 Number     Number       Type             X           Y           Z
 ---------------------------------------------------------------------
      1          6           0       -1.400942    1.424220   -0.233903
      2          6           0        3.506228    1.932121    0.393550
      3          6           0        3.109849    0.428407    0.489210
      4          6           0        1.905749   -1.542209   -0.770893
      5          6           0        2.166339   -0.042402   -0.653696
      6          6           0        2.560749    0.116463    1.907240
      7          6           0       -2.851011   -0.682447   -0.801144
      8          6           0       -2.310321    0.674985   -1.224590
      9          6           0       -0.191057    0.529105    0.095072
     10          6           0       -3.523571   -0.688196    0.556901
     11          1           0        4.005169   -0.177670    0.296570
     12          1           0        2.790190   -3.166679   -0.617268
     13          1           0        1.635089    0.702201    2.021530
     14          1           0        2.348179   -0.949462    2.034820
     15          1           0        3.278489    0.414994    2.666570
     16          1           0        4.129208    2.200042    1.237440
     17          1           0        4.023208    2.194352   -0.526991
     18          1           0        2.627078    2.594921    0.457602
     19          1           0        2.762819    0.096689   -1.565170
     20          1           0       -1.795191   -0.865139    1.351030
     21          1           0       -3.593461   -0.941916   -1.554170
     22          1           0       -2.013841   -1.370471   -0.821297
     23          1           0       -3.089552    1.431039   -1.433600
     24          1           0       -1.792621    0.541255   -2.163690
     25          1           0       -1.958912    1.521729    0.706320
     26          1           0       -1.730652    3.263579   -0.951717
     27          1           0       -0.384526    3.105830   -0.029968
     28          1           0        0.779288    1.362190   -1.455770
     29          7           0       -0.896475    2.663320   -0.789101
     30          7           0        0.881161    0.693863   -0.735384
     31          8           0        0.997986   -2.067440   -1.339110
     32          8           0       -0.239306   -0.387407    0.926335
     33          8           0       -4.661961   -0.383674    0.654545
     34          8           0       -2.736331   -0.950417    1.610840
     35          8           0        2.921510   -2.255819   -0.293528
 ---------------------------------------------------------------------

 SCF Done:  E(RHF) =  -872.813565590     A.U. after    2 cycles

 The electronic state is 1-A.
 Alpha  occ. eigenvalues --  -20.63823 -20.58093 -20.57284 -20.56538 -20.53634
 Alpha  occ. eigenvalues --  -15.67244 -15.65264 -11.41141 -11.39263 -11.37002
 Alpha  occ. eigenvalues --  -11.32571 -11.30583 -11.26733 -11.26208 -11.24649
 Alpha  occ. eigenvalues --  -11.24587 -11.22998  -1.45130  -1.39743  -1.37242
 Alpha  occ. eigenvalues --   -1.34265  -1.31081  -1.23301  -1.19758  -1.09073
 Alpha  occ. eigenvalues --   -1.07194  -1.00479  -0.95967  -0.93856  -0.88702
 Alpha  occ. eigenvalues --   -0.85652  -0.82149  -0.81443  -0.79033  -0.74559
 Alpha  occ. eigenvalues --   -0.73527  -0.71816  -0.69857  -0.69040  -0.68583
 Alpha  occ. eigenvalues --   -0.67416  -0.66520  -0.64508  -0.64235  -0.63488
 Alpha  occ. eigenvalues --   -0.61444  -0.61347  -0.59966  -0.59821  -0.58066
 Alpha  occ. eigenvalues --   -0.57233  -0.56450  -0.54610  -0.54214  -0.52743
 Alpha  occ. eigenvalues --   -0.52246  -0.51038  -0.50648  -0.49837  -0.48559
 Alpha  occ. eigenvalues --   -0.47461  -0.47292  -0.45444  -0.43903  -0.43558
 Alpha  occ. eigenvalues --   -0.42043
 Alpha virt. eigenvalues --    0.02036   0.02629   0.03148   0.03710   0.04699
 Alpha virt. eigenvalues --    0.05175   0.05615   0.05816   0.06503   0.06849
 Alpha virt. eigenvalues --    0.07550   0.07872   0.08275   0.08702   0.08874

 Mulliken charges:
               1
     1  C    0.255556
     2  C    0.822112
     3  C   -0.700769
     4  C    1.007222
     5  C   -0.220616
     6  C    0.919943
     7  C    0.374679
     8  C    0.317837
     9  C    0.405183
    10  C    0.765108
    11  H   -0.115786
    12  H    0.249394
    13  H    0.025051
    14  H   -0.050448
    15  H   -0.175090
    16  H   -0.079043
    17  H   -0.122055
    18  H   -0.079361
    19  H   -0.039721
    20  H    0.323562
    21  H   -0.030984
    22  H   -0.026908
    23  H   -0.079231
    24  H   -0.126506
    25  H   -0.116240
    26  H    0.031738
    27  H    0.083767
    28  H   -0.062000
    29  N   -0.235720
    30  N   -0.413651
    31  O   -0.504481
    32  O   -0.797591
    33  O   -0.494595
    34  O   -0.481360
    35  O   -0.628993
 Sum of Mulliken charges =   0.00000

 Dipole moment (field-independent basis, Debye):
    X=              7.2018    Y=              4.0068    Z=             -3.6479  Tot=              9.0126

 Test job not archived.
 1\1\GINC-SE340\SP\RHF\Aug-CC-pVDZ\C10H18N2O5\OHZDE\08-Apr-2025\0\\#t h
 f aug-cc-pvdz iop(5/13=1,5/36=2,99/5=2) pseudo=read geom=check guess=(
 read,tcheck) scf=(maxcycle=1)\\title\\0,1\C,0,-1.40094,1.42422,-0.2339
 03\C,0,3.50623,1.93212,0.39355\C,0,3.10985,0.428406,0.48921\C,0,1.9057
 5,-1.54221,-0.770893\C,0,2.16634,-0.0424032,-0.653696\C,0,2.56075,0.11
 6462,1.90724\C,0,-2.85101,-0.682446,-0.801144\C,0,-2.31032,0.674986,-1
 .22459\C,0,-0.191056,0.529105,0.0950715\C,0,-3.52357,-0.688195,0.55690
 1\H,0,4.00517,-0.177672,0.29657\H,0,2.79019,-3.16668,-0.617268\H,0,1.6

 Normal termination of Gaussian 16 at Tue Apr  8 22:07:39 2025.
