 Gaussian 16, Revision C.01,

 ----------------------------------------------------------------------
 #t hf aug-cc-pvdz symm=none int=(grid=ultrafine) guess=(read,tcheck) s
 table=(opt,rrhf)
 ----------------------------------------------------------------------
 -----
 title
 -----
 Symbolic Z-matrix:
 Charge =  0 Multiplicity = 1

 SCF Done:  E(RHF) =  -221.195014759     A.U. after   15 cycles
 Normal termination of Gaussian 16 at Tue Apr  8 21:11:20 2025.
 Gaussian 16:  ES64L-G16RevC.01  3-Jul-2019

 ----------------------------------------------------------------------
 #t hf aug-cc-pvdz iop(5/13=1,5/36=2,99/5=2) pseudo=read geom=check gue
 ss=(read,tcheck) scf=(maxcycle=1)
 ----------------------------------------------------------------------
 -----
 title
 -----
 Structure from the checkpoint file:  "ANI1ccx_1899_conf11_mol1.chk"
 Charge =  0 Multiplicity = 1

                         Standard orientation:
 ---------------------------------------------------------------------
 Center     Atomic      Atomic             Coordinates (Angstroms)
 Number     Number       Type             X           Y           Z
 ---------------------------------------------------------------------
      1          1           0       -1.419871   -0.914941    1.201380
      2          1           0       -1.816031   -1.390380   -0.381727
      3          1           0       -1.214321    1.174640   -0.806299
      4          1           0       -2.000471    1.226050    0.630892
      5          1           0        1.842739    0.826499    1.015950
      6          1           0        0.654242   -0.438086   -0.059941
      7          7           0       -1.418961   -0.665265    0.192179
      8          7           0       -1.934921    0.658792   -0.200540
      9          7           0        2.339879    0.342743    0.204489
     10          7           0        1.578819   -0.405381   -0.424736
 ---------------------------------------------------------------------

 SCF Done:  E(RHF) =  -221.261609498     A.U. after    2 cycles

 The electronic state is 1-A.
 Alpha  occ. eigenvalues --  -15.69129 -15.67441 -15.66831 -15.65791  -1.29860
 Alpha  occ. eigenvalues --   -1.21470  -1.00689  -0.89081  -0.73992  -0.70871
 Alpha  occ. eigenvalues --   -0.62745  -0.62481  -0.55149  -0.50049  -0.49685
 Alpha  occ. eigenvalues --   -0.39365  -0.36297
 Alpha virt. eigenvalues --    0.02376   0.03461   0.04582   0.05743   0.07605
 Alpha virt. eigenvalues --    0.08665   0.11377   0.13399   0.15459   0.15665
 Alpha virt. eigenvalues --    0.16244   0.17052   0.19274   0.19771   0.20313

 Mulliken charges:
               1
     1  H    0.074297
     2  H    0.086617
     3  H    0.117122
     4  H    0.060930
     5  H    0.050586
     6  H    0.113932
     7  N   -0.320589
     8  N   -0.105250
     9  N   -0.156749
    10  N    0.079103
 Sum of Mulliken charges =  -0.00000

 Dipole moment (field-independent basis, Debye):
    X=             -2.8458    Y=              0.6128    Z=              2.7576  Tot=              4.0098

 Test job not archived.
 1\1\GINC-SE072\SP\RHF\Aug-CC-pVDZ\H6N4\OHZDE\08-Apr-2025\0\\#t hf aug-
 cc-pvdz iop(5/13=1,5/36=2,99/5=2) pseudo=read geom=check guess=(read,t
 check) scf=(maxcycle=1)\\title\\0,1\H,0,-1.41987,-0.914941,1.20138\H,0
 ,-1.81603,-1.39038,-0.381727\H,0,-1.21432,1.17464,-0.806299\H,0,-2.000
 47,1.22605,0.630892\H,0,1.84274,0.826498,1.01595\H,0,0.654243,-0.43808
 6,-0.0599406\N,0,-1.41896,-0.665265,0.192179\N,0,-1.93492,0.658792,-0.
 20054\N,0,2.33988,0.342742,0.204489\N,0,1.57882,-0.405382,-0.424736\\V
 ersion=ES64L-G16RevC.01\State=1-A\HF=-221.2616095\RMSD=1.737e-03\Dipol

 Normal termination of Gaussian 16 at Tue Apr  8 21:11:22 2025.
