 Gaussian 16, Revision C.01,

 ----------------------------------------------------------------------
 #t hf aug-cc-pvdz symm=none int=(grid=ultrafine) guess=(read,tcheck) s
 table=(opt,rrhf)
 ----------------------------------------------------------------------
 -----
 title
 -----
 Symbolic Z-matrix:
 Charge =  0 Multiplicity = 1

 SCF Done:  E(RHF) =  -460.270095492     A.U. after   16 cycles
 Normal termination of Gaussian 16 at Tue Apr  8 21:21:36 2025.
 Gaussian 16:  ES64L-G16RevC.01  3-Jul-2019

 ----------------------------------------------------------------------
 #t hf aug-cc-pvdz iop(5/13=1,5/36=2,99/5=2) pseudo=read geom=check gue
 ss=(read,tcheck) scf=(maxcycle=1)
 ----------------------------------------------------------------------
 -----
 title
 -----
 Structure from the checkpoint file:  "ANI1ccx_373_conf5_mol1.chk"
 Charge =  0 Multiplicity = 1

                         Standard orientation:
 ---------------------------------------------------------------------
 Center     Atomic      Atomic             Coordinates (Angstroms)
 Number     Number       Type             X           Y           Z
 ---------------------------------------------------------------------
      1          6           0        0.039756   -0.050599    0.020738
      2          1           0        2.817241   -1.090231   -0.152365
      3          7           0       -1.422909   -0.031447   -0.058248
      4          7           0        0.726644    1.112769    0.088198
      5          7           0        1.932401    0.764250    0.056049
      6          7           0        1.967431   -0.528942   -0.043786
      7          7           0        0.844086   -1.118701   -0.062117
      8          8           0       -2.000839   -1.094160    0.113689
      9          8           0       -1.922829    1.095200   -0.092779
 ---------------------------------------------------------------------

 SCF Done:  E(RHF) =  -460.400013040     A.U. after    2 cycles

 The electronic state is 1-A.
 Alpha  occ. eigenvalues --  -20.64746 -20.64306 -15.95207 -15.82139 -15.77151
 Alpha  occ. eigenvalues --  -15.75832 -15.72972 -11.40266  -1.57465  -1.54514
 Alpha  occ. eigenvalues --   -1.39095  -1.31198  -1.21528  -1.04630  -0.95794
 Alpha  occ. eigenvalues --   -0.88795  -0.83311  -0.78166  -0.76937  -0.75334
 Alpha  occ. eigenvalues --   -0.72807  -0.62843  -0.55928  -0.54516  -0.53851
 Alpha  occ. eigenvalues --   -0.50571  -0.50041  -0.49054  -0.45113
 Alpha virt. eigenvalues --    0.01431   0.02230   0.06841   0.07587   0.08203
 Alpha virt. eigenvalues --    0.10264   0.11488   0.12087   0.13019   0.14861
 Alpha virt. eigenvalues --    0.15688   0.17033   0.17398   0.18198   0.18761

 Mulliken charges:
               1
     1  C    1.102559
     2  H    0.055791
     3  N    0.411379
     4  N   -0.250390
     5  N   -0.131477
     6  N    0.270178
     7  N   -0.378617
     8  O   -0.543332
     9  O   -0.536091
 Sum of Mulliken charges =  -0.00000

 Dipole moment (field-independent basis, Debye):
    X=              5.3566    Y=             -2.2885    Z=             -0.4226  Tot=              5.8403

 Test job not archived.
 1\1\GINC-SE110\SP\RHF\Aug-CC-pVDZ\C1H1N5O2\OHZDE\08-Apr-2025\0\\#t hf
 aug-cc-pvdz iop(5/13=1,5/36=2,99/5=2) pseudo=read geom=check guess=(re
 ad,tcheck) scf=(maxcycle=1)\\title\\0,1\C,0,0.0397547,-0.0505985,0.020
 7375\H,0,2.81724,-1.09023,-0.152365\N,0,-1.42291,-0.0314465,-0.058248\
 N,0,0.726643,1.11277,0.0881978\N,0,1.9324,0.764251,0.0560485\N,0,1.967
 43,-0.528941,-0.0437863\N,0,0.844085,-1.1187,-0.0621173\O,0,-2.00084,-
 1.09416,0.113689\O,0,-1.92283,1.0952,-0.0927794\\Version=ES64L-G16RevC
 .01\State=1-A\HF=-460.400013\RMSD=3.774e-03\Dipole=2.1074556,-0.900377

 Normal termination of Gaussian 16 at Tue Apr  8 21:21:40 2025.
