 Gaussian 16, Revision C.01,

 ----------------------------------------------------------------------
 #t hf aug-cc-pvdz symm=none int=(grid=ultrafine) guess=(read,tcheck) s
 table=(opt,rrhf)
 ----------------------------------------------------------------------
 -----
 title
 -----
 Symbolic Z-matrix:
 Charge =  0 Multiplicity = 1

 SCF Done:  E(RHF) =  -681.666622212     A.U. after   14 cycles
 Normal termination of Gaussian 16 at Tue Apr  8 19:34:15 2025.
 Gaussian 16:  ES64L-G16RevC.01  3-Jul-2019

 ----------------------------------------------------------------------
 #t hf aug-cc-pvdz iop(5/13=1,5/36=2,99/5=2) pseudo=read geom=check gue
 ss=(read,tcheck) scf=(maxcycle=1)
 ----------------------------------------------------------------------
 -----
 title
 -----
 Structure from the checkpoint file:  "ANI1ccx_1434_conf5_mol1.chk"
 Charge =  0 Multiplicity = 1

                         Standard orientation:
 ---------------------------------------------------------------------
 Center     Atomic      Atomic             Coordinates (Angstroms)
 Number     Number       Type             X           Y           Z
 ---------------------------------------------------------------------
      1          6           0        1.933889    0.684273    0.091162
      2          6           0        0.494400    1.098690    0.026294
      3          6           0        2.214489   -0.664158   -0.645077
      4          6           0        3.736829   -0.868561   -0.687108
      5          6           0       -1.879371    0.550327    0.143538
      6          6           0       -2.680741   -0.731500    0.245238
      7          6           0       -2.393101    1.400590   -1.041480
      8          1           0       -1.569580   -1.747960   -1.044950
      9          1           0       -3.468691    1.388219   -0.964363
     10          1           0       -2.012081    2.458040   -1.027310
     11          1           0       -2.186991    0.928642   -2.022660
     12          1           0       -2.190581    1.140150    1.059090
     13          1           0       -0.296585   -0.729789    0.077270
     14          1           0        3.980990   -1.903179   -0.857701
     15          1           0        4.158219   -0.210570   -1.439770
     16          1           0        4.156749   -0.552687    0.279431
     17          1           0        1.917160   -1.620719    0.914053
     18          1           0        1.806289   -0.572024   -1.715980
     19          1           0        2.499839    1.527591   -0.365507
     20          1           0        3.155259    1.197081    1.614750
     21          1           0        1.813699    0.712923    2.270420
     22          7           0        2.405429    0.578549    1.470750
     23          7           0       -0.501818    0.217564    0.149512
     24          8           0        0.190583    2.272580   -0.185465
     25          8           0        1.509870   -1.632029    0.053553
     26          8           0       -3.773911   -0.787249    0.774275
     27          8           0       -2.132460   -1.904110   -0.256618
 ---------------------------------------------------------------------

 SCF Done:  E(RHF) =  -681.875546270     A.U. after    2 cycles

 The electronic state is 1-A.
 Alpha  occ. eigenvalues --  -20.63340 -20.59847 -20.57225 -20.53856 -15.65564
 Alpha  occ. eigenvalues --  -15.63512 -11.41102 -11.37001 -11.32213 -11.31260
 Alpha  occ. eigenvalues --  -11.30154 -11.24303 -11.24285  -1.41532  -1.37746
 Alpha  occ. eigenvalues --   -1.35801  -1.32777  -1.22833  -1.18967  -1.05549
 Alpha  occ. eigenvalues --   -1.03679  -0.96238  -0.91379  -0.85400  -0.83685
 Alpha  occ. eigenvalues --   -0.80941  -0.78059  -0.73274  -0.71090  -0.69521
 Alpha  occ. eigenvalues --   -0.68609  -0.66317  -0.66226  -0.64292  -0.63817
 Alpha  occ. eigenvalues --   -0.61995  -0.60894  -0.59063  -0.58417  -0.56291
 Alpha  occ. eigenvalues --   -0.56047  -0.54847  -0.53767  -0.52625  -0.50085
 Alpha  occ. eigenvalues --   -0.49750  -0.48494  -0.47413  -0.45692  -0.40761
 Alpha  occ. eigenvalues --   -0.40113
 Alpha virt. eigenvalues --    0.02440   0.02939   0.03667   0.04015   0.05304
 Alpha virt. eigenvalues --    0.05426   0.06420   0.06590   0.06671   0.07630
 Alpha virt. eigenvalues --    0.07967   0.08490   0.09479   0.10165   0.10835

 Mulliken charges:
               1
     1  C    0.898178
     2  C   -0.099030
     3  C    0.123603
     4  C    0.643970
     5  C   -0.314792
     6  C    0.756203
     7  C    0.607099
     8  H    0.199287
     9  H   -0.122343
    10  H    0.074478
    11  H   -0.032713
    12  H   -0.084564
    13  H    0.022164
    14  H   -0.043747
    15  H   -0.029276
    16  H   -0.014722
    17  H    0.240105
    18  H   -0.160688
    19  H   -0.167392
    20  H   -0.029968
    21  H   -0.053892
    22  N   -0.267527
    23  N    0.070238
    24  O   -0.529074
    25  O   -0.628364
    26  O   -0.491254
    27  O   -0.565981
 Sum of Mulliken charges =  -0.00000

 Dipole moment (field-independent basis, Debye):
    X=              5.7622    Y=              0.0801    Z=             -1.0145  Tot=              5.8514

 Test job not archived.
 1\1\GINC-SE368\SP\RHF\Aug-CC-pVDZ\C7H14N2O4\OHZDE\08-Apr-2025\0\\#t hf
  aug-cc-pvdz iop(5/13=1,5/36=2,99/5=2) pseudo=read geom=check guess=(r
 ead,tcheck) scf=(maxcycle=1)\\title\\0,1\C,0,1.93389,0.684272,0.091161
 3\C,0,0.494401,1.09869,0.0262936\C,0,2.21449,-0.664159,-0.645077\C,0,3
 .73683,-0.868562,-0.687108\C,0,-1.87937,0.550327,0.143538\C,0,-2.68074
 ,-0.731499,0.245238\C,0,-2.3931,1.40059,-1.04148\H,0,-1.56958,-1.74796
 ,-1.04495\H,0,-3.46869,1.38822,-0.964363\H,0,-2.01208,2.45804,-1.02731
 \H,0,-2.18699,0.928642,-2.02266\H,0,-2.19058,1.14015,1.05909\H,0,-0.29

 Normal termination of Gaussian 16 at Tue Apr  8 19:34:43 2025.
