 Gaussian 16, Revision C.01,

 ----------------------------------------------------------------------
 #t hf aug-cc-pvdz symm=none int=(grid=ultrafine) guess=(read,tcheck) s
 table=(opt,rrhf)
 ----------------------------------------------------------------------
 -----
 title
 -----
 Symbolic Z-matrix:
 Charge =  0 Multiplicity = 1

 SCF Done:  E(RHF) =  -717.515322063     A.U. after   14 cycles
 Normal termination of Gaussian 16 at Tue Apr  8 19:20:15 2025.
 Gaussian 16:  ES64L-G16RevC.01  3-Jul-2019

 ----------------------------------------------------------------------
 #t hf aug-cc-pvdz iop(5/13=1,5/36=2,99/5=2) pseudo=read geom=check gue
 ss=(read,tcheck) scf=(maxcycle=1)
 ----------------------------------------------------------------------
 -----
 title
 -----
 Structure from the checkpoint file:  "ANI1ccx_1215_conf13_mol2.chk"
 Charge =  0 Multiplicity = 1

                         Standard orientation:
 ---------------------------------------------------------------------
 Center     Atomic      Atomic             Coordinates (Angstroms)
 Number     Number       Type             X           Y           Z
 ---------------------------------------------------------------------
      1          6           0        1.374700    0.009688   -0.257318
      2          6           0        0.647772   -0.114016    1.133841
      3          6           0        2.593230   -0.827062   -0.143634
      4          6           0       -1.749010    0.344391    0.432901
      5          6           0       -2.128170   -0.924729   -0.366588
      6          6           0       -1.579221    1.441629   -0.572154
      7          1           0       -2.150079   -2.782302   -0.324227
      8          1           0        0.053688    2.443900   -0.223801
      9          1           0       -1.076951    1.090629   -1.476249
     10          1           0       -2.622531    1.712988   -0.867789
     11          1           0       -2.664980    0.535198    1.030941
     12          1           0       -0.914043    0.042348    2.313631
     13          1           0        2.373361   -1.855859    0.191830
     14          1           0        3.227940   -0.378915    0.618930
     15          1           0        0.825095   -0.379047   -1.086439
     16          1           0        2.232829    1.461881   -1.368849
     17          1           0        2.225549    1.790331    0.269088
     18          1           0        2.843910   -1.250459   -2.057089
     19          7           0        1.663599    1.404420   -0.504309
     20          7           0       -0.662308    0.198503    1.354401
     21          8           0       -0.902400    2.581299   -0.112252
     22          8           0        1.313420   -0.388959    2.092871
     23          8           0        3.312760   -0.808389   -1.362049
     24          8           0       -2.706200   -0.939030   -1.408299
     25          8           0       -1.807409   -2.098741    0.248121
 ---------------------------------------------------------------------

 SCF Done:  E(RHF) =  -717.737691619     A.U. after    2 cycles

 The electronic state is 1-A.
 Alpha  occ. eigenvalues --  -20.63977 -20.58805 -20.58795 -20.55593 -20.55315
 Alpha  occ. eigenvalues --  -15.66071 -15.64776 -11.41845 -11.38115 -11.32073
 Alpha  occ. eigenvalues --  -11.30232 -11.29533 -11.29454  -1.45156  -1.38524
 Alpha  occ. eigenvalues --   -1.35102  -1.34612  -1.31789  -1.22193  -1.19568
 Alpha  occ. eigenvalues --   -1.04702  -1.01212  -0.91334  -0.89415  -0.84169
 Alpha  occ. eigenvalues --   -0.79479  -0.75641  -0.74179  -0.73877  -0.72294
 Alpha  occ. eigenvalues --   -0.70643  -0.68618  -0.67269  -0.66065  -0.65293
 Alpha  occ. eigenvalues --   -0.64111  -0.63584  -0.62116  -0.59799  -0.58750
 Alpha  occ. eigenvalues --   -0.57982  -0.56330  -0.52696  -0.51651  -0.51255
 Alpha  occ. eigenvalues --   -0.49995  -0.48929  -0.46543  -0.45721  -0.42358
 Alpha  occ. eigenvalues --   -0.40530
 Alpha virt. eigenvalues --    0.02390   0.03162   0.03776   0.04437   0.05094
 Alpha virt. eigenvalues --    0.06090   0.06543   0.07182   0.07395   0.08189
 Alpha virt. eigenvalues --    0.09087   0.09669   0.10752   0.11285   0.11885

 Mulliken charges:
               1
     1  C    0.267740
     2  C    0.559647
     3  C    1.175555
     4  C   -0.427486
     5  C    0.742048
     6  C    1.348018
     7  H    0.187714
     8  H    0.266068
     9  H   -0.199891
    10  H   -0.077512
    11  H    0.029714
    12  H   -0.116058
    13  H   -0.052904
    14  H   -0.099723
    15  H   -0.479898
    16  H    0.145047
    17  H    0.130818
    18  H    0.137168
    19  N   -0.673258
    20  N   -0.192105
    21  O   -0.571145
    22  O   -0.506405
    23  O   -0.574058
    24  O   -0.467719
    25  O   -0.551374
 Sum of Mulliken charges =  -0.00000

 Dipole moment (field-independent basis, Debye):
    X=             -0.7389    Y=             -1.9621    Z=             -1.3339  Tot=              2.4849

 Test job not archived.
 1\1\GINC-SE039\SP\RHF\Aug-CC-pVDZ\C6H12N2O5\OHZDE\08-Apr-2025\0\\#t hf
  aug-cc-pvdz iop(5/13=1,5/36=2,99/5=2) pseudo=read geom=check guess=(r
 ead,tcheck) scf=(maxcycle=1)\\title\\0,1\C,0,1.3747,0.00968825,-0.2573
 19\C,0,0.647772,-0.114016,1.13384\C,0,2.59323,-0.827063,-0.143635\C,0,
 -1.74901,0.344392,0.4329\C,0,-2.12817,-0.924727,-0.366589\C,0,-1.57922
 ,1.44163,-0.572155\H,0,-2.15008,-2.7823,-0.324228\H,0,0.0536896,2.4439
 ,-0.223802\H,0,-1.07695,1.09063,-1.47625\H,0,-2.62253,1.71299,-0.86779
 \H,0,-2.66498,0.5352,1.03094\H,0,-0.914043,0.0423491,2.31363\H,0,2.373

 Normal termination of Gaussian 16 at Tue Apr  8 19:20:38 2025.
