 Gaussian 16, Revision C.01,

 ----------------------------------------------------------------------
 #t hf aug-cc-pvdz symm=none int=(grid=ultrafine) guess=(read,tcheck) s
 table=(opt,rrhf)
 ----------------------------------------------------------------------
 -----
 title
 -----
 Symbolic Z-matrix:
 Charge =  0 Multiplicity = 1

 SCF Done:  E(RHF) =  -428.572608388     A.U. after   14 cycles
 Normal termination of Gaussian 16 at Tue Apr  8 21:36:48 2025.
 Gaussian 16:  ES64L-G16RevC.01  3-Jul-2019

 ----------------------------------------------------------------------
 #t hf aug-cc-pvdz iop(5/13=1,5/36=2,99/5=2) pseudo=read geom=check gue
 ss=(read,tcheck) scf=(maxcycle=1)
 ----------------------------------------------------------------------
 -----
 title
 -----
 Structure from the checkpoint file:  "ANI1ccx_419_conf7_mol1.chk"
 Charge =  0 Multiplicity = 1

                         Standard orientation:
 ---------------------------------------------------------------------
 Center     Atomic      Atomic             Coordinates (Angstroms)
 Number     Number       Type             X           Y           Z
 ---------------------------------------------------------------------
      1          6           0       -0.122107   -0.348985    0.045576
      2          1           0        1.788311    1.527950   -0.112381
      3          1           0       -0.788223    1.475771   -0.185676
      4          1           0       -1.499780   -1.638119    0.187433
      5          1           0       -2.889269    0.513029    0.304389
      6          1           0        2.643820   -1.490420   -0.013691
      7          7           0        0.013684    0.935074   -0.349251
      8          7           0       -1.422060   -0.673107    0.436343
      9          7           0        0.852233   -1.194240    0.130449
     10          8           0        0.972697    1.722850    0.342207
     11          8           0       -2.355280    0.015006   -0.337442
     12          8           0        2.053930   -0.708905   -0.251804
 ---------------------------------------------------------------------

 SCF Done:  E(RHF) =  -428.702712356     A.U. after    2 cycles

 The electronic state is 1-A.
 Alpha  occ. eigenvalues --  -20.64421 -20.62184 -20.61490 -15.71181 -15.68688
 Alpha  occ. eigenvalues --  -15.66589 -11.35711  -1.42798  -1.40261  -1.37382
 Alpha  occ. eigenvalues --   -1.21571  -1.09872  -1.06046  -0.82830  -0.78143
 Alpha  occ. eigenvalues --   -0.75035  -0.72475  -0.69643  -0.68368  -0.66464
 Alpha  occ. eigenvalues --   -0.63203  -0.62421  -0.55832  -0.54908  -0.50348
 Alpha  occ. eigenvalues --   -0.44234  -0.43329  -0.34518
 Alpha virt. eigenvalues --    0.03017   0.03859   0.04473   0.06635   0.07658
 Alpha virt. eigenvalues --    0.08821   0.13056   0.13471   0.14558   0.15312
 Alpha virt. eigenvalues --    0.15387   0.17270   0.18143   0.18428   0.19391

 Mulliken charges:
               1
     1  C    1.177842
     2  H    0.201012
     3  H    0.077500
     4  H    0.103675
     5  H    0.229412
     6  H    0.255236
     7  N   -0.116902
     8  N   -0.079316
     9  N   -0.247659
    10  O   -0.473591
    11  O   -0.529123
    12  O   -0.598086
 Sum of Mulliken charges =  -0.00000

 Dipole moment (field-independent basis, Debye):
    X=             -1.0865    Y=             -0.3651    Z=              0.4476  Tot=              1.2305

 Test job not archived.
 1\1\GINC-SE455\SP\RHF\Aug-CC-pVDZ\C1H5N3O3\OHZDE\08-Apr-2025\0\\#t hf
 aug-cc-pvdz iop(5/13=1,5/36=2,99/5=2) pseudo=read geom=check guess=(re
 ad,tcheck) scf=(maxcycle=1)\\title\\0,1\C,0,-0.122107,-0.348985,0.0455
 761\H,0,1.78831,1.52795,-0.112381\H,0,-0.788224,1.47577,-0.185676\H,0,
 -1.49978,-1.63812,0.187433\H,0,-2.88927,0.513028,0.304389\H,0,2.64382,
 -1.49042,-0.0136909\N,0,0.0136835,0.935074,-0.349251\N,0,-1.42206,-0.6
 73108,0.436343\N,0,0.852233,-1.19424,0.130449\O,0,0.972696,1.72285,0.3
 42207\O,0,-2.35528,0.015005,-0.337442\O,0,2.05393,-0.708905,-0.251804\

 Normal termination of Gaussian 16 at Tue Apr  8 21:36:52 2025.
