 Gaussian 16, Revision C.01,

 ----------------------------------------------------------------------
 #t hf aug-cc-pvdz symm=none int=(grid=ultrafine) guess=(read,tcheck) s
 table=(opt,rrhf)
 ----------------------------------------------------------------------
 -----
 title
 -----
 Symbolic Z-matrix:
 Charge =  0 Multiplicity = 1

 SCF Done:  E(RHF) =  -298.815799660     A.U. after   14 cycles
 Normal termination of Gaussian 16 at Tue Apr  8 21:34:32 2025.
 Gaussian 16:  ES64L-G16RevC.01  3-Jul-2019

 ----------------------------------------------------------------------
 #t hf aug-cc-pvdz iop(5/13=1,5/36=2,99/5=2) pseudo=read geom=check gue
 ss=(read,tcheck) scf=(maxcycle=1)
 ----------------------------------------------------------------------
 -----
 title
 -----
 Structure from the checkpoint file:  "ANI1ccx_398_conf30_mol1.chk"
 Charge =  0 Multiplicity = 1

                         Standard orientation:
 ---------------------------------------------------------------------
 Center     Atomic      Atomic             Coordinates (Angstroms)
 Number     Number       Type             X           Y           Z
 ---------------------------------------------------------------------
      1          6           0       -0.459726    0.170478    0.042347
      2          1           0       -1.720910   -1.275609   -0.614900
      3          1           0       -2.569940    0.128317   -0.025605
      4          1           0        0.558197   -1.576379    0.661354
      5          1           0        1.553680    0.863688   -0.102259
      6          7           0       -1.681220   -0.460036    0.026123
      7          7           0        0.561681   -0.819809   -0.014185
      8          8           0       -0.218508    1.341731    0.023917
      9          8           0        1.815270   -0.117227   -0.055946
 ---------------------------------------------------------------------

 SCF Done:  E(RHF) =  -298.910025348     A.U. after    2 cycles

 The electronic state is 1-A.
 Alpha  occ. eigenvalues --  -20.60533 -20.57396 -15.70176 -15.67286 -11.41810
 Alpha  occ. eigenvalues --   -1.41726  -1.33617  -1.20806  -1.08129  -0.83488
 Alpha  occ. eigenvalues --   -0.77171  -0.72130  -0.68956  -0.65845  -0.62540
 Alpha  occ. eigenvalues --   -0.56976  -0.55826  -0.50226  -0.45665  -0.40646
 Alpha virt. eigenvalues --    0.02573   0.04163   0.05127   0.06259   0.10610
 Alpha virt. eigenvalues --    0.11782   0.12767   0.14305   0.15668   0.16475
 Alpha virt. eigenvalues --    0.16661   0.17762   0.18658   0.19289   0.20713

 Mulliken charges:
               1
     1  C    0.812769
     2  H    0.084671
     3  H    0.072519
     4  H    0.075154
     5  H    0.234671
     6  N   -0.315177
     7  N    0.009784
     8  O   -0.432728
     9  O   -0.541663
 Sum of Mulliken charges =   0.00000

 Dipole moment (field-independent basis, Debye):
    X=             -3.1981    Y=             -2.3150    Z=              0.0966  Tot=              3.9492

 Test job not archived.
 1\1\GINC-SE109\SP\RHF\Aug-CC-pVDZ\C1H4N2O2\OHZDE\08-Apr-2025\0\\#t hf
 aug-cc-pvdz iop(5/13=1,5/36=2,99/5=2) pseudo=read geom=check guess=(re
 ad,tcheck) scf=(maxcycle=1)\\title\\0,1\C,0,-0.459726,0.170477,0.04234
 67\H,0,-1.72091,-1.27561,-0.6149\H,0,-2.56994,0.128316,-0.0256055\H,0,
 0.558197,-1.57638,0.661354\H,0,1.55368,0.863688,-0.102259\N,0,-1.68122
 ,-0.460037,0.0261231\N,0,0.561681,-0.81981,-0.0141851\O,0,-0.218509,1.
 34173,0.0239166\O,0,1.81527,-0.117227,-0.0559461\\Version=ES64L-G16Rev
 C.01\State=1-A\HF=-298.9100253\RMSD=2.349e-03\Dipole=-1.2582299,-0.910

 Normal termination of Gaussian 16 at Tue Apr  8 21:34:35 2025.
