 Gaussian 16, Revision C.01,

 ----------------------------------------------------------------------
 #t hf aug-cc-pvdz symm=none int=(grid=ultrafine) guess=(read,tcheck) s
 table=(opt,rrhf)
 ----------------------------------------------------------------------
 -----
 title
 -----
 Symbolic Z-matrix:
 Charge =  0 Multiplicity = 1

 SCF Done:  E(RHF) =  -218.963129367     A.U. after   14 cycles
 Normal termination of Gaussian 16 at Tue Apr  8 21:09:18 2025.
 Gaussian 16:  ES64L-G16RevC.01  3-Jul-2019

 ----------------------------------------------------------------------
 #t hf aug-cc-pvdz iop(5/13=1,5/36=2,99/5=2) pseudo=read geom=check gue
 ss=(read,tcheck) scf=(maxcycle=1)
 ----------------------------------------------------------------------
 -----
 title
 -----
 Structure from the checkpoint file:  "ANI1ccx_1861_conf13_mol1.chk"
 Charge =  0 Multiplicity = 1

                         Standard orientation:
 ---------------------------------------------------------------------
 Center     Atomic      Atomic             Coordinates (Angstroms)
 Number     Number       Type             X           Y           Z
 ---------------------------------------------------------------------
      1          1           0       -0.782560    1.063300    0.498485
      2          1           0       -0.996555   -0.886037    0.812022
      3          7           0       -1.522072    0.650368   -0.121912
      4          7           0       -1.564733   -0.588027   -0.015730
      5          7           0        1.450487   -0.518789   -0.124720
      6          7           0        1.890477    0.431124    0.075147
 ---------------------------------------------------------------------

 SCF Done:  E(RHF) =  -219.029465627     A.U. after    2 cycles

 The electronic state is 1-A.
 Alpha  occ. eigenvalues --  -15.76313 -15.75920 -15.70782 -15.70622  -1.46760
 Alpha  occ. eigenvalues --   -1.31684  -0.89969  -0.76268  -0.74962  -0.64429
 Alpha  occ. eigenvalues --   -0.64051  -0.63944  -0.56847  -0.51487  -0.40415
 Alpha virt. eigenvalues --    0.04100   0.04635   0.09673   0.10687   0.11919
 Alpha virt. eigenvalues --    0.12533   0.12693   0.14782   0.16173   0.16592
 Alpha virt. eigenvalues --    0.17406   0.19228   0.20619   0.21277   0.22166

 Mulliken charges:
               1
     1  H    0.066809
     2  H    0.083952
     3  N   -0.068450
     4  N   -0.065333
     5  N    0.041483
     6  N   -0.058461
 Sum of Mulliken charges =  -0.00000

 Dipole moment (field-independent basis, Debye):
    X=              2.1180    Y=              0.0936    Z=              2.1219  Tot=              2.9996

 Test job not archived.
 1\1\GINC-SE402\SP\RHF\Aug-CC-pVDZ\H2N4\OHZDE\08-Apr-2025\0\\#t hf aug-
 cc-pvdz iop(5/13=1,5/36=2,99/5=2) pseudo=read geom=check guess=(read,t
 check) scf=(maxcycle=1)\\title\\0,1\H,0,-0.782558,1.0633,0.498485\H,0,
 -0.996552,-0.886037,0.812022\N,0,-1.52207,0.650368,-0.121912\N,0,-1.56
 473,-0.588027,-0.0157302\N,0,1.45049,-0.518789,-0.12472\N,0,1.89048,0.
 431125,0.0751466\\Version=ES64L-G16RevC.01\State=1-A\HF=-219.0294656\R
 MSD=2.447e-03\Dipole=0.8333027,0.0368156,0.8348201\Quadrupole=-2.58275
 41,0.6053324,1.9774217,-0.3532716,-2.2889726,-0.1428731\PG=C01 [X(H2N4

 Normal termination of Gaussian 16 at Tue Apr  8 21:09:19 2025.
