 Gaussian 16, Revision C.01,

 ----------------------------------------------------------------------
 #t hf aug-cc-pvdz symm=none int=(grid=ultrafine) guess=(read,tcheck) s
 table=(opt,rrhf)
 ----------------------------------------------------------------------
 -----
 title
 -----
 Symbolic Z-matrix:
 Charge =  0 Multiplicity = 1

 SCF Done:  E(RHF) =  -276.581205007     A.U. after   15 cycles
 Normal termination of Gaussian 16 at Tue Apr  8 21:16:22 2025.
 Gaussian 16:  ES64L-G16RevC.01  3-Jul-2019

 ----------------------------------------------------------------------
 #t hf aug-cc-pvdz iop(5/13=1,5/36=2,99/5=2) pseudo=read geom=check gue
 ss=(read,tcheck) scf=(maxcycle=1)
 ----------------------------------------------------------------------
 -----
 title
 -----
 Structure from the checkpoint file:  "ANI1ccx_370_conf76_mol1.chk"
 Charge =  0 Multiplicity = 1

                         Standard orientation:
 ---------------------------------------------------------------------
 Center     Atomic      Atomic             Coordinates (Angstroms)
 Number     Number       Type             X           Y           Z
 ---------------------------------------------------------------------
      1          6           0        1.048579    0.107585   -0.004295
      2          1           0        2.167439    0.016303    0.136062
      3          7           0        0.301805    1.150011   -0.035968
      4          7           0       -1.029951    0.590420    0.042510
      5          7           0       -0.969480   -0.676016   -0.018542
      6          8           0        0.428059   -1.014089   -0.003286
 ---------------------------------------------------------------------

 SCF Done:  E(RHF) =  -276.661647048     A.U. after    2 cycles

 The electronic state is 1-A.
 Alpha  occ. eigenvalues --  -20.71235 -15.79595 -15.77077 -15.69852 -11.40182
 Alpha  occ. eigenvalues --   -1.54453  -1.32495  -1.21070  -0.93283  -0.88761
 Alpha  occ. eigenvalues --   -0.78201  -0.73852  -0.65025  -0.59725  -0.53734
 Alpha  occ. eigenvalues --   -0.52082  -0.50075  -0.45647
 Alpha virt. eigenvalues --    0.02730   0.06630   0.07599   0.09259   0.09782
 Alpha virt. eigenvalues --    0.12823   0.13078   0.14684   0.15043   0.17657
 Alpha virt. eigenvalues --    0.18563   0.20135   0.20929   0.23247   0.23912

 Mulliken charges:
               1
     1  C    0.747580
     2  H   -0.053870
     3  N   -0.312323
     4  N   -0.062844
     5  N    0.111246
     6  O   -0.429789
 Sum of Mulliken charges =  -0.00000

 Dipole moment (field-independent basis, Debye):
    X=              2.6924    Y=             -0.7647    Z=              0.1270  Tot=              2.8018

 Test job not archived.
 1\1\GINC-SE219\SP\RHF\Aug-CC-pVDZ\C1H1N3O1\OHZDE\08-Apr-2025\0\\#t hf
 aug-cc-pvdz iop(5/13=1,5/36=2,99/5=2) pseudo=read geom=check guess=(re
 ad,tcheck) scf=(maxcycle=1)\\title\\0,1\C,0,1.04858,0.107584,-0.004294
 79\H,0,2.16744,0.0163012,0.136062\N,0,0.301806,1.15001,-0.0359676\N,0,
 -1.02995,0.590419,0.0425097\N,0,-0.969479,-0.676017,-0.0185424\O,0,0.4
 2806,-1.01409,-0.00328646\\Version=ES64L-G16RevC.01\State=1-A\HF=-276.
 661647\RMSD=3.009e-03\Dipole=1.0592594,-0.3008721,0.0499681\Quadrupole
 =2.8771871,-3.6216502,0.744463,-0.3682709,0.2642836,0.0341297\PG=C01 [

 Normal termination of Gaussian 16 at Tue Apr  8 21:16:24 2025.
