 Gaussian 16, Revision C.01,

 ----------------------------------------------------------------------
 #t hf aug-cc-pvdz symm=none int=(grid=ultrafine) guess=(read,tcheck) s
 table=(opt,rrhf)
 ----------------------------------------------------------------------
 -----
 title
 -----
 Symbolic Z-matrix:
 Charge =  0 Multiplicity = 1

 SCF Done:  E(RHF) =  -408.765174271     A.U. after   13 cycles
 Normal termination of Gaussian 16 at Tue Apr  8 21:38:51 2025.
 Gaussian 16:  ES64L-G16RevC.01  3-Jul-2019

 ----------------------------------------------------------------------
 #t hf aug-cc-pvdz iop(5/13=1,5/36=2,99/5=2) pseudo=read geom=check gue
 ss=(read,tcheck) scf=(maxcycle=1)
 ----------------------------------------------------------------------
 -----
 title
 -----
 Structure from the checkpoint file:  "ANI1ccx_432_conf4_mol1.chk"
 Charge =  0 Multiplicity = 1

                         Standard orientation:
 ---------------------------------------------------------------------
 Center     Atomic      Atomic             Coordinates (Angstroms)
 Number     Number       Type             X           Y           Z
 ---------------------------------------------------------------------
      1          6           0       -0.281359   -0.256238    0.110157
      2          1           0        1.190437    2.170382    1.065150
      3          1           0        1.536507    2.233352   -0.590364
      4          1           0       -0.664831    1.671070   -0.480044
      5          1           0        0.425864   -2.145559    0.408865
      6          1           0        2.633900   -0.794464    0.139783
      7          1           0       -3.304110   -0.293026   -0.080441
      8          7           0        1.304888    1.642572    0.184987
      9          7           0        0.061028    1.047581   -0.113547
     10          7           0        0.758407   -1.181848    0.368629
     11          7           0       -1.497570   -0.776434    0.148941
     12          8           0        1.914621   -1.039807   -0.465066
     13          8           0       -2.479231    0.236380   -0.190803
 ---------------------------------------------------------------------

 SCF Done:  E(RHF) =  -408.888419903     A.U. after    2 cycles

 The electronic state is 1-A.
 Alpha  occ. eigenvalues --  -20.61845 -20.59359 -15.68976 -15.67891 -15.67275
 Alpha  occ. eigenvalues --  -15.64611 -11.37039  -1.37066  -1.33601  -1.27317
 Alpha  occ. eigenvalues --   -1.16533  -1.04904  -1.01222  -0.81610  -0.72415
 Alpha  occ. eigenvalues --   -0.71605  -0.70751  -0.68291  -0.66060  -0.64486
 Alpha  occ. eigenvalues --   -0.60632  -0.58755  -0.53068  -0.50439  -0.45343
 Alpha  occ. eigenvalues --   -0.43363  -0.40106  -0.32646
 Alpha virt. eigenvalues --    0.02781   0.03868   0.04538   0.04814   0.06932
 Alpha virt. eigenvalues --    0.07383   0.11465   0.13243   0.14135   0.14488
 Alpha virt. eigenvalues --    0.15914   0.16145   0.16781   0.17643   0.18959

 Mulliken charges:
               1
     1  C    1.247154
     2  H    0.140906
     3  H    0.077388
     4  H    0.002769
     5  H    0.061136
     6  H    0.233993
     7  H    0.222642
     8  N   -0.235944
     9  N   -0.168822
    10  N   -0.186266
    11  N   -0.291895
    12  O   -0.517767
    13  O   -0.585294
 Sum of Mulliken charges =  -0.00000

 Dipole moment (field-independent basis, Debye):
    X=              1.5215    Y=              2.3860    Z=              0.8086  Tot=              2.9431

 Test job not archived.
 1\1\GINC-SE048\SP\RHF\Aug-CC-pVDZ\C1H6N4O2\OHZDE\08-Apr-2025\0\\#t hf
 aug-cc-pvdz iop(5/13=1,5/36=2,99/5=2) pseudo=read geom=check guess=(re
 ad,tcheck) scf=(maxcycle=1)\\title\\0,1\C,0,-0.281359,-0.256238,0.1101
 57\H,0,1.19044,2.17038,1.06515\H,0,1.53651,2.23335,-0.590364\H,0,-0.66
 4829,1.67107,-0.480044\H,0,0.425862,-2.14556,0.408865\H,0,2.6339,-0.79
 4468,0.139783\H,0,-3.30411,-0.293023,-0.0804411\N,0,1.30489,1.64257,0.
 184987\N,0,0.0610295,1.04758,-0.113547\N,0,0.758406,-1.18185,0.368629\
 N,0,-1.49757,-0.776433,0.148941\O,0,1.91462,-1.03981,-0.465066\O,0,-2.

 Normal termination of Gaussian 16 at Tue Apr  8 21:38:56 2025.
