 Gaussian 16, Revision C.01,

 ----------------------------------------------------------------------
 #t hf aug-cc-pvdz symm=none int=(grid=ultrafine) guess=(read,tcheck) s
 table=(opt,rrhf)
 ----------------------------------------------------------------------
 -----
 title
 -----
 Symbolic Z-matrix:
 Charge =  0 Multiplicity = 1

 SCF Done:  E(RHF) =  -604.230258615     A.U. after   14 cycles
 Normal termination of Gaussian 16 at Tue Apr  8 22:07:43 2025.
 Gaussian 16:  ES64L-G16RevC.01  3-Jul-2019

 ----------------------------------------------------------------------
 #t hf aug-cc-pvdz iop(5/13=1,5/36=2,99/5=2) pseudo=read geom=check gue
 ss=(read,tcheck) scf=(maxcycle=1)
 ----------------------------------------------------------------------
 -----
 title
 -----
 Structure from the checkpoint file:  "ANI1ccx_934_conf12_mol2.chk"
 Charge =  0 Multiplicity = 1

                         Standard orientation:
 ---------------------------------------------------------------------
 Center     Atomic      Atomic             Coordinates (Angstroms)
 Number     Number       Type             X           Y           Z
 ---------------------------------------------------------------------
      1          6           0        0.534738   -0.859744    0.387168
      2          6           0       -0.629272   -0.613124   -0.616867
      3          6           0       -1.109399    0.784697   -0.303558
      4          6           0        1.714001    0.002212    0.013562
      5          1           0       -0.734487   -1.131950    1.778990
      6          1           0        0.750433   -1.941519    0.395375
      7          1           0       -0.230966   -0.711505   -1.636240
      8          1           0       -2.462019   -1.160280   -0.730782
      9          1           0       -2.598290    1.775430    0.255077
     10          1           0        1.883471   -0.904020   -1.729060
     11          8           0        0.031684   -0.560732    1.704890
     12          8           0       -1.668119   -1.558860   -0.363791
     13          8           0       -2.420649    0.831099    0.042417
     14          8           0       -0.353325    1.747250   -0.327187
     15          8           0        2.239831   -0.271691   -1.170650
     16          8           0        2.212011    0.836633    0.712422
 ---------------------------------------------------------------------

 SCF Done:  E(RHF) =  -604.417484162     A.U. after    2 cycles

 The electronic state is 1-A.
 Alpha  occ. eigenvalues --  -20.66354 -20.63113 -20.62288 -20.59947 -20.59014
 Alpha  occ. eigenvalues --  -20.55822 -11.43250 -11.40698 -11.35792 -11.34699
 Alpha  occ. eigenvalues --   -1.45361  -1.44395  -1.37934  -1.35531  -1.34438
 Alpha  occ. eigenvalues --   -1.33327  -1.07648  -0.96808  -0.89691  -0.86139
 Alpha  occ. eigenvalues --   -0.79577  -0.75332  -0.74476  -0.72554  -0.72143
 Alpha  occ. eigenvalues --   -0.68389  -0.67084  -0.65922  -0.64793  -0.62874
 Alpha  occ. eigenvalues --   -0.60806  -0.59589  -0.57078  -0.55145  -0.52034
 Alpha  occ. eigenvalues --   -0.50195  -0.49290  -0.47847  -0.47090
 Alpha virt. eigenvalues --    0.02011   0.03117   0.04123   0.04576   0.06253
 Alpha virt. eigenvalues --    0.06571   0.08250   0.10343   0.10956   0.11336
 Alpha virt. eigenvalues --    0.12074   0.12781   0.13586   0.13856   0.14098

 Mulliken charges:
               1
     1  C    0.502813
     2  C    0.544721
     3  C    0.655837
     4  C    0.898770
     5  H    0.200080
     6  H   -0.031266
     7  H   -0.092021
     8  H    0.228434
     9  H    0.197739
    10  H    0.130732
    11  O   -0.613023
    12  O   -0.657673
    13  O   -0.552283
    14  O   -0.501435
    15  O   -0.460306
    16  O   -0.451121
 Sum of Mulliken charges =  -0.00000

 Dipole moment (field-independent basis, Debye):
    X=             -5.0322    Y=             -3.9171    Z=             -3.5707  Tot=              7.3086

 Test job not archived.
 1\1\GINC-SE099\SP\RHF\Aug-CC-pVDZ\C4H6O6\OHZDE\08-Apr-2025\0\\#t hf au
 g-cc-pvdz iop(5/13=1,5/36=2,99/5=2) pseudo=read geom=check guess=(read
 ,tcheck) scf=(maxcycle=1)\\title\\0,1\C,0,0.534737,-0.859745,0.387168\
 C,0,-0.629273,-0.613124,-0.616867\C,0,-1.1094,0.784697,-0.303558\C,0,1
 .714,0.00221145,0.0135614\H,0,-0.734488,-1.13195,1.77899\H,0,0.750432,
 -1.94152,0.395375\H,0,-0.230967,-0.711505,-1.63624\H,0,-2.46202,-1.160
 28,-0.730782\H,0,-2.59829,1.77543,0.255077\H,0,1.88347,-0.904021,-1.72
 906\O,0,0.0316838,-0.560732,1.70489\O,0,-1.66812,-1.55886,-0.363791\O,

 Normal termination of Gaussian 16 at Tue Apr  8 22:07:52 2025.
