 Gaussian 16, Revision C.01,

 ----------------------------------------------------------------------
 #t hf aug-cc-pvdz symm=none int=(grid=ultrafine) guess=(read,tcheck) s
 table=(opt,rrhf)
 ----------------------------------------------------------------------
 -----
 title
 -----
 Symbolic Z-matrix:
 Charge =  0 Multiplicity = 1

 SCF Done:  E(RHF) =  -555.300289159     A.U. after   18 cycles
 Normal termination of Gaussian 16 at Tue Apr  8 21:59:15 2025.
 Gaussian 16:  ES64L-G16RevC.01  3-Jul-2019

 ----------------------------------------------------------------------
 #t hf aug-cc-pvdz iop(5/13=1,5/36=2,99/5=2) pseudo=read geom=check gue
 ss=(read,tcheck) scf=(maxcycle=1)
 ----------------------------------------------------------------------
 -----
 title
 -----
 Structure from the checkpoint file:  "ANI1ccx_886_conf19_mol1.chk"
 Charge =  0 Multiplicity = 1

                         Standard orientation:
 ---------------------------------------------------------------------
 Center     Atomic      Atomic             Coordinates (Angstroms)
 Number     Number       Type             X           Y           Z
 ---------------------------------------------------------------------
      1          6           0        1.311439    0.687862    0.078584
      2          6           0       -0.938266    0.670056   -0.043181
      3          6           0       -0.980778   -0.730601   -0.051890
      4          6           0        1.338149   -0.721706   -0.034946
      5          1           0        2.492109    2.281402   -0.169763
      6          1           0        3.221439    0.986088   -0.725199
      7          1           0        2.489550   -2.280088    0.122551
      8          1           0        3.046929   -0.943035    0.858543
      9          7           0        2.551179    1.316412   -0.020276
     10          7           0        0.211820    1.446211    0.077532
     11          7           0       -2.196811    1.127351    0.022808
     12          7           0       -2.211111   -1.137299   -0.011203
     13          7           0        0.233255   -1.437629   -0.094838
     14          7           0        2.581289   -1.282008    0.018893
     15          8           0       -2.977581    0.036338    0.034006
 ---------------------------------------------------------------------

 SCF Done:  E(RHF) =  -555.456524085     A.U. after    2 cycles

 The electronic state is 1-A.
 Alpha  occ. eigenvalues --  -20.70452 -15.72096 -15.71559 -15.68492 -15.68017
 Alpha  occ. eigenvalues --  -15.67832 -15.67517 -11.38933 -11.38820 -11.33969
 Alpha  occ. eigenvalues --  -11.33275  -1.49642  -1.33686  -1.25663  -1.23801
 Alpha  occ. eigenvalues --   -1.19397  -1.14353  -1.11685  -0.96756  -0.88279
 Alpha  occ. eigenvalues --   -0.86885  -0.79282  -0.77444  -0.73266  -0.70665
 Alpha  occ. eigenvalues --   -0.69815  -0.68393  -0.66943  -0.62384  -0.61293
 Alpha  occ. eigenvalues --   -0.55269  -0.54482  -0.51902  -0.50359  -0.47944
 Alpha  occ. eigenvalues --   -0.46626  -0.43556  -0.38655  -0.35855
 Alpha virt. eigenvalues --    0.01220   0.01583   0.02934   0.04404   0.05888
 Alpha virt. eigenvalues --    0.08125   0.08370   0.09738   0.10301   0.10647
 Alpha virt. eigenvalues --    0.11974   0.12867   0.13002   0.13033   0.13328

 Mulliken charges:
               1
     1  C    0.667083
     2  C    0.981325
     3  C    0.855838
     4  C    0.548768
     5  H   -0.065256
     6  H    0.052334
     7  H    0.024635
     8  H    0.119638
     9  N   -0.333078
    10  N   -0.661585
    11  N   -0.353435
    12  N   -0.328073
    13  N   -0.573203
    14  N   -0.333979
    15  O   -0.601011
 Sum of Mulliken charges =  -0.00000

 Dipole moment (field-independent basis, Debye):
    X=              7.5994    Y=             -0.2098    Z=              0.0323  Tot=              7.6023

 Test job not archived.
 1\1\GINC-SE044\SP\RHF\Aug-CC-pVDZ\C4H4N6O1\OHZDE\08-Apr-2025\0\\#t hf
 aug-cc-pvdz iop(5/13=1,5/36=2,99/5=2) pseudo=read geom=check guess=(re
 ad,tcheck) scf=(maxcycle=1)\\title\\0,1\C,0,1.31144,0.68786,0.0785838\
 C,0,-0.938265,0.670055,-0.0431807\C,0,-0.980777,-0.730602,-0.0518898\C
 ,0,1.33815,-0.721708,-0.0349462\H,0,2.49211,2.2814,-0.169763\H,0,3.221
 44,0.986086,-0.725199\H,0,2.48955,-2.28009,0.122551\H,0,3.04693,-0.943
 037,0.858543\N,0,2.55118,1.31641,-0.0202758\N,0,0.211821,1.44621,0.077
 5324\N,0,-2.19681,1.12735,0.0228076\N,0,-2.21111,-1.1373,-0.0112025\N,

 Normal termination of Gaussian 16 at Tue Apr  8 21:59:23 2025.
