 Gaussian 16, Revision C.01,

 ----------------------------------------------------------------------
 #t hf aug-cc-pvdz symm=none int=(grid=ultrafine) guess=(read,tcheck) s
 table=(opt,rrhf)
 ----------------------------------------------------------------------
 -----
 title
 -----
 Symbolic Z-matrix:
 Charge =  0 Multiplicity = 1

 SCF Done:  E(RHF) =  -943.036912335     A.U. after   15 cycles
 Normal termination of Gaussian 16 at Tue Apr  8 20:05:08 2025.
 Gaussian 16:  ES64L-G16RevC.01  3-Jul-2019

 ----------------------------------------------------------------------
 #t hf aug-cc-pvdz iop(5/13=1,5/36=2,99/5=2) pseudo=read geom=check gue
 ss=(read,tcheck) scf=(maxcycle=1)
 ----------------------------------------------------------------------
 -----
 title
 -----
 Structure from the checkpoint file:  "ANI1ccx_1569_conf25_mol1.chk"
 Charge =  0 Multiplicity = 1

                         Standard orientation:
 ---------------------------------------------------------------------
 Center     Atomic      Atomic             Coordinates (Angstroms)
 Number     Number       Type             X           Y           Z
 ---------------------------------------------------------------------
      1          6           0        1.592269   -1.844251    0.306215
      2          6           0        0.158945   -1.330670   -0.026447
      3          6           0        2.671680   -0.898615   -0.166370
      4          6           0        2.344080    0.481533    0.132801
      5          6           0       -1.565720    0.253200    0.569422
      6          6           0       -2.762760   -0.666773    0.252917
      7          6           0       -1.445679    1.302360   -0.523713
      8          6           0       -0.370451    2.300650   -0.291008
      9          1           0       -1.844061   -1.699370   -1.077940
     10          1           0        0.694913    3.626999   -0.952448
     11          1           0       -2.407839    1.884581   -0.482295
     12          1           0       -1.334410    0.849439   -1.534450
     13          1           0       -1.721510    0.754941    1.515260
     14          1           0        0.289869   -0.101109    1.607400
     15          1           0        2.824910   -0.980064   -1.262900
     16          1           0        3.661940   -1.202662    0.287543
     17          1           0        1.726479   -1.903621    1.379420
     18          1           0        1.309299   -3.256491   -1.117600
     19          1           0        1.290109   -3.816441    0.373561
     20          1           0        1.804321    1.729429    1.633760
     21          7           0        1.769319   -3.183941   -0.222288
     22          7           0       -0.348169   -0.458310    0.812119
     23          8           0        0.034203    2.998240   -1.287770
     24          8           0       -0.320512   -1.534910   -1.200870
     25          8           0        2.108511    1.311299   -0.797588
     26          8           0        2.115870    0.786763    1.486930
     27          8           0       -3.761770   -0.457241    0.919934
     28          8           0        0.066207    2.503640    0.836577
     29          8           0       -2.739540   -1.604599   -0.709846
 ---------------------------------------------------------------------

 SCF Done:  E(RHF) =  -943.322015599     A.U. after    2 cycles

 The electronic state is 1-A.
 Alpha  occ. eigenvalues --  -20.65377 -20.64769 -20.60070 -20.59351 -20.57768
 Alpha  occ. eigenvalues --  -20.57314 -20.55491 -15.70378 -15.63486 -11.44144
 Alpha  occ. eigenvalues --  -11.42176 -11.40980 -11.40121 -11.32618 -11.32604
 Alpha  occ. eigenvalues --  -11.29083 -11.28488  -1.47035  -1.41754  -1.41050
 Alpha  occ. eigenvalues --   -1.37063  -1.34190  -1.32557  -1.31593  -1.25653
 Alpha  occ. eigenvalues --   -1.20586  -1.10006  -1.07956  -0.99032  -0.92739
 Alpha  occ. eigenvalues --   -0.87181  -0.86042  -0.84448  -0.81970  -0.77550
 Alpha  occ. eigenvalues --   -0.76326  -0.75087  -0.72955  -0.72912  -0.71619
 Alpha  occ. eigenvalues --   -0.70672  -0.69006  -0.67698  -0.65974  -0.65734
 Alpha  occ. eigenvalues --   -0.64703  -0.63362  -0.62187  -0.61163  -0.60915
 Alpha  occ. eigenvalues --   -0.60250  -0.59393  -0.58517  -0.56276  -0.55059
 Alpha  occ. eigenvalues --   -0.54191  -0.51660  -0.51488  -0.50047  -0.49596
 Alpha  occ. eigenvalues --   -0.48184  -0.47975  -0.47618  -0.43187  -0.42663
 Alpha virt. eigenvalues --    0.02291   0.03232   0.03734   0.03838   0.05113
 Alpha virt. eigenvalues --    0.05418   0.06147   0.06342   0.07449   0.07796
 Alpha virt. eigenvalues --    0.08467   0.08849   0.09612   0.09948   0.10097

 Mulliken charges:
               1
     1  C    0.295971
     2  C    0.587078
     3  C    0.216460
     4  C    0.848765
     5  C    0.176265
     6  C    0.831247
     7  C   -0.044906
     8  C    0.699001
     9  H    0.284173
    10  H    0.190079
    11  H    0.203462
    12  H   -0.005742
    13  H   -0.390831
    14  H    0.190299
    15  H    0.043830
    16  H    0.174682
    17  H   -0.162405
    18  H    0.043048
    19  H    0.005208
    20  H    0.293604
    21  N   -0.224799
    22  N   -0.032849
    23  O   -0.414765
    24  O   -0.902089
    25  O   -0.574649
    26  O   -0.702258
    27  O   -0.515784
    28  O   -0.648363
    29  O   -0.463731
 Sum of Mulliken charges =   0.00000

 Dipole moment (field-independent basis, Debye):
    X=              5.5689    Y=              1.0283    Z=              1.8704  Tot=              5.9639

 Test job not archived.
 1\1\GINC-SE096\SP\RHF\Aug-CC-pVDZ\C8H12N2O7\OHZDE\08-Apr-2025\0\\#t hf
  aug-cc-pvdz iop(5/13=1,5/36=2,99/5=2) pseudo=read geom=check guess=(r
 ead,tcheck) scf=(maxcycle=1)\\title\\0,1\C,0,1.59227,-1.84425,0.306215
 \C,0,0.158945,-1.33067,-0.0264468\C,0,2.67168,-0.898614,-0.16637\C,0,2
 .34408,0.481534,0.132801\C,0,-1.56572,0.2532,0.569422\C,0,-2.76276,-0.
 666774,0.252917\C,0,-1.44568,1.30236,-0.523713\C,0,-0.370452,2.30065,-
 0.291008\H,0,-1.84406,-1.69937,-1.07794\H,0,0.694912,3.627,-0.952448\H
 ,0,-2.40784,1.88458,-0.482295\H,0,-1.33441,0.849439,-1.53445\H,0,-1.72

 Normal termination of Gaussian 16 at Tue Apr  8 20:05:51 2025.
