 Gaussian 16, Revision C.01,

 ----------------------------------------------------------------------
 #t hf aug-cc-pvdz symm=none int=(grid=ultrafine) guess=(read,tcheck) s
 table=(opt,rrhf)
 ----------------------------------------------------------------------
 -----
 title
 -----
 Symbolic Z-matrix:
 Charge =  0 Multiplicity = 1

 SCF Done:  E(RHF) =  -393.465904704     A.U. after   15 cycles
 Normal termination of Gaussian 16 at Tue Apr  8 21:32:34 2025.
 Gaussian 16:  ES64L-G16RevC.01  3-Jul-2019

 ----------------------------------------------------------------------
 #t hf aug-cc-pvdz iop(5/13=1,5/36=2,99/5=2) pseudo=read geom=check gue
 ss=(read,tcheck) scf=(maxcycle=1)
 ----------------------------------------------------------------------
 -----
 title
 -----
 Structure from the checkpoint file:  "ANI1ccx_388_conf9_mol1.chk"
 Charge =  0 Multiplicity = 1

                         Standard orientation:
 ---------------------------------------------------------------------
 Center     Atomic      Atomic             Coordinates (Angstroms)
 Number     Number       Type             X           Y           Z
 ---------------------------------------------------------------------
      1          6           0       -2.286010   -0.071184    0.324449
      2          1           0       -1.604910    1.681190    0.463012
      3          1           0       -2.343260   -0.028932    1.410840
      4          1           0        0.561170   -0.404752    0.355998
      5          7           0        2.368721   -0.461928    0.268233
      6          8           0       -1.823900    1.053320   -0.228766
      7          8           0       -2.598459   -1.036271   -0.296538
      8          8           0        1.185510    0.245087   -0.027415
      9          8           0        3.302100    0.039501   -0.204053
 ---------------------------------------------------------------------

 SCF Done:  E(RHF) =  -393.593446167     A.U. after    2 cycles

 The electronic state is 1-A.
 Alpha  occ. eigenvalues --  -20.68016 -20.66129 -20.65285 -20.58948 -15.86294
 Alpha  occ. eigenvalues --  -11.41986  -1.57017  -1.45157  -1.37912  -1.36445
 Alpha  occ. eigenvalues --   -0.93625  -0.89295  -0.82443  -0.80325  -0.75105
 Alpha  occ. eigenvalues --   -0.70587  -0.70185  -0.66948  -0.64721  -0.63055
 Alpha  occ. eigenvalues --   -0.55381  -0.52565  -0.49820  -0.47267
 Alpha virt. eigenvalues --    0.01991   0.04494   0.05713   0.07872   0.08308
 Alpha virt. eigenvalues --    0.09832   0.11553   0.12175   0.13195   0.13934
 Alpha virt. eigenvalues --    0.14812   0.16053   0.18146   0.19272   0.20186

 Mulliken charges:
               1
     1  C    0.814401
     2  H    0.204910
     3  H   -0.212916
     4  H    0.274014
     5  N    0.488910
     6  O   -0.421875
     7  O   -0.392040
     8  O   -0.442688
     9  O   -0.312715
 Sum of Mulliken charges =  -0.00000

 Dipole moment (field-independent basis, Debye):
    X=             -0.9285    Y=              1.6005    Z=              4.2002  Tot=              4.5897

 Test job not archived.
 1\1\GINC-SE126\SP\RHF\Aug-CC-pVDZ\C1H3N1O4\OHZDE\08-Apr-2025\0\\#t hf
 aug-cc-pvdz iop(5/13=1,5/36=2,99/5=2) pseudo=read geom=check guess=(re
 ad,tcheck) scf=(maxcycle=1)\\title\\0,1\C,0,-2.28601,-0.0711838,0.3244
 49\H,0,-1.60491,1.68119,0.463012\H,0,-2.34326,-0.0289311,1.41084\H,0,0
 .561169,-0.404752,0.355998\N,0,2.36872,-0.461928,0.268233\O,0,-1.8239,
 1.05332,-0.228766\O,0,-2.59846,-1.03627,-0.296538\O,0,1.18551,0.245087
 ,-0.0274146\O,0,3.3021,0.0394999,-0.204053\\Version=ES64L-G16RevC.01\S
 tate=1-A\HF=-393.5934462\RMSD=2.497e-03\Dipole=-0.3652883,0.6296724,1.

 Normal termination of Gaussian 16 at Tue Apr  8 21:32:37 2025.
