 Gaussian 16, Revision C.01,

 ----------------------------------------------------------------------
 #t hf aug-cc-pvdz symm=none int=(grid=ultrafine) guess=(read,tcheck) s
 table=(opt,rrhf)
 ----------------------------------------------------------------------
 -----
 title
 -----
 Symbolic Z-matrix:
 Charge =  0 Multiplicity = 1

 SCF Done:  E(RHF) =  -699.156670967     A.U. after   14 cycles
 Normal termination of Gaussian 16 at Tue Apr  8 19:43:02 2025.
 Gaussian 16:  ES64L-G16RevC.01  3-Jul-2019

 ----------------------------------------------------------------------
 #t hf aug-cc-pvdz iop(5/13=1,5/36=2,99/5=2) pseudo=read geom=check gue
 ss=(read,tcheck) scf=(maxcycle=1)
 ----------------------------------------------------------------------
 -----
 title
 -----
 Structure from the checkpoint file:  "ANI1ccx_1533_conf1_mol2.chk"
 Charge =  0 Multiplicity = 1

                         Standard orientation:
 ---------------------------------------------------------------------
 Center     Atomic      Atomic             Coordinates (Angstroms)
 Number     Number       Type             X           Y           Z
 ---------------------------------------------------------------------
      1          6           0        3.941380    0.817059    0.544569
      2          6           0        3.447640   -0.585714    0.113579
      3          6           0        1.145900   -0.269423   -0.078293
      4          6           0       -1.810000   -1.110720   -0.043488
      5          6           0       -3.042080   -0.551467    0.648188
      6          6           0       -2.920060    0.996047    0.430705
      7          6           0       -1.559950    1.262200   -0.200339
      8          1           0       -2.964940    1.567590    1.377920
      9          1           0       -3.697650    1.438450   -0.172334
     10          1           0       -3.013370   -0.792029    1.726640
     11          1           0       -3.951010   -1.058930    0.187879
     12          1           0        4.213740   -1.040739   -0.485396
     13          1           0        4.955960    0.779991    0.972799
     14          1           0        4.019080    1.461751   -0.361747
     15          1           0        3.233820    1.285181    1.292010
     16          1           0        3.229280   -1.201939    0.999064
     17          7           0       -1.062850   -0.016850   -0.474922
     18          8           0       -1.547620   -2.302730   -0.155848
     19          8           0        2.280480   -0.476631   -0.741083
     20          8           0        0.926548   -0.093434    1.106650
     21          8           0        0.165109   -0.156703   -1.042670
     22          8           0       -1.049760    2.320840   -0.504784
 ---------------------------------------------------------------------

 SCF Done:  E(RHF) =  -699.372522851     A.U. after    2 cycles

 The electronic state is 1-A.
 Alpha  occ. eigenvalues --  -20.69365 -20.65318 -20.59145 -20.58274 -20.57903
 Alpha  occ. eigenvalues --  -15.75821 -11.47991 -11.40907 -11.40857 -11.32195
 Alpha  occ. eigenvalues --  -11.29345 -11.28625 -11.25051  -1.51426  -1.43061
 Alpha  occ. eigenvalues --   -1.37456  -1.36675  -1.35645  -1.22952  -1.07798
 Alpha  occ. eigenvalues --   -1.03653  -0.97190  -0.92698  -0.88010  -0.85446
 Alpha  occ. eigenvalues --   -0.79106  -0.77870  -0.72968  -0.72190  -0.70148
 Alpha  occ. eigenvalues --   -0.69163  -0.67968  -0.66085  -0.65077  -0.62870
 Alpha  occ. eigenvalues --   -0.61356  -0.59808  -0.59202  -0.58365  -0.57736
 Alpha  occ. eigenvalues --   -0.54761  -0.54419  -0.52624  -0.51450  -0.51247
 Alpha  occ. eigenvalues --   -0.49336  -0.48623  -0.45524  -0.44694
 Alpha virt. eigenvalues --    0.02953   0.03436   0.04422   0.04812   0.05296
 Alpha virt. eigenvalues --    0.05575   0.06402   0.07141   0.07971   0.08544
 Alpha virt. eigenvalues --    0.09897   0.10284   0.10837   0.11547   0.12090

 Mulliken charges:
               1
     1  C    0.141597
     2  C    0.666980
     3  C    0.764927
     4  C    0.612260
     5  C   -0.007940
     6  C    0.247829
     7  C    0.515770
     8  H    0.043999
     9  H   -0.055736
    10  H    0.044859
    11  H    0.105760
    12  H   -0.315928
    13  H   -0.064104
    14  H   -0.015079
    15  H    0.020104
    16  H    0.004968
    17  N   -0.100746
    18  O   -0.514426
    19  O   -0.512038
    20  O   -0.396127
    21  O   -0.697100
    22  O   -0.489830
 Sum of Mulliken charges =  -0.00000

 Dipole moment (field-independent basis, Debye):
    X=             -0.6561    Y=              0.2475    Z=              1.6672  Tot=              1.8086

 Test job not archived.
 1\1\GINC-SE367\SP\RHF\Aug-CC-pVDZ\C7H9N1O5\OHZDE\08-Apr-2025\0\\#t hf
 aug-cc-pvdz iop(5/13=1,5/36=2,99/5=2) pseudo=read geom=check guess=(re
 ad,tcheck) scf=(maxcycle=1)\\title\\0,1\C,0,3.94138,0.817058,0.544569\
 C,0,3.44764,-0.585715,0.113579\C,0,1.1459,-0.269424,-0.0782932\C,0,-1.
 81,-1.11072,-0.043488\C,0,-3.04208,-0.551467,0.648188\C,0,-2.92006,0.9
 96047,0.430705\C,0,-1.55995,1.2622,-0.200339\H,0,-2.96494,1.56759,1.37
 792\H,0,-3.69765,1.43845,-0.172334\H,0,-3.01337,-0.792029,1.72664\H,0,
 -3.95101,-1.05893,0.187879\H,0,4.21374,-1.04074,-0.485396\H,0,4.95596,

 Normal termination of Gaussian 16 at Tue Apr  8 19:43:16 2025.
