 Gaussian 16, Revision C.01,

 ----------------------------------------------------------------------
 #t hf aug-cc-pvdz symm=none int=(grid=ultrafine) guess=(read,tcheck) s
 table=(opt,rrhf)
 ----------------------------------------------------------------------
 -----
 title
 -----
 Symbolic Z-matrix:
 Charge =  0 Multiplicity = 1

 SCF Done:  E(RHF) =  -1001.31985573     A.U. after   14 cycles
 Normal termination of Gaussian 16 at Tue Apr  8 22:14:27 2025.
 Gaussian 16:  ES64L-G16RevC.01  3-Jul-2019

 ----------------------------------------------------------------------
 #t hf aug-cc-pvdz iop(5/13=1,5/36=2,99/5=2) pseudo=read geom=check gue
 ss=(read,tcheck) scf=(maxcycle=1)
 ----------------------------------------------------------------------
 -----
 title
 -----
 Structure from the checkpoint file:  "ANI1ccx_64_conf18_mol2.chk"
 Charge =  0 Multiplicity = 1

                         Standard orientation:
 ---------------------------------------------------------------------
 Center     Atomic      Atomic             Coordinates (Angstroms)
 Number     Number       Type             X           Y           Z
 ---------------------------------------------------------------------
      1          6           0       -2.591430   -0.725492   -0.751664
      2          6           0        3.024590    0.896062   -0.806881
      3          6           0        2.223040   -1.498600   -0.934784
      4          6           0        1.530240   -0.768041    1.426120
      5          6           0        1.073350   -1.470020    0.125039
      6          6           0        2.490260   -0.206671   -1.672520
      7          6           0       -2.634760    1.128551    1.017410
      8          6           0       -3.441830    0.054296    0.304221
      9          6           0       -1.378160   -1.458159   -0.094932
     10          6           0       -1.997020    2.151941    0.103314
     11          1           0        0.787502   -2.496740    0.425230
     12          1           0        1.046650    0.517462    2.701260
     13          1           0        4.639900    1.501099   -0.029298
     14          1           0        1.586660    0.134682   -2.202570
     15          1           0        3.243370   -0.360221   -2.471800
     16          1           0        1.900919   -2.262320   -1.673060
     17          1           0        3.107919   -1.860060   -0.392182
     18          1           0       -0.046042    0.087621   -0.674201
     19          1           0       -0.177325    2.748080   -0.574062
     20          1           0       -1.799480    0.661037    1.575680
     21          1           0       -3.314310    1.619531    1.736290
     22          1           0       -4.252180    0.557898   -0.249515
     23          1           0       -3.867020   -0.656343    1.044070
     24          1           0       -2.368920   -0.030194   -1.584130
     25          1           0       -3.739761   -2.400779   -0.664046
     26          1           0       -2.932361   -2.290819   -2.055320
     27          1           0       -0.089319    1.664010    0.708676
     28          7           0       -3.436181   -1.741349   -1.370390
     29          7           0       -0.670729    2.064940   -0.000093
     30          7           0       -0.153360   -0.921703   -0.458308
     31          8           0        2.387220    1.736100   -0.219635
     32          8           0        2.541870   -0.994832    2.021820
     33          8           0        4.357170    0.801828   -0.645239
     34          8           0       -1.530411   -2.426859    0.643111
     35          8           0       -2.674410    2.968171   -0.518717
     36          8           0        0.706813    0.219298    1.829730
 ---------------------------------------------------------------------

 SCF Done:  E(RHF) =  -1001.62255577     A.U. after    2 cycles

 The electronic state is 1-A.
 Alpha  occ. eigenvalues --  -20.65313 -20.64811 -20.59424 -20.59002 -20.56153
 Alpha  occ. eigenvalues --  -20.53002 -15.66826 -15.64694 -15.61011 -11.42887
 Alpha  occ. eigenvalues --  -11.42426 -11.38240 -11.36074 -11.32387 -11.28975
 Alpha  occ. eigenvalues --  -11.28837 -11.28522 -11.25132 -11.24945  -1.45950
 Alpha  occ. eigenvalues --   -1.45407  -1.36279  -1.35542  -1.35302  -1.33833
 Alpha  occ. eigenvalues --   -1.22210  -1.18870  -1.16740  -1.10481  -1.05602
 Alpha  occ. eigenvalues --   -1.02167  -0.93963  -0.92596  -0.87353  -0.85950
 Alpha  occ. eigenvalues --   -0.81928  -0.80654  -0.79840  -0.75096  -0.75000
 Alpha  occ. eigenvalues --   -0.74372  -0.72262  -0.72151  -0.70976  -0.69247
 Alpha  occ. eigenvalues --   -0.67790  -0.67053  -0.65805  -0.65736  -0.64709
 Alpha  occ. eigenvalues --   -0.63530  -0.62713  -0.62251  -0.61221  -0.60690
 Alpha  occ. eigenvalues --   -0.57707  -0.56864  -0.56626  -0.55983  -0.54995
 Alpha  occ. eigenvalues --   -0.53645  -0.52516  -0.52050  -0.52010  -0.51077
 Alpha  occ. eigenvalues --   -0.50536  -0.49145  -0.48150  -0.46459  -0.43332
 Alpha  occ. eigenvalues --   -0.42676  -0.41311  -0.39072
 Alpha virt. eigenvalues --    0.02098   0.02730   0.03439   0.04023   0.04615
 Alpha virt. eigenvalues --    0.04960   0.05792   0.06054   0.06443   0.06738
 Alpha virt. eigenvalues --    0.07421   0.07931   0.08604   0.08932   0.09522

 Mulliken charges:
               1
     1  C    0.343010
     2  C    0.624875
     3  C    0.443083
     4  C    0.755357
     5  C   -0.358235
     6  C    0.586885
     7  C    0.463009
     8  C    0.300347
     9  C    0.477730
    10  C    0.610369
    11  H   -0.012746
    12  H    0.272960
    13  H    0.179999
    14  H    0.002546
    15  H   -0.067315
    16  H   -0.026836
    17  H   -0.075378
    18  H    0.090146
    19  H    0.020764
    20  H   -0.189795
    21  H   -0.021515
    22  H    0.030953
    23  H   -0.050393
    24  H   -0.314419
    25  H    0.037761
    26  H   -0.029718
    27  H    0.072102
    28  N   -0.268467
    29  N   -0.219395
    30  N   -0.177043
    31  O   -0.524705
    32  O   -0.538990
    33  O   -0.525250
    34  O   -0.612640
    35  O   -0.630393
    36  O   -0.668665
 Sum of Mulliken charges =  -0.00000

 Dipole moment (field-independent basis, Debye):
    X=              5.0456    Y=             -0.9636    Z=             -0.6304  Tot=              5.1753

 Test job not archived.
 1\1\GINC-SE159\SP\RHF\Aug-CC-pVDZ\C10H17N3O6\OHZDE\08-Apr-2025\0\\#t h
 f aug-cc-pvdz iop(5/13=1,5/36=2,99/5=2) pseudo=read geom=check guess=(
 read,tcheck) scf=(maxcycle=1)\\title\\0,1\C,0,-2.59143,-0.725493,-0.75
 1664\C,0,3.02459,0.896062,-0.806881\C,0,2.22304,-1.4986,-0.934784\C,0,
 1.53024,-0.768041,1.42612\C,0,1.07335,-1.47002,0.125039\C,0,2.49026,-0
 .206671,-1.67252\C,0,-2.63476,1.12855,1.01741\C,0,-3.44183,0.0542948,0
 .304221\C,0,-1.37816,-1.45816,-0.0949317\C,0,-1.99702,2.15194,0.103314
 \H,0,0.787503,-2.49674,0.42523\H,0,1.04665,0.517462,2.70126\H,0,4.6399

 Normal termination of Gaussian 16 at Tue Apr  8 22:15:38 2025.
