 Gaussian 16, Revision C.01,

 ----------------------------------------------------------------------
 #t hf aug-cc-pvdz symm=none int=(grid=ultrafine) guess=(read,tcheck) s
 table=(opt,rrhf)
 ----------------------------------------------------------------------
 -----
 title
 -----
 Symbolic Z-matrix:
 Charge =  0 Multiplicity = 1

 SCF Done:  E(RHF) =  -228.135807984     A.U. after   11 cycles
 Normal termination of Gaussian 16 at Tue Apr  8 21:12:19 2025.
 Gaussian 16:  ES64L-G16RevC.01  3-Jul-2019

 ----------------------------------------------------------------------
 #t hf aug-cc-pvdz iop(5/13=1,5/36=2,99/5=2) pseudo=read geom=check gue
 ss=(read,tcheck) scf=(maxcycle=1)
 ----------------------------------------------------------------------
 -----
 title
 -----
 Structure from the checkpoint file:  "ANI1ccx_1900_conf21_mol2.chk"
 Charge =  0 Multiplicity = 1

                         Standard orientation:
 ---------------------------------------------------------------------
 Center     Atomic      Atomic             Coordinates (Angstroms)
 Number     Number       Type             X           Y           Z
 ---------------------------------------------------------------------
      1          1           0        1.100669    0.347799   -0.149858
      2          1           0        1.949786   -0.560202    0.748355
      3          1           0       -0.901845    0.793020   -0.098359
      4          1           0       -0.352667    1.950220    0.760833
      5          1           0       -0.246791   -1.114227    0.076121
      6          1           0       -1.569885   -1.486238   -0.621983
      7          8           0        1.484906   -0.555236   -0.099617
      8          8           0       -0.273964    1.545332   -0.105681
      9          8           0       -1.208351   -0.981392    0.115910
 ---------------------------------------------------------------------

 SCF Done:  E(RHF) =  -228.212353664     A.U. after    2 cycles

 The electronic state is 1-A.
 Alpha  occ. eigenvalues --  -20.57907 -20.57886 -20.57770  -1.33052  -1.30669
 Alpha  occ. eigenvalues --   -1.30498  -0.75804  -0.72870  -0.72457  -0.62308
 Alpha  occ. eigenvalues --   -0.61603  -0.58836  -0.53725  -0.52645  -0.52027
 Alpha virt. eigenvalues --    0.03089   0.04963   0.05615   0.07558   0.08237
 Alpha virt. eigenvalues --    0.09470   0.16482   0.18071   0.18558   0.21183
 Alpha virt. eigenvalues --    0.21931   0.22404   0.24354   0.26020   0.27077

 Mulliken charges:
               1
     1  H    0.234756
     2  H    0.174525
     3  H    0.231836
     4  H    0.178687
     5  H    0.214951
     6  H    0.178693
     7  O   -0.412782
     8  O   -0.409880
     9  O   -0.390786
 Sum of Mulliken charges =  -0.00000

 Dipole moment (field-independent basis, Debye):
    X=             -0.0817    Y=             -0.1744    Z=              1.5172  Tot=              1.5294

 Test job not archived.
 1\1\GINC-SE226\SP\RHF\Aug-CC-pVDZ\H6O3\OHZDE\08-Apr-2025\0\\#t hf aug-
 cc-pvdz iop(5/13=1,5/36=2,99/5=2) pseudo=read geom=check guess=(read,t
 check) scf=(maxcycle=1)\\title\\0,1\H,0,1.10068,0.347765,-0.149858\H,0
 ,1.94977,-0.560262,0.748355\H,0,-0.90182,0.793047,-0.0983593\H,0,-0.35
 2607,1.95023,0.760833\H,0,-0.246824,-1.11422,0.0761211\H,0,-1.56993,-1
 .48619,-0.621983\O,0,1.48489,-0.555282,-0.0996174\O,0,-0.273916,1.5453
 4,-0.105681\O,0,-1.20838,-0.981356,0.11591\\Version=ES64L-G16RevC.01\S
 tate=1-A\HF=-228.2123537\RMSD=1.866e-03\Dipole=-0.032152,-0.0686129,0.

 Normal termination of Gaussian 16 at Tue Apr  8 21:12:21 2025.
