 Gaussian 16, Revision C.01,

 ----------------------------------------------------------------------
 #t hf aug-cc-pvdz symm=none int=(grid=ultrafine) guess=(read,tcheck) s
 table=(opt,rrhf)
 ----------------------------------------------------------------------
 -----
 title
 -----
 Symbolic Z-matrix:
 Charge =  0 Multiplicity = 1

 SCF Done:  E(RHF) =  -331.688801970     A.U. after   14 cycles
 Normal termination of Gaussian 16 at Tue Apr  8 21:26:32 2025.
 Gaussian 16:  ES64L-G16RevC.01  3-Jul-2019

 ----------------------------------------------------------------------
 #t hf aug-cc-pvdz iop(5/13=1,5/36=2,99/5=2) pseudo=read geom=check gue
 ss=(read,tcheck) scf=(maxcycle=1)
 ----------------------------------------------------------------------
 -----
 title
 -----
 Structure from the checkpoint file:  "ANI1ccx_378_conf1_mol2.chk"
 Charge =  0 Multiplicity = 1

                         Standard orientation:
 ---------------------------------------------------------------------
 Center     Atomic      Atomic             Coordinates (Angstroms)
 Number     Number       Type             X           Y           Z
 ---------------------------------------------------------------------
      1          6           0        0.791191    0.011723   -0.005954
      2          1           0        0.167481   -2.021131    0.005238
      3          1           0        0.079660    2.050599    0.039054
      4          7           0       -0.098904   -1.050651    0.038938
      5          7           0       -1.381201   -0.647501   -0.024019
      6          7           0       -1.405921    0.614172   -0.017133
      7          7           0       -0.117546    1.065929    0.024477
      8          8           0        2.003839    0.003319   -0.020552
 ---------------------------------------------------------------------

 SCF Done:  E(RHF) =  -331.784969943     A.U. after    2 cycles

 The electronic state is 1-A.
 Alpha  occ. eigenvalues --  -20.56171 -15.75831 -15.75649 -15.73046 -15.72936
 Alpha  occ. eigenvalues --  -11.43173  -1.47985  -1.36671  -1.24428  -1.17479
 Alpha  occ. eigenvalues --   -0.91977  -0.91405  -0.79550  -0.72326  -0.71086
 Alpha  occ. eigenvalues --   -0.67312  -0.58078  -0.56527  -0.54415  -0.50301
 Alpha  occ. eigenvalues --   -0.45545  -0.39048
 Alpha virt. eigenvalues --    0.02991   0.03431   0.07929   0.08935   0.11681
 Alpha virt. eigenvalues --    0.11814   0.12138   0.13111   0.14744   0.16623
 Alpha virt. eigenvalues --    0.16808   0.17406   0.18288   0.18713   0.20580

 Mulliken charges:
               1
     1  C    0.859695
     2  H   -0.019599
     3  H   -0.025903
     4  N   -0.084253
     5  N   -0.096600
     6  N   -0.119925
     7  N   -0.097667
     8  O   -0.415748
 Sum of Mulliken charges =   0.00000

 Dipole moment (field-independent basis, Debye):
    X=             -1.2106    Y=              0.0128    Z=              0.0455  Tot=              1.2115

 Test job not archived.
 1\1\GINC-SE105\SP\RHF\Aug-CC-pVDZ\C1H2N4O1\OHZDE\08-Apr-2025\0\\#t hf
 aug-cc-pvdz iop(5/13=1,5/36=2,99/5=2) pseudo=read geom=check guess=(re
 ad,tcheck) scf=(maxcycle=1)\\title\\0,1\C,0,0.791192,0.0117236,-0.0059
 5436\H,0,0.167481,-2.02113,0.00523799\H,0,0.079661,2.0506,0.0390539\N,
 0,-0.0989038,-1.05065,0.0389385\N,0,-1.3812,-0.6475,-0.0240188\N,0,-1.
 40592,0.614173,-0.0171326\N,0,-0.117545,1.06593,0.0244769\O,0,2.00384,
 0.00331939,-0.0205517\\Version=ES64L-G16RevC.01\State=1-A\HF=-331.7849
 699\RMSD=3.343e-03\Dipole=-0.4762825,0.0050434,0.0178854\Quadrupole=-9

 Normal termination of Gaussian 16 at Tue Apr  8 21:26:35 2025.
