 Gaussian 16, Revision C.01,

 ----------------------------------------------------------------------
 #t hf aug-cc-pvdz symm=none int=(grid=ultrafine) guess=(read,tcheck) s
 table=(opt,rrhf)
 ----------------------------------------------------------------------
 -----
 title
 -----
 Symbolic Z-matrix:
 Charge =  0 Multiplicity = 1

 SCF Done:  E(RHF) =  -445.282402589     A.U. after   15 cycles
 Normal termination of Gaussian 16 at Tue Apr  8 21:54:53 2025.
 Gaussian 16:  ES64L-G16RevC.01  3-Jul-2019

 ----------------------------------------------------------------------
 #t hf aug-cc-pvdz iop(5/13=1,5/36=2,99/5=2) pseudo=read geom=check gue
 ss=(read,tcheck) scf=(maxcycle=1)
 ----------------------------------------------------------------------
 -----
 title
 -----
 Structure from the checkpoint file:  "ANI1ccx_856_conf2_mol2.chk"
 Charge =  0 Multiplicity = 1

                         Standard orientation:
 ---------------------------------------------------------------------
 Center     Atomic      Atomic             Coordinates (Angstroms)
 Number     Number       Type             X           Y           Z
 ---------------------------------------------------------------------
      1          6           0       -1.387950   -0.408338    0.031283
      2          6           0       -1.478831    1.119378   -0.015031
      3          6           0        0.593321    0.769572    0.017450
      4          6           0        1.114291   -1.314420   -0.003584
      5          1           0       -2.406262    1.655997   -0.063924
      6          1           0        1.074512   -2.404450   -0.113919
      7          7           0       -0.365060    1.748799   -0.009488
      8          7           0        1.873099    0.753021   -0.013243
      9          7           0        2.196800   -0.583197   -0.015536
     10          7           0        0.024527   -0.492034    0.065732
     11          8           0       -2.227349   -1.279353   -0.024390
 ---------------------------------------------------------------------

 SCF Done:  E(RHF) =  -445.408338796     A.U. after    2 cycles

 The electronic state is 1-A.
 Alpha  occ. eigenvalues --  -20.64170 -15.73164 -15.70985 -15.68724 -15.67904
 Alpha  occ. eigenvalues --  -11.45716 -11.37648 -11.36524 -11.36162  -1.44565
 Alpha  occ. eigenvalues --   -1.41068  -1.31674  -1.22166  -1.10218  -1.00983
 Alpha  occ. eigenvalues --   -0.90741  -0.85661  -0.83699  -0.74378  -0.71935
 Alpha  occ. eigenvalues --   -0.71253  -0.68865  -0.65661  -0.60706  -0.57465
 Alpha  occ. eigenvalues --   -0.53818  -0.52806  -0.47805  -0.46257  -0.45274
 Alpha  occ. eigenvalues --   -0.37733
 Alpha virt. eigenvalues --   -0.01244   0.02592   0.03346   0.05620   0.06964
 Alpha virt. eigenvalues --    0.08129   0.09794   0.10540   0.10642   0.12239
 Alpha virt. eigenvalues --    0.12494   0.12870   0.13518   0.14015   0.14654

 Mulliken charges:
               1
     1  C    0.506365
     2  C    0.578428
     3  C    0.613602
     4  C    0.677348
     5  H   -0.225899
     6  H   -0.144518
     7  N   -0.402051
     8  N   -0.299500
     9  N   -0.491142
    10  N   -0.444463
    11  O   -0.368171
 Sum of Mulliken charges =  -0.00000

 Dipole moment (field-independent basis, Debye):
    X=             -3.0912    Y=             -0.6167    Z=              0.0418  Tot=              3.1524

 Test job not archived.
 1\1\GINC-SE102\SP\RHF\Aug-CC-pVDZ\C4H2N4O1\OHZDE\08-Apr-2025\0\\#t hf
 aug-cc-pvdz iop(5/13=1,5/36=2,99/5=2) pseudo=read geom=check guess=(re
 ad,tcheck) scf=(maxcycle=1)\\title\\0,1\C,0,-1.38795,-0.408336,0.03128
 28\C,0,-1.47883,1.11938,-0.0150306\C,0,0.593322,0.769572,0.01745\C,0,1
 .11429,-1.31442,-0.00358398\H,0,-2.40626,1.656,-0.0639244\H,0,1.07451,
 -2.40445,-0.113919\N,0,-0.365058,1.7488,-0.00948798\N,0,1.8731,0.75302
 ,-0.0132431\N,0,2.1968,-0.583198,-0.0155362\N,0,0.024527,-0.492033,0.0
 657318\O,0,-2.22735,-1.27935,-0.0243897\\Version=ES64L-G16RevC.01\Stat

 Normal termination of Gaussian 16 at Tue Apr  8 21:54:59 2025.
