 Gaussian 16, Revision C.01,

 ----------------------------------------------------------------------
 #t hf aug-cc-pvdz symm=none int=(grid=ultrafine) guess=(read,tcheck) s
 table=(opt,rrhf)
 ----------------------------------------------------------------------
 -----
 title
 -----
 Symbolic Z-matrix:
 Charge =  0 Multiplicity = 1

 SCF Done:  E(RHF) =  -832.260370979     A.U. after   15 cycles
 Normal termination of Gaussian 16 at Tue Apr  8 20:35:28 2025.
 Gaussian 16:  ES64L-G16RevC.01  3-Jul-2019

 ----------------------------------------------------------------------
 #t hf aug-cc-pvdz iop(5/13=1,5/36=2,99/5=2) pseudo=read geom=check gue
 ss=(read,tcheck) scf=(maxcycle=1)
 ----------------------------------------------------------------------
 -----
 title
 -----
 Structure from the checkpoint file:  "ANI1ccx_1742_conf3_mol2.chk"
 Charge =  0 Multiplicity = 1

                         Standard orientation:
 ---------------------------------------------------------------------
 Center     Atomic      Atomic             Coordinates (Angstroms)
 Number     Number       Type             X           Y           Z
 ---------------------------------------------------------------------
      1          6           0       -1.624841   -0.038135   -0.436793
      2          6           0       -1.039100   -1.476730   -0.260693
      3          6           0       -2.039421    0.607928    0.954062
      4          6           0       -3.564941    0.631076    0.962502
      5          6           0       -3.861941    0.733077   -0.461024
      6          6           0        1.329870   -0.557105   -0.286839
      7          6           0        2.703400   -1.029428   -0.015502
      8          6           0        1.087569    0.686675    0.588423
      9          6           0        1.603148    2.007531    0.030303
     10          1           0        1.820871   -2.116709    1.189550
     11          1           0        3.231198    1.388842   -0.661099
     12          1           0       -0.014664    0.746557    0.734773
     13          1           0        1.421289    0.490241    1.591190
     14          1           0        1.343179   -0.350038   -1.353450
     15          1           0        0.625875   -2.514369   -0.063294
     16          1           0       -3.774462    1.791488   -0.758211
     17          1           0       -3.976982    1.475818    1.534760
     18          1           0       -3.863611   -0.372110    1.413490
     19          1           0       -1.703582    1.651169    1.069160
     20          1           0       -1.772321    0.028261    1.849260
     21          1           0       -0.987361    0.592027   -1.078970
     22          1           0       -3.296750   -1.082922   -1.129800
     23          1           0       -4.879731    0.501335   -0.752343
     24          7           0       -2.926071   -0.121725   -1.177880
     25          7           0        0.301081   -1.561830    0.067481
     26          8           0        2.720518    2.212972   -0.692700
     27          8           0       -1.784029   -2.485761   -0.271876
     28          8           0        3.693480   -0.714818   -0.659606
     29          8           0        0.922252    2.976951    0.294949
     30          8           0        2.777720   -1.968598    1.046880
 ---------------------------------------------------------------------

 SCF Done:  E(RHF) =  -832.509174455     A.U. after    2 cycles

 The electronic state is 1-A.
 Alpha  occ. eigenvalues --  -20.66528 -20.64696 -20.62412 -20.58734 -20.57150
 Alpha  occ. eigenvalues --  -15.71372 -15.62224 -11.45858 -11.42221 -11.41910
 Alpha  occ. eigenvalues --  -11.36224 -11.31728 -11.30760 -11.26632 -11.26167
 Alpha  occ. eigenvalues --  -11.24588  -1.45001  -1.43910  -1.37582  -1.37070
 Alpha  occ. eigenvalues --   -1.34044  -1.26320  -1.21562  -1.11209  -1.04455
 Alpha  occ. eigenvalues --   -1.03039  -0.98466  -0.88757  -0.86379  -0.84911
 Alpha  occ. eigenvalues --   -0.81587  -0.80798  -0.80005  -0.78164  -0.73858
 Alpha  occ. eigenvalues --   -0.72099  -0.70271  -0.69877  -0.68795  -0.68021
 Alpha  occ. eigenvalues --   -0.67315  -0.67046  -0.63858  -0.63078  -0.61993
 Alpha  occ. eigenvalues --   -0.61849  -0.60171  -0.59284  -0.57915  -0.55522
 Alpha  occ. eigenvalues --   -0.54461  -0.53006  -0.52232  -0.51920  -0.50676
 Alpha  occ. eigenvalues --   -0.50104  -0.48271  -0.48085  -0.46840  -0.45824
 Alpha  occ. eigenvalues --   -0.39103
 Alpha virt. eigenvalues --    0.02450   0.03197   0.03468   0.04086   0.05172
 Alpha virt. eigenvalues --    0.05362   0.05827   0.06463   0.07010   0.07734
 Alpha virt. eigenvalues --    0.07958   0.08515   0.08682   0.08996   0.09356

 Mulliken charges:
               1
     1  C    0.833232
     2  C    0.464783
     3  C    0.058057
     4  C   -0.129209
     5  C    1.009010
     6  C    1.001486
     7  C    0.769987
     8  C    0.443402
     9  C    0.725454
    10  H    0.254963
    11  H    0.169225
    12  H   -0.581839
    13  H   -0.027707
    14  H   -0.448210
    15  H   -0.042492
    16  H   -0.176528
    17  H    0.010727
    18  H    0.076189
    19  H    0.010188
    20  H   -0.191744
    21  H   -0.249035
    22  H    0.078881
    23  H   -0.218105
    24  N   -0.694438
    25  N   -0.480385
    26  O   -0.445114
    27  O   -0.620157
    28  O   -0.519238
    29  O   -0.496230
    30  O   -0.585152
 Sum of Mulliken charges =  -0.00000

 Dipole moment (field-independent basis, Debye):
    X=             -1.7008    Y=             -1.9350    Z=              1.9195  Tot=              3.2127

 Test job not archived.
 1\1\GINC-SE457\SP\RHF\Aug-CC-pVDZ\C9H14N2O5\OHZDE\08-Apr-2025\0\\#t hf
  aug-cc-pvdz iop(5/13=1,5/36=2,99/5=2) pseudo=read geom=check guess=(r
 ead,tcheck) scf=(maxcycle=1)\\title\\0,1\C,0,-1.62484,-0.038134,-0.436
 793\C,0,-1.0391,-1.47673,-0.260693\C,0,-2.03942,0.607929,0.954062\C,0,
 -3.56494,0.631078,0.962502\C,0,-3.86194,0.733079,-0.461024\C,0,1.32987
 ,-0.557106,-0.286839\C,0,2.7034,-1.02943,-0.0155014\C,0,1.08757,0.6866
 74,0.588423\C,0,1.60315,2.00753,0.030303\H,0,1.82087,-2.11671,1.18955\
 H,0,3.2312,1.38884,-0.661099\H,0,-0.0146625,0.746557,0.734773\H,0,1.42

 Normal termination of Gaussian 16 at Tue Apr  8 20:36:07 2025.
