 Gaussian 16, Revision C.01,

 ----------------------------------------------------------------------
 #t hf aug-cc-pvdz symm=none int=(grid=ultrafine) guess=(read,tcheck) s
 table=(opt,rrhf)
 ----------------------------------------------------------------------
 -----
 title
 -----
 Symbolic Z-matrix:
 Charge =  0 Multiplicity = 1

 SCF Done:  E(RHF) =  -809.715719816     A.U. after   14 cycles
 Normal termination of Gaussian 16 at Tue Apr  8 20:28:47 2025.
 Gaussian 16:  ES64L-G16RevC.01  3-Jul-2019

 ----------------------------------------------------------------------
 #t hf aug-cc-pvdz iop(5/13=1,5/36=2,99/5=2) pseudo=read geom=check gue
 ss=(read,tcheck) scf=(maxcycle=1)
 ----------------------------------------------------------------------
 -----
 title
 -----
 Structure from the checkpoint file:  "ANI1ccx_1634_conf35_mol1.chk"
 Charge =  0 Multiplicity = 1

                         Standard orientation:
 ---------------------------------------------------------------------
 Center     Atomic      Atomic             Coordinates (Angstroms)
 Number     Number       Type             X           Y           Z
 ---------------------------------------------------------------------
      1          6           0        2.520280    1.769439    0.654341
      2          6           0        0.989533    1.648829    0.439506
      3          6           0        1.030200   -0.926734    0.493875
      4          6           0        1.579640   -1.639671   -0.817048
      5          6           0        0.051466   -1.831611    1.201289
      6          6           0       -1.019650   -1.325531    2.120129
      7          6           0       -2.088550   -0.368445    1.495019
      8          6           0       -2.819110    0.413082   -0.847844
      9          1           0        2.543410   -0.052259   -1.131651
     10          1           0       -3.015070    2.242629   -1.202181
     11          1           0       -1.562880    2.244549   -0.295943
     12          1           0       -3.727970   -0.702485   -1.993901
     13          1           0       -2.096070   -1.439341   -0.340340
     14          1           0       -1.934170    0.694117    1.450019
     15          1           0       -3.051220   -0.465969    1.929149
     16          1           0       -1.574370   -2.166911    2.602929
     17          1           0       -0.520159   -0.770388    2.954569
     18          1           0       -0.446791   -2.229751    0.293280
     19          1           0        0.688321   -2.746501    1.484099
     20          1           0        1.797520   -0.812112    1.137389
     21          1           0       -0.580700    0.439703   -0.012244
     22          1           0        2.685100    1.135939    1.546339
     23          1           0        2.805840    2.758409    0.965852
     24          1           0        3.716360    2.005519   -1.052591
     25          1           0        4.024150    0.697761   -0.024435
     26          7           0        3.270070    1.255419   -0.442213
     27          7           0        0.459689    0.404250    0.210907
     28          7           0       -2.233570   -0.504083    0.008518
     29          7           0       -3.671180    0.243796   -1.831081
     30          7           0       -2.417060    1.704689   -0.605091
     31          8           0        0.233487    2.631209    0.373939
     32          8           0        1.194460   -2.765651   -1.150691
     33          8           0        2.438330   -0.990251   -1.489901
 ---------------------------------------------------------------------

 SCF Done:  E(RHF) =  -809.960396903     A.U. after    2 cycles

 The electronic state is 1-A.
 Alpha  occ. eigenvalues --  -20.61399 -20.56387 -20.54766 -15.68746 -15.66791
 Alpha  occ. eigenvalues --  -15.63868 -15.61026 -15.56218 -11.39730 -11.39649
 Alpha  occ. eigenvalues --  -11.36216 -11.32378 -11.31537 -11.28970 -11.27424
 Alpha  occ. eigenvalues --  -11.25877  -1.43446  -1.36500  -1.30948  -1.26122
 Alpha  occ. eigenvalues --   -1.23414  -1.21153  -1.15106  -1.08761  -1.07813
 Alpha  occ. eigenvalues --   -1.00939  -0.98237  -0.92115  -0.85927  -0.82943
 Alpha  occ. eigenvalues --   -0.81624  -0.80840  -0.76463  -0.74978  -0.73583
 Alpha  occ. eigenvalues --   -0.70773  -0.69701  -0.68120  -0.67290  -0.66034
 Alpha  occ. eigenvalues --   -0.64489  -0.63330  -0.63107  -0.61592  -0.60165
 Alpha  occ. eigenvalues --   -0.59861  -0.58948  -0.57464  -0.56520  -0.56196
 Alpha  occ. eigenvalues --   -0.53095  -0.51649  -0.51395  -0.49550  -0.48084
 Alpha  occ. eigenvalues --   -0.47191  -0.46852  -0.44691  -0.42527  -0.40521
 Alpha  occ. eigenvalues --   -0.38355  -0.32946
 Alpha virt. eigenvalues --    0.00982   0.02270   0.03313   0.03526   0.04846
 Alpha virt. eigenvalues --    0.05055   0.05416   0.06183   0.06995   0.07356
 Alpha virt. eigenvalues --    0.07525   0.07986   0.08611   0.09483   0.09755

 Mulliken charges:
               1
     1  C    0.866943
     2  C    0.174256
     3  C    0.148693
     4  C    0.676152
     5  C    0.522578
     6  C    0.356220
     7  C    1.183900
     8  C    0.576107
     9  H    0.467782
    10  H    0.038287
    11  H    0.075396
    12  H   -0.074430
    13  H   -0.110162
    14  H   -0.188515
    15  H   -0.508823
    16  H    0.054516
    17  H    0.037910
    18  H   -0.049907
    19  H    0.013629
    20  H   -0.508631
    21  H    0.011488
    22  H    0.105064
    23  H   -0.230940
    24  H    0.139380
    25  H    0.138982
    26  N   -0.707203
    27  N   -0.654857
    28  N   -0.349102
    29  N   -0.380637
    30  N   -0.258599
    31  O   -0.595350
    32  O   -0.547983
    33  O   -0.422146
 Sum of Mulliken charges =   0.00000

 Dipole moment (field-independent basis, Debye):
    X=              6.5950    Y=              1.6237    Z=              6.3273  Tot=              9.2825

 Test job not archived.
 1\1\GINC-SE340\SP\RHF\Aug-CC-pVDZ\C8H17N5O3\OHZDE\08-Apr-2025\0\\#t hf
  aug-cc-pvdz iop(5/13=1,5/36=2,99/5=2) pseudo=read geom=check guess=(r
 ead,tcheck) scf=(maxcycle=1)\\title\\0,1\C,0,2.52028,1.76944,0.654342\
 C,0,0.989533,1.64883,0.439507\C,0,1.0302,-0.926733,0.493876\C,0,1.5796
 4,-1.63967,-0.817047\C,0,0.0514666,-1.83161,1.20129\C,0,-1.01965,-1.32
 553,2.12013\C,0,-2.08855,-0.368444,1.49502\C,0,-2.81911,0.413083,-0.84
 7843\H,0,2.54341,-0.0522575,-1.13165\H,0,-3.01507,2.24263,-1.20218\H,0
 ,-1.56288,2.24455,-0.295942\H,0,-3.72797,-0.702484,-1.9939\H,0,-2.0960

 Normal termination of Gaussian 16 at Tue Apr  8 20:29:28 2025.
