 Gaussian 16, Revision C.01,

 ----------------------------------------------------------------------
 #t hf aug-cc-pvdz symm=none int=(grid=ultrafine) guess=(read,tcheck) s
 table=(opt,rrhf)
 ----------------------------------------------------------------------
 -----
 title
 -----
 Symbolic Z-matrix:
 Charge =  0 Multiplicity = 1

 SCF Done:  E(RHF) =  -814.783663452     A.U. after   14 cycles
 Normal termination of Gaussian 16 at Tue Apr  8 21:01:27 2025.
 Gaussian 16:  ES64L-G16RevC.01  3-Jul-2019

 ----------------------------------------------------------------------
 #t hf aug-cc-pvdz iop(5/13=1,5/36=2,99/5=2) pseudo=read geom=check gue
 ss=(read,tcheck) scf=(maxcycle=1)
 ----------------------------------------------------------------------
 -----
 title
 -----
 Structure from the checkpoint file:  "ANI1ccx_1785_conf2_mol1.chk"
 Charge =  0 Multiplicity = 1

                         Standard orientation:
 ---------------------------------------------------------------------
 Center     Atomic      Atomic             Coordinates (Angstroms)
 Number     Number       Type             X           Y           Z
 ---------------------------------------------------------------------
      1          6           0        1.488398   -1.973252   -0.297391
      2          6           0        0.779418    2.203479    0.903055
      3          6           0       -0.745244    2.388561    0.757822
      4          6           0       -1.573048    1.311532   -0.017033
      5          6           0        1.424333    2.441728   -0.479644
      6          6           0       -1.559930   -0.038617    0.697744
      7          6           0        2.596009   -1.377723    0.569640
      8          6           0        0.359451   -1.018240   -0.522373
      9          6           0       -2.624851   -0.969314    0.186959
     10          1           0       -0.854660    3.440111    0.344315
     11          1           0       -4.313831   -1.031225   -0.568197
     12          1           0        1.354486    4.485798   -0.357119
     13          1           0        1.502485    3.930258   -1.889100
     14          1           0        1.142152    1.676719   -1.186140
     15          1           0        2.504963    2.416797   -0.311575
     16          1           0        1.150472    1.266909    1.283150
     17          1           0        1.163024    3.032479    1.537260
     18          1           0       -1.135127    2.362611    1.785810
     19          1           0       -1.229118    1.253692   -1.076520
     20          1           0       -1.791690    0.063018    1.796280
     21          1           0        0.148845   -1.051430    1.440550
     22          1           0        2.882179   -0.862604    2.463840
     23          1           0        3.464208   -1.982954    0.396942
     24          1           0        2.663200   -0.343736    0.148280
     25          1           0        1.084387   -2.866721    0.232208
     26          1           0        2.159108   -1.517863   -2.116550
     27          1           0        1.464697   -2.967402   -2.123230
     28          1           0       -2.619928    1.675063   -0.087025
     29          7           0        2.072127   -2.356113   -1.569780
     30          7           0       -0.270257   -0.655104    0.612287
     31          7           0        1.017735    3.750799   -1.006650
     32          8           0       -2.584732   -2.138317    0.211441
     33          8           0        0.097465   -0.631214   -1.648560
     34          8           0        2.271879   -1.415623    1.956020
     35          8           0       -3.702650   -0.310537   -0.363509
 ---------------------------------------------------------------------

 SCF Done:  E(RHF) =  -815.032002865     A.U. after    2 cycles

 The electronic state is 1-A.
 Alpha  occ. eigenvalues --  -20.61999 -20.59939 -20.57246 -20.54060 -15.64887
 Alpha  occ. eigenvalues --  -15.60610 -15.60450 -11.39710 -11.35836 -11.30822
 Alpha  occ. eigenvalues --  -11.30475 -11.27940 -11.24966 -11.23298 -11.22887
 Alpha  occ. eigenvalues --  -11.22760  -1.43834  -1.35929  -1.34387  -1.33794
 Alpha  occ. eigenvalues --   -1.22355  -1.16649  -1.14722  -1.06796  -1.01916
 Alpha  occ. eigenvalues --   -0.98687  -0.93124  -0.88433  -0.85163  -0.82455
 Alpha  occ. eigenvalues --   -0.78084  -0.76342  -0.74352  -0.73541  -0.72308
 Alpha  occ. eigenvalues --   -0.70888  -0.67924  -0.67009  -0.66197  -0.65561
 Alpha  occ. eigenvalues --   -0.64071  -0.63812  -0.61810  -0.61584  -0.59312
 Alpha  occ. eigenvalues --   -0.58214  -0.57230  -0.56532  -0.55640  -0.54089
 Alpha  occ. eigenvalues --   -0.53318  -0.51920  -0.50953  -0.49617  -0.49237
 Alpha  occ. eigenvalues --   -0.48888  -0.47660  -0.45855  -0.45107  -0.43281
 Alpha  occ. eigenvalues --   -0.40738  -0.39247  -0.38004
 Alpha virt. eigenvalues --    0.02328   0.03443   0.03711   0.04040   0.05230
 Alpha virt. eigenvalues --    0.05347   0.05559   0.05607   0.06061   0.07276
 Alpha virt. eigenvalues --    0.07721   0.08376   0.08583   0.09049   0.09373

 Mulliken charges:
               1
     1  C   -0.098381
     2  C    0.533567
     3  C    0.237059
     4  C    0.476499
     5  C    1.082472
     6  C   -0.270486
     7  C    1.195556
     8  C    0.361706
     9  C    0.949539
    10  H    0.018404
    11  H    0.224675
    12  H    0.068516
    13  H   -0.059677
    14  H   -0.489385
    15  H   -0.162421
    16  H   -0.346301
    17  H   -0.128889
    18  H   -0.078108
    19  H    0.022600
    20  H   -0.079032
    21  H    0.008186
    22  H    0.191360
    23  H   -0.195117
    24  H   -0.002068
    25  H   -0.048350
    26  H    0.064755
    27  H    0.016983
    28  H   -0.134676
    29  N   -0.266170
    30  N   -0.235700
    31  N   -0.429908
    32  O   -0.492829
    33  O   -0.658839
    34  O   -0.614297
    35  O   -0.661244
 Sum of Mulliken charges =  -0.00000

 Dipole moment (field-independent basis, Debye):
    X=              1.9351    Y=              1.9299    Z=              3.0107  Tot=              4.0661

 Test job not archived.
 1\1\GINC-SE364\SP\RHF\Aug-CC-pVDZ\C9H19N3O4\OHZDE\08-Apr-2025\0\\#t hf
  aug-cc-pvdz iop(5/13=1,5/36=2,99/5=2) pseudo=read geom=check guess=(r
 ead,tcheck) scf=(maxcycle=1)\\title\\0,1\C,0,1.4884,-1.97325,-0.297391
 \C,0,0.779415,2.20348,0.903055\C,0,-0.745247,2.38856,0.757822\C,0,-1.5
 7305,1.31153,-0.0170335\C,0,1.42433,2.44173,-0.479644\C,0,-1.55993,-0.
 038619,0.697744\C,0,2.59601,-1.37772,0.56964\C,0,0.359452,-1.01824,-0.
 522373\C,0,-2.62485,-0.969317,0.186959\H,0,-0.854665,3.44011,0.344315\
 H,0,-4.31383,-1.03123,-0.568197\H,0,1.35448,4.4858,-0.357119\H,0,1.502

 Normal termination of Gaussian 16 at Tue Apr  8 21:02:19 2025.
