 Gaussian 16, Revision C.01,

 ----------------------------------------------------------------------
 #t hf aug-cc-pvdz symm=none int=(grid=ultrafine) guess=(read,tcheck) s
 table=(opt,rrhf)
 ----------------------------------------------------------------------
 -----
 title
 -----
 Symbolic Z-matrix:
 Charge =  0 Multiplicity = 1

 SCF Done:  E(RHF) =  -798.773972985     A.U. after   15 cycles
 Normal termination of Gaussian 16 at Tue Apr  8 22:14:10 2025.
 Gaussian 16:  ES64L-G16RevC.01  3-Jul-2019

 ----------------------------------------------------------------------
 #t hf aug-cc-pvdz iop(5/13=1,5/36=2,99/5=2) pseudo=read geom=check gue
 ss=(read,tcheck) scf=(maxcycle=1)
 ----------------------------------------------------------------------
 -----
 title
 -----
 Structure from the checkpoint file:  "ANI1ccx_86_conf2_mol2.chk"
 Charge =  0 Multiplicity = 1

                         Standard orientation:
 ---------------------------------------------------------------------
 Center     Atomic      Atomic             Coordinates (Angstroms)
 Number     Number       Type             X           Y           Z
 ---------------------------------------------------------------------
      1          6           0       -1.588370   -1.259019    0.435210
      2          6           0        2.994110   -0.330838   -0.316384
      3          6           0        1.510141    1.677350    0.524460
      4          6           0        1.950390    0.146875    0.785262
      5          6           0       -4.310170    0.235524   -1.533010
      6          6           0        3.320970   -1.808361   -0.279988
      7          6           0       -2.130959    1.206891    1.077890
      8          6           0       -2.568080   -0.079340    0.304900
      9          6           0       -0.170173   -0.874246   -0.069862
     10          6           0       -2.803720    0.202565   -1.193350
     11          1           0       -4.803939    0.982786   -0.910386
     12          1           0        1.981271    1.331460   -1.284930
     13          1           0        3.429190   -2.177421    0.722844
     14          1           0        4.110480   -2.126531   -0.975022
     15          1           0        2.506960   -2.470261   -0.680580
     16          1           0        1.773780   -0.484295   -1.826250
     17          1           0        3.933970    0.262003   -0.079257
     18          1           0        2.350500    0.160563    1.760940
     19          1           0        0.324505   -0.780236    1.859260
     20          1           0       -4.796540   -0.745247   -1.328100
     21          1           0       -2.286390   -0.530530   -1.787340
     22          1           0       -2.359599    1.156281   -1.498550
     23          1           0       -1.408569    1.869161    0.470894
     24          1           0       -1.606709    0.896961    1.954660
     25          1           0       -3.082459    1.758521    1.237730
     26          1           0       -3.453350   -0.469622    0.762985
     27          1           0       -1.915240   -2.102079   -0.173947
     28          1           0       -1.193211   -2.704349    1.862580
     29          1           0       -2.346680   -1.650709    2.368290
     30          1           0       -4.489719    0.435674   -2.544250
     31          7           0       -1.466060   -1.699799    1.838770
     32          7           0        0.737215   -0.640843    0.942646
     33          8           0        2.612430    0.020463   -1.655930
     34          8           0        0.071180   -0.742358   -1.271250
     35          8           0        0.946201    2.269690    1.426170
     36          8           0        1.521291    2.085700   -0.723023
 ---------------------------------------------------------------------

 SCF Done:  E(RHF) =  -799.016287125     A.U. after    2 cycles

 The electronic state is 1-A.
 Alpha  occ. eigenvalues --  -20.60121 -20.59333 -20.56351 -20.54049 -15.66363
 Alpha  occ. eigenvalues --  -15.64117 -11.38607 -11.38514 -11.33340 -11.31516
 Alpha  occ. eigenvalues --  -11.29602 -11.24736 -11.24717 -11.22464 -11.22084
 Alpha  occ. eigenvalues --  -11.21977  -1.40203  -1.36926  -1.35038  -1.30059
 Alpha  occ. eigenvalues --   -1.22310  -1.17712  -1.07194  -1.04901  -0.98759
 Alpha  occ. eigenvalues --   -0.97535  -0.93071  -0.87003  -0.84579  -0.81980
 Alpha  occ. eigenvalues --   -0.80142  -0.78657  -0.74963  -0.72613  -0.70728
 Alpha  occ. eigenvalues --   -0.68510  -0.66658  -0.66452  -0.64319  -0.63971
 Alpha  occ. eigenvalues --   -0.63739  -0.62277  -0.60792  -0.60325  -0.59200
 Alpha  occ. eigenvalues --   -0.57974  -0.57638  -0.57317  -0.56000  -0.55316
 Alpha  occ. eigenvalues --   -0.53902  -0.51219  -0.50231  -0.50029  -0.49616
 Alpha  occ. eigenvalues --   -0.48849  -0.47290  -0.46706  -0.45832  -0.45666
 Alpha  occ. eigenvalues --   -0.44369  -0.41198  -0.39628
 Alpha virt. eigenvalues --    0.02042   0.03035   0.03481   0.03882   0.04871
 Alpha virt. eigenvalues --    0.05155   0.05759   0.06105   0.06369   0.07219
 Alpha virt. eigenvalues --    0.07507   0.07875   0.08001   0.08239   0.09267

 Mulliken charges:
               1
     1  C    0.972745
     2  C    0.383649
     3  C    0.696916
     4  C    0.687039
     5  C    0.558913
     6  C    0.800235
     7  C    0.587673
     8  C   -0.692957
     9  C    0.659380
    10  C    0.660561
    11  H   -0.059021
    12  H    0.501046
    13  H   -0.151461
    14  H   -0.039296
    15  H   -0.177040
    16  H    0.358728
    17  H   -0.202790
    18  H   -0.518279
    19  H    0.032674
    20  H    0.009776
    21  H   -0.312484
    22  H   -0.178426
    23  H    0.078742
    24  H   -0.191647
    25  H    0.005846
    26  H   -0.429620
    27  H   -0.125044
    28  H    0.027037
    29  H    0.055914
    30  H   -0.207312
    31  N   -0.485899
    32  N   -0.640873
    33  O   -0.815327
    34  O   -0.679815
    35  O   -0.566373
    36  O   -0.603210
 Sum of Mulliken charges =  -0.00000

 Dipole moment (field-independent basis, Debye):
    X=             -0.5340    Y=             -6.4631    Z=              2.1422  Tot=              6.8298

 Test job not archived.
 1\1\GINC-SE339\SP\RHF\Aug-CC-pVDZ\C10H20N2O4\OHZDE\08-Apr-2025\0\\#t h
 f aug-cc-pvdz iop(5/13=1,5/36=2,99/5=2) pseudo=read geom=check guess=(
 read,tcheck) scf=(maxcycle=1)\\title\\0,1\C,0,-1.58837,-1.25902,0.4352
 1\C,0,2.99411,-0.330837,-0.316384\C,0,1.51014,1.67735,0.52446\C,0,1.95
 039,0.146875,0.785262\C,0,-4.31017,0.235522,-1.53301\C,0,3.32097,-1.80
 836,-0.279988\C,0,-2.13096,1.20689,1.07789\C,0,-2.56808,-0.0793412,0.3
 049\C,0,-0.170173,-0.874246,-0.0698619\C,0,-2.80372,0.202564,-1.19335\
 H,0,-4.80394,0.982784,-0.910386\H,0,1.98127,1.33146,-1.28493\H,0,3.429

 Normal termination of Gaussian 16 at Tue Apr  8 22:15:07 2025.
