 Gaussian 16, Revision C.01,

 ----------------------------------------------------------------------
 #t hf aug-cc-pvdz symm=none int=(grid=ultrafine) guess=(read,tcheck) s
 table=(opt,rrhf)
 ----------------------------------------------------------------------
 -----
 title
 -----
 Symbolic Z-matrix:
 Charge =  0 Multiplicity = 1

 SCF Done:  E(RHF) =  -464.367283860     A.U. after   15 cycles
 Normal termination of Gaussian 16 at Tue Apr  8 21:40:50 2025.
 Gaussian 16:  ES64L-G16RevC.01  3-Jul-2019

 ----------------------------------------------------------------------
 #t hf aug-cc-pvdz iop(5/13=1,5/36=2,99/5=2) pseudo=read geom=check gue
 ss=(read,tcheck) scf=(maxcycle=1)
 ----------------------------------------------------------------------
 -----
 title
 -----
 Structure from the checkpoint file:  "ANI1ccx_474_conf23_mol1.chk"
 Charge =  0 Multiplicity = 1

                         Standard orientation:
 ---------------------------------------------------------------------
 Center     Atomic      Atomic             Coordinates (Angstroms)
 Number     Number       Type             X           Y           Z
 ---------------------------------------------------------------------
      1          6           0        1.364122   -0.260279    0.220955
      2          6           0       -0.485996    1.395588    0.134460
      3          1           0        2.587880    0.503119   -1.104930
      4          7           0        0.712154    1.027351   -0.060023
      5          7           0       -1.777537   -0.878333   -0.482835
      6          7           0       -2.331255   -1.745516   -0.119514
      7          8           0        2.498162   -0.343344   -0.552720
      8          8           0       -1.468373    2.013516    0.148270
      9          8           0        0.960188   -1.187609    0.855582
 ---------------------------------------------------------------------

 SCF Done:  E(RHF) =  -464.512288450     A.U. after    2 cycles

 The electronic state is 1-A.
 Alpha  occ. eigenvalues --  -20.68705 -20.65264 -20.59818 -15.76238 -15.75753
 Alpha  occ. eigenvalues --  -15.70199 -11.48374 -11.48056  -1.48790  -1.44633
 Alpha  occ. eigenvalues --   -1.43880  -1.35841  -1.24407  -0.92228  -0.82893
 Alpha  occ. eigenvalues --   -0.79029  -0.77008  -0.71964  -0.70863  -0.69271
 Alpha  occ. eigenvalues --   -0.66835  -0.63550  -0.63021  -0.61887  -0.61751
 Alpha  occ. eigenvalues --   -0.56026  -0.53672  -0.48753  -0.47598
 Alpha virt. eigenvalues --    0.02924   0.06051   0.07427   0.08450   0.09279
 Alpha virt. eigenvalues --    0.09925   0.10399   0.10786   0.11779   0.12284
 Alpha virt. eigenvalues --    0.12859   0.13858   0.14708   0.16776   0.16888

 Mulliken charges:
               1
     1  C    0.970729
     2  C    0.109498
     3  H    0.252872
     4  N   -0.351518
     5  N    0.037850
     6  N   -0.057484
     7  O   -0.489265
     8  O   -0.138701
     9  O   -0.333981
 Sum of Mulliken charges =  -0.00000

 Dipole moment (field-independent basis, Debye):
    X=              0.4357    Y=              2.2390    Z=             -1.5951  Tot=              2.7834

 Test job not archived.
 1\1\GINC-SE095\SP\RHF\Aug-CC-pVDZ\C2H1N3O3\OHZDE\08-Apr-2025\0\\#t hf
 aug-cc-pvdz iop(5/13=1,5/36=2,99/5=2) pseudo=read geom=check guess=(re
 ad,tcheck) scf=(maxcycle=1)\\title\\0,1\C,0,1.36412,-0.260281,0.220955
 \C,0,-0.485994,1.39559,0.13446\H,0,2.58788,0.503114,-1.10493\N,0,0.712
 155,1.02735,-0.0600233\N,0,-1.77754,-0.878328,-0.482835\N,0,-2.33126,-
 1.74551,-0.119514\O,0,2.49816,-0.343349,-0.55272\O,0,-1.46837,2.01352,
 0.14827\O,0,0.960184,-1.18761,0.855582\\Version=ES64L-G16RevC.01\State
 =1-A\HF=-464.5122884\RMSD=2.460e-03\Dipole=0.1714196,0.8808798,-0.6275

 Normal termination of Gaussian 16 at Tue Apr  8 21:40:54 2025.
