 Gaussian 16, Revision C.01,

 ----------------------------------------------------------------------
 #t hf aug-cc-pvdz symm=none int=(grid=ultrafine) guess=(read,tcheck) s
 table=(opt,rrhf)
 ----------------------------------------------------------------------
 -----
 title
 -----
 Symbolic Z-matrix:
 Charge =  0 Multiplicity = 1

 SCF Done:  E(RHF) =  -751.163971892     A.U. after   16 cycles
 Normal termination of Gaussian 16 at Tue Apr  8 19:51:42 2025.
 Gaussian 16:  ES64L-G16RevC.01  3-Jul-2019

 ----------------------------------------------------------------------
 #t hf aug-cc-pvdz iop(5/13=1,5/36=2,99/5=2) pseudo=read geom=check gue
 ss=(read,tcheck) scf=(maxcycle=1)
 ----------------------------------------------------------------------
 -----
 title
 -----
 Structure from the checkpoint file:  "ANI1ccx_1547_conf11_mol1.chk"
 Charge =  0 Multiplicity = 1

                         Standard orientation:
 ---------------------------------------------------------------------
 Center     Atomic      Atomic             Coordinates (Angstroms)
 Number     Number       Type             X           Y           Z
 ---------------------------------------------------------------------
      1          6           0       -3.957850   -1.008242   -0.159284
      2          6           0       -2.865230   -0.494843    0.723831
      3          6           0       -1.272801    1.337360    0.596790
      4          6           0        0.997975    2.290031   -0.033870
      5          6           0        2.045309    0.486092   -0.157195
      6          6           0        0.714148    0.094481    0.090882
      7          6           0        1.419751   -2.142869    0.074832
      8          6           0        3.123370   -0.464770   -0.104714
      9          1           0        1.166871   -3.201039    0.162678
     10          1           0       -0.540699   -1.517680    0.272862
     11          1           0        0.824146    3.288360    0.203800
     12          1           0       -1.711501    2.395629    0.215851
     13          1           0       -1.393671    1.104920    1.689110
     14          1           0       -3.257490    0.225309    1.456330
     15          1           0       -2.470410   -1.412081    1.141060
     16          1           0       -4.677050   -1.706802    0.401015
     17          1           0       -3.431550   -1.516761   -0.975926
     18          1           0       -4.021210    0.460207   -1.399160
     19          7           0        0.046085    1.279780    0.109553
     20          7           0        2.219649    1.825761   -0.227161
     21          7           0        0.389691   -1.213290    0.026073
     22          7           0        2.693440   -1.846559    0.063156
     23          8           0       -4.652570    0.055131   -0.784029
     24          8           0       -2.038320    0.286271   -0.092835
     25          8           0        4.296200   -0.219321   -0.267709
 ---------------------------------------------------------------------

 SCF Done:  E(RHF) =  -751.386633375     A.U. after    2 cycles

 The electronic state is 1-A.
 Alpha  occ. eigenvalues --  -20.63275 -20.59318 -20.52281 -15.73044 -15.72129
 Alpha  occ. eigenvalues --  -15.64657 -15.63234 -11.40792 -11.36981 -11.36046
 Alpha  occ. eigenvalues --  -11.34912 -11.33663 -11.33170 -11.32346 -11.26895
 Alpha  occ. eigenvalues --   -1.40831  -1.36512  -1.34217  -1.32760  -1.29660
 Alpha  occ. eigenvalues --   -1.20475  -1.16183  -1.05947  -1.04586  -0.97332
 Alpha  occ. eigenvalues --   -0.90404  -0.88937  -0.87245  -0.85151  -0.79018
 Alpha  occ. eigenvalues --   -0.75422  -0.74903  -0.74066  -0.73782  -0.71590
 Alpha  occ. eigenvalues --   -0.67941  -0.66907  -0.65527  -0.63568  -0.62548
 Alpha  occ. eigenvalues --   -0.61995  -0.61363  -0.59160  -0.57773  -0.55189
 Alpha  occ. eigenvalues --   -0.54347  -0.53658  -0.50494  -0.48021  -0.46586
 Alpha  occ. eigenvalues --   -0.46159  -0.42575  -0.40751  -0.40579  -0.31555
 Alpha virt. eigenvalues --    0.01121   0.01924   0.02698   0.03665   0.04489
 Alpha virt. eigenvalues --    0.04925   0.05337   0.06333   0.06796   0.07562
 Alpha virt. eigenvalues --    0.08397   0.08559   0.09638   0.10083   0.10977

 Mulliken charges:
               1
     1  C    0.508627
     2  C    0.828350
     3  C    0.691047
     4  C    0.939693
     5  C    0.424140
     6  C    0.285044
     7  C    0.779591
     8  C    0.507525
     9  H   -0.347283
    10  H   -0.121129
    11  H   -0.489466
    12  H   -0.043798
    13  H   -0.079181
    14  H   -0.219766
    15  H   -0.113060
    16  H   -0.009052
    17  H   -0.112026
    18  H    0.174543
    19  N   -0.141669
    20  N   -0.763138
    21  N   -0.215657
    22  N   -0.604070
    23  O   -0.529909
    24  O   -0.840941
    25  O   -0.508416
 Sum of Mulliken charges =  -0.00000

 Dipole moment (field-independent basis, Debye):
    X=            -10.3164    Y=             -0.6301    Z=              3.0702  Tot=             10.7820

 Test job not archived.
 1\1\GINC-SE252\SP\RHF\Aug-CC-pVDZ\C8H10N4O3\OHZDE\08-Apr-2025\0\\#t hf
  aug-cc-pvdz iop(5/13=1,5/36=2,99/5=2) pseudo=read geom=check guess=(r
 ead,tcheck) scf=(maxcycle=1)\\title\\0,1\C,0,-3.95785,-1.00824,-0.1592
 84\C,0,-2.86523,-0.494842,0.723831\C,0,-1.2728,1.33736,0.59679\C,0,0.9
 97976,2.29003,-0.0338702\C,0,2.04531,0.486091,-0.157195\C,0,0.714148,0
 .0944808,0.0908825\C,0,1.41975,-2.14287,0.0748318\C,0,3.12337,-0.46477
 1,-0.104714\H,0,1.16687,-3.20104,0.162678\H,0,-0.540699,-1.51768,0.272
 862\H,0,0.824148,3.28836,0.2038\H,0,-1.7115,2.39563,0.215851\H,0,-1.39

 Normal termination of Gaussian 16 at Tue Apr  8 19:52:07 2025.
