 Gaussian 16, Revision C.01,

 ----------------------------------------------------------------------
 #t hf aug-cc-pvdz symm=none int=(grid=ultrafine) guess=(read,tcheck) s
 table=(opt,rrhf)
 ----------------------------------------------------------------------
 -----
 title
 -----
 Symbolic Z-matrix:
 Charge =  0 Multiplicity = 1

 SCF Done:  E(RHF) =  -982.050387751     A.U. after   14 cycles
 Normal termination of Gaussian 16 at Tue Apr  8 20:41:48 2025.
 Gaussian 16:  ES64L-G16RevC.01  3-Jul-2019

 ----------------------------------------------------------------------
 #t hf aug-cc-pvdz iop(5/13=1,5/36=2,99/5=2) pseudo=read geom=check gue
 ss=(read,tcheck) scf=(maxcycle=1)
 ----------------------------------------------------------------------
 -----
 title
 -----
 Structure from the checkpoint file:  "ANI1ccx_1743_conf39_mol1.chk"
 Charge =  0 Multiplicity = 1

                         Standard orientation:
 ---------------------------------------------------------------------
 Center     Atomic      Atomic             Coordinates (Angstroms)
 Number     Number       Type             X           Y           Z
 ---------------------------------------------------------------------
      1          6           0        1.311800   -1.898391   -0.108516
      2          6           0        1.150910   -0.819714    1.006090
      3          6           0        1.929370   -1.277801   -1.356320
      4          6           0        3.201560   -0.399099   -1.124540
      5          6           0        2.939930    0.893822   -0.293548
      6          6           0       -1.021040    0.314576    0.131759
      7          6           0       -1.397410    1.697699   -0.256458
      8          6           0       -2.194600   -0.323174    0.948186
      9          6           0       -3.498690   -0.496361    0.132020
     10          1           0        0.384749    2.161689   -0.162314
     11          1           0       -4.031140   -1.003520   -1.514870
     12          1           0       -2.310950    0.228519    1.830830
     13          1           0       -1.951450   -1.230851    1.346820
     14          1           0       -0.912519   -0.262272   -0.812839
     15          1           0       -0.034707    0.507614    1.954110
     16          1           0        3.767970    1.523179    1.226620
     17          1           0        3.795900   -1.066931   -0.522489
     18          1           0        3.464240   -0.126617   -2.147730
     19          1           0        2.306740   -2.006381   -2.035020
     20          1           0        1.163570   -0.603393   -1.811930
     21          1           0        1.980410   -2.617411    0.445611
     22          1           0       -0.558975   -2.759611    0.320761
     23          1           0        0.014692   -3.055191   -1.190300
     24          7           0       -0.007181   -2.373351   -0.449825
     25          7           0        0.170594    0.152057    0.928042
     26          8           0        1.934560   -0.931276    1.891350
     27          8           0        2.003500    1.636619   -0.261819
     28          8           0        4.005370    0.988964    0.486879
     29          8           0       -2.578310    1.892359   -0.434889
     30          8           0       -4.607300   -0.283653    0.525240
     31          8           0       -3.186950   -0.895451   -1.118200
     32          8           0       -0.415049    2.556299   -0.431908
 ---------------------------------------------------------------------

 SCF Done:  E(RHF) =  -982.353376649     A.U. after    2 cycles

 The electronic state is 1-A.
 Alpha  occ. eigenvalues --  -20.64072 -20.62221 -20.61295 -20.59806 -20.56972
 Alpha  occ. eigenvalues --  -20.56010 -20.55415 -15.67427 -15.63734 -11.42895
 Alpha  occ. eigenvalues --  -11.40007 -11.39507 -11.38549 -11.31029 -11.30675
 Alpha  occ. eigenvalues --  -11.28060 -11.27239 -11.25845  -1.46540  -1.43353
 Alpha  occ. eigenvalues --   -1.42822  -1.39937  -1.36914  -1.33604  -1.33237
 Alpha  occ. eigenvalues --   -1.22838  -1.19120  -1.08812  -1.06292  -0.97971
 Alpha  occ. eigenvalues --   -0.96105  -0.90987  -0.86349  -0.84982  -0.83480
 Alpha  occ. eigenvalues --   -0.79231  -0.77473  -0.75160  -0.73271  -0.72359
 Alpha  occ. eigenvalues --   -0.71521  -0.70458  -0.69734  -0.69089  -0.67672
 Alpha  occ. eigenvalues --   -0.66923  -0.66823  -0.65671  -0.64396  -0.62992
 Alpha  occ. eigenvalues --   -0.61859  -0.61125  -0.60684  -0.59623  -0.59065
 Alpha  occ. eigenvalues --   -0.56189  -0.55974  -0.54772  -0.54087  -0.52791
 Alpha  occ. eigenvalues --   -0.50834  -0.50211  -0.49646  -0.48613  -0.47531
 Alpha  occ. eigenvalues --   -0.47342  -0.45039  -0.41346  -0.40703
 Alpha virt. eigenvalues --    0.01955   0.02838   0.03195   0.03830   0.04863
 Alpha virt. eigenvalues --    0.05304   0.05633   0.06274   0.07068   0.07438
 Alpha virt. eigenvalues --    0.07694   0.08274   0.09074   0.09860   0.10318

 Mulliken charges:
               1
     1  C    0.306647
     2  C    0.495574
     3  C    0.524088
     4  C    0.035652
     5  C    0.580232
     6  C    0.188201
     7  C    0.504165
     8  C    1.064515
     9  C    0.790122
    10  H    0.214900
    11  H    0.177083
    12  H   -0.247102
    13  H   -0.336356
    14  H   -0.060640
    15  H    0.241282
    16  H    0.130026
    17  H   -0.004097
    18  H    0.069792
    19  H   -0.188351
    20  H    0.033557
    21  H   -0.114099
    22  H    0.038649
    23  H    0.015179
    24  N   -0.383491
    25  N   -0.692691
    26  O   -0.543362
    27  O   -0.518521
    28  O   -0.433119
    29  O   -0.489833
    30  O   -0.509356
    31  O   -0.545581
    32  O   -0.343065
 Sum of Mulliken charges =  -0.00000

 Dipole moment (field-independent basis, Debye):
    X=              5.3429    Y=             -5.3367    Z=             -1.4196  Tot=              7.6839

 Test job not archived.
 1\1\GINC-SE221\SP\RHF\Aug-CC-pVDZ\C9H14N2O7\OHZDE\08-Apr-2025\0\\#t hf
  aug-cc-pvdz iop(5/13=1,5/36=2,99/5=2) pseudo=read geom=check guess=(r
 ead,tcheck) scf=(maxcycle=1)\\title\\0,1\C,0,1.3118,-1.89839,-0.108516
 \C,0,1.15091,-0.819713,1.00609\C,0,1.92937,-1.2778,-1.35632\C,0,3.2015
 6,-0.399098,-1.12454\C,0,2.93993,0.893823,-0.293548\C,0,-1.02104,0.314
 577,0.131759\C,0,-1.39741,1.6977,-0.256458\C,0,-2.1946,-0.323173,0.948
 186\C,0,-3.49869,-0.496361,0.13202\H,0,0.384748,2.16169,-0.162314\H,0,
 -4.03114,-1.00352,-1.51487\H,0,-2.31095,0.22852,1.83083\H,0,-1.95145,-

 Normal termination of Gaussian 16 at Tue Apr  8 20:42:40 2025.
