 Gaussian 16, Revision C.01,

 ----------------------------------------------------------------------
 #t hf aug-cc-pvdz symm=none int=(grid=ultrafine) guess=(read,tcheck) s
 table=(opt,rrhf)
 ----------------------------------------------------------------------
 -----
 title
 -----
 Symbolic Z-matrix:
 Charge =  0 Multiplicity = 1

 SCF Done:  E(RHF) =  -986.105637358     A.U. after   16 cycles
 Normal termination of Gaussian 16 at Tue Apr  8 21:37:37 2025.
 Gaussian 16:  ES64L-G16RevC.01  3-Jul-2019

 ----------------------------------------------------------------------
 #t hf aug-cc-pvdz iop(5/13=1,5/36=2,99/5=2) pseudo=read geom=check gue
 ss=(read,tcheck) scf=(maxcycle=1)
 ----------------------------------------------------------------------
 -----
 title
 -----
 Structure from the checkpoint file:  "ANI1ccx_325_conf2_mol1.chk"
 Charge =  0 Multiplicity = 1

                         Standard orientation:
 ---------------------------------------------------------------------
 Center     Atomic      Atomic             Coordinates (Angstroms)
 Number     Number       Type             X           Y           Z
 ---------------------------------------------------------------------
      1          6           0       -0.633174   -1.461450    0.696810
      2          6           0       -4.469100    1.431519    0.272427
      3          6           0       -3.223770    0.529170    0.234484
      4          6           0       -2.082790    0.976012   -0.694874
      5          6           0        3.998860    0.655241   -0.118859
      6          6           0        3.626900   -0.374217   -0.957741
      7          6           0       -1.183090    1.976020   -0.036651
      8          6           0        2.529581   -1.182160   -0.613341
      9          6           0        2.397730   -0.067567    1.516850
     10          6           0        1.881291   -1.035730    0.621552
     11          6           0        0.773109   -1.941370    1.053330
     12          6           0       -0.805343   -1.330620   -0.781873
     13          6           0        3.424010    0.805559    1.108440
     14          1           0       -1.616130   -0.378291   -2.282730
     15          1           0        0.435259    1.288900   -0.983170
     16          1           0       -4.169980    2.468289    0.477125
     17          1           0       -5.194780    1.115939    0.991387
     18          1           0       -4.953990    1.412039   -0.719826
     19          1           0       -4.133409   -0.657968   -1.068220
     20          1           0       -2.846250    0.345405    1.294500
     21          1           0       -2.571380    1.483449   -1.586890
     22          1           0        5.164520    1.534941   -1.412520
     23          1           0        1.902080    0.137588    2.456280
     24          1           0        3.746810    1.540480    1.875350
     25          1           0        2.053341   -1.917980   -1.275190
     26          1           0        0.960578   -2.921310    0.606932
     27          1           0        0.855638   -2.136180    2.118220
     28          1           0       -0.793648   -0.468325    1.168290
     29          1           0       -2.515289   -2.079781    1.161130
     30          1           0       -1.583059   -3.281300    0.709319
     31          1           0        4.115071   -0.539837   -1.922720
     32          7           0       -1.590279   -2.407310    1.232360
     33          7           0       -1.404130   -0.171951   -1.328250
     34          8           0       -3.693179   -0.767099   -0.191662
     35          8           0       -0.450721   -2.225360   -1.541880
     36          8           0        4.938210    1.611921   -0.482719
     37          8           0       -1.608820    2.861000    0.672104
     38          8           0        0.152034    1.922830   -0.298267
 ---------------------------------------------------------------------

 SCF Done:  E(RHF) =  -986.399055975     A.U. after    2 cycles

 The electronic state is 1-A.
 Alpha  occ. eigenvalues --  -20.63191 -20.60147 -20.59888 -20.57884 -20.55745
 Alpha  occ. eigenvalues --  -15.67220 -15.61030 -11.42153 -11.38229 -11.34144
 Alpha  occ. eigenvalues --  -11.33567 -11.31084 -11.29135 -11.25061 -11.25007
 Alpha  occ. eigenvalues --  -11.24911 -11.24857 -11.24331 -11.23955 -11.23826
 Alpha  occ. eigenvalues --   -1.42643  -1.36589  -1.35488  -1.34854  -1.33715
 Alpha  occ. eigenvalues --   -1.21544  -1.17978  -1.14337  -1.06552  -1.05105
 Alpha  occ. eigenvalues --   -1.01119  -0.99087  -0.97388  -0.90547  -0.87753
 Alpha  occ. eigenvalues --   -0.85284  -0.84805  -0.81287  -0.78798  -0.75568
 Alpha  occ. eigenvalues --   -0.74086  -0.73611  -0.71949  -0.68955  -0.68425
 Alpha  occ. eigenvalues --   -0.68043  -0.66913  -0.65857  -0.64389  -0.63538
 Alpha  occ. eigenvalues --   -0.62900  -0.62603  -0.61774  -0.60877  -0.59809
 Alpha  occ. eigenvalues --   -0.59153  -0.58674  -0.57811  -0.57640  -0.55966
 Alpha  occ. eigenvalues --   -0.55414  -0.53992  -0.52312  -0.51320  -0.50672
 Alpha  occ. eigenvalues --   -0.49940  -0.49527  -0.48980  -0.48250  -0.47676
 Alpha  occ. eigenvalues --   -0.47020  -0.42398  -0.39608  -0.34191  -0.32004
 Alpha virt. eigenvalues --    0.01767   0.03063   0.03619   0.04110   0.04277
 Alpha virt. eigenvalues --    0.05196   0.05326   0.05691   0.06325   0.06825
 Alpha virt. eigenvalues --    0.07159   0.07488   0.07796   0.08048   0.08909

 Mulliken charges:
               1
     1  C   -0.363402
     2  C    0.909119
     3  C    0.105681
     4  C    0.054404
     5  C    0.579706
     6  C    0.572187
     7  C    0.817650
     8  C    0.406907
     9  C    0.311425
    10  C    0.785913
    11  C    0.811189
    12  C    0.645704
    13  C    0.362213
    14  H   -0.117621
    15  H    0.237455
    16  H    0.043797
    17  H   -0.115460
    18  H   -0.020355
    19  H    0.201880
    20  H   -0.297542
    21  H   -0.004376
    22  H    0.128929
    23  H   -0.671651
    24  H   -0.455471
    25  H   -0.629382
    26  H   -0.010079
    27  H   -0.086378
    28  H   -0.358491
    29  H   -0.061588
    30  H    0.030856
    31  H   -0.534049
    32  N   -0.110840
    33  N   -0.315633
    34  O   -0.646335
    35  O   -0.629325
    36  O   -0.596410
    37  O   -0.511357
    38  O   -0.469268
 Sum of Mulliken charges =  -0.00000

 Dipole moment (field-independent basis, Debye):
    X=             -3.2525    Y=             -0.1174    Z=             -3.7852  Tot=              4.9920

 Test job not archived.
 1\1\GINC-SE044\SP\RHF\Aug-CC-pVDZ\C13H18N2O5\OHZDE\08-Apr-2025\0\\#t h
 f aug-cc-pvdz iop(5/13=1,5/36=2,99/5=2) pseudo=read geom=check guess=(
 read,tcheck) scf=(maxcycle=1)\\title\\0,1\C,0,-0.633175,-1.46145,0.696
 81\C,0,-4.4691,1.43152,0.272427\C,0,-3.22377,0.529171,0.234484\C,0,-2.
 08279,0.976013,-0.694874\C,0,3.99886,0.655241,-0.118859\C,0,3.6269,-0.
 374217,-0.957741\C,0,-1.18309,1.97602,-0.0366508\C,0,2.52958,-1.18216,
 -0.613341\C,0,2.39773,-0.0675676,1.51685\C,0,1.88129,-1.03573,0.621552
 \C,0,0.773108,-1.94137,1.05333\C,0,-0.805344,-1.33062,-0.781873\C,0,3.

 Normal termination of Gaussian 16 at Tue Apr  8 21:38:58 2025.
