 Gaussian 16, Revision C.01,

 ----------------------------------------------------------------------
 #t hf aug-cc-pvdz symm=none int=(grid=ultrafine) guess=(read,tcheck) s
 table=(opt,rrhf)
 ----------------------------------------------------------------------
 -----
 title
 -----
 Symbolic Z-matrix:
 Charge =  0 Multiplicity = 1

 SCF Done:  E(RHF) =  -792.020133400     A.U. after   13 cycles
 Normal termination of Gaussian 16 at Tue Apr  8 19:25:00 2025.
 Gaussian 16:  ES64L-G16RevC.01  3-Jul-2019

 ----------------------------------------------------------------------
 #t hf aug-cc-pvdz iop(5/13=1,5/36=2,99/5=2) pseudo=read geom=check gue
 ss=(read,tcheck) scf=(maxcycle=1)
 ----------------------------------------------------------------------
 -----
 title
 -----
 Structure from the checkpoint file:  "ANI1ccx_1216_conf11_mol2.chk"
 Charge =  0 Multiplicity = 1

                         Standard orientation:
 ---------------------------------------------------------------------
 Center     Atomic      Atomic             Coordinates (Angstroms)
 Number     Number       Type             X           Y           Z
 ---------------------------------------------------------------------
      1          6           0       -1.559800    1.321510   -0.739921
      2          6           0        1.641300    1.411189    0.257781
      3          6           0        1.299680   -0.612165    1.628300
      4          6           0       -1.961300   -0.358619    0.934418
      5          6           0       -1.337930   -1.109350   -1.347640
      6          6           0        1.934760   -0.761790   -0.755519
      7          1           0        2.732140   -0.308538   -1.389480
      8          1           0        2.208669   -1.774721   -0.430638
      9          1           0       -2.018471   -1.983749   -1.179200
     10          1           0       -1.429830   -0.710410   -2.362250
     11          1           0       -2.338870   -1.376799    1.061320
     12          1           0       -2.760520    0.331220    1.292300
     13          1           0        1.918010   -1.493091    1.763520
     14          1           0        1.471460    1.871090    1.204900
     15          1           0        2.587510    1.748679   -0.190982
     16          1           0       -1.385350    1.483120   -1.813650
     17          1           0       -2.461100    1.870591   -0.438997
     18          1           0        1.499880    0.095716    2.449860
     19          7           0        1.607130    0.028245    0.392600
     20          7           0       -1.715060   -0.077586   -0.425440
     21          8           0       -0.074544   -1.748370   -1.204760
     22          8           0       -0.556298    2.068750   -0.036516
     23          8           0        0.700755    1.961520   -0.693606
     24          8           0        0.017791   -1.155890    1.789240
     25          8           0       -0.929415   -0.116726    1.912970
     26          8           0        0.920677   -0.853332   -1.717500
 ---------------------------------------------------------------------

 SCF Done:  E(RHF) =  -792.267490794     A.U. after    2 cycles

 The electronic state is 1-A.
 Alpha  occ. eigenvalues --  -20.63346 -20.63157 -20.63059 -20.62721 -20.62542
 Alpha  occ. eigenvalues --  -20.62507 -15.63912 -15.63073 -11.33907 -11.33416
 Alpha  occ. eigenvalues --  -11.33286 -11.33276 -11.33240 -11.32604  -1.44586
 Alpha  occ. eigenvalues --   -1.43843  -1.42738  -1.28251  -1.22741  -1.22095
 Alpha  occ. eigenvalues --   -1.21378  -1.14507  -0.96843  -0.96577  -0.92545
 Alpha  occ. eigenvalues --   -0.92194  -0.83717  -0.81846  -0.74892  -0.74230
 Alpha  occ. eigenvalues --   -0.72667  -0.71808  -0.71435  -0.69912  -0.68936
 Alpha  occ. eigenvalues --   -0.68386  -0.66408  -0.63437  -0.62995  -0.61673
 Alpha  occ. eigenvalues --   -0.61468  -0.57057  -0.56516  -0.56089  -0.55212
 Alpha  occ. eigenvalues --   -0.52305  -0.51678  -0.50633  -0.50488  -0.49348
 Alpha  occ. eigenvalues --   -0.48314  -0.45430  -0.44638  -0.39755  -0.39044
 Alpha virt. eigenvalues --    0.03418   0.03835   0.04344   0.04410   0.05393
 Alpha virt. eigenvalues --    0.05457   0.06893   0.06909   0.07476   0.08004
 Alpha virt. eigenvalues --    0.08809   0.09111   0.09695   0.11038   0.12014

 Mulliken charges:
               1
     1  C    0.990601
     2  C    1.086241
     3  C    0.869876
     4  C    0.963749
     5  C    0.846479
     6  C    0.921720
     7  H   -0.249732
     8  H   -0.224294
     9  H   -0.210923
    10  H   -0.216891
    11  H   -0.239517
    12  H   -0.164645
    13  H   -0.386785
    14  H   -0.397181
    15  H   -0.268306
    16  H   -0.267798
    17  H   -0.252479
    18  H   -0.214708
    19  N    0.429287
    20  N    0.019031
    21  O   -0.508009
    22  O   -0.492460
    23  O   -0.533574
    24  O   -0.466792
    25  O   -0.534403
    26  O   -0.498488
 Sum of Mulliken charges =  -0.00000

 Dipole moment (field-independent basis, Debye):
    X=              0.1889    Y=             -0.4963    Z=             -0.1102  Tot=              0.5424

 Test job not archived.
 1\1\GINC-SE219\SP\RHF\Aug-CC-pVDZ\C6H12N2O6\OHZDE\08-Apr-2025\0\\#t hf
  aug-cc-pvdz iop(5/13=1,5/36=2,99/5=2) pseudo=read geom=check guess=(r
 ead,tcheck) scf=(maxcycle=1)\\title\\0,1\C,0,-1.5598,1.32151,-0.739921
 \C,0,1.6413,1.41119,0.257781\C,0,1.29968,-0.612165,1.6283\C,0,-1.9613,
 -0.358619,0.934418\C,0,-1.33793,-1.10935,-1.34764\C,0,1.93476,-0.76178
 9,-0.755519\H,0,2.73214,-0.308537,-1.38948\H,0,2.20867,-1.77472,-0.430
 638\H,0,-2.01847,-1.98375,-1.1792\H,0,-1.42983,-0.71041,-2.36225\H,0,-
 2.33887,-1.3768,1.06132\H,0,-2.76052,0.331219,1.2923\H,0,1.91801,-1.49

 Normal termination of Gaussian 16 at Tue Apr  8 19:25:28 2025.
