 Gaussian 16, Revision C.01,

 ----------------------------------------------------------------------
 #t hf aug-cc-pvdz symm=none int=(grid=ultrafine) guess=(read,tcheck) s
 table=(opt,rrhf)
 ----------------------------------------------------------------------
 -----
 title
 -----
 Symbolic Z-matrix:
 Charge =  0 Multiplicity = 1

 SCF Done:  E(RHF) =  -555.333603343     A.U. after   16 cycles
 Normal termination of Gaussian 16 at Tue Apr  8 21:58:08 2025.
 Gaussian 16:  ES64L-G16RevC.01  3-Jul-2019

 ----------------------------------------------------------------------
 #t hf aug-cc-pvdz iop(5/13=1,5/36=2,99/5=2) pseudo=read geom=check gue
 ss=(read,tcheck) scf=(maxcycle=1)
 ----------------------------------------------------------------------
 -----
 title
 -----
 Structure from the checkpoint file:  "ANI1ccx_886_conf10_mol2.chk"
 Charge =  0 Multiplicity = 1

                         Standard orientation:
 ---------------------------------------------------------------------
 Center     Atomic      Atomic             Coordinates (Angstroms)
 Number     Number       Type             X           Y           Z
 ---------------------------------------------------------------------
      1          6           0       -1.289528    0.740441   -0.007995
      2          6           0        0.933562    0.705833   -0.039086
      3          6           0        0.936085   -0.709115    0.021442
      4          6           0       -1.285530   -0.750555   -0.013069
      5          1           0       -3.212738    0.924978    0.593226
      6          1           0       -2.446637    2.375361    0.146515
      7          1           0       -2.439891   -2.359209   -0.148018
      8          1           0       -3.211380   -0.925631   -0.591987
      9          7           0       -2.510168    1.369131    0.021924
     10          7           0       -0.214321    1.458109   -0.045883
     11          7           0        2.175812    1.142907   -0.052529
     12          7           0        2.172580   -1.135683    0.064369
     13          7           0       -0.209061   -1.466561    0.032925
     14          7           0       -2.521200   -1.358859    0.003399
     15          8           0        2.910951    0.000198    0.007884
 ---------------------------------------------------------------------

 SCF Done:  E(RHF) =  -555.490055625     A.U. after    2 cycles

 The electronic state is 1-A.
 Alpha  occ. eigenvalues --  -20.69061 -15.71150 -15.71124 -15.68559 -15.68457
 Alpha  occ. eigenvalues --  -15.66926 -15.66639 -11.39078 -11.38981 -11.32944
 Alpha  occ. eigenvalues --  -11.32826  -1.49797  -1.33823  -1.26873  -1.23461
 Alpha  occ. eigenvalues --   -1.19980  -1.14612  -1.11622  -0.94340  -0.89139
 Alpha  occ. eigenvalues --   -0.86809  -0.79846  -0.77563  -0.72902  -0.71217
 Alpha  occ. eigenvalues --   -0.70346  -0.68852  -0.66930  -0.62176  -0.61811
 Alpha  occ. eigenvalues --   -0.55426  -0.54033  -0.52413  -0.50236  -0.48255
 Alpha  occ. eigenvalues --   -0.46760  -0.43156  -0.36906  -0.36585
 Alpha virt. eigenvalues --    0.01332   0.02722   0.03341   0.04738   0.05506
 Alpha virt. eigenvalues --    0.08245   0.08457   0.09912   0.10656   0.10798
 Alpha virt. eigenvalues --    0.12663   0.12844   0.12921   0.13081   0.13308

 Mulliken charges:
               1
     1  C    0.510078
     2  C    0.906027
     3  C    0.878208
     4  C    0.571764
     5  H    0.020191
     6  H    0.035842
     7  H    0.045623
     8  H    0.029925
     9  N   -0.347439
    10  N   -0.501861
    11  N   -0.354432
    12  N   -0.341055
    13  N   -0.511435
    14  N   -0.338126
    15  O   -0.603307
 Sum of Mulliken charges =  -0.00000

 Dipole moment (field-independent basis, Debye):
    X=             -8.3799    Y=             -0.0096    Z=             -0.1017  Tot=              8.3805

 Test job not archived.
 1\1\GINC-SE080\SP\RHF\Aug-CC-pVDZ\C4H4N6O1\OHZDE\08-Apr-2025\0\\#t hf
 aug-cc-pvdz iop(5/13=1,5/36=2,99/5=2) pseudo=read geom=check guess=(re
 ad,tcheck) scf=(maxcycle=1)\\title\\0,1\C,0,-1.28953,0.740441,-0.00799
 481\C,0,0.93356,0.705835,-0.0390858\C,0,0.936085,-0.709113,0.0214425\C
 ,0,-1.28553,-0.750555,-0.0130692\H,0,-3.21274,0.924977,0.593226\H,0,-2
 .44664,2.37536,0.146515\H,0,-2.43989,-2.35921,-0.148018\H,0,-3.21138,-
 0.925632,-0.591987\N,0,-2.51017,1.36913,0.0219236\N,0,-0.214323,1.4581
 1,-0.0458832\N,0,2.17581,1.14291,-0.0525285\N,0,2.17258,-1.13568,0.064

 Normal termination of Gaussian 16 at Tue Apr  8 21:58:16 2025.
