 Gaussian 16, Revision C.01,

 ----------------------------------------------------------------------
 #t hf aug-cc-pvdz symm=none int=(grid=ultrafine) guess=(read,tcheck) s
 table=(opt,rrhf)
 ----------------------------------------------------------------------
 -----
 title
 -----
 Symbolic Z-matrix:
 Charge =  0 Multiplicity = 1

 SCF Done:  E(RHF) =  -280.718972572     A.U. after   14 cycles
 Normal termination of Gaussian 16 at Tue Apr  8 21:10:17 2025.
 Gaussian 16:  ES64L-G16RevC.01  3-Jul-2019

 ----------------------------------------------------------------------
 #t hf aug-cc-pvdz iop(5/13=1,5/36=2,99/5=2) pseudo=read geom=check gue
 ss=(read,tcheck) scf=(maxcycle=1)
 ----------------------------------------------------------------------
 -----
 title
 -----
 Structure from the checkpoint file:  "ANI1ccx_1870_conf5_mol1.chk"
 Charge =  0 Multiplicity = 1

                         Standard orientation:
 ---------------------------------------------------------------------
 Center     Atomic      Atomic             Coordinates (Angstroms)
 Number     Number       Type             X           Y           Z
 ---------------------------------------------------------------------
      1          1           0        2.052740   -0.012979    0.022306
      2          1           0        3.230710    0.692648    0.613150
      3          1           0       -2.789860    0.632044   -0.282343
      4          7           0       -1.364410   -0.520641   -0.171284
      5          8           0        2.971700    0.170640   -0.143629
      6          8           0       -1.880260    0.693798    0.046248
      7          8           0       -0.209279   -0.572842    0.203115
 ---------------------------------------------------------------------

 SCF Done:  E(RHF) =  -280.808936363     A.U. after    2 cycles

 The electronic state is 1-A.
 Alpha  occ. eigenvalues --  -20.68910 -20.67017 -20.56240 -15.87399  -1.55424
 Alpha  occ. eigenvalues --   -1.39754  -1.30147  -0.96668  -0.81965  -0.75893
 Alpha  occ. eigenvalues --   -0.71695  -0.71239  -0.63671  -0.58792  -0.55118
 Alpha  occ. eigenvalues --   -0.51303  -0.49298
 Alpha virt. eigenvalues --    0.02517   0.05026   0.06449   0.08123   0.11432
 Alpha virt. eigenvalues --    0.13065   0.15834   0.17233   0.18069   0.18905
 Alpha virt. eigenvalues --    0.20708   0.21237   0.22029   0.23820   0.25453

 Mulliken charges:
               1
     1  H    0.118812
     2  H    0.133480
     3  H    0.248952
     4  N    0.531040
     5  O   -0.248079
     6  O   -0.419491
     7  O   -0.364714
 Sum of Mulliken charges =   0.00000

 Dipole moment (field-independent basis, Debye):
    X=             -4.5407    Y=              1.0135    Z=              0.7070  Tot=              4.7058

 Test job not archived.
 1\1\GINC-SE221\SP\RHF\Aug-CC-pVDZ\H3N1O3\OHZDE\08-Apr-2025\0\\#t hf au
 g-cc-pvdz iop(5/13=1,5/36=2,99/5=2) pseudo=read geom=check guess=(read
 ,tcheck) scf=(maxcycle=1)\\title\\0,1\H,0,2.05274,-0.0129792,0.0223059
 \H,0,3.23071,0.692648,0.61315\H,0,-2.78986,0.632044,-0.282343\N,0,-1.3
 6441,-0.520641,-0.171284\O,0,2.9717,0.17064,-0.143629\O,0,-1.88026,0.6
 93798,0.0462483\O,0,-0.209279,-0.572842,0.203115\\Version=ES64L-G16Rev
 C.01\State=1-A\HF=-280.8089364\RMSD=2.669e-03\Dipole=-1.786447,0.39874
 2,0.2781635\Quadrupole=2.4418746,-1.8786975,-0.563177,0.9850823,5.0736

 Normal termination of Gaussian 16 at Tue Apr  8 21:10:18 2025.
