 Gaussian 16, Revision C.01,

 ----------------------------------------------------------------------
 #t hf aug-cc-pvdz symm=none int=(grid=ultrafine) guess=(read,tcheck) s
 table=(opt,rrhf)
 ----------------------------------------------------------------------
 -----
 title
 -----
 Symbolic Z-matrix:
 Charge =  0 Multiplicity = 1

 SCF Done:  E(RHF) =  -756.521786389     A.U. after   14 cycles
 Normal termination of Gaussian 16 at Tue Apr  8 19:37:32 2025.
 Gaussian 16:  ES64L-G16RevC.01  3-Jul-2019

 ----------------------------------------------------------------------
 #t hf aug-cc-pvdz iop(5/13=1,5/36=2,99/5=2) pseudo=read geom=check gue
 ss=(read,tcheck) scf=(maxcycle=1)
 ----------------------------------------------------------------------
 -----
 title
 -----
 Structure from the checkpoint file:  "ANI1ccx_1435_conf32_mol1.chk"
 Charge =  0 Multiplicity = 1

                         Standard orientation:
 ---------------------------------------------------------------------
 Center     Atomic      Atomic             Coordinates (Angstroms)
 Number     Number       Type             X           Y           Z
 ---------------------------------------------------------------------
      1          6           0        1.574690   -0.198030    0.865158
      2          6           0        0.754414   -1.002440   -0.122783
      3          6           0        2.418379    0.785225    0.089441
      4          6           0        3.622520    0.191495   -0.673741
      5          6           0       -1.549150   -0.098381    0.534374
      6          6           0       -2.991690   -0.314819    0.022327
      7          6           0       -1.310071    1.401709    0.771449
      8          1           0       -3.979520   -1.088033   -1.267750
      9          1           0       -0.131799    1.792289   -0.722915
     10          1           0       -0.536829    1.534249    1.580100
     11          1           0       -2.282651    1.718218    1.106740
     12          1           0       -1.661430   -0.590256    1.570630
     13          1           0       -0.990371   -1.453211   -0.926444
     14          1           0        3.981379    0.893617   -1.445930
     15          1           0        4.484240    0.099823   -0.042143
     16          1           0        3.368020   -0.786745   -1.179830
     17          1           0        1.383039    2.438640   -0.736668
     18          1           0        2.873239    1.537561    0.848779
     19          1           0        0.906761    0.371681    1.548620
     20          1           0        1.861291   -1.892610    1.925250
     21          1           0        3.091071   -1.474829    0.828776
     22          7           0        2.423850   -1.153759    1.558740
     23          7           0       -0.577751   -0.817520   -0.258413
     24          8           0        1.343081   -1.790270   -0.861918
     25          8           0        1.586009    1.504600   -0.899545
     26          8           0       -3.973180    0.078735    0.568928
     27          8           0       -0.976901    2.105799   -0.349502
     28          8           0       -3.029470   -1.135112   -1.096320
 ---------------------------------------------------------------------

 SCF Done:  E(RHF) =  -756.752540403     A.U. after    2 cycles

 The electronic state is 1-A.
 Alpha  occ. eigenvalues --  -20.64875 -20.60155 -20.59808 -20.57646 -20.53757
 Alpha  occ. eigenvalues --  -15.66201 -15.62272 -11.43131 -11.36993 -11.33329
 Alpha  occ. eigenvalues --  -11.32979 -11.31111 -11.29651 -11.23459  -1.45261
 Alpha  occ. eigenvalues --   -1.36152  -1.35989  -1.35047  -1.33189  -1.21963
 Alpha  occ. eigenvalues --   -1.18298  -1.04720  -1.03235  -0.96116  -0.91989
 Alpha  occ. eigenvalues --   -0.84894  -0.83385  -0.78189  -0.75973  -0.75527
 Alpha  occ. eigenvalues --   -0.73323  -0.72018  -0.71109  -0.69875  -0.67377
 Alpha  occ. eigenvalues --   -0.66903  -0.64661  -0.63608  -0.63101  -0.60972
 Alpha  occ. eigenvalues --   -0.60056  -0.58958  -0.58158  -0.56542  -0.55202
 Alpha  occ. eigenvalues --   -0.53414  -0.53041  -0.51281  -0.50322  -0.49920
 Alpha  occ. eigenvalues --   -0.48347  -0.46748  -0.44968  -0.40930  -0.39557
 Alpha virt. eigenvalues --    0.02712   0.03292   0.03734   0.04236   0.05415
 Alpha virt. eigenvalues --    0.05916   0.06083   0.06888   0.07100   0.08000
 Alpha virt. eigenvalues --    0.08083   0.08887   0.10081   0.10419   0.10813

 Mulliken charges:
               1
     1  C    0.728937
     2  C    0.430542
     3  C    0.057342
     4  C    0.451829
     5  C   -0.013880
     6  C    0.758393
     7  C    1.068579
     8  H    0.203111
     9  H    0.259695
    10  H   -0.013645
    11  H   -0.234034
    12  H    0.167286
    13  H   -0.019061
    14  H   -0.175112
    15  H   -0.031848
    16  H    0.061444
    17  H    0.202255
    18  H    0.012128
    19  H   -0.281795
    20  H   -0.033537
    21  H    0.177145
    22  N   -0.370561
    23  N   -0.419738
    24  O   -0.643259
    25  O   -0.755701
    26  O   -0.479489
    27  O   -0.510691
    28  O   -0.596333
 Sum of Mulliken charges =  -0.00000

 Dipole moment (field-independent basis, Debye):
    X=              0.3166    Y=              0.7327    Z=              1.9981  Tot=              2.1516

 Test job not archived.
 1\1\GINC-SE457\SP\RHF\Aug-CC-pVDZ\C7H14N2O5\OHZDE\08-Apr-2025\0\\#t hf
  aug-cc-pvdz iop(5/13=1,5/36=2,99/5=2) pseudo=read geom=check guess=(r
 ead,tcheck) scf=(maxcycle=1)\\title\\0,1\C,0,1.57469,-0.19803,0.865158
 \C,0,0.754414,-1.00244,-0.122783\C,0,2.41838,0.785224,0.0894409\C,0,3.
 62252,0.191494,-0.673741\C,0,-1.54915,-0.0983799,0.534374\C,0,-2.99169
 ,-0.314817,0.0223274\C,0,-1.31007,1.40171,0.771449\H,0,-3.97952,-1.088
 03,-1.26775\H,0,-0.131798,1.79229,-0.722915\H,0,-0.536828,1.53425,1.58
 01\H,0,-2.28265,1.71822,1.10674\H,0,-1.66143,-0.590255,1.57063\H,0,-0.

 Normal termination of Gaussian 16 at Tue Apr  8 19:38:01 2025.
