 Gaussian 16, Revision C.01,

 ----------------------------------------------------------------------
 #t hf aug-cc-pvdz symm=none int=(grid=ultrafine) guess=(read,tcheck) s
 table=(opt,rrhf)
 ----------------------------------------------------------------------
 -----
 title
 -----
 Symbolic Z-matrix:
 Charge =  0 Multiplicity = 1

 SCF Done:  E(RHF) =  -739.900941233     A.U. after   14 cycles
 Normal termination of Gaussian 16 at Tue Apr  8 21:00:58 2025.
 Gaussian 16:  ES64L-G16RevC.01  3-Jul-2019

 ----------------------------------------------------------------------
 #t hf aug-cc-pvdz iop(5/13=1,5/36=2,99/5=2) pseudo=read geom=check gue
 ss=(read,tcheck) scf=(maxcycle=1)
 ----------------------------------------------------------------------
 -----
 title
 -----
 Structure from the checkpoint file:  "ANI1ccx_1784_conf3_mol2.chk"
 Charge =  0 Multiplicity = 1

                         Standard orientation:
 ---------------------------------------------------------------------
 Center     Atomic      Atomic             Coordinates (Angstroms)
 Number     Number       Type             X           Y           Z
 ---------------------------------------------------------------------
      1          6           0        2.612370   -1.039929    0.678539
      2          6           0       -3.263101    0.575189    0.041759
      3          6           0       -2.177721    1.109139    0.940344
      4          6           0       -0.823464    0.417300    0.908727
      5          6           0       -3.605560   -0.890732    0.262370
      6          6           0       -0.071921    0.553347   -0.423286
      7          6           0        2.192280   -0.301699    1.928150
      8          6           0        1.516560   -1.562139   -0.278322
      9          6           0        0.806501    1.761200   -0.573352
     10          1           0       -2.000111    2.169720    0.671485
     11          1           0        1.689249    0.689145   -1.816950
     12          1           0       -5.548930   -0.829573   -0.304701
     13          1           0       -4.470080   -1.125021   -1.507380
     14          1           0       -3.762120   -1.043751    1.334510
     15          1           0       -2.733860   -1.548081    0.045039
     16          1           0       -4.174971    1.220979    0.191730
     17          1           0       -2.948461    0.715888   -1.016420
     18          1           0       -2.509501    1.058229    1.987370
     19          1           0       -0.842669    0.645628   -1.194440
     20          1           0       -0.190109    0.907631    1.669390
     21          1           0       -0.017332   -1.247250   -1.438740
     22          1           0        1.416460   -0.896501    2.456940
     23          1           0        3.053100   -0.296236    2.613460
     24          1           0        1.907299    0.724590    1.681710
     25          1           0        3.148890   -1.926509    0.991053
     26          1           0        3.966180   -0.777642   -0.853700
     27          1           0        3.215589    0.624153   -0.326024
     28          1           0       -0.925658   -0.642163    1.163820
     29          7           0        3.630390   -0.258402   -0.046330
     30          7           0        0.572350   -0.674847   -0.838703
     31          7           0       -4.692390   -1.306641   -0.531502
     32          8           0        0.656117    2.834170   -0.039228
     33          8           0        1.533480   -2.710539   -0.674658
     34          8           0        1.815269    1.567111   -1.453860
 ---------------------------------------------------------------------

 SCF Done:  E(RHF) =  -740.125935051     A.U. after    2 cycles

 The electronic state is 1-A.
 Alpha  occ. eigenvalues --  -20.63828 -20.58231 -20.56645 -15.67491 -15.62017
 Alpha  occ. eigenvalues --  -15.61184 -11.41933 -11.38718 -11.32832 -11.29082
 Alpha  occ. eigenvalues --  -11.26944 -11.25841 -11.25021 -11.24680 -11.24511
 Alpha  occ. eigenvalues --   -1.44373  -1.37639  -1.34968  -1.23118  -1.17959
 Alpha  occ. eigenvalues --   -1.17425  -1.09326  -1.02703  -1.01270  -0.95218
 Alpha  occ. eigenvalues --   -0.89421  -0.87969  -0.85484  -0.81503  -0.80311
 Alpha  occ. eigenvalues --   -0.74130  -0.72994  -0.70147  -0.69870  -0.68508
 Alpha  occ. eigenvalues --   -0.67535  -0.66914  -0.64972  -0.64054  -0.62797
 Alpha  occ. eigenvalues --   -0.62671  -0.60782  -0.59597  -0.58487  -0.57961
 Alpha  occ. eigenvalues --   -0.56386  -0.55087  -0.53422  -0.52510  -0.52090
 Alpha  occ. eigenvalues --   -0.51582  -0.50429  -0.48968  -0.48356  -0.48070
 Alpha  occ. eigenvalues --   -0.47528  -0.42333  -0.39636  -0.38643
 Alpha virt. eigenvalues --    0.02246   0.02919   0.03433   0.04288   0.04603
 Alpha virt. eigenvalues --    0.04747   0.05671   0.06215   0.06943   0.07005
 Alpha virt. eigenvalues --    0.07268   0.07542   0.08611   0.08815   0.09495

 Mulliken charges:
               1
     1  C    0.112675
     2  C    0.354578
     3  C   -0.189575
     4  C    0.669275
     5  C    0.882581
     6  C    0.302365
     7  C    1.052750
     8  C    0.513550
     9  C    0.603467
    10  H    0.057379
    11  H    0.333959
    12  H   -0.003722
    13  H    0.016166
    14  H   -0.143873
    15  H   -0.240004
    16  H   -0.067823
    17  H   -0.042980
    18  H   -0.049689
    19  H   -0.384382
    20  H   -0.199935
    21  H    0.030841
    22  H    0.016088
    23  H   -0.154153
    24  H   -0.094968
    25  H   -0.262432
    26  H    0.005654
    27  H    0.083628
    28  H   -0.229822
    29  N   -0.331189
    30  N   -0.638757
    31  N   -0.368001
    32  O   -0.512444
    33  O   -0.530314
    34  O   -0.590894
 Sum of Mulliken charges =  -0.00000

 Dipole moment (field-independent basis, Debye):
    X=             -3.0105    Y=              0.0921    Z=             -0.3084  Tot=              3.0277

 Test job not archived.
 1\1\GINC-SE220\SP\RHF\Aug-CC-pVDZ\C9H19N3O3\OHZDE\08-Apr-2025\0\\#t hf
  aug-cc-pvdz iop(5/13=1,5/36=2,99/5=2) pseudo=read geom=check guess=(r
 ead,tcheck) scf=(maxcycle=1)\\title\\0,1\C,0,2.61237,-1.03993,0.678539
 \C,0,-3.2631,0.57519,0.0417591\C,0,-2.17772,1.10914,0.940344\C,0,-0.82
 3463,0.4173,0.908727\C,0,-3.60556,-0.890731,0.26237\C,0,-0.0719208,0.5
 53347,-0.423286\C,0,2.19228,-0.3017,1.92815\C,0,1.51656,-1.56214,-0.27
 8322\C,0,0.806502,1.7612,-0.573352\H,0,-2.00011,2.16972,0.671485\H,0,1
 .68925,0.689144,-1.81695\H,0,-5.54893,-0.829571,-0.304701\H,0,-4.47008

 Normal termination of Gaussian 16 at Tue Apr  8 21:01:46 2025.
