 Gaussian 16, Revision C.01,

 ----------------------------------------------------------------------
 #t hf aug-cc-pvdz symm=none int=(grid=ultrafine) guess=(read,tcheck) s
 table=(opt,rrhf)
 ----------------------------------------------------------------------
 -----
 title
 -----
 Symbolic Z-matrix:
 Charge =  0 Multiplicity = 1

 SCF Done:  E(RHF) =  -356.585547784     A.U. after   14 cycles
 Normal termination of Gaussian 16 at Tue Apr  8 21:11:22 2025.
 Gaussian 16:  ES64L-G16RevC.01  3-Jul-2019

 ----------------------------------------------------------------------
 #t hf aug-cc-pvdz iop(5/13=1,5/36=2,99/5=2) pseudo=read geom=check gue
 ss=(read,tcheck) scf=(maxcycle=1)
 ----------------------------------------------------------------------
 -----
 title
 -----
 Structure from the checkpoint file:  "ANI1ccx_1890_conf3_mol2.chk"
 Charge =  0 Multiplicity = 1

                         Standard orientation:
 ---------------------------------------------------------------------
 Center     Atomic      Atomic             Coordinates (Angstroms)
 Number     Number       Type             X           Y           Z
 ---------------------------------------------------------------------
      1          1           0       -2.183309    1.379813   -0.758854
      2          1           0       -2.366611   -1.242577    0.682350
      3          1           0        3.106311    1.119948    0.165794
      4          1           0        2.181889   -0.646298    1.176730
      5          1           0        1.199730    0.032697    0.054622
      6          7           0        2.054009   -0.510685    0.173622
      7          8           0       -1.977149    1.191033    0.174578
      8          8           0       -1.167950    0.006605   -0.002572
      9          8           0       -2.061431   -1.082237   -0.225700
     10          8           0        3.167020    0.251001   -0.263305
 ---------------------------------------------------------------------

 SCF Done:  E(RHF) =  -356.701639861     A.U. after    2 cycles

 The electronic state is 1-A.
 Alpha  occ. eigenvalues --  -20.72972 -20.67657 -20.67514 -20.59855 -15.66235
 Alpha  occ. eigenvalues --   -1.50822  -1.35055  -1.34790  -1.14503  -1.04269
 Alpha  occ. eigenvalues --   -0.80860  -0.72556  -0.71672  -0.71223  -0.69244
 Alpha  occ. eigenvalues --   -0.68279  -0.58392  -0.55738  -0.55273  -0.53935
 Alpha  occ. eigenvalues --   -0.49204  -0.41569
 Alpha virt. eigenvalues --    0.03140   0.04115   0.04562   0.06329   0.08528
 Alpha virt. eigenvalues --    0.12066   0.13885   0.15150   0.15665   0.18129
 Alpha virt. eigenvalues --    0.18504   0.20144   0.20405   0.21079   0.21741

 Mulliken charges:
               1
     1  H    0.257242
     2  H    0.249837
     3  H    0.137808
     4  H    0.088135
     5  H    0.089840
     6  N    0.136256
     7  O   -0.206527
     8  O   -0.120802
     9  O   -0.188837
    10  O   -0.442953
 Sum of Mulliken charges =   0.00000

 Dipole moment (field-independent basis, Debye):
    X=             -3.0565    Y=              1.9860    Z=              2.0743  Tot=              4.1939

 Test job not archived.
 1\1\GINC-SE328\SP\RHF\Aug-CC-pVDZ\H5N1O4\OHZDE\08-Apr-2025\0\\#t hf au
 g-cc-pvdz iop(5/13=1,5/36=2,99/5=2) pseudo=read geom=check guess=(read
 ,tcheck) scf=(maxcycle=1)\\title\\0,1\H,0,-2.18331,1.37981,-0.758854\H
 ,0,-2.36661,-1.24258,0.68235\H,0,3.10631,1.11995,0.165794\H,0,2.18189,
 -0.646297,1.17673\H,0,1.19973,0.0326967,0.0546224\N,0,2.05401,-0.51068
 4,0.173622\O,0,-1.97715,1.19103,0.174578\O,0,-1.16795,0.00660235,-0.00
 257183\O,0,-2.06143,-1.08224,-0.2257\O,0,3.16702,0.251003,-0.263305\\V
 ersion=ES64L-G16RevC.01\State=1-A\HF=-356.7016399\RMSD=2.061e-03\Dipol

 Normal termination of Gaussian 16 at Tue Apr  8 21:11:24 2025.
