 Gaussian 16, Revision C.01,

 ----------------------------------------------------------------------
 #t hf aug-cc-pvdz symm=none int=(grid=ultrafine) guess=(read,tcheck) s
 table=(opt,rrhf)
 ----------------------------------------------------------------------
 -----
 title
 -----
 Symbolic Z-matrix:
 Charge =  0 Multiplicity = 1

 SCF Done:  E(RHF) =  -538.485205096     A.U. after   16 cycles
 Normal termination of Gaussian 16 at Tue Apr  8 21:50:47 2025.
 Gaussian 16:  ES64L-G16RevC.01  3-Jul-2019

 ----------------------------------------------------------------------
 #t hf aug-cc-pvdz iop(5/13=1,5/36=2,99/5=2) pseudo=read geom=check gue
 ss=(read,tcheck) scf=(maxcycle=1)
 ----------------------------------------------------------------------
 -----
 title
 -----
 Structure from the checkpoint file:  "ANI1ccx_716_conf7_mol1.chk"
 Charge =  0 Multiplicity = 1

                         Standard orientation:
 ---------------------------------------------------------------------
 Center     Atomic      Atomic             Coordinates (Angstroms)
 Number     Number       Type             X           Y           Z
 ---------------------------------------------------------------------
      1          6           0       -0.699619    0.516035    0.397603
      2          6           0       -1.958949   -0.402580    0.013135
      3          6           0        0.660714    0.029739    0.037868
      4          1           0       -1.703269    2.205679    0.384171
      5          1           0       -0.897901    1.923969   -1.048940
      6          1           0       -0.750361    0.661366    1.474720
      7          1           0       -0.616332   -1.774481   -0.443148
      8          1           0        1.353141    1.752650   -0.627181
      9          7           0       -0.868362    1.871689   -0.074311
     10          7           0        1.271971   -1.134540    0.323536
     11          7           0        2.585661   -0.892149    0.202555
     12          7           0        2.842101    0.325166   -0.208225
     13          7           0        1.634721    0.873784   -0.221404
     14          8           0       -1.637189   -1.633411   -0.453142
     15          8           0       -3.070409    0.016412    0.129852
 ---------------------------------------------------------------------

 SCF Done:  E(RHF) =  -538.640282527     A.U. after    2 cycles

 The electronic state is 1-A.
 Alpha  occ. eigenvalues --  -20.64841 -20.59316 -15.76232 -15.74904 -15.73457
 Alpha  occ. eigenvalues --  -15.69669 -15.66231 -11.43255 -11.37039 -11.35287
 Alpha  occ. eigenvalues --   -1.47823  -1.43658  -1.35557  -1.25518  -1.23007
 Alpha  occ. eigenvalues --   -1.17934  -1.00482  -0.91868  -0.88788  -0.85254
 Alpha  occ. eigenvalues --   -0.80129  -0.77620  -0.73711  -0.70280  -0.69845
 Alpha  occ. eigenvalues --   -0.66988  -0.64211  -0.62537  -0.60836  -0.57647
 Alpha  occ. eigenvalues --   -0.52826  -0.51729  -0.50256  -0.47680  -0.46884
 Alpha  occ. eigenvalues --   -0.44616  -0.41717
 Alpha virt. eigenvalues --    0.01809   0.03082   0.04137   0.04904   0.06867
 Alpha virt. eigenvalues --    0.08187   0.09490   0.10012   0.10918   0.11284
 Alpha virt. eigenvalues --    0.12219   0.12788   0.13326   0.13703   0.14061

 Mulliken charges:
               1
     1  C    0.266392
     2  C    0.686568
     3  C    0.885612
     4  H    0.036189
     5  H   -0.035152
     6  H    0.001430
     7  H    0.274773
     8  H    0.028681
     9  N   -0.232703
    10  N   -0.524909
    11  N   -0.210656
    12  N   -0.124896
    13  N   -0.125228
    14  O   -0.512915
    15  O   -0.413186
 Sum of Mulliken charges =   0.00000

 Dipole moment (field-independent basis, Debye):
    X=              0.1665    Y=              4.0925    Z=             -0.9647  Tot=              4.2080

 Test job not archived.
 1\1\GINC-SE365\SP\RHF\Aug-CC-pVDZ\C3H5N5O2\OHZDE\08-Apr-2025\0\\#t hf
 aug-cc-pvdz iop(5/13=1,5/36=2,99/5=2) pseudo=read geom=check guess=(re
 ad,tcheck) scf=(maxcycle=1)\\title\\0,1\C,0,-0.69962,0.516036,0.397603
 \C,0,-1.95895,-0.402579,0.013135\C,0,0.660713,0.0297394,0.0378679\H,0,
 -1.70327,2.20568,0.384171\H,0,-0.897902,1.92397,-1.04894\H,0,-0.750362
 ,0.661367,1.47472\H,0,-0.616333,-1.77448,-0.443148\H,0,1.35314,1.75265
 ,-0.627181\N,0,-0.868363,1.87169,-0.0743111\N,0,1.27197,-1.13454,0.323
 536\N,0,2.58566,-0.892149,0.202555\N,0,2.8421,0.325166,-0.208225\N,0,1

 Normal termination of Gaussian 16 at Tue Apr  8 21:50:53 2025.
