 Gaussian 16, Revision C.01,

 ----------------------------------------------------------------------
 #t hf aug-cc-pvdz symm=none int=(grid=ultrafine) guess=(read,tcheck) s
 table=(opt,rrhf)
 ----------------------------------------------------------------------
 -----
 title
 -----
 Symbolic Z-matrix:
 Charge =  0 Multiplicity = 1

 SCF Done:  E(RHF) =  -479.983997274     A.U. after   19 cycles
 Normal termination of Gaussian 16 at Tue Apr  8 21:38:47 2025.
 Gaussian 16:  ES64L-G16RevC.01  3-Jul-2019

 ----------------------------------------------------------------------
 #t hf aug-cc-pvdz iop(5/13=1,5/36=2,99/5=2) pseudo=read geom=check gue
 ss=(read,tcheck) scf=(maxcycle=1)
 ----------------------------------------------------------------------
 -----
 title
 -----
 Structure from the checkpoint file:  "ANI1ccx_456_conf27_mol1.chk"
 Charge =  0 Multiplicity = 1

                         Standard orientation:
 ---------------------------------------------------------------------
 Center     Atomic      Atomic             Coordinates (Angstroms)
 Number     Number       Type             X           Y           Z
 ---------------------------------------------------------------------
      1          6           0        0.003524   -0.006012   -0.227593
      2          7           0        1.371730   -0.066544   -0.142533
      3          7           0       -0.563386    1.130770    0.240628
      4          7           0       -1.993121    0.682027    0.265924
      5          7           0       -2.098110   -0.496474   -0.000177
      6          8           0        1.753770   -1.152699    0.495835
      7          8           0        1.936089    1.084541   -0.233482
      8          8           0       -0.819976   -1.020890   -0.410020
 ---------------------------------------------------------------------

 SCF Done:  E(RHF) =  -480.122423895     A.U. after    2 cycles

 The electronic state is 1-A.
 Alpha  occ. eigenvalues --  -20.75345 -20.70499 -20.69317 -15.98426 -15.83328
 Alpha  occ. eigenvalues --  -15.79914 -15.76391 -11.49144  -1.58713  -1.55193
 Alpha  occ. eigenvalues --   -1.39343  -1.37030  -1.25595  -1.10728  -0.95800
 Alpha  occ. eigenvalues --   -0.88376  -0.83827  -0.79685  -0.77244  -0.74651
 Alpha  occ. eigenvalues --   -0.72042  -0.64553  -0.59549  -0.58931  -0.57818
 Alpha  occ. eigenvalues --   -0.56144  -0.52284  -0.51066  -0.48670
 Alpha virt. eigenvalues --   -0.05638   0.05671   0.06842   0.07826   0.08431
 Alpha virt. eigenvalues --    0.08593   0.10409   0.12290   0.12777   0.14719
 Alpha virt. eigenvalues --    0.15720   0.17362   0.18133   0.18735   0.20460

 Mulliken charges:
               1
     1  C    1.277438
     2  N    0.400509
     3  N   -0.365007
     4  N   -0.008953
     5  N    0.172013
     6  O   -0.515162
     7  O   -0.496240
     8  O   -0.464597
 Sum of Mulliken charges =  -0.00000

 Dipole moment (field-independent basis, Debye):
    X=             -1.1125    Y=             -0.3478    Z=             -1.2043  Tot=              1.6760

 Test job not archived.
 1\1\GINC-SE455\SP\RHF\Aug-CC-pVDZ\C1N4O3\OHZDE\08-Apr-2025\0\\#t hf au
 g-cc-pvdz iop(5/13=1,5/36=2,99/5=2) pseudo=read geom=check guess=(read
 ,tcheck) scf=(maxcycle=1)\\title\\0,1\C,0,0.00352402,-0.0060117,-0.227
 593\N,0,1.37173,-0.0665447,-0.142533\N,0,-0.563385,1.13077,0.240628\N,
 0,-1.99312,0.682028,0.265924\N,0,-2.09811,-0.496473,-0.00017688\O,0,1.
 75377,-1.1527,0.495835\O,0,1.93609,1.08454,-0.233482\O,0,-0.819976,-1.
 02089,-0.41002\\Version=ES64L-G16RevC.01\State=1-A\HF=-480.1224239\RMS
 D=3.152e-03\Dipole=-0.4377045,-0.1368418,-0.4737941\Quadrupole=-2.1678

 Normal termination of Gaussian 16 at Tue Apr  8 21:38:50 2025.
