 Gaussian 16, Revision C.01,

 ----------------------------------------------------------------------
 #t hf aug-cc-pvdz symm=none int=(grid=ultrafine) guess=(read,tcheck) s
 table=(opt,rrhf)
 ----------------------------------------------------------------------
 -----
 title
 -----
 Symbolic Z-matrix:
 Charge =  0 Multiplicity = 1

 SCF Done:  E(RHF) =  -756.557053281     A.U. after   15 cycles
 Normal termination of Gaussian 16 at Tue Apr  8 19:36:04 2025.
 Gaussian 16:  ES64L-G16RevC.01  3-Jul-2019

 ----------------------------------------------------------------------
 #t hf aug-cc-pvdz iop(5/13=1,5/36=2,99/5=2) pseudo=read geom=check gue
 ss=(read,tcheck) scf=(maxcycle=1)
 ----------------------------------------------------------------------
 -----
 title
 -----
 Structure from the checkpoint file:  "ANI1ccx_1435_conf1_mol1.chk"
 Charge =  0 Multiplicity = 1

                         Standard orientation:
 ---------------------------------------------------------------------
 Center     Atomic      Atomic             Coordinates (Angstroms)
 Number     Number       Type             X           Y           Z
 ---------------------------------------------------------------------
      1          6           0        1.725080    0.540902    0.562279
      2          6           0        0.292337    0.505017    0.034851
      3          6           0        2.679170    0.201750   -0.588864
      4          6           0        4.158790    0.208407   -0.215193
      5          6           0       -1.970050    0.148407    0.642767
      6          6           0       -2.080430   -1.239719    0.057411
      7          6           0       -2.548910    1.096041   -0.385168
      8          1           0       -3.333180   -2.473399   -0.575220
      9          1           0       -1.459300    2.706061   -0.711845
     10          1           0       -2.205120    0.852870   -1.407310
     11          1           0       -3.646920    1.082541   -0.432515
     12          1           0       -2.578460    0.181998    1.526120
     13          1           0       -0.179239   -0.141776    1.751710
     14          1           0        4.477790    1.190431    0.210350
     15          1           0        4.354430   -0.589383    0.490918
     16          1           0        4.786920    0.006263   -1.091500
     17          1           0        1.524090   -1.275989   -1.373470
     18          1           0        2.530800    0.860311   -1.460290
     19          1           0        1.913540    1.580691    0.915697
     20          1           0        2.734820   -0.248891    2.089820
     21          1           0        1.841830   -1.364159    1.312870
     22          7           0        1.882930   -0.377622    1.654600
     23          7           0       -0.584372    0.477508    1.031880
     24          8           0        0.103310    0.753157   -1.151630
     25          8           0        2.406820   -1.171689   -0.965781
     26          8           0       -1.157560   -1.972389   -0.199623
     27          8           0       -2.210060    2.489831   -0.115454
     28          8           0       -3.315990   -1.577859   -0.154915
 ---------------------------------------------------------------------

 SCF Done:  E(RHF) =  -756.788242691     A.U. after    2 cycles

 The electronic state is 1-A.
 Alpha  occ. eigenvalues --  -20.65262 -20.57832 -20.57236 -20.56102 -20.54882
 Alpha  occ. eigenvalues --  -15.66052 -15.61636 -11.41398 -11.36645 -11.31021
 Alpha  occ. eigenvalues --  -11.30098 -11.28889 -11.28090 -11.22975  -1.46655
 Alpha  occ. eigenvalues --   -1.36675  -1.34683  -1.30723  -1.30318  -1.23279
 Alpha  occ. eigenvalues --   -1.17657  -1.06162  -1.01575  -0.94550  -0.90828
 Alpha  occ. eigenvalues --   -0.86423  -0.80587  -0.77631  -0.75338  -0.74064
 Alpha  occ. eigenvalues --   -0.73254  -0.70434  -0.69688  -0.68341  -0.67526
 Alpha  occ. eigenvalues --   -0.66273  -0.63712  -0.63027  -0.61606  -0.60347
 Alpha  occ. eigenvalues --   -0.59223  -0.57571  -0.55296  -0.54185  -0.53698
 Alpha  occ. eigenvalues --   -0.52708  -0.52079  -0.51452  -0.49633  -0.48900
 Alpha  occ. eigenvalues --   -0.47120  -0.46742  -0.44936  -0.42620  -0.39656
 Alpha virt. eigenvalues --    0.02821   0.03335   0.03907   0.04280   0.05180
 Alpha virt. eigenvalues --    0.05604   0.05774   0.07209   0.07446   0.07689
 Alpha virt. eigenvalues --    0.07790   0.08189   0.09397   0.10453   0.11026

 Mulliken charges:
               1
     1  C    0.488160
     2  C   -0.166466
     3  C    0.646574
     4  C    0.564002
     5  C    0.489789
     6  C    0.583309
     7  C    1.082743
     8  H    0.238525
     9  H    0.204109
    10  H   -0.094070
    11  H   -0.186257
    12  H   -0.181812
    13  H    0.133072
    14  H    0.046200
    15  H   -0.070859
    16  H   -0.004941
    17  H    0.183286
    18  H   -0.340865
    19  H   -0.081124
    20  H   -0.095692
    21  H    0.178362
    22  N   -0.355252
    23  N   -0.360030
    24  O   -0.578157
    25  O   -0.676219
    26  O   -0.482658
    27  O   -0.638519
    28  O   -0.525211
 Sum of Mulliken charges =  -0.00000

 Dipole moment (field-independent basis, Debye):
    X=             -0.7836    Y=             -1.0586    Z=              1.5767  Tot=              2.0545

 Test job not archived.
 1\1\GINC-SE402\SP\RHF\Aug-CC-pVDZ\C7H14N2O5\OHZDE\08-Apr-2025\0\\#t hf
  aug-cc-pvdz iop(5/13=1,5/36=2,99/5=2) pseudo=read geom=check guess=(r
 ead,tcheck) scf=(maxcycle=1)\\title\\0,1\C,0,1.72508,0.540901,0.562279
 \C,0,0.292337,0.505016,0.0348512\C,0,2.67917,0.201749,-0.588864\C,0,4.
 15879,0.208406,-0.215193\C,0,-1.97005,0.148406,0.642767\C,0,-2.08043,-
 1.23972,0.057411\C,0,-2.54891,1.09604,-0.385168\H,0,-3.33318,-2.4734,-
 0.57522\H,0,-1.4593,2.70606,-0.711845\H,0,-2.20512,0.852869,-1.40731\H
 ,0,-3.64692,1.08254,-0.432515\H,0,-2.57846,0.181997,1.52612\H,0,-0.179

 Normal termination of Gaussian 16 at Tue Apr  8 19:36:34 2025.
