 Gaussian 16, Revision C.01,

 ----------------------------------------------------------------------
 #t hf aug-cc-pvdz symm=none int=(grid=ultrafine) guess=(read,tcheck) s
 table=(opt,rrhf)
 ----------------------------------------------------------------------
 -----
 title
 -----
 Symbolic Z-matrix:
 Charge =  0 Multiplicity = 1

 SCF Done:  E(RHF) =  -471.567728262     A.U. after   13 cycles
 Normal termination of Gaussian 16 at Tue Apr  8 21:51:28 2025.
 Gaussian 16:  ES64L-G16RevC.01  3-Jul-2019

 ----------------------------------------------------------------------
 #t hf aug-cc-pvdz iop(5/13=1,5/36=2,99/5=2) pseudo=read geom=check gue
 ss=(read,tcheck) scf=(maxcycle=1)
 ----------------------------------------------------------------------
 -----
 title
 -----
 Structure from the checkpoint file:  "ANI1ccx_745_conf2_mol1.chk"
 Charge =  0 Multiplicity = 1

                         Standard orientation:
 ---------------------------------------------------------------------
 Center     Atomic      Atomic             Coordinates (Angstroms)
 Number     Number       Type             X           Y           Z
 ---------------------------------------------------------------------
      1          6           0        2.284649   -0.098559   -0.460544
      2          6           0        1.422549   -0.917852    0.459896
      3          6           0       -0.806544   -0.203484    0.135195
      4          1           0        1.411750    1.640590   -0.171981
      5          1           0        1.816129   -0.349514   -1.468470
      6          1           0        3.389379   -0.443565   -0.518583
      7          1           0        1.737699   -1.904410    0.367807
      8          1           0        1.396559   -0.466762    1.467550
      9          1           0       -2.427021   -1.381809   -0.100049
     10          1           0       -2.209940    1.258760    0.029402
     11          7           0       -2.006381   -0.516300   -0.404827
     12          8           0        2.371520    1.215840   -0.116591
     13          8           0        0.078312   -1.155500    0.043510
     14          8           0       -0.618779    0.923531    0.551869
     15          8           0       -2.890281    0.588652   -0.176185
 ---------------------------------------------------------------------

 SCF Done:  E(RHF) =  -471.718385259     A.U. after    2 cycles

 The electronic state is 1-A.
 Alpha  occ. eigenvalues --  -20.64838 -20.61716 -20.58443 -20.58362 -15.71698
 Alpha  occ. eigenvalues --  -11.44653 -11.31360 -11.31040  -1.48238  -1.40176
 Alpha  occ. eigenvalues --   -1.34436  -1.33568  -1.15176  -1.03802  -0.90428
 Alpha  occ. eigenvalues --   -0.83792  -0.80050  -0.75004  -0.74307  -0.69592
 Alpha  occ. eigenvalues --   -0.68549  -0.66105  -0.63771  -0.61766  -0.60149
 Alpha  occ. eigenvalues --   -0.57647  -0.56264  -0.54036  -0.52289  -0.49573
 Alpha  occ. eigenvalues --   -0.45226  -0.42827
 Alpha virt. eigenvalues --    0.03042   0.04156   0.04715   0.04962   0.06089
 Alpha virt. eigenvalues --    0.06735   0.07917   0.09932   0.11217   0.12298
 Alpha virt. eigenvalues --    0.13010   0.13927   0.14899   0.15294   0.15888

 Mulliken charges:
               1
     1  C    0.477814
     2  C    0.724778
     3  C    0.671692
     4  H    0.290500
     5  H    0.003769
     6  H   -0.059570
     7  H   -0.340706
     8  H   -0.026206
     9  H    0.095108
    10  H    0.212293
    11  N    0.011963
    12  O   -0.598318
    13  O   -0.480891
    14  O   -0.536344
    15  O   -0.445882
 Sum of Mulliken charges =  -0.00000

 Dipole moment (field-independent basis, Debye):
    X=              0.5992    Y=             -3.1598    Z=              0.1660  Tot=              3.2204

 Test job not archived.
 1\1\GINC-SE393\SP\RHF\Aug-CC-pVDZ\C3H7N1O4\OHZDE\08-Apr-2025\0\\#t hf
 aug-cc-pvdz iop(5/13=1,5/36=2,99/5=2) pseudo=read geom=check guess=(re
 ad,tcheck) scf=(maxcycle=1)\\title\\0,1\C,0,2.28465,-0.0985592,-0.4605
 44\C,0,1.42255,-0.917852,0.459896\C,0,-0.806543,-0.203484,0.135195\H,0
 ,1.41175,1.64059,-0.171981\H,0,1.81613,-0.349514,-1.46847\H,0,3.38938,
 -0.443565,-0.518583\H,0,1.7377,-1.90441,0.367807\H,0,1.39656,-0.466762
 ,1.46755\H,0,-2.42702,-1.38181,-0.100049\H,0,-2.20994,1.25876,0.029402
 2\N,0,-2.00638,-0.5163,-0.404827\O,0,2.37152,1.21584,-0.116591\O,0,0.0

 Normal termination of Gaussian 16 at Tue Apr  8 21:51:34 2025.
