 Gaussian 16, Revision C.01,

 ----------------------------------------------------------------------
 #t hf aug-cc-pvdz symm=none int=(grid=ultrafine) guess=(read,tcheck) s
 table=(opt,rrhf)
 ----------------------------------------------------------------------
 -----
 title
 -----
 Symbolic Z-matrix:
 Charge =  0 Multiplicity = 1

 SCF Done:  E(RHF) =  -436.953970078     A.U. after   13 cycles
 Normal termination of Gaussian 16 at Tue Apr  8 21:54:35 2025.
 Gaussian 16:  ES64L-G16RevC.01  3-Jul-2019

 ----------------------------------------------------------------------
 #t hf aug-cc-pvdz iop(5/13=1,5/36=2,99/5=2) pseudo=read geom=check gue
 ss=(read,tcheck) scf=(maxcycle=1)
 ----------------------------------------------------------------------
 -----
 title
 -----
 Structure from the checkpoint file:  "ANI1ccx_818_conf3_mol2.chk"
 Charge =  0 Multiplicity = 1

                         Standard orientation:
 ---------------------------------------------------------------------
 Center     Atomic      Atomic             Coordinates (Angstroms)
 Number     Number       Type             X           Y           Z
 ---------------------------------------------------------------------
      1          6           0       -0.194055   -0.246805   -0.004645
      2          6           0       -1.606181   -0.622769   -0.537350
      3          6           0        0.897433   -1.230311   -0.497987
      4          6           0        0.102254    1.174160   -0.565807
      5          1           0        1.174990    1.944609    0.890276
      6          1           0       -0.743736    1.838180   -0.322189
      7          1           0        0.257679    1.132859   -1.653800
      8          1           0        2.283260    0.014312   -0.141152
      9          1           0        0.705475   -2.261381   -0.175205
     10          1           0        0.944219   -1.223481   -1.614970
     11          1           0       -2.251800    0.439339    0.892732
     12          1           0       -1.838021   -1.660940   -0.259078
     13          1           0       -1.666820   -0.488415   -1.619270
     14          1           0       -0.513501   -1.111580    1.809320
     15          1           0        0.729422   -0.094326    1.786740
     16          7           0       -0.226290   -0.194302    1.453910
     17          8           0       -2.581660    0.237194    0.007940
     18          8           0        2.170659   -0.924011    0.021872
     19          8           0        1.324270    1.734979   -0.046818
 ---------------------------------------------------------------------

 SCF Done:  E(RHF) =  -437.088322335     A.U. after    2 cycles

 The electronic state is 1-A.
 Alpha  occ. eigenvalues --  -20.59556 -20.57247 -20.56803 -15.63257 -11.30295
 Alpha  occ. eigenvalues --  -11.29928 -11.29504 -11.28961  -1.34736  -1.33263
 Alpha  occ. eigenvalues --   -1.32368  -1.18095  -1.02436  -0.92796  -0.91342
 Alpha  occ. eigenvalues --   -0.80500  -0.74143  -0.73152  -0.69206  -0.65692
 Alpha  occ. eigenvalues --   -0.64654  -0.64044  -0.61621  -0.60416  -0.59367
 Alpha  occ. eigenvalues --   -0.59096  -0.55891  -0.52279  -0.50140  -0.47838
 Alpha  occ. eigenvalues --   -0.47317  -0.44531  -0.40937
 Alpha virt. eigenvalues --    0.03168   0.03805   0.04262   0.04897   0.06111
 Alpha virt. eigenvalues --    0.06625   0.07068   0.07197   0.07992   0.09233
 Alpha virt. eigenvalues --    0.09414   0.12318   0.12937   0.13289   0.13858

 Mulliken charges:
               1
     1  C   -2.491894
     2  C    1.513132
     3  C    1.504800
     4  C    1.340008
     5  H    0.205645
     6  H   -0.039196
     7  H   -0.093369
     8  H    0.212194
     9  H   -0.145383
    10  H   -0.047436
    11  H    0.216899
    12  H   -0.075828
    13  H   -0.051878
    14  H    0.010607
    15  H    0.030477
    16  N   -0.273763
    17  O   -0.584610
    18  O   -0.558323
    19  O   -0.672081
 Sum of Mulliken charges =   0.00000

 Dipole moment (field-independent basis, Debye):
    X=             -0.3025    Y=             -0.5599    Z=              0.6542  Tot=              0.9127

 Test job not archived.
 1\1\GINC-SE109\SP\RHF\Aug-CC-pVDZ\C4H11N1O3\OHZDE\08-Apr-2025\0\\#t hf
  aug-cc-pvdz iop(5/13=1,5/36=2,99/5=2) pseudo=read geom=check guess=(r
 ead,tcheck) scf=(maxcycle=1)\\title\\0,1\C,0,-0.194055,-0.246805,-0.00
 464577\C,0,-1.60618,-0.622769,-0.53735\C,0,0.897434,-1.23031,-0.497987
 \C,0,0.102254,1.17416,-0.565807\H,0,1.17499,1.94461,0.890276\H,0,-0.74
 3736,1.83818,-0.322189\H,0,0.257679,1.13286,-1.6538\H,0,2.28326,0.0143
 132,-0.141152\H,0,0.705476,-2.26138,-0.175205\H,0,0.94422,-1.22348,-1.
 61497\H,0,-2.2518,0.439339,0.892732\H,0,-1.83802,-1.66094,-0.259078\H,

 Normal termination of Gaussian 16 at Tue Apr  8 21:54:44 2025.
