 Gaussian 16, Revision C.01,

 ----------------------------------------------------------------------
 #t hf aug-cc-pvdz symm=none int=(grid=ultrafine) guess=(read,tcheck) s
 table=(opt,rrhf)
 ----------------------------------------------------------------------
 -----
 title
 -----
 Symbolic Z-matrix:
 Charge =  0 Multiplicity = 1

 SCF Done:  E(RHF) =  -456.255828904     A.U. after   11 cycles
 Normal termination of Gaussian 16 at Tue Apr  8 21:05:41 2025.
 Gaussian 16:  ES64L-G16RevC.01  3-Jul-2019

 ----------------------------------------------------------------------
 #t hf aug-cc-pvdz iop(5/13=1,5/36=2,99/5=2) pseudo=read geom=check gue
 ss=(read,tcheck) scf=(maxcycle=1)
 ----------------------------------------------------------------------
 -----
 title
 -----
 Structure from the checkpoint file:  "ANI1ccx_1844_conf174_mol1.chk"
 Charge =  0 Multiplicity = 1

                         Standard orientation:
 ---------------------------------------------------------------------
 Center     Atomic      Atomic             Coordinates (Angstroms)
 Number     Number       Type             X           Y           Z
 ---------------------------------------------------------------------
      1          1           0        2.551771    0.458201   -0.549726
      2          1           0       -2.494288   -1.565089   -1.289540
      3          1           0       -2.593389   -0.467559   -0.223139
      4          1           0        2.675232   -2.018658   -1.096670
      5          1           0        1.686732   -1.590158    0.026289
      6          1           0        0.110806   -2.013248    1.481880
      7          1           0        2.973161    1.713962    0.325691
      8          1           0       -0.811474   -1.501898    0.317723
      9          1           0        0.051813    0.632302    1.029360
     10          1           0        0.712962    1.704442    0.134753
     11          1           0       -1.419979    1.584302   -0.163440
     12          1           0       -2.910709    1.905881    0.099743
     13          8           0        2.585291   -1.392828   -0.340910
     14          8           0       -0.125175    1.562122    0.701535
     15          8           0       -2.560968   -1.457599   -0.282199
     16          8           0        0.032980   -1.282438    0.798920
     17          8           0        2.391181    1.438432   -0.410575
     18          8           0       -2.389889    1.277001   -0.478385
 ---------------------------------------------------------------------

 SCF Done:  E(RHF) =  -456.405474861     A.U. after    2 cycles

 The electronic state is 1-A.
 Alpha  occ. eigenvalues --  -20.60733 -20.59331 -20.57997 -20.57651 -20.56489
 Alpha  occ. eigenvalues --  -20.55412  -1.33092  -1.31514  -1.30347  -1.29270
 Alpha  occ. eigenvalues --   -1.28601  -1.25506  -0.74934  -0.73455  -0.72427
 Alpha  occ. eigenvalues --   -0.70287  -0.69995  -0.68694  -0.64698  -0.62505
 Alpha  occ. eigenvalues --   -0.61281  -0.60571  -0.58612  -0.56063  -0.54814
 Alpha  occ. eigenvalues --   -0.53790  -0.52131  -0.52013  -0.50316  -0.49147
 Alpha virt. eigenvalues --    0.02415   0.04591   0.04848   0.05044   0.06061
 Alpha virt. eigenvalues --    0.07724   0.08049   0.08764   0.08912   0.09970
 Alpha virt. eigenvalues --    0.10508   0.12404   0.16622   0.18014   0.19384

 Mulliken charges:
               1
     1  H    0.266995
     2  H    0.227684
     3  H    0.269586
     4  H    0.194124
     5  H    0.252427
     6  H    0.254253
     7  H    0.208264
     8  H    0.320879
     9  H    0.252611
    10  H    0.339096
    11  H    0.389897
    12  H    0.193432
    13  O   -0.423411
    14  O   -0.591174
    15  O   -0.501185
    16  O   -0.615135
    17  O   -0.468217
    18  O   -0.570127
 Sum of Mulliken charges =  -0.00000

 Dipole moment (field-independent basis, Debye):
    X=              1.8405    Y=             -2.7884    Z=              0.4175  Tot=              3.3670

 Test job not archived.
 1\1\GINC-SE184\SP\RHF\Aug-CC-pVDZ\H12O6\OHZDE\08-Apr-2025\0\\#t hf aug
 -cc-pvdz iop(5/13=1,5/36=2,99/5=2) pseudo=read geom=check guess=(read,
 tcheck) scf=(maxcycle=1)\\title\\0,1\H,0,2.55177,0.458199,-0.549726\H,
 0,-2.49429,-1.56509,-1.28954\H,0,-2.59339,-0.46756,-0.223139\H,0,2.675
 23,-2.01866,-1.09667\H,0,1.68673,-1.59016,0.0262889\H,0,0.110804,-2.01
 325,1.48188\H,0,2.97316,1.71396,0.325691\H,0,-0.811476,-1.5019,0.31772
 3\H,0,0.0518118,0.6323,1.02936\H,0,0.712961,1.70444,0.134753\H,0,-1.41
 998,1.5843,-0.16344\H,0,-2.91071,1.90588,0.0997435\O,0,2.58529,-1.3928

 Normal termination of Gaussian 16 at Tue Apr  8 21:05:46 2025.
