 Gaussian 16, Revision C.01,

 ----------------------------------------------------------------------
 #t hf aug-cc-pvdz symm=none int=(grid=ultrafine) guess=(read,tcheck) s
 table=(opt,rrhf)
 ----------------------------------------------------------------------
 -----
 title
 -----
 Symbolic Z-matrix:
 Charge =  0 Multiplicity = 1

 SCF Done:  E(RHF) =  -486.384971339     A.U. after   14 cycles
 Normal termination of Gaussian 16 at Tue Apr  8 21:43:57 2025.
 Gaussian 16:  ES64L-G16RevC.01  3-Jul-2019

 ----------------------------------------------------------------------
 #t hf aug-cc-pvdz iop(5/13=1,5/36=2,99/5=2) pseudo=read geom=check gue
 ss=(read,tcheck) scf=(maxcycle=1)
 ----------------------------------------------------------------------
 -----
 title
 -----
 Structure from the checkpoint file:  "ANI1ccx_517_conf1_mol1.chk"
 Charge =  0 Multiplicity = 1

                         Standard orientation:
 ---------------------------------------------------------------------
 Center     Atomic      Atomic             Coordinates (Angstroms)
 Number     Number       Type             X           Y           Z
 ---------------------------------------------------------------------
      1          6           0       -0.698046    0.302485   -0.023956
      2          6           0        0.689841   -0.286541   -0.019633
      3          1           0       -2.889771    0.763029    0.098380
      4          1           0       -1.484552   -1.623600   -0.022040
      5          1           0        1.520449    1.620599    0.027390
      6          1           0        2.866348   -0.774114   -0.068015
      7          7           0       -1.646542   -0.616298   -0.001662
      8          7           0        1.667109    0.623530   -0.033301
      9          8           0       -2.961372   -0.217247    0.041766
     10          8           0       -0.927601    1.508420   -0.030690
     11          8           0        0.903403   -1.496250   -0.023068
     12          8           0        2.972168    0.188552    0.070813
 ---------------------------------------------------------------------

 SCF Done:  E(RHF) =  -486.536455211     A.U. after    2 cycles

 The electronic state is 1-A.
 Alpha  occ. eigenvalues --  -20.65429 -20.65368 -20.58464 -20.58154 -15.74383
 Alpha  occ. eigenvalues --  -15.74196 -11.41267 -11.41020  -1.45333  -1.44142
 Alpha  occ. eigenvalues --   -1.37546  -1.36325  -1.17141  -1.16495  -0.93367
 Alpha  occ. eigenvalues --   -0.88019  -0.83956  -0.74875  -0.73821  -0.70134
 Alpha  occ. eigenvalues --   -0.69924  -0.67216  -0.65006  -0.64710  -0.62560
 Alpha  occ. eigenvalues --   -0.59453  -0.55818  -0.55123  -0.47619  -0.42347
 Alpha  occ. eigenvalues --   -0.41609
 Alpha virt. eigenvalues --    0.03526   0.04410   0.04499   0.06319   0.07421
 Alpha virt. eigenvalues --    0.08897   0.10978   0.11437   0.12126   0.12433
 Alpha virt. eigenvalues --    0.14805   0.15573   0.16266   0.17000   0.17895

 Mulliken charges:
               1
     1  C    0.634634
     2  C    0.682872
     3  H    0.199803
     4  H    0.074362
     5  H    0.051023
     6  H    0.193343
     7  N    0.179673
     8  N    0.158343
     9  O   -0.524057
    10  O   -0.567779
    11  O   -0.573685
    12  O   -0.508531
 Sum of Mulliken charges =  -0.00000

 Dipole moment (field-independent basis, Debye):
    X=             -0.0415    Y=             -0.0443    Z=             -0.0227  Tot=              0.0648

 Test job not archived.
 1\1\GINC-SE402\SP\RHF\Aug-CC-pVDZ\C2H4N2O4\OHZDE\08-Apr-2025\0\\#t hf
 aug-cc-pvdz iop(5/13=1,5/36=2,99/5=2) pseudo=read geom=check guess=(re
 ad,tcheck) scf=(maxcycle=1)\\title\\0,1\C,0,-0.698044,0.302485,-0.0239
 559\C,0,0.689843,-0.286541,-0.0196335\H,0,-2.88977,0.763028,0.0983799\
 H,0,-1.48455,-1.6236,-0.02204\H,0,1.52045,1.6206,0.0273902\H,0,2.86635
 ,-0.774113,-0.0680152\N,0,-1.64654,-0.616298,-0.00166234\N,0,1.66711,0
 .623531,-0.0333009\O,0,-2.96137,-0.217248,0.0417664\O,0,-0.9276,1.5084
 2,-0.0306899\O,0,0.903405,-1.49625,-0.0230685\O,0,2.97217,0.188553,0.0

 Normal termination of Gaussian 16 at Tue Apr  8 21:44:02 2025.
