 Gaussian 16, Revision C.01,

 ----------------------------------------------------------------------
 #t hf aug-cc-pvdz symm=none int=(grid=ultrafine) guess=(read,tcheck) s
 table=(opt,rrhf)
 ----------------------------------------------------------------------
 -----
 title
 -----
 Symbolic Z-matrix:
 Charge =  0 Multiplicity = 1

 SCF Done:  E(RHF) =  -559.297247104     A.U. after   16 cycles
 Normal termination of Gaussian 16 at Tue Apr  8 19:14:02 2025.
 Gaussian 16:  ES64L-G16RevC.01  3-Jul-2019

 ----------------------------------------------------------------------
 #t hf aug-cc-pvdz iop(5/13=1,5/36=2,99/5=2) pseudo=read geom=check gue
 ss=(read,tcheck) scf=(maxcycle=1)
 ----------------------------------------------------------------------
 -----
 title
 -----
 Structure from the checkpoint file:  "ANI1ccx_1092_conf6_mol2.chk"
 Charge =  0 Multiplicity = 1

                         Standard orientation:
 ---------------------------------------------------------------------
 Center     Atomic      Atomic             Coordinates (Angstroms)
 Number     Number       Type             X           Y           Z
 ---------------------------------------------------------------------
      1          6           0        1.630660   -0.635709   -0.010103
      2          6           0       -0.552210   -0.833320    0.029334
      3          6           0       -2.731560   -0.445997   -0.018285
      4          6           0       -0.829238    0.519588    0.031070
      5          6           0        0.280126    1.438201   -0.002290
      6          1           0        3.571770   -0.465313   -0.007708
      7          1           0       -1.934436   -2.436723   -0.027644
      8          1           0       -3.793420   -0.607997   -0.035711
      9          1           0        2.337117    1.315655    0.027255
     10          7           0        0.652923   -1.462998    0.021142
     11          7           0       -1.772938   -1.443423    0.001433
     12          7           0       -2.188972    0.749253   -0.015923
     13          7           0        1.512478    0.721623    0.000095
     14          8           0        2.872271   -1.152054   -0.021348
     15          8           0        0.328712    2.650381   -0.001374
 ---------------------------------------------------------------------

 SCF Done:  E(RHF) =  -559.462316024     A.U. after    2 cycles

 The electronic state is 1-A.
 Alpha  occ. eigenvalues --  -20.66012 -20.54741 -15.70749 -15.70374 -15.64228
 Alpha  occ. eigenvalues --  -15.63477 -11.43876 -11.38803 -11.34439 -11.33027
 Alpha  occ. eigenvalues --  -11.26730  -1.44180  -1.36798  -1.33819  -1.27713
 Alpha  occ. eigenvalues --   -1.20200  -1.15365  -1.04457  -0.91900  -0.90769
 Alpha  occ. eigenvalues --   -0.84629  -0.83539  -0.77103  -0.75207  -0.70188
 Alpha  occ. eigenvalues --   -0.69441  -0.65735  -0.65348  -0.63186  -0.63061
 Alpha  occ. eigenvalues --   -0.61519  -0.58779  -0.51296  -0.49790  -0.46417
 Alpha  occ. eigenvalues --   -0.44432  -0.43525  -0.41371  -0.31759
 Alpha virt. eigenvalues --    0.01637   0.02499   0.04711   0.05880   0.06380
 Alpha virt. eigenvalues --    0.08523   0.09550   0.10216   0.10548   0.11402
 Alpha virt. eigenvalues --    0.11467   0.12061   0.13612   0.13820   0.13979

 Mulliken charges:
               1
     1  C    0.768554
     2  C    0.691129
     3  C    1.002896
     4  C    0.363379
     5  C    0.741770
     6  H    0.176628
     7  H   -0.094509
     8  H   -0.237797
     9  H    0.006138
    10  N   -0.537314
    11  N   -0.459136
    12  N   -0.821746
    13  N   -0.531466
    14  O   -0.540467
    15  O   -0.528059
 Sum of Mulliken charges =  -0.00000

 Dipole moment (field-independent basis, Debye):
    X=              1.9851    Y=             -4.3598    Z=             -0.0311  Tot=              4.7906

 Test job not archived.
 1\1\GINC-SE343\SP\RHF\Aug-CC-pVDZ\C5H4N4O2\OHZDE\08-Apr-2025\0\\#t hf
 aug-cc-pvdz iop(5/13=1,5/36=2,99/5=2) pseudo=read geom=check guess=(re
 ad,tcheck) scf=(maxcycle=1)\\title\\0,1\C,0,1.63066,-0.635713,-0.01010
 35\C,0,-0.552211,-0.83332,0.0293344\C,0,-2.73156,-0.445993,-0.0182846\
 C,0,-0.829236,0.519589,0.0310697\C,0,0.280129,1.4382,-0.00229031\H,0,3
 .57177,-0.46532,-0.00770767\H,0,-1.93444,-2.43672,-0.0276436\H,0,-3.79
 342,-0.607991,-0.0357112\H,0,2.33712,1.31565,0.0272552\N,0,0.652921,-1
 .463,0.0211415\N,0,-1.77294,-1.44342,0.00143335\N,0,-2.18897,0.749256,

 Normal termination of Gaussian 16 at Tue Apr  8 19:14:10 2025.
