 Gaussian 16, Revision C.01,

 ----------------------------------------------------------------------
 #t hf aug-cc-pvdz symm=none int=(grid=ultrafine) guess=(read,tcheck) s
 table=(opt,rrhf)
 ----------------------------------------------------------------------
 -----
 title
 -----
 Symbolic Z-matrix:
 Charge =  0 Multiplicity = 1

 SCF Done:  E(RHF) =  -678.605903251     A.U. after   15 cycles
 Normal termination of Gaussian 16 at Tue Apr  8 20:05:25 2025.
 Gaussian 16:  ES64L-G16RevC.01  3-Jul-2019

 ----------------------------------------------------------------------
 #t hf aug-cc-pvdz iop(5/13=1,5/36=2,99/5=2) pseudo=read geom=check gue
 ss=(read,tcheck) scf=(maxcycle=1)
 ----------------------------------------------------------------------
 -----
 title
 -----
 Structure from the checkpoint file:  "ANI1ccx_1596_conf2_mol1.chk"
 Charge =  0 Multiplicity = 1

                         Standard orientation:
 ---------------------------------------------------------------------
 Center     Atomic      Atomic             Coordinates (Angstroms)
 Number     Number       Type             X           Y           Z
 ---------------------------------------------------------------------
      1          6           0        4.287161   -0.568002   -0.017735
      2          6           0        3.150121   -1.007030   -0.946804
      3          6           0        1.833061   -1.129790   -0.129838
      4          6           0        0.522838    0.296929    1.176300
      5          6           0       -1.424729   -1.343160    1.138390
      6          6           0       -2.761079   -1.443820   -0.731591
      7          6           0       -1.259039    0.560875   -0.487288
      8          6           0       -0.367739    2.633960   -0.079196
      9          1           0       -2.556689    0.373614   -1.995430
     10          1           0       -3.866819   -1.433800   -1.068270
     11          1           0       -2.186779   -2.321730   -1.227030
     12          1           0       -0.822413   -2.240630    0.911087
     13          1           0       -1.626279   -1.298790    2.255360
     14          1           0        0.450347    1.317040    1.519520
     15          1           0        0.649766   -0.472389    2.023520
     16          1           0        1.966001   -1.701960    0.805297
     17          1           0        3.389131   -2.069560   -1.311440
     18          1           0        3.015611   -0.402300   -1.804520
     19          1           0        5.335011   -0.432720   -0.451245
     20          1           0        4.443431   -1.388110    0.767362
     21          1           0        3.991511    0.337657    0.506069
     22          1           0        1.040551   -1.720730   -0.699060
     23          7           0       -0.812423   -0.142623    0.626837
     24          7           0       -2.111479   -0.146378   -1.148490
     25          7           0       -0.846677    1.715250   -0.923910
     26          7           0       -0.036602    3.608920    0.499357
     27          8           0        1.435141    0.228569    0.191661
     28          8           0       -2.742099   -1.452510    0.665687
 ---------------------------------------------------------------------

 SCF Done:  E(RHF) =  -678.811318142     A.U. after    2 cycles

 The electronic state is 1-A.
 Alpha  occ. eigenvalues --  -20.63149 -20.59639 -15.68253 -15.66346 -15.61891
 Alpha  occ. eigenvalues --  -15.59035 -11.40657 -11.39494 -11.37220 -11.34729
 Alpha  occ. eigenvalues --  -11.31620 -11.29022 -11.25037 -11.23875  -1.42350
 Alpha  occ. eigenvalues --   -1.38474  -1.31155  -1.19852  -1.19075  -1.11555
 Alpha  occ. eigenvalues --   -1.06061  -1.00308  -0.94902  -0.94665  -0.89440
 Alpha  occ. eigenvalues --   -0.82391  -0.81325  -0.77904  -0.76440  -0.73321
 Alpha  occ. eigenvalues --   -0.70907  -0.70052  -0.68246  -0.66882  -0.66029
 Alpha  occ. eigenvalues --   -0.62398  -0.61048  -0.58842  -0.58501  -0.55931
 Alpha  occ. eigenvalues --   -0.54886  -0.53655  -0.51711  -0.51111  -0.50838
 Alpha  occ. eigenvalues --   -0.49866  -0.49019  -0.48617  -0.47397  -0.46009
 Alpha  occ. eigenvalues --   -0.40257  -0.37662  -0.34094
 Alpha virt. eigenvalues --    0.01673   0.02601   0.03188   0.04039   0.04953
 Alpha virt. eigenvalues --    0.05190   0.05474   0.06161   0.06908   0.07440
 Alpha virt. eigenvalues --    0.07933   0.08647   0.08965   0.09302   0.10179

 Mulliken charges:
               1
     1  C    0.253031
     2  C    0.205258
     3  C    0.578027
     4  C    0.909535
     5  C    1.203329
     6  C    0.788744
     7  C    0.671933
     8  C   -0.558321
     9  H    0.048365
    10  H   -0.117738
    11  H    0.012769
    12  H   -0.190324
    13  H   -0.186457
    14  H   -0.462114
    15  H   -0.049887
    16  H   -0.205796
    17  H    0.117510
    18  H   -0.210701
    19  H   -0.059801
    20  H    0.022460
    21  H   -0.073383
    22  H   -0.202237
    23  N   -0.415449
    24  N   -0.450369
    25  N   -0.264121
    26  N   -0.157380
    27  O   -0.555761
    28  O   -0.651124
 Sum of Mulliken charges =  -0.00000

 Dipole moment (field-independent basis, Debye):
    X=             -1.7989    Y=             -9.4055    Z=             -0.9287  Tot=              9.6209

 Test job not archived.
 1\1\GINC-SE068\SP\RHF\Aug-CC-pVDZ\C8H14N4O2\OHZDE\08-Apr-2025\0\\#t hf
  aug-cc-pvdz iop(5/13=1,5/36=2,99/5=2) pseudo=read geom=check guess=(r
 ead,tcheck) scf=(maxcycle=1)\\title\\0,1\C,0,4.28716,-0.568002,-0.0177
 348\C,0,3.15012,-1.00703,-0.946804\C,0,1.83306,-1.12979,-0.129838\C,0,
 0.522837,0.296929,1.1763\C,0,-1.42473,-1.34316,1.13839\C,0,-2.76108,-1
 .44382,-0.731591\C,0,-1.25904,0.560875,-0.487288\C,0,-0.36774,2.63396,
 -0.0791957\H,0,-2.55669,0.373614,-1.99543\H,0,-3.86682,-1.4338,-1.0682
 7\H,0,-2.18678,-2.32173,-1.22703\H,0,-0.822414,-2.24063,0.911087\H,0,-

 Normal termination of Gaussian 16 at Tue Apr  8 20:05:55 2025.
