 Gaussian 16, Revision C.01,

 ----------------------------------------------------------------------
 #t hf aug-cc-pvdz symm=none int=(grid=ultrafine) guess=(read,tcheck) s
 table=(opt,rrhf)
 ----------------------------------------------------------------------
 -----
 title
 -----
 Symbolic Z-matrix:
 Charge =  0 Multiplicity = 1

 SCF Done:  E(RHF) =  -723.903579736     A.U. after   15 cycles
 Normal termination of Gaussian 16 at Tue Apr  8 22:09:03 2025.
 Gaussian 16:  ES64L-G16RevC.01  3-Jul-2019

 ----------------------------------------------------------------------
 #t hf aug-cc-pvdz iop(5/13=1,5/36=2,99/5=2) pseudo=read geom=check gue
 ss=(read,tcheck) scf=(maxcycle=1)
 ----------------------------------------------------------------------
 -----
 title
 -----
 Structure from the checkpoint file:  "ANI1ccx_85_conf11_mol2.chk"
 Charge =  0 Multiplicity = 1

                         Standard orientation:
 ---------------------------------------------------------------------
 Center     Atomic      Atomic             Coordinates (Angstroms)
 Number     Number       Type             X           Y           Z
 ---------------------------------------------------------------------
      1          6           0       -1.557039    0.285568   -0.339061
      2          6           0        3.636501    0.998185   -1.182790
      3          6           0        2.681351    1.032580    0.047299
      4          6           0        1.887551   -1.485360   -0.031994
      5          6           0        1.471171   -0.015156   -0.042987
      6          6           0        2.217530    2.431820    0.371109
      7          6           0       -3.883599   -0.573526    0.466753
      8          6           0       -3.034929    0.578931   -0.065122
      9          6           0       -0.772244    0.187243    1.018770
     10          6           0       -3.799209    1.096189   -1.349860
     11          1           0        0.842757    0.106259   -0.919834
     12          1           0        0.366564   -1.791630   -1.188390
     13          1           0        1.507360    2.441840    1.205350
     14          1           0        3.028710    3.134770    0.518351
     15          1           0        1.749750    2.810910   -0.571615
     16          1           0        3.033151    1.262960   -2.074170
     17          1           0        4.464650    1.675260   -1.104430
     18          1           0        4.014231   -0.022678   -1.349070
     19          1           0        3.213611    0.702237    0.985630
     20          1           0        0.971409    0.039189    1.960110
     21          1           0       -4.748790    1.582939   -1.092570
     22          1           0       -4.003139    0.228655   -1.974230
     23          1           0       -3.532929   -0.922667    1.425020
     24          1           0       -4.955889   -0.270796    0.561078
     25          1           0       -3.869969   -1.406941   -0.260533
     26          1           0       -3.174460    1.427409    0.598699
     27          1           0       -1.180769    1.022920   -1.056120
     28          1           0       -1.844069   -1.134760   -1.859370
     29          1           0       -1.551379   -1.745690   -0.380388
     30          1           0       -3.191950    1.808379   -1.890910
     31          7           0       -1.238379   -0.986924   -1.011200
     32          7           0        0.601786    0.140806    1.038610
     33          8           0        2.921941   -1.862370    0.498091
     34          8           0       -1.426509    0.087107    2.035500
     35          8           0        1.033921   -2.255310   -0.668238
 ---------------------------------------------------------------------

 SCF Done:  E(RHF) =  -724.125195149     A.U. after    2 cycles

 The electronic state is 1-A.
 Alpha  occ. eigenvalues --  -20.60870 -20.55312 -20.55189 -15.66324 -15.66165
 Alpha  occ. eigenvalues --  -11.39218 -11.38377 -11.31166 -11.30098 -11.25859
 Alpha  occ. eigenvalues --  -11.25436 -11.24053 -11.23508 -11.23327 -11.23177
 Alpha  occ. eigenvalues --   -1.41915  -1.37132  -1.31871  -1.23798  -1.20134
 Alpha  occ. eigenvalues --   -1.07211  -1.07037  -0.98141  -0.95541  -0.93473
 Alpha  occ. eigenvalues --   -0.93342  -0.86175  -0.83615  -0.79805  -0.77607
 Alpha  occ. eigenvalues --   -0.75465  -0.73716  -0.68278  -0.67282  -0.66550
 Alpha  occ. eigenvalues --   -0.66056  -0.64393  -0.63348  -0.62104  -0.61234
 Alpha  occ. eigenvalues --   -0.60754  -0.59203  -0.57957  -0.56832  -0.55811
 Alpha  occ. eigenvalues --   -0.54866  -0.54214  -0.53784  -0.52315  -0.50662
 Alpha  occ. eigenvalues --   -0.49221  -0.49039  -0.48757  -0.48025  -0.46860
 Alpha  occ. eigenvalues --   -0.46154  -0.45128  -0.43418  -0.39225
 Alpha virt. eigenvalues --    0.02114   0.03093   0.03420   0.03959   0.04986
 Alpha virt. eigenvalues --    0.05177   0.05717   0.06223   0.06274   0.07012
 Alpha virt. eigenvalues --    0.07094   0.07529   0.07804   0.08270   0.09062

 Mulliken charges:
               1
     1  C    0.610826
     2  C    0.838622
     3  C   -0.613963
     4  C    0.732281
     5  C    0.025924
     6  C    0.952075
     7  C    0.853575
     8  C   -0.578255
     9  C    0.216528
    10  C    1.142811
    11  H   -0.484581
    12  H    0.287856
    13  H   -0.034229
    14  H   -0.161403
    15  H    0.084991
    16  H    0.001981
    17  H   -0.146559
    18  H   -0.043437
    19  H   -0.022552
    20  H   -0.090460
    21  H   -0.053637
    22  H   -0.078892
    23  H   -0.102118
    24  H   -0.050022
    25  H   -0.002336
    26  H   -0.250370
    27  H   -0.502578
    28  H    0.131825
    29  H    0.172727
    30  H   -0.115375
    31  N   -0.946112
    32  N   -0.300783
    33  O   -0.546299
    34  O   -0.525111
    35  O   -0.402948
 Sum of Mulliken charges =  -0.00000

 Dipole moment (field-independent basis, Debye):
    X=             -3.1385    Y=              3.3350    Z=             -4.1268  Tot=              6.1647

 Test job not archived.
 1\1\GINC-SE424\SP\RHF\Aug-CC-pVDZ\C10H20N2O3\OHZDE\08-Apr-2025\0\\#t h
 f aug-cc-pvdz iop(5/13=1,5/36=2,99/5=2) pseudo=read geom=check guess=(
 read,tcheck) scf=(maxcycle=1)\\title\\0,1\C,0,-1.55704,0.285568,-0.339
 061\C,0,3.6365,0.998185,-1.18279\C,0,2.68135,1.03258,0.047299\C,0,1.88
 755,-1.48536,-0.0319935\C,0,1.47117,-0.0151561,-0.0429866\C,0,2.21753,
 2.43182,0.371109\C,0,-3.8836,-0.573525,0.466753\C,0,-3.03493,0.578932,
 -0.0651217\C,0,-0.772245,0.187243,1.01877\C,0,-3.79921,1.09619,-1.3498
 6\H,0,0.842756,0.106259,-0.919834\H,0,0.366563,-1.79163,-1.18839\H,0,1

 Normal termination of Gaussian 16 at Tue Apr  8 22:09:52 2025.
