 Gaussian 16, Revision C.01,

 ----------------------------------------------------------------------
 #t hf aug-cc-pvdz symm=none int=(grid=ultrafine) guess=(read,tcheck) s
 table=(opt,rrhf)
 ----------------------------------------------------------------------
 -----
 title
 -----
 Symbolic Z-matrix:
 Charge =  0 Multiplicity = 1

 SCF Done:  E(RHF) =  -374.220308940     A.U. after   13 cycles
 Normal termination of Gaussian 16 at Tue Apr  8 21:40:05 2025.
 Gaussian 16:  ES64L-G16RevC.01  3-Jul-2019

 ----------------------------------------------------------------------
 #t hf aug-cc-pvdz iop(5/13=1,5/36=2,99/5=2) pseudo=read geom=check gue
 ss=(read,tcheck) scf=(maxcycle=1)
 ----------------------------------------------------------------------
 -----
 title
 -----
 Structure from the checkpoint file:  "ANI1ccx_461_conf1_mol2.chk"
 Charge =  0 Multiplicity = 1

                         Standard orientation:
 ---------------------------------------------------------------------
 Center     Atomic      Atomic             Coordinates (Angstroms)
 Number     Number       Type             X           Y           Z
 ---------------------------------------------------------------------
      1          6           0       -2.423910   -1.345950    0.105115
      2          6           0       -0.705173    0.366010   -0.087597
      3          1           0        0.503556    2.384420    0.574632
      4          1           0        1.079870    2.320060   -0.861052
      5          1           0        1.323790   -0.182290   -0.236674
      6          1           0       -0.446784   -1.681400   -0.041764
      7          1           0       -2.448340    0.981736   -0.004673
      8          1           0       -3.086760   -0.997440   -0.688066
      9          1           0       -2.407489   -2.484530    0.172701
     10          1           0        3.799850   -0.617106    0.065162
     11          1           0        3.571151   -2.084259   -0.359987
     12          1           0       -2.804870   -0.975158    1.083760
     13          7           0        1.198630    1.841740    0.093060
     14          7           0       -1.077870   -0.958460   -0.189088
     15          7           0       -1.525890    1.378340    0.005242
     16          7           0        0.662620    0.538347    0.015806
     17          8           0        3.111010   -1.298020    0.089464
 ---------------------------------------------------------------------

 SCF Done:  E(RHF) =  -374.335787970     A.U. after    2 cycles

 The electronic state is 1-A.
 Alpha  occ. eigenvalues --  -20.60817 -15.64433 -15.63922 -15.63353 -15.56552
 Alpha  occ. eigenvalues --  -11.35015 -11.27897  -1.32280  -1.28054  -1.20589
 Alpha  occ. eigenvalues --   -1.10549  -1.02062  -0.91584  -0.79355  -0.75269
 Alpha  occ. eigenvalues --   -0.73177  -0.66760  -0.64331  -0.62972  -0.61636
 Alpha  occ. eigenvalues --   -0.59499  -0.58418  -0.54951  -0.54271  -0.51053
 Alpha  occ. eigenvalues --   -0.43278  -0.41845  -0.36524  -0.33183
 Alpha virt. eigenvalues --    0.02189   0.03456   0.04698   0.05244   0.06067
 Alpha virt. eigenvalues --    0.06423   0.07616   0.08128   0.09113   0.10611
 Alpha virt. eigenvalues --    0.12432   0.13852   0.14866   0.15586   0.15728

 Mulliken charges:
               1
     1  C    0.618011
     2  C    0.838020
     3  H    0.043694
     4  H    0.129885
     5  H   -0.011230
     6  H   -0.167511
     7  H   -0.028908
     8  H   -0.129467
     9  H   -0.137479
    10  H    0.166152
    11  H    0.218900
    12  H   -0.052786
    13  N   -0.214565
    14  N   -0.292574
    15  N   -0.401094
    16  N   -0.176548
    17  O   -0.402499
 Sum of Mulliken charges =  -0.00000

 Dipole moment (field-independent basis, Debye):
    X=              2.2515    Y=             -4.2058    Z=             -1.3729  Tot=              4.9641

 Test job not archived.
 1\1\GINC-SE116\SP\RHF\Aug-CC-pVDZ\C2H10N4O1\OHZDE\08-Apr-2025\0\\#t hf
  aug-cc-pvdz iop(5/13=1,5/36=2,99/5=2) pseudo=read geom=check guess=(r
 ead,tcheck) scf=(maxcycle=1)\\title\\0,1\C,0,-2.42391,-1.34595,0.10511
 5\C,0,-0.705173,0.36601,-0.0875966\H,0,0.503556,2.38442,0.574632\H,0,1
 .07987,2.32006,-0.861052\H,0,1.32379,-0.18229,-0.236674\H,0,-0.446785,
 -1.6814,-0.0417639\H,0,-2.44834,0.981736,-0.00467338\H,0,-3.08676,-0.9
 9744,-0.688066\H,0,-2.40749,-2.48453,0.172701\H,0,3.79985,-0.617107,0.
 0651625\H,0,3.57115,-2.08426,-0.359987\H,0,-2.80487,-0.975158,1.08376\

 Normal termination of Gaussian 16 at Tue Apr  8 21:40:12 2025.
