 Gaussian 16, Revision C.01,

 ----------------------------------------------------------------------
 #t hf aug-cc-pvdz symm=none int=(grid=ultrafine) guess=(read,tcheck) s
 table=(opt,rrhf)
 ----------------------------------------------------------------------
 -----
 title
 -----
 Symbolic Z-matrix:
 Charge =  0 Multiplicity = 1

 SCF Done:  E(RHF) =  -424.655639465     A.U. after   15 cycles
 Normal termination of Gaussian 16 at Tue Apr  8 21:42:55 2025.
 Gaussian 16:  ES64L-G16RevC.01  3-Jul-2019

 ----------------------------------------------------------------------
 #t hf aug-cc-pvdz iop(5/13=1,5/36=2,99/5=2) pseudo=read geom=check gue
 ss=(read,tcheck) scf=(maxcycle=1)
 ----------------------------------------------------------------------
 -----
 title
 -----
 Structure from the checkpoint file:  "ANI1ccx_507_conf10_mol1.chk"
 Charge =  0 Multiplicity = 1

                         Standard orientation:
 ---------------------------------------------------------------------
 Center     Atomic      Atomic             Coordinates (Angstroms)
 Number     Number       Type             X           Y           Z
 ---------------------------------------------------------------------
      1          6           0       -1.541700   -0.439189    0.092896
      2          6           0        0.023652    1.361660    0.032185
      3          1           0       -3.340240    0.594582   -0.482540
      4          1           0       -3.360070   -1.337130   -0.064320
      5          1           0        1.889170    1.696910   -0.072637
      6          7           0       -2.824290   -0.475259   -0.371779
      7          7           0       -0.969663    0.838353   -0.422275
      8          7           0        1.033990    1.988530    0.456819
      9          7           0        2.836040   -1.448621   -0.121926
     10          7           0        2.885890   -0.390612   -0.355912
     11          8           0       -0.851791   -1.259490    0.696815
 ---------------------------------------------------------------------

 SCF Done:  E(RHF) =  -424.784653136     A.U. after    2 cycles

 The electronic state is 1-A.
 Alpha  occ. eigenvalues --  -20.57477 -15.75530 -15.75060 -15.69706 -15.66411
 Alpha  occ. eigenvalues --  -15.65749 -11.44143 -11.39831  -1.43830  -1.37739
 Alpha  occ. eigenvalues --   -1.26382  -1.20083  -1.16279  -0.87915  -0.76152
 Alpha  occ. eigenvalues --   -0.74163  -0.72491  -0.70045  -0.64598  -0.63008
 Alpha  occ. eigenvalues --   -0.62193  -0.61763  -0.61624  -0.58689  -0.55725
 Alpha  occ. eigenvalues --   -0.50366  -0.45142  -0.43645  -0.40885
 Alpha virt. eigenvalues --    0.02410   0.04438   0.05094   0.07904   0.09185
 Alpha virt. eigenvalues --    0.09989   0.10936   0.11815   0.12075   0.12926
 Alpha virt. eigenvalues --    0.13597   0.13859   0.14780   0.15258   0.15511

 Mulliken charges:
               1
     1  C    0.943334
     2  C   -0.159242
     3  H    0.300468
     4  H    0.098034
     5  H    0.188745
     6  N   -0.417347
     7  N   -0.310418
     8  N   -0.175110
     9  N   -0.013086
    10  N   -0.006565
    11  O   -0.448814
 Sum of Mulliken charges =  -0.00000

 Dipole moment (field-independent basis, Debye):
    X=             -2.6421    Y=              0.5058    Z=             -1.6003  Tot=              3.1301

 Test job not archived.
 1\1\GINC-SE457\SP\RHF\Aug-CC-pVDZ\C2H3N5O1\OHZDE\08-Apr-2025\0\\#t hf
 aug-cc-pvdz iop(5/13=1,5/36=2,99/5=2) pseudo=read geom=check guess=(re
 ad,tcheck) scf=(maxcycle=1)\\title\\0,1\C,0,-1.5417,-0.439189,0.092896
 1\C,0,0.0236522,1.36166,0.0321851\H,0,-3.34024,0.594582,-0.48254\H,0,-
 3.36007,-1.33713,-0.0643203\H,0,1.88917,1.69691,-0.072637\N,0,-2.82429
 ,-0.475259,-0.371779\N,0,-0.969663,0.838353,-0.422275\N,0,1.03399,1.98
 853,0.456819\N,0,2.83604,-1.44862,-0.121926\N,0,2.88589,-0.390611,-0.3
 55912\O,0,-0.851791,-1.25949,0.696815\\Version=ES64L-G16RevC.01\State=

 Normal termination of Gaussian 16 at Tue Apr  8 21:42:59 2025.
