 Gaussian 16, Revision C.01,

 ----------------------------------------------------------------------
 #t hf aug-cc-pvdz symm=none int=(grid=ultrafine) guess=(read,tcheck) s
 table=(opt,rrhf)
 ----------------------------------------------------------------------
 -----
 title
 -----
 Symbolic Z-matrix:
 Charge =  0 Multiplicity = 1

 SCF Done:  E(RHF) =  -297.749802342     A.U. after   13 cycles
 Normal termination of Gaussian 16 at Tue Apr  8 21:21:26 2025.
 Gaussian 16:  ES64L-G16RevC.01  3-Jul-2019

 ----------------------------------------------------------------------
 #t hf aug-cc-pvdz iop(5/13=1,5/36=2,99/5=2) pseudo=read geom=check gue
 ss=(read,tcheck) scf=(maxcycle=1)
 ----------------------------------------------------------------------
 -----
 title
 -----
 Structure from the checkpoint file:  "ANI1ccx_376_conf5_mol2.chk"
 Charge =  0 Multiplicity = 1

                         Standard orientation:
 ---------------------------------------------------------------------
 Center     Atomic      Atomic             Coordinates (Angstroms)
 Number     Number       Type             X           Y           Z
 ---------------------------------------------------------------------
      1          6           0       -1.576281   -0.292226    0.118316
      2          1           0        0.087624    0.421055    0.369938
      3          1           0       -1.069851   -1.198460    0.498818
      4          7           0        3.262689   -0.178680   -0.165973
      5          7           0        2.214599   -0.045664    0.113039
      6          8           0       -0.760225    0.755614    0.023096
      7          8           0       -2.727411   -0.242968   -0.174111
 ---------------------------------------------------------------------

 SCF Done:  E(RHF) =  -297.846191134     A.U. after    2 cycles

 The electronic state is 1-A.
 Alpha  occ. eigenvalues --  -20.63890 -20.57177 -15.78860 -15.78391 -11.40487
 Alpha  occ. eigenvalues --   -1.46261  -1.43850  -1.34748  -0.86732  -0.81396
 Alpha  occ. eigenvalues --   -0.78283  -0.68640  -0.66259  -0.65400  -0.64290
 Alpha  occ. eigenvalues --   -0.64253  -0.61495  -0.50871  -0.48200
 Alpha virt. eigenvalues --    0.03394   0.05238   0.07506   0.09015   0.09655
 Alpha virt. eigenvalues --    0.10714   0.11099   0.12189   0.13516   0.15395
 Alpha virt. eigenvalues --    0.16353   0.16981   0.19948   0.20897   0.21703

 Mulliken charges:
               1
     1  C    0.744603
     2  H    0.215230
     3  H   -0.157170
     4  N   -0.011809
     5  N   -0.010263
     6  O   -0.389143
     7  O   -0.391447
 Sum of Mulliken charges =  -0.00000

 Dipole moment (field-independent basis, Debye):
    X=              4.5767    Y=             -1.5012    Z=              1.4142  Tot=              5.0199

 Test job not archived.
 1\1\GINC-SE460\SP\RHF\Aug-CC-pVDZ\C1H2N2O2\OHZDE\08-Apr-2025\0\\#t hf
 aug-cc-pvdz iop(5/13=1,5/36=2,99/5=2) pseudo=read geom=check guess=(re
 ad,tcheck) scf=(maxcycle=1)\\title\\0,1\C,0,-1.57628,-0.292225,0.11831
 6\H,0,0.0876253,0.421055,0.369938\H,0,-1.06985,-1.19846,0.498818\N,0,3
 .26269,-0.17868,-0.165973\N,0,2.2146,-0.0456639,0.113039\O,0,-0.760224
 ,0.755614,0.0230963\O,0,-2.72741,-0.242967,-0.174111\\Version=ES64L-G1
 6RevC.01\State=1-A\HF=-297.8461911\RMSD=2.771e-03\Dipole=1.8006137,-0.
 5906311,0.5563869\Quadrupole=-5.9821203,2.5458795,3.4362408,0.7739197,

 Normal termination of Gaussian 16 at Tue Apr  8 21:21:28 2025.
