 Gaussian 16, Revision C.01,

 ----------------------------------------------------------------------
 #t hf aug-cc-pvdz symm=none int=(grid=ultrafine) guess=(read,tcheck) s
 table=(opt,rrhf)
 ----------------------------------------------------------------------
 -----
 title
 -----
 Symbolic Z-matrix:
 Charge =  0 Multiplicity = 1

 SCF Done:  E(RHF) =  -599.865499471     A.U. after   16 cycles
 Normal termination of Gaussian 16 at Tue Apr  8 19:13:06 2025.
 Gaussian 16:  ES64L-G16RevC.01  3-Jul-2019

 ----------------------------------------------------------------------
 #t hf aug-cc-pvdz iop(5/13=1,5/36=2,99/5=2) pseudo=read geom=check gue
 ss=(read,tcheck) scf=(maxcycle=1)
 ----------------------------------------------------------------------
 -----
 title
 -----
 Structure from the checkpoint file:  "ANI1ccx_1089_conf1_mol2.chk"
 Charge =  0 Multiplicity = 1

                         Standard orientation:
 ---------------------------------------------------------------------
 Center     Atomic      Atomic             Coordinates (Angstroms)
 Number     Number       Type             X           Y           Z
 ---------------------------------------------------------------------
      1          6           0        2.266580    0.484394    0.006481
      2          6           0        0.860795    0.780697   -0.008566
      3          6           0        0.113057    1.949910   -0.039812
      4          6           0       -1.227980    1.536740    0.030689
      5          6           0       -1.233820    0.187916    0.039819
      6          1           0        4.278940   -1.708100   -0.011312
      7          1           0        3.045830    1.249590   -0.024345
      8          1           0        0.504511    2.976320   -0.026944
      9          1           0       -2.098490    2.216750    0.023968
     10          7           0        2.672070   -0.753548    0.030501
     11          7           0       -2.373870   -0.680216    0.051511
     12          8           0        4.039010   -0.778376   -0.026481
     13          8           0        0.012425   -0.284505    0.015239
     14          8           0       -3.441060   -0.099611   -0.048225
     15          8           0       -2.171620   -1.879530   -0.028922
 ---------------------------------------------------------------------

 SCF Done:  E(RHF) =  -600.046497460     A.U. after    2 cycles

 The electronic state is 1-A.
 Alpha  occ. eigenvalues --  -20.68477 -20.64082 -20.62960 -20.62379 -15.93641
 Alpha  occ. eigenvalues --  -15.72992 -11.37585 -11.36334 -11.32244 -11.29552
 Alpha  occ. eigenvalues --  -11.28948  -1.56796  -1.48046  -1.42244  -1.38255
 Alpha  occ. eigenvalues --   -1.17520  -1.13655  -1.09903  -0.98289  -0.87854
 Alpha  occ. eigenvalues --   -0.85673  -0.81191  -0.80580  -0.75829  -0.75525
 Alpha  occ. eigenvalues --   -0.74490  -0.70969  -0.69378  -0.65511  -0.63740
 Alpha  occ. eigenvalues --   -0.63135  -0.62104  -0.60164  -0.52891  -0.52674
 Alpha  occ. eigenvalues --   -0.48460  -0.47832  -0.46643  -0.44437  -0.34280
 Alpha virt. eigenvalues --    0.01256   0.02425   0.03460   0.04238   0.05973
 Alpha virt. eigenvalues --    0.07664   0.08043   0.08763   0.10497   0.11246
 Alpha virt. eigenvalues --    0.11561   0.12366   0.12502   0.13230   0.14253

 Mulliken charges:
               1
     1  C    0.872130
     2  C    0.465308
     3  C   -0.036245
     4  C    0.556993
     5  C    0.816963
     6  H    0.189866
     7  H   -0.261804
     8  H   -0.295015
     9  H   -0.253719
    10  N   -0.202037
    11  N    0.263698
    12  O   -0.428802
    13  O   -0.596348
    14  O   -0.564795
    15  O   -0.526192
 Sum of Mulliken charges =  -0.00000

 Dipole moment (field-independent basis, Debye):
    X=              3.9138    Y=              4.1025    Z=              0.2433  Tot=              5.6752

 Test job not archived.
 1\1\GINC-SE132\SP\RHF\Aug-CC-pVDZ\C5H4N2O4\OHZDE\08-Apr-2025\0\\#t hf
 aug-cc-pvdz iop(5/13=1,5/36=2,99/5=2) pseudo=read geom=check guess=(re
 ad,tcheck) scf=(maxcycle=1)\\title\\0,1\C,0,2.26658,0.484394,0.0064812
 9\C,0,0.860795,0.780697,-0.00856553\C,0,0.113057,1.94991,-0.0398123\C,
 0,-1.22798,1.53674,0.0306888\C,0,-1.23382,0.187916,0.0398185\H,0,4.278
 94,-1.7081,-0.0113123\H,0,3.04583,1.24959,-0.0243455\H,0,0.504511,2.97
 632,-0.0269444\H,0,-2.09849,2.21675,0.0239677\N,0,2.67207,-0.753548,0.
 0305011\N,0,-2.37387,-0.680216,0.0515107\O,0,4.03901,-0.778376,-0.0264

 Normal termination of Gaussian 16 at Tue Apr  8 19:13:13 2025.
