 Gaussian 16, Revision C.01,

 ----------------------------------------------------------------------
 #t hf aug-cc-pvdz symm=none int=(grid=ultrafine) guess=(read,tcheck) s
 table=(opt,rrhf)
 ----------------------------------------------------------------------
 -----
 title
 -----
 Symbolic Z-matrix:
 Charge =  0 Multiplicity = 1

 SCF Done:  E(RHF) =  -537.869201048     A.U. after   16 cycles
 Normal termination of Gaussian 16 at Tue Apr  8 22:15:43 2025.
 Gaussian 16:  ES64L-G16RevC.01  3-Jul-2019

 ----------------------------------------------------------------------
 #t hf aug-cc-pvdz iop(5/13=1,5/36=2,99/5=2) pseudo=read geom=check gue
 ss=(read,tcheck) scf=(maxcycle=1)
 ----------------------------------------------------------------------
 -----
 title
 -----
 Structure from the checkpoint file:  "ANI1ccx_988_conf3_mol1.chk"
 Charge =  0 Multiplicity = 1

                         Standard orientation:
 ---------------------------------------------------------------------
 Center     Atomic      Atomic             Coordinates (Angstroms)
 Number     Number       Type             X           Y           Z
 ---------------------------------------------------------------------
      1          6           0       -2.371341   -0.349393   -0.188029
      2          6           0       -0.835555    1.478230    0.610592
      3          6           0        0.631794    1.692490    0.317315
      4          6           0        1.407840    0.480986    0.054373
      5          1           0        3.085890    1.080509   -1.041490
      6          1           0        1.112410    2.187740    1.184340
      7          1           0        0.712682    2.347550   -0.552307
      8          1           0       -1.002670    0.953500    1.555680
      9          1           0       -1.296930    2.470640    0.679298
     10          1           0       -3.767131    0.042197   -1.460650
     11          1           0       -0.897095   -1.174560    0.945344
     12          1           0       -2.412901   -2.058189    0.808529
     13          1           0       -1.772900    1.249151   -1.263670
     14          7           0        3.019859   -0.859745   -0.454051
     15          7           0       -1.912471   -1.190629    0.804777
     16          7           0       -3.483691   -0.630434   -0.761923
     17          7           0       -1.487690    0.707140   -0.443887
     18          7           0        1.044989   -0.751256    0.442558
     19          7           0        2.116199   -1.520230    0.139350
     20          7           0        2.594550    0.400523   -0.529763
 ---------------------------------------------------------------------

 SCF Done:  E(RHF) =  -538.023189579     A.U. after    2 cycles

 The electronic state is 1-A.
 Alpha  occ. eigenvalues --  -15.74801 -15.72612 -15.71703 -15.67207 -15.64365
 Alpha  occ. eigenvalues --  -15.60632 -15.56477 -11.35888 -11.34768 -11.30325
 Alpha  occ. eigenvalues --  -11.29036  -1.46743  -1.25964  -1.23263  -1.19156
 Alpha  occ. eigenvalues --   -1.14920  -1.08848  -1.04880  -0.92356  -0.89945
 Alpha  occ. eigenvalues --   -0.85994  -0.79402  -0.78049  -0.72796  -0.70334
 Alpha  occ. eigenvalues --   -0.68111  -0.65131  -0.62582  -0.62156  -0.60293
 Alpha  occ. eigenvalues --   -0.58661  -0.56694  -0.54327  -0.52757  -0.47756
 Alpha  occ. eigenvalues --   -0.46450  -0.45572  -0.41179  -0.40468  -0.39010
 Alpha  occ. eigenvalues --   -0.33680
 Alpha virt. eigenvalues --    0.00959   0.02874   0.03041   0.05201   0.05566
 Alpha virt. eigenvalues --    0.05922   0.06992   0.07795   0.09085   0.09796
 Alpha virt. eigenvalues --    0.10895   0.11314   0.12202   0.12899   0.13270

 Mulliken charges:
               1
     1  C    0.821574
     2  C    1.050863
     3  C    0.034321
     4  C    0.532688
     5  H   -0.091464
     6  H    0.106727
     7  H   -0.021079
     8  H   -0.206612
     9  H   -0.135557
    10  H   -0.048259
    11  H    0.064819
    12  H   -0.048871
    13  H   -0.036826
    14  N   -0.217203
    15  N   -0.208355
    16  N   -0.402175
    17  N   -0.505147
    18  N   -0.476691
    19  N   -0.175154
    20  N   -0.037600
 Sum of Mulliken charges =  -0.00000

 Dipole moment (field-independent basis, Debye):
    X=              3.3978    Y=              7.3591    Z=             -0.8664  Tot=              8.1518

 Test job not archived.
 1\1\GINC-SE186\SP\RHF\Aug-CC-pVDZ\C4H9N7\OHZDE\08-Apr-2025\0\\#t hf au
 g-cc-pvdz iop(5/13=1,5/36=2,99/5=2) pseudo=read geom=check guess=(read
 ,tcheck) scf=(maxcycle=1)\\title\\0,1\C,0,-2.37134,-0.349394,-0.188029
 \C,0,-0.835555,1.47823,0.610592\C,0,0.631794,1.69249,0.317315\C,0,1.40
 784,0.480986,0.0543734\H,0,3.08589,1.08051,-1.04149\H,0,1.11241,2.1877
 4,1.18434\H,0,0.712682,2.34755,-0.552307\H,0,-1.00267,0.9535,1.55568\H
 ,0,-1.29693,2.47064,0.679298\H,0,-3.76713,0.0421956,-1.46065\H,0,-0.89
 7094,-1.17456,0.945344\H,0,-2.4129,-2.05819,0.808529\H,0,-1.7729,1.249

 Normal termination of Gaussian 16 at Tue Apr  8 22:15:56 2025.
