 Gaussian 16, Revision C.01,

 ----------------------------------------------------------------------
 #t hf aug-cc-pvdz symm=none int=(grid=ultrafine) guess=(read,tcheck) s
 table=(opt,rrhf)
 ----------------------------------------------------------------------
 -----
 title
 -----
 Symbolic Z-matrix:
 Charge =  0 Multiplicity = 1

 SCF Done:  E(RHF) =  -460.281704454     A.U. after   15 cycles
 Normal termination of Gaussian 16 at Tue Apr  8 21:18:34 2025.
 Gaussian 16:  ES64L-G16RevC.01  3-Jul-2019

 ----------------------------------------------------------------------
 #t hf aug-cc-pvdz iop(5/13=1,5/36=2,99/5=2) pseudo=read geom=check gue
 ss=(read,tcheck) scf=(maxcycle=1)
 ----------------------------------------------------------------------
 -----
 title
 -----
 Structure from the checkpoint file:  "ANI1ccx_373_conf10_mol2.chk"
 Charge =  0 Multiplicity = 1

                         Standard orientation:
 ---------------------------------------------------------------------
 Center     Atomic      Atomic             Coordinates (Angstroms)
 Number     Number       Type             X           Y           Z
 ---------------------------------------------------------------------
      1          6           0        0.029231    0.019941    0.079092
      2          1           0        2.763180   -1.115088    0.012728
      3          7           0       -1.410051   -0.014412    0.001466
      4          7           0        0.766834    1.137590    0.027098
      5          7           0        1.982438    0.701925   -0.068974
      6          7           0        1.928719   -0.570002   -0.043914
      7          7           0        0.739524   -1.083620    0.083778
      8          8           0       -1.937122    1.065277    0.003528
      9          8           0       -1.936730   -1.090893   -0.063961
 ---------------------------------------------------------------------

 SCF Done:  E(RHF) =  -460.412877430     A.U. after    2 cycles

 The electronic state is 1-A.
 Alpha  occ. eigenvalues --  -20.64240 -20.64206 -15.95128 -15.82103 -15.77687
 Alpha  occ. eigenvalues --  -15.74823 -15.72683 -11.39976  -1.60045  -1.54080
 Alpha  occ. eigenvalues --   -1.41286  -1.28700  -1.23748  -1.05626  -0.96376
 Alpha  occ. eigenvalues --   -0.87769  -0.83836  -0.79227  -0.77972  -0.76068
 Alpha  occ. eigenvalues --   -0.73132  -0.62537  -0.55969  -0.54569  -0.53301
 Alpha  occ. eigenvalues --   -0.51005  -0.49967  -0.48550  -0.46494
 Alpha virt. eigenvalues --    0.01540   0.03126   0.06756   0.07730   0.08126
 Alpha virt. eigenvalues --    0.09687   0.11438   0.12186   0.13135   0.14856
 Alpha virt. eigenvalues --    0.15893   0.16871   0.17394   0.18800   0.19112

 Mulliken charges:
               1
     1  C    1.092493
     2  H    0.028818
     3  N    0.420850
     4  N   -0.292265
     5  N   -0.151418
     6  N    0.315294
     7  N   -0.359525
     8  O   -0.518411
     9  O   -0.535836
 Sum of Mulliken charges =  -0.00000

 Dipole moment (field-independent basis, Debye):
    X=              5.0970    Y=             -2.1767    Z=              0.1738  Tot=              5.5451

 Test job not archived.
 1\1\GINC-SE229\SP\RHF\Aug-CC-pVDZ\C1H1N5O2\OHZDE\08-Apr-2025\0\\#t hf
 aug-cc-pvdz iop(5/13=1,5/36=2,99/5=2) pseudo=read geom=check guess=(re
 ad,tcheck) scf=(maxcycle=1)\\title\\0,1\C,0,0.0292321,0.0199416,0.0790
 924\H,0,2.76318,-1.11509,0.0127277\N,0,-1.41005,-0.0144101,0.00146648\
 N,0,0.766836,1.13759,0.027098\N,0,1.98244,0.701924,-0.0689743\N,0,1.92
 872,-0.570003,-0.0439141\N,0,0.739524,-1.08362,0.0837784\O,0,-1.93712,
 1.06528,0.00352832\O,0,-1.93673,-1.09089,-0.0639613\\Version=ES64L-G16
 RevC.01\State=1-A\HF=-460.4128774\RMSD=3.747e-03\Dipole=2.0053316,-0.8

 Normal termination of Gaussian 16 at Tue Apr  8 21:18:39 2025.
