 Gaussian 16, Revision C.01,

 ----------------------------------------------------------------------
 #t hf aug-cc-pvdz symm=none int=(grid=ultrafine) guess=(read,tcheck) s
 table=(opt,rrhf)
 ----------------------------------------------------------------------
 -----
 title
 -----
 Symbolic Z-matrix:
 Charge =  0 Multiplicity = 1

 SCF Done:  E(RHF) =  -355.465965229     A.U. after   16 cycles
 Normal termination of Gaussian 16 at Tue Apr  8 21:10:18 2025.
 Gaussian 16:  ES64L-G16RevC.01  3-Jul-2019

 ----------------------------------------------------------------------
 #t hf aug-cc-pvdz iop(5/13=1,5/36=2,99/5=2) pseudo=read geom=check gue
 ss=(read,tcheck) scf=(maxcycle=1)
 ----------------------------------------------------------------------
 -----
 title
 -----
 Structure from the checkpoint file:  "ANI1ccx_1871_conf7_mol1.chk"
 Charge =  0 Multiplicity = 1

                         Standard orientation:
 ---------------------------------------------------------------------
 Center     Atomic      Atomic             Coordinates (Angstroms)
 Number     Number       Type             X           Y           Z
 ---------------------------------------------------------------------
      1          1           0       -3.041238   -0.471047    0.565673
      2          1           0       -2.031118    1.107140   -1.008920
      3          1           0       -0.143124   -0.217909    0.658219
      4          7           0        1.507302   -0.464757   -0.217245
      5          8           0       -2.329688   -0.586057   -0.101681
      6          8           0       -1.614108    0.633071   -0.163016
      7          8           0        0.744691    0.229777    0.742043
      8          8           0        2.532152    0.077598   -0.314127
 ---------------------------------------------------------------------

 SCF Done:  E(RHF) =  -355.579450557     A.U. after    2 cycles

 The electronic state is 1-A.
 Alpha  occ. eigenvalues --  -20.67797 -20.66937 -20.65050 -20.62238 -15.83781
 Alpha  occ. eigenvalues --   -1.54302  -1.46021  -1.33547  -1.19996  -0.91058
 Alpha  occ. eigenvalues --   -0.78949  -0.76680  -0.73680  -0.71678  -0.68179
 Alpha  occ. eigenvalues --   -0.66075  -0.60400  -0.54527  -0.54316  -0.51169
 Alpha  occ. eigenvalues --   -0.45091
 Alpha virt. eigenvalues --    0.02493   0.03998   0.07088   0.10289   0.11453
 Alpha virt. eigenvalues --    0.12514   0.15018   0.16242   0.17414   0.17715
 Alpha virt. eigenvalues --    0.20131   0.20936   0.21675   0.22378   0.24561

 Mulliken charges:
               1
     1  H    0.249605
     2  H    0.328583
     3  H    0.329259
     4  N    0.493114
     5  O   -0.265152
     6  O   -0.352970
     7  O   -0.454221
     8  O   -0.328217
 Sum of Mulliken charges =   0.00000

 Dipole moment (field-independent basis, Debye):
    X=             -5.0634    Y=              0.1333    Z=             -0.4574  Tot=              5.0858

 Test job not archived.
 1\1\GINC-SE398\SP\RHF\Aug-CC-pVDZ\H3N1O4\OHZDE\08-Apr-2025\0\\#t hf au
 g-cc-pvdz iop(5/13=1,5/36=2,99/5=2) pseudo=read geom=check guess=(read
 ,tcheck) scf=(maxcycle=1)\\title\\0,1\H,0,-3.04124,-0.471048,0.565673\
 H,0,-2.03112,1.10714,-1.00892\H,0,-0.143126,-0.217909,0.658219\N,0,1.5
 073,-0.464757,-0.217245\O,0,-2.32969,-0.586057,-0.101681\O,0,-1.61411,
 0.633071,-0.163016\O,0,0.744689,0.229777,0.742043\O,0,2.53215,0.077597
 8,-0.314127\\Version=ES64L-G16RevC.01\State=1-A\HF=-355.5794506\RMSD=2
 .599e-03\Dipole=-1.9920995,0.0524434,-0.1799742\Quadrupole=2.0807019,-

 Normal termination of Gaussian 16 at Tue Apr  8 21:10:20 2025.
