 Gaussian 16, Revision C.01,

 ----------------------------------------------------------------------
 #t hf aug-cc-pvdz symm=none int=(grid=ultrafine) guess=(read,tcheck) s
 table=(opt,rrhf)
 ----------------------------------------------------------------------
 -----
 title
 -----
 Symbolic Z-matrix:
 Charge =  0 Multiplicity = 1

 SCF Done:  E(RHF) =  -794.460267833     A.U. after   15 cycles
 Normal termination of Gaussian 16 at Tue Apr  8 20:05:25 2025.
 Gaussian 16:  ES64L-G16RevC.01  3-Jul-2019

 ----------------------------------------------------------------------
 #t hf aug-cc-pvdz iop(5/13=1,5/36=2,99/5=2) pseudo=read geom=check gue
 ss=(read,tcheck) scf=(maxcycle=1)
 ----------------------------------------------------------------------
 -----
 title
 -----
 Structure from the checkpoint file:  "ANI1ccx_1592_conf1_mol1.chk"
 Charge =  0 Multiplicity = 1

                         Standard orientation:
 ---------------------------------------------------------------------
 Center     Atomic      Atomic             Coordinates (Angstroms)
 Number     Number       Type             X           Y           Z
 ---------------------------------------------------------------------
      1          6           0        0.443992    1.386450   -0.295717
      2          6           0       -0.961838    1.761900    0.012270
      3          6           0        1.284841    1.194830    0.916462
      4          6           0        2.663391    0.463080    0.612151
      5          6           0        2.554490   -0.947896    0.064265
      6          6           0       -1.546980   -0.647589    0.648118
      7          6           0       -1.818990   -1.303400   -0.673675
      8          6           0       -2.464980   -1.246140    1.711050
      9          1           0        0.008332   -1.929730   -0.679891
     10          1           0       -3.495580   -0.964157    1.473270
     11          1           0       -2.251900   -0.798976    2.687570
     12          1           0       -2.412010   -2.352890    1.810440
     13          1           0       -0.519905   -0.880700    0.920329
     14          1           0       -2.738059    1.079880    0.709076
     15          1           0        3.546410   -2.454171   -0.217707
     16          1           0        3.168081    1.105579   -0.088065
     17          1           0        3.226601    0.445754    1.548920
     18          1           0        1.556131    2.154480    1.390080
     19          1           0        0.678910    0.670948    1.693870
     20          1           0        0.329010    0.437331   -0.802184
     21          1           0        0.429930    2.446830   -2.016300
     22          1           0        1.000081    3.256080   -0.747124
     23          7           0        1.071591    2.349050   -1.222770
     24          7           0       -1.746819    0.743877    0.568930
     25          8           0       -1.413169    2.886750   -0.094492
     26          8           0        1.529080   -1.521950   -0.022100
     27          8           0        3.747760   -1.530991   -0.088106
     28          8           0       -2.860940   -1.188320   -1.312860
     29          8           0       -0.843105   -2.124760   -1.116810
 ---------------------------------------------------------------------

 SCF Done:  E(RHF) =  -794.705411536     A.U. after    2 cycles

 The electronic state is 1-A.
 Alpha  occ. eigenvalues --  -20.66325 -20.61426 -20.60842 -20.55322 -20.55270
 Alpha  occ. eigenvalues --  -15.65753 -15.62621 -11.44344 -11.39078 -11.37464
 Alpha  occ. eigenvalues --  -11.30734 -11.29183 -11.28420 -11.27800 -11.25797
 Alpha  occ. eigenvalues --   -1.48736  -1.40545  -1.39032  -1.36425  -1.30860
 Alpha  occ. eigenvalues --   -1.22208  -1.18328  -1.08067  -1.04763  -0.99654
 Alpha  occ. eigenvalues --   -0.91647  -0.91299  -0.85114  -0.84024  -0.79254
 Alpha  occ. eigenvalues --   -0.77150  -0.75365  -0.74521  -0.72198  -0.71069
 Alpha  occ. eigenvalues --   -0.69170  -0.67175  -0.65735  -0.65558  -0.64588
 Alpha  occ. eigenvalues --   -0.62236  -0.60352  -0.59778  -0.59081  -0.58180
 Alpha  occ. eigenvalues --   -0.57265  -0.56444  -0.55433  -0.53985  -0.53932
 Alpha  occ. eigenvalues --   -0.52930  -0.51738  -0.50188  -0.48126  -0.46910
 Alpha  occ. eigenvalues --   -0.46114  -0.41828  -0.40016
 Alpha virt. eigenvalues --    0.01893   0.03031   0.03508   0.04336   0.05211
 Alpha virt. eigenvalues --    0.05654   0.05914   0.06373   0.06916   0.07879
 Alpha virt. eigenvalues --    0.08574   0.08813   0.09261   0.10197   0.10676

 Mulliken charges:
               1
     1  C    0.246417
     2  C    0.661493
     3  C    0.419432
     4  C    0.385035
     5  C    0.417937
     6  C    0.202676
     7  C    0.576549
     8  C    1.001825
     9  H    0.306156
    10  H   -0.038175
    11  H   -0.008042
    12  H   -0.002534
    13  H   -0.438588
    14  H    0.042493
    15  H    0.162442
    16  H    0.026264
    17  H    0.031061
    18  H   -0.113149
    19  H   -0.187054
    20  H   -0.178650
    21  H    0.024799
    22  H    0.110391
    23  N   -0.370688
    24  N   -0.640653
    25  O   -0.574789
    26  O   -0.521899
    27  O   -0.462645
    28  O   -0.559129
    29  O   -0.518976
 Sum of Mulliken charges =  -0.00000

 Dipole moment (field-independent basis, Debye):
    X=              5.6407    Y=             -1.5498    Z=              4.8954  Tot=              7.6279

 Test job not archived.
 1\1\GINC-SE084\SP\RHF\Aug-CC-pVDZ\C8H14N2O5\OHZDE\08-Apr-2025\0\\#t hf
  aug-cc-pvdz iop(5/13=1,5/36=2,99/5=2) pseudo=read geom=check guess=(r
 ead,tcheck) scf=(maxcycle=1)\\title\\0,1\C,0,0.443991,1.38645,-0.29571
 7\C,0,-0.961839,1.7619,0.0122701\C,0,1.28484,1.19483,0.916462\C,0,2.66
 339,0.463081,0.612151\C,0,2.55449,-0.947895,0.0642647\C,0,-1.54698,-0.
 647589,0.648118\C,0,-1.81899,-1.3034,-0.673675\C,0,-2.46498,-1.24614,1
 .71105\H,0,0.00833231,-1.92973,-0.679891\H,0,-3.49558,-0.964157,1.4732
 7\H,0,-2.2519,-0.798976,2.68757\H,0,-2.41201,-2.35289,1.81044\H,0,-0.5

 Normal termination of Gaussian 16 at Tue Apr  8 20:06:02 2025.
