 Gaussian 16, Revision C.01,

 ----------------------------------------------------------------------
 #t hf aug-cc-pvdz symm=none int=(grid=ultrafine) guess=(read,tcheck) s
 table=(opt,rrhf)
 ----------------------------------------------------------------------
 -----
 title
 -----
 Symbolic Z-matrix:
 Charge =  0 Multiplicity = 1

 SCF Done:  E(RHF) =  -259.761027195     A.U. after   13 cycles
 Normal termination of Gaussian 16 at Tue Apr  8 21:09:15 2025.
 Gaussian 16:  ES64L-G16RevC.01  3-Jul-2019

 ----------------------------------------------------------------------
 #t hf aug-cc-pvdz iop(5/13=1,5/36=2,99/5=2) pseudo=read geom=check gue
 ss=(read,tcheck) scf=(maxcycle=1)
 ----------------------------------------------------------------------
 -----
 title
 -----
 Structure from the checkpoint file:  "ANI1ccx_1858_conf12_mol1.chk"
 Charge =  0 Multiplicity = 1

                         Standard orientation:
 ---------------------------------------------------------------------
 Center     Atomic      Atomic             Coordinates (Angstroms)
 Number     Number       Type             X           Y           Z
 ---------------------------------------------------------------------
      1          1           0       -1.723418    0.971643    0.776880
      2          1           0       -0.467161   -0.974397    0.072972
      3          7           0        1.768342    0.485297   -0.169910
      4          7           0        1.550081   -0.496847    0.192937
      5          8           0       -1.250328    0.695499   -0.011602
      6          8           0       -1.379469   -0.685049   -0.114778
 ---------------------------------------------------------------------

 SCF Done:  E(RHF) =  -259.846706052     A.U. after    2 cycles

 The electronic state is 1-A.
 Alpha  occ. eigenvalues --  -20.64077 -20.63715 -15.76077 -15.75451  -1.46016
 Alpha  occ. eigenvalues --   -1.44988  -1.18442  -0.76913  -0.74874  -0.73380
 Alpha  occ. eigenvalues --   -0.64604  -0.63773  -0.63240  -0.62857  -0.52660
 Alpha  occ. eigenvalues --   -0.49805
 Alpha virt. eigenvalues --    0.04246   0.05871   0.10003   0.12353   0.12734
 Alpha virt. eigenvalues --    0.13174   0.14780   0.16675   0.18610   0.19014
 Alpha virt. eigenvalues --    0.21494   0.23025   0.23933   0.24351   0.26420

 Mulliken charges:
               1
     1  H    0.200293
     2  H    0.257420
     3  N   -0.010081
     4  N   -0.027785
     5  O   -0.209722
     6  O   -0.210126
 Sum of Mulliken charges =  -0.00000

 Dipole moment (field-independent basis, Debye):
    X=              0.9608    Y=              0.1067    Z=              1.7730  Tot=              2.0195

 Test job not archived.
 1\1\GINC-SE030\SP\RHF\Aug-CC-pVDZ\H2N2O2\OHZDE\08-Apr-2025\0\\#t hf au
 g-cc-pvdz iop(5/13=1,5/36=2,99/5=2) pseudo=read geom=check guess=(read
 ,tcheck) scf=(maxcycle=1)\\title\\0,1\H,0,-1.72342,0.971642,0.77688\H,
 0,-0.467162,-0.974397,0.0729718\N,0,1.76834,0.485298,-0.16991\N,0,1.55
 008,-0.496846,0.192937\O,0,-1.25033,0.695498,-0.0116022\O,0,-1.37947,-
 0.68505,-0.114778\\Version=ES64L-G16RevC.01\State=1-A\HF=-259.8467061\
 RMSD=2.466e-03\Dipole=0.3780046,0.0419953,0.6975691\Quadrupole=-0.3636
 755,-0.0030951,0.3667706,-2.1189744,-2.2990121,1.3581598\PG=C01 [X(H2N

 Normal termination of Gaussian 16 at Tue Apr  8 21:09:16 2025.
