 Gaussian 16, Revision C.01,

 ----------------------------------------------------------------------
 #t hf aug-cc-pvdz symm=none int=(grid=ultrafine) guess=(read,tcheck) s
 table=(opt,rrhf)
 ----------------------------------------------------------------------
 -----
 title
 -----
 Symbolic Z-matrix:
 Charge =  0 Multiplicity = 1

 SCF Done:  E(RHF) =  -577.529989169     A.U. after   15 cycles
 Normal termination of Gaussian 16 at Tue Apr  8 22:11:48 2025.
 Gaussian 16:  ES64L-G16RevC.01  3-Jul-2019

 ----------------------------------------------------------------------
 #t hf aug-cc-pvdz iop(5/13=1,5/36=2,99/5=2) pseudo=read geom=check gue
 ss=(read,tcheck) scf=(maxcycle=1)
 ----------------------------------------------------------------------
 -----
 title
 -----
 Structure from the checkpoint file:  "ANI1ccx_949_conf2_mol1.chk"
 Charge =  0 Multiplicity = 1

                         Standard orientation:
 ---------------------------------------------------------------------
 Center     Atomic      Atomic             Coordinates (Angstroms)
 Number     Number       Type             X           Y           Z
 ---------------------------------------------------------------------
      1          6           0       -1.306540    0.788186   -0.046397
      2          6           0       -1.707720   -1.324270   -0.040389
      3          6           0        1.454580   -1.151170   -0.550463
      4          6           0        2.084660   -0.181443    0.354160
      5          1           0        2.763140    1.588880    0.368030
      6          1           0        1.200480   -2.058300    0.078604
      7          1           0        0.250159   -0.720209   -2.211770
      8          1           0        2.133660   -1.636680   -1.306170
      9          1           0       -1.000529    2.758930    0.331855
     10          1           0        0.132818    1.922040   -0.759672
     11          1           0       -1.514880   -2.333480   -0.230844
     12          7           0       -0.830732    2.036930   -0.433139
     13          7           0       -2.354950    0.559760    0.709463
     14          7           0       -2.558470   -0.758880    0.735857
     15          7           0       -0.823113   -0.368637   -0.501860
     16          7           0        0.282986   -0.554628   -1.200270
     17          8           0        2.297020    1.019140   -0.239940
     18          8           0        2.312380   -0.357990    1.522210
 ---------------------------------------------------------------------

 SCF Done:  E(RHF) =  -577.702360422     A.U. after    2 cycles

 The electronic state is 1-A.
 Alpha  occ. eigenvalues --  -20.64809 -20.59388 -15.72555 -15.69971 -15.65579
 Alpha  occ. eigenvalues --  -15.64238 -15.61933 -11.42501 -11.34780 -11.33107
 Alpha  occ. eigenvalues --  -11.29729  -1.45479  -1.40584  -1.35490  -1.29278
 Alpha  occ. eigenvalues --   -1.19644  -1.12358  -1.04389  -1.01171  -0.88106
 Alpha  occ. eigenvalues --   -0.85558  -0.82891  -0.77130  -0.75024  -0.73692
 Alpha  occ. eigenvalues --   -0.71746  -0.69557  -0.66252  -0.64835  -0.63806
 Alpha  occ. eigenvalues --   -0.63480  -0.61071  -0.58929  -0.52709  -0.50868
 Alpha  occ. eigenvalues --   -0.48897  -0.47965  -0.45151  -0.42049  -0.38946
 Alpha  occ. eigenvalues --   -0.32264
 Alpha virt. eigenvalues --    0.01482   0.02517   0.03728   0.04614   0.05509
 Alpha virt. eigenvalues --    0.07120   0.07718   0.08342   0.09488   0.11135
 Alpha virt. eigenvalues --    0.11502   0.11709   0.12185   0.13179   0.13528

 Mulliken charges:
               1
     1  C    0.684771
     2  C    0.820275
     3  C    0.610768
     4  C    0.654418
     5  H    0.204522
     6  H   -0.006547
     7  H   -0.049447
     8  H   -0.031880
     9  H    0.117701
    10  H    0.110153
    11  H   -0.382915
    12  N   -0.421054
    13  N   -0.448451
    14  N   -0.485034
    15  N   -0.302049
    16  N    0.012950
    17  O   -0.617775
    18  O   -0.470405
 Sum of Mulliken charges =  -0.00000

 Dipole moment (field-independent basis, Debye):
    X=              5.7827    Y=             -0.5023    Z=             -4.7632  Tot=              7.5086

 Test job not archived.
 1\1\GINC-SE252\SP\RHF\Aug-CC-pVDZ\C4H7N5O2\OHZDE\08-Apr-2025\0\\#t hf
 aug-cc-pvdz iop(5/13=1,5/36=2,99/5=2) pseudo=read geom=check guess=(re
 ad,tcheck) scf=(maxcycle=1)\\title\\0,1\C,0,-1.30654,0.788186,-0.04639
 71\C,0,-1.70772,-1.32427,-0.0403886\C,0,1.45458,-1.15117,-0.550463\C,0
 ,2.08466,-0.181443,0.35416\H,0,2.76314,1.58888,0.36803\H,0,1.20048,-2.
 0583,0.0786042\H,0,0.250159,-0.720209,-2.21177\H,0,2.13366,-1.63668,-1
 .30617\H,0,-1.00053,2.75893,0.331855\H,0,0.132817,1.92204,-0.759672\H,
 0,-1.51488,-2.33348,-0.230844\N,0,-0.830733,2.03693,-0.433139\N,0,-2.3

 Normal termination of Gaussian 16 at Tue Apr  8 22:11:58 2025.
