 Gaussian 16, Revision C.01,

 ----------------------------------------------------------------------
 #t hf aug-cc-pvdz symm=none int=(grid=ultrafine) guess=(read,tcheck) s
 table=(opt,rrhf)
 ----------------------------------------------------------------------
 -----
 title
 -----
 Symbolic Z-matrix:
 Charge =  0 Multiplicity = 1

 SCF Done:  E(RHF) =  -428.583735847     A.U. after   13 cycles
 Normal termination of Gaussian 16 at Tue Apr  8 21:36:49 2025.
 Gaussian 16:  ES64L-G16RevC.01  3-Jul-2019

 ----------------------------------------------------------------------
 #t hf aug-cc-pvdz iop(5/13=1,5/36=2,99/5=2) pseudo=read geom=check gue
 ss=(read,tcheck) scf=(maxcycle=1)
 ----------------------------------------------------------------------
 -----
 title
 -----
 Structure from the checkpoint file:  "ANI1ccx_419_conf3_mol1.chk"
 Charge =  0 Multiplicity = 1

                         Standard orientation:
 ---------------------------------------------------------------------
 Center     Atomic      Atomic             Coordinates (Angstroms)
 Number     Number       Type             X           Y           Z
 ---------------------------------------------------------------------
      1          6           0       -0.101237   -0.314412    0.035521
      2          1           0        1.895440    1.412558   -0.010049
      3          1           0       -0.767734    1.539309   -0.317814
      4          1           0       -1.606131   -1.654110    0.284140
      5          1           0       -3.008860    0.387229    0.319916
      6          1           0        2.565419   -1.560442   -0.163416
      7          7           0        0.073245    1.001209   -0.404933
      8          7           0       -1.431481   -0.658388    0.438679
      9          7           0        0.768364   -1.231641    0.155011
     10          8           0        1.047580    1.684729    0.402006
     11          8           0       -2.365690    0.075505   -0.338338
     12          8           0        2.025409   -0.762275   -0.269568
 ---------------------------------------------------------------------

 SCF Done:  E(RHF) =  -428.713032140     A.U. after    2 cycles

 The electronic state is 1-A.
 Alpha  occ. eigenvalues --  -20.64121 -20.61712 -20.61666 -15.71138 -15.69643
 Alpha  occ. eigenvalues --  -15.67434 -11.36521  -1.40961  -1.38745  -1.35923
 Alpha  occ. eigenvalues --   -1.20658  -1.08816  -1.06189  -0.81116  -0.76833
 Alpha  occ. eigenvalues --   -0.74836  -0.70866  -0.68959  -0.67678  -0.64866
 Alpha  occ. eigenvalues --   -0.62641  -0.61658  -0.55631  -0.53955  -0.50223
 Alpha  occ. eigenvalues --   -0.45754  -0.43119  -0.36051
 Alpha virt. eigenvalues --    0.02991   0.03908   0.04461   0.06689   0.07408
 Alpha virt. eigenvalues --    0.09084   0.13047   0.13414   0.14461   0.15261
 Alpha virt. eigenvalues --    0.15581   0.17320   0.18069   0.18502   0.19226

 Mulliken charges:
               1
     1  C    1.323783
     2  H    0.240862
     3  H    0.108029
     4  H    0.097895
     5  H    0.231908
     6  H    0.197916
     7  N   -0.188381
     8  N   -0.171245
     9  N   -0.227262
    10  O   -0.501846
    11  O   -0.548271
    12  O   -0.563389
 Sum of Mulliken charges =  -0.00000

 Dipole moment (field-independent basis, Debye):
    X=             -1.4335    Y=             -0.8769    Z=              0.3300  Tot=              1.7125

 Test job not archived.
 1\1\GINC-SE339\SP\RHF\Aug-CC-pVDZ\C1H5N3O3\OHZDE\08-Apr-2025\0\\#t hf
 aug-cc-pvdz iop(5/13=1,5/36=2,99/5=2) pseudo=read geom=check guess=(re
 ad,tcheck) scf=(maxcycle=1)\\title\\0,1\C,0,-0.101236,-0.314411,0.0355
 208\H,0,1.89544,1.41256,-0.0100491\H,0,-0.767734,1.53931,-0.317814\H,0
 ,-1.60613,-1.65411,0.28414\H,0,-3.00886,0.387229,0.319916\H,0,2.56542,
 -1.56044,-0.163416\N,0,0.0732448,1.00121,-0.404933\N,0,-1.43148,-0.658
 388,0.438679\N,0,0.768365,-1.23164,0.155011\O,0,1.04758,1.68473,0.4020
 06\O,0,-2.36569,0.0755049,-0.338338\O,0,2.02541,-0.762273,-0.269568\\V

 Normal termination of Gaussian 16 at Tue Apr  8 21:36:54 2025.
