 Gaussian 16, Revision C.01,

 ----------------------------------------------------------------------
 #t hf aug-cc-pvdz symm=none int=(grid=ultrafine) guess=(read,tcheck) s
 table=(opt,rrhf)
 ----------------------------------------------------------------------
 -----
 title
 -----
 Symbolic Z-matrix:
 Charge =  0 Multiplicity = 1

 SCF Done:  E(RHF) =  -311.846410640     A.U. after   15 cycles
 Normal termination of Gaussian 16 at Tue Apr  8 21:33:34 2025.
 Gaussian 16:  ES64L-G16RevC.01  3-Jul-2019

 ----------------------------------------------------------------------
 #t hf aug-cc-pvdz iop(5/13=1,5/36=2,99/5=2) pseudo=read geom=check gue
 ss=(read,tcheck) scf=(maxcycle=1)
 ----------------------------------------------------------------------
 -----
 title
 -----
 Structure from the checkpoint file:  "ANI1ccx_392_conf3_mol2.chk"
 Charge =  0 Multiplicity = 1

                         Standard orientation:
 ---------------------------------------------------------------------
 Center     Atomic      Atomic             Coordinates (Angstroms)
 Number     Number       Type             X           Y           Z
 ---------------------------------------------------------------------
      1          6           0       -0.627634   -0.023696    0.000635
      2          1           0       -2.482721    0.839822    0.006674
      3          1           0       -2.486950   -0.900963    0.000864
      4          1           0        2.190660   -1.094568   -0.001111
      5          7           0       -1.984430   -0.031457   -0.002451
      6          7           0        0.099447    1.125711    0.001182
      7          7           0        1.349109    0.753658   -0.001334
      8          7           0        1.340540   -0.551080    0.000027
      9          7           0        0.130307   -1.111419    0.001114
 ---------------------------------------------------------------------

 SCF Done:  E(RHF) =  -311.934556591     A.U. after    2 cycles

 The electronic state is 1-A.
 Alpha  occ. eigenvalues --  -15.76057 -15.73956 -15.67002 -15.66384 -15.64921
 Alpha  occ. eigenvalues --  -11.35453  -1.45893  -1.22882  -1.21538  -1.10925
 Alpha  occ. eigenvalues --   -0.90653  -0.85091  -0.78050  -0.70239  -0.68208
 Alpha  occ. eigenvalues --   -0.66663  -0.56455  -0.51366  -0.48837  -0.45839
 Alpha  occ. eigenvalues --   -0.43502  -0.34195
 Alpha virt. eigenvalues --    0.02833   0.03414   0.05619   0.08861   0.10693
 Alpha virt. eigenvalues --    0.11251   0.12526   0.14033   0.15078   0.15319
 Alpha virt. eigenvalues --    0.17105   0.17306   0.17907   0.19917   0.20240

 Mulliken charges:
               1
     1  C    1.099847
     2  H   -0.033047
     3  H   -0.034838
     4  H    0.027775
     5  N   -0.207401
     6  N   -0.400632
     7  N   -0.144858
     8  N    0.146588
     9  N   -0.453434
 Sum of Mulliken charges =  -0.00000

 Dipole moment (field-independent basis, Debye):
    X=             -0.7323    Y=             -1.9077    Z=              0.0169  Tot=              2.0435

 Test job not archived.
 1\1\GINC-SE041\SP\RHF\Aug-CC-pVDZ\C1H3N5\OHZDE\08-Apr-2025\0\\#t hf au
 g-cc-pvdz iop(5/13=1,5/36=2,99/5=2) pseudo=read geom=check guess=(read
 ,tcheck) scf=(maxcycle=1)\\title\\0,1\C,0,-0.627634,-0.0236959,0.00063
 49\H,0,-2.48272,0.839823,0.00667395\H,0,-2.48695,-0.900962,0.00086378\
 H,0,2.19066,-1.09457,-0.00111129\N,0,-1.98443,-0.0314568,-0.00245117\N
 ,0,0.0994473,1.12571,0.00118197\N,0,1.34911,0.753657,-0.00133378\N,0,1
 .34054,-0.551081,0.00002674\N,0,0.130307,-1.11142,0.00111399\\Version=
 ES64L-G16RevC.01\State=1-A\HF=-311.9345566\RMSD=2.990e-03\Dipole=-0.28

 Normal termination of Gaussian 16 at Tue Apr  8 21:33:37 2025.
