 Gaussian 16, Revision C.01,

 ----------------------------------------------------------------------
 #t hf aug-cc-pvdz symm=none int=(grid=ultrafine) guess=(read,tcheck) s
 table=(opt,rrhf)
 ----------------------------------------------------------------------
 -----
 title
 -----
 Symbolic Z-matrix:
 Charge =  0 Multiplicity = 1

 SCF Done:  E(RHF) =  -298.814280860     A.U. after   14 cycles
 Normal termination of Gaussian 16 at Tue Apr  8 21:34:32 2025.
 Gaussian 16:  ES64L-G16RevC.01  3-Jul-2019

 ----------------------------------------------------------------------
 #t hf aug-cc-pvdz iop(5/13=1,5/36=2,99/5=2) pseudo=read geom=check gue
 ss=(read,tcheck) scf=(maxcycle=1)
 ----------------------------------------------------------------------
 -----
 title
 -----
 Structure from the checkpoint file:  "ANI1ccx_398_conf31_mol1.chk"
 Charge =  0 Multiplicity = 1

                         Standard orientation:
 ---------------------------------------------------------------------
 Center     Atomic      Atomic             Coordinates (Angstroms)
 Number     Number       Type             X           Y           Z
 ---------------------------------------------------------------------
      1          6           0       -0.468205    0.130533    0.034464
      2          1           0       -1.732581   -1.356961   -0.414908
      3          1           0       -2.564321    0.106410   -0.286092
      4          1           0        0.688045   -1.460890    0.820771
      5          1           0        1.562458    0.805537    0.294873
      6          7           0       -1.758741   -0.428251    0.027725
      7          7           0        0.601745   -0.798064   -0.003703
      8          8           0       -0.227963    1.313520    0.034070
      9          8           0        1.847289   -0.100156   -0.132768
 ---------------------------------------------------------------------

 SCF Done:  E(RHF) =  -298.907511371     A.U. after    2 cycles

 The electronic state is 1-A.
 Alpha  occ. eigenvalues --  -20.61915 -20.57010 -15.71093 -15.67245 -11.42169
 Alpha  occ. eigenvalues --   -1.41311  -1.33906  -1.19956  -1.08507  -0.82691
 Alpha  occ. eigenvalues --   -0.76765  -0.72360  -0.70203  -0.65406  -0.61004
 Alpha  occ. eigenvalues --   -0.58980  -0.54169  -0.49657  -0.45521  -0.42444
 Alpha virt. eigenvalues --    0.02659   0.03889   0.05055   0.06853   0.09914
 Alpha virt. eigenvalues --    0.11934   0.12974   0.14467   0.15346   0.15962
 Alpha virt. eigenvalues --    0.16604   0.17533   0.18593   0.19286   0.20608

 Mulliken charges:
               1
     1  C    0.877582
     2  H    0.056779
     3  H    0.008008
     4  H    0.161852
     5  H    0.269977
     6  N   -0.272659
     7  N   -0.091285
     8  O   -0.448357
     9  O   -0.561898
 Sum of Mulliken charges =   0.00000

 Dipole moment (field-independent basis, Debye):
    X=             -2.8197    Y=             -2.4783    Z=              0.8372  Tot=              3.8462

 Test job not archived.
 1\1\GINC-SE126\SP\RHF\Aug-CC-pVDZ\C1H4N2O2\OHZDE\08-Apr-2025\0\\#t hf
 aug-cc-pvdz iop(5/13=1,5/36=2,99/5=2) pseudo=read geom=check guess=(re
 ad,tcheck) scf=(maxcycle=1)\\title\\0,1\C,0,-0.468204,0.130533,0.03446
 36\H,0,-1.73258,-1.35696,-0.414908\H,0,-2.56432,0.106411,-0.286092\H,0
 ,0.688046,-1.46089,0.820771\H,0,1.56246,0.805537,0.294873\N,0,-1.75874
 ,-0.42825,0.0277251\N,0,0.601746,-0.798064,-0.00370283\O,0,-0.227961,1
 .31352,0.0340698\O,0,1.84729,-0.100156,-0.132768\\Version=ES64L-G16Rev
 C.01\State=1-A\HF=-298.9075114\RMSD=2.378e-03\Dipole=-1.1093527,-0.975

 Normal termination of Gaussian 16 at Tue Apr  8 21:34:35 2025.
