 Gaussian 16, Revision C.01,

 ----------------------------------------------------------------------
 #t hf aug-cc-pvdz symm=none int=(grid=ultrafine) guess=(read,tcheck) s
 table=(opt,rrhf)
 ----------------------------------------------------------------------
 -----
 title
 -----
 Symbolic Z-matrix:
 Charge =  0 Multiplicity = 1

 SCF Done:  E(RHF) =  -466.644826254     A.U. after   13 cycles
 Normal termination of Gaussian 16 at Tue Apr  8 21:45:12 2025.
 Gaussian 16:  ES64L-G16RevC.01  3-Jul-2019

 ----------------------------------------------------------------------
 #t hf aug-cc-pvdz iop(5/13=1,5/36=2,99/5=2) pseudo=read geom=check gue
 ss=(read,tcheck) scf=(maxcycle=1)
 ----------------------------------------------------------------------
 -----
 title
 -----
 Structure from the checkpoint file:  "ANI1ccx_540_conf24_mol2.chk"
 Charge =  0 Multiplicity = 1

                         Standard orientation:
 ---------------------------------------------------------------------
 Center     Atomic      Atomic             Coordinates (Angstroms)
 Number     Number       Type             X           Y           Z
 ---------------------------------------------------------------------
      1          6           0        1.710242    0.009206    0.007451
      2          6           0       -0.827237   -0.572625   -0.043817
      3          1           0        2.336602    1.861391   -0.311732
      4          1           0        0.624516    1.630981   -0.681186
      5          1           0        0.778183   -1.805199    0.140487
      6          1           0       -0.850716    1.249440    0.906500
      7          1           0       -2.945668   -0.038526    0.077214
      8          7           0        1.486552    1.346541   -0.226231
      9          7           0        0.545935   -0.828417    0.017122
     10          7           0       -1.213888    0.772176    0.072014
     11          8           0        2.796102   -0.475117    0.208867
     12          8           0       -1.581467   -1.479210   -0.203691
     13          8           0       -2.586028    0.885617    0.125646
 ---------------------------------------------------------------------

 SCF Done:  E(RHF) =  -466.791103186     A.U. after    2 cycles

 The electronic state is 1-A.
 Alpha  occ. eigenvalues --  -20.63345 -20.58936 -20.56288 -15.73336 -15.69206
 Alpha  occ. eigenvalues --  -15.67101 -11.44071 -11.43184  -1.45139  -1.39487
 Alpha  occ. eigenvalues --   -1.38632  -1.24062  -1.18769  -1.12482  -0.89528
 Alpha  occ. eigenvalues --   -0.85985  -0.79353  -0.77007  -0.74356  -0.70622
 Alpha  occ. eigenvalues --   -0.67824  -0.66849  -0.64612  -0.63246  -0.60263
 Alpha  occ. eigenvalues --   -0.58397  -0.53270  -0.48439  -0.45907  -0.45007
 Alpha  occ. eigenvalues --   -0.43396
 Alpha virt. eigenvalues --    0.02738   0.03846   0.04743   0.04851   0.06621
 Alpha virt. eigenvalues --    0.10051   0.10746   0.11006   0.12432   0.13447
 Alpha virt. eigenvalues --    0.14046   0.14312   0.14649   0.15472   0.16291

 Mulliken charges:
               1
     1  C    0.801696
     2  C    0.778181
     3  H   -0.019028
     4  H    0.084235
     5  H   -0.036970
     6  H    0.177091
     7  H    0.198828
     8  N   -0.117829
     9  N   -0.424279
    10  N   -0.048350
    11  O   -0.440485
    12  O   -0.430118
    13  O   -0.522971
 Sum of Mulliken charges =  -0.00000

 Dipole moment (field-independent basis, Debye):
    X=             -0.4537    Y=              2.5071    Z=              0.2743  Tot=              2.5625

 Test job not archived.
 1\1\GINC-SE424\SP\RHF\Aug-CC-pVDZ\C2H5N3O3\OHZDE\08-Apr-2025\0\\#t hf
 aug-cc-pvdz iop(5/13=1,5/36=2,99/5=2) pseudo=read geom=check guess=(re
 ad,tcheck) scf=(maxcycle=1)\\title\\0,1\C,0,1.71024,0.00920524,0.00745
 146\C,0,-0.827239,-0.572625,-0.0438166\H,0,2.3366,1.86139,-0.311732\H,
 0,0.624514,1.63098,-0.681186\H,0,0.77818,-1.8052,0.140487\H,0,-0.85071
 8,1.24944,0.9065\H,0,-2.94567,-0.0385254,0.0772138\N,0,1.48655,1.34654
 ,-0.226231\N,0,0.545932,-0.828418,0.017122\N,0,-1.21389,0.772176,0.072
 0135\O,0,2.7961,-0.475119,0.208867\O,0,-1.58147,-1.47921,-0.203691\O,0

 Normal termination of Gaussian 16 at Tue Apr  8 21:45:17 2025.
