 Gaussian 16, Revision C.01,

 ----------------------------------------------------------------------
 #t hf aug-cc-pvdz symm=none int=(grid=ultrafine) guess=(read,tcheck) s
 table=(opt,rrhf)
 ----------------------------------------------------------------------
 -----
 title
 -----
 Symbolic Z-matrix:
 Charge =  0 Multiplicity = 1

 SCF Done:  E(RHF) =  -380.210728301     A.U. after   11 cycles
 Normal termination of Gaussian 16 at Tue Apr  8 20:55:33 2025.
 Gaussian 16:  ES64L-G16RevC.01  3-Jul-2019

 ----------------------------------------------------------------------
 #t hf aug-cc-pvdz iop(5/13=1,5/36=2,99/5=2) pseudo=read geom=check gue
 ss=(read,tcheck) scf=(maxcycle=1)
 ----------------------------------------------------------------------
 -----
 title
 -----
 Structure from the checkpoint file:  "ANI1ccx_1843_conf120_mol1.chk"
 Charge =  0 Multiplicity = 1

                         Standard orientation:
 ---------------------------------------------------------------------
 Center     Atomic      Atomic             Coordinates (Angstroms)
 Number     Number       Type             X           Y           Z
 ---------------------------------------------------------------------
      1          1           0       -1.849199   -0.447264   -0.317039
      2          1           0       -2.501049   -1.804500    0.167278
      3          1           0       -0.922667    1.629911   -0.173119
      4          1           0       -2.486450    1.722690    0.116790
      5          1           0        1.205280    1.899341    1.313150
      6          1           0        0.518305    0.546720    0.802249
      7          1           0        1.174411   -1.116739    0.380122
      8          1           0       -0.277494   -1.389959    0.664398
      9          1           0        3.188981   -0.381698   -0.868020
     10          1           0        1.929251    0.516214   -0.753751
     11          8           0       -1.734029   -1.419339   -0.326050
     12          8           0       -1.826640    1.287490   -0.439770
     13          8           0        0.857497    1.488191    0.465574
     14          8           0        0.521439   -1.067789    1.094180
     15          8           0        2.184311   -0.435393   -0.960440
 ---------------------------------------------------------------------

 SCF Done:  E(RHF) =  -380.335691614     A.U. after    2 cycles

 The electronic state is 1-A.
 Alpha  occ. eigenvalues --  -20.58978 -20.58958 -20.58439 -20.56841 -20.55168
 Alpha  occ. eigenvalues --   -1.32344  -1.31272  -1.29825  -1.28954  -1.28190
 Alpha  occ. eigenvalues --   -0.74910  -0.73647  -0.72719  -0.70980  -0.69482
 Alpha  occ. eigenvalues --   -0.63122  -0.61945  -0.60589  -0.59479  -0.57408
 Alpha  occ. eigenvalues --   -0.53701  -0.53118  -0.51781  -0.51413  -0.50209
 Alpha virt. eigenvalues --    0.02661   0.03990   0.05087   0.05821   0.07262
 Alpha virt. eigenvalues --    0.08109   0.08879   0.09763   0.10436   0.11904
 Alpha virt. eigenvalues --    0.17338   0.17428   0.19184   0.20270   0.20504

 Mulliken charges:
               1
     1  H    0.250908
     2  H    0.201731
     3  H    0.263213
     4  H    0.192183
     5  H    0.274224
     6  H    0.392018
     7  H    0.284727
     8  H    0.222333
     9  H    0.226307
    10  H    0.260349
    11  O   -0.437918
    12  O   -0.440874
    13  O   -0.741067
    14  O   -0.489459
    15  O   -0.458675
 Sum of Mulliken charges =  -0.00000

 Dipole moment (field-independent basis, Debye):
    X=             -0.1417    Y=              2.6346    Z=              2.6444  Tot=              3.7355

 Test job not archived.
 1\1\GINC-SE195\SP\RHF\Aug-CC-pVDZ\H10O5\OHZDE\08-Apr-2025\0\\#t hf aug
 -cc-pvdz iop(5/13=1,5/36=2,99/5=2) pseudo=read geom=check guess=(read,
 tcheck) scf=(maxcycle=1)\\title\\0,1\H,0,-1.8492,-0.447264,-0.317039\H
 ,0,-2.50105,-1.8045,0.167278\H,0,-0.922667,1.62991,-0.173119\H,0,-2.48
 645,1.72269,0.11679\H,0,1.20528,1.89934,1.31315\H,0,0.518304,0.546719,
 0.802249\H,0,1.17441,-1.11674,0.380122\H,0,-0.277495,-1.38996,0.664398
 \H,0,3.18898,-0.3817,-0.86802\H,0,1.92925,0.516212,-0.753751\O,0,-1.73
 403,-1.41934,-0.32605\O,0,-1.82664,1.28749,-0.43977\O,0,0.857497,1.488

 Normal termination of Gaussian 16 at Tue Apr  8 20:55:37 2025.
