 Gaussian 16, Revision C.01,

 ----------------------------------------------------------------------
 #t hf aug-cc-pvdz symm=none int=(grid=ultrafine) guess=(read,tcheck) s
 table=(opt,rrhf)
 ----------------------------------------------------------------------
 -----
 title
 -----
 Symbolic Z-matrix:
 Charge =  0 Multiplicity = 1

 SCF Done:  E(RHF) =  -276.589964944     A.U. after   14 cycles
 Normal termination of Gaussian 16 at Tue Apr  8 21:15:23 2025.
 Gaussian 16:  ES64L-G16RevC.01  3-Jul-2019

 ----------------------------------------------------------------------
 #t hf aug-cc-pvdz iop(5/13=1,5/36=2,99/5=2) pseudo=read geom=check gue
 ss=(read,tcheck) scf=(maxcycle=1)
 ----------------------------------------------------------------------
 -----
 title
 -----
 Structure from the checkpoint file:  "ANI1ccx_370_conf42_mol1.chk"
 Charge =  0 Multiplicity = 1

                         Standard orientation:
 ---------------------------------------------------------------------
 Center     Atomic      Atomic             Coordinates (Angstroms)
 Number     Number       Type             X           Y           Z
 ---------------------------------------------------------------------
      1          6           0        1.067030   -0.047694    0.024195
      2          1           0        2.084979   -0.279854   -0.001127
      3          7           0        0.476677    1.095358    0.008636
      4          7           0       -0.912247    0.715637   -0.037622
      5          7           0       -1.031342   -0.512683    0.049524
      6          8           0        0.222653   -1.065271   -0.035976
 ---------------------------------------------------------------------

 SCF Done:  E(RHF) =  -276.670607431     A.U. after    2 cycles

 The electronic state is 1-A.
 Alpha  occ. eigenvalues --  -20.71501 -15.78752 -15.75581 -15.70271 -11.39669
 Alpha  occ. eigenvalues --   -1.55873  -1.32430  -1.22070  -0.94424  -0.89536
 Alpha  occ. eigenvalues --   -0.79222  -0.74620  -0.67783  -0.59209  -0.53267
 Alpha  occ. eigenvalues --   -0.51775  -0.49910  -0.46140
 Alpha virt. eigenvalues --    0.02676   0.06702   0.07514   0.09214   0.10576
 Alpha virt. eigenvalues --    0.12873   0.13306   0.14816   0.15187   0.17708
 Alpha virt. eigenvalues --    0.18272   0.20311   0.20931   0.23295   0.25010

 Mulliken charges:
               1
     1  C    1.006904
     2  H   -0.240426
     3  N   -0.345333
     4  N   -0.072356
     5  N    0.139026
     6  O   -0.487814
 Sum of Mulliken charges =  -0.00000

 Dipole moment (field-independent basis, Debye):
    X=              2.7342    Y=             -1.2068    Z=              0.0455  Tot=              2.9890

 Test job not archived.
 1\1\GINC-SE132\SP\RHF\Aug-CC-pVDZ\C1H1N3O1\OHZDE\08-Apr-2025\0\\#t hf
 aug-cc-pvdz iop(5/13=1,5/36=2,99/5=2) pseudo=read geom=check guess=(re
 ad,tcheck) scf=(maxcycle=1)\\title\\0,1\C,0,1.06703,-0.0476897,0.02419
 48\H,0,2.08498,-0.279845,-0.00112692\N,0,0.476672,1.09536,0.0086361\N,
 0,-0.912251,0.715633,-0.0376224\N,0,-1.03134,-0.512688,0.0495239\O,0,0
 .222657,-1.06527,-0.0359757\\Version=ES64L-G16RevC.01\State=1-A\HF=-27
 6.6706074\RMSD=3.196e-03\Dipole=1.0757029,-0.4747975,0.0178819\Quadrup
 ole=2.4412505,-3.2747994,0.8335489,-1.1801736,0.0440596,-0.0466946\PG=

 Normal termination of Gaussian 16 at Tue Apr  8 21:15:25 2025.
