 Gaussian 16, Revision C.01,

 ----------------------------------------------------------------------
 #t hf aug-cc-pvdz symm=none int=(grid=ultrafine) guess=(read,tcheck) s
 table=(opt,rrhf)
 ----------------------------------------------------------------------
 -----
 title
 -----
 Symbolic Z-matrix:
 Charge =  0 Multiplicity = 1

 SCF Done:  E(RHF) =  -525.202041205     A.U. after   16 cycles
 Normal termination of Gaussian 16 at Tue Apr  8 19:12:45 2025.
 Gaussian 16:  ES64L-G16RevC.01  3-Jul-2019

 ----------------------------------------------------------------------
 #t hf aug-cc-pvdz iop(5/13=1,5/36=2,99/5=2) pseudo=read geom=check gue
 ss=(read,tcheck) scf=(maxcycle=1)
 ----------------------------------------------------------------------
 -----
 title
 -----
 Structure from the checkpoint file:  "ANI1ccx_1088_conf1_mol1.chk"
 Charge =  0 Multiplicity = 1

                         Standard orientation:
 ---------------------------------------------------------------------
 Center     Atomic      Atomic             Coordinates (Angstroms)
 Number     Number       Type             X           Y           Z
 ---------------------------------------------------------------------
      1          6           0       -2.101121   -0.452929   -0.013784
      2          6           0       -0.667501    0.026663    0.032093
      3          6           0        0.485546   -0.759207    0.057641
      4          6           0        1.461549    0.242053    0.010019
      5          6           0        2.871439    0.037729    0.010398
      6          1           0       -3.804621    0.332475    0.241780
      7          1           0        0.424942   -1.811709    0.067504
      8          1           0        3.487779    0.932974    0.211633
      9          1           0       -0.815207    2.237680   -0.158214
     10          7           0        0.996408    1.444551   -0.136478
     11          7           0       -0.339065    1.346270   -0.032025
     12          8           0       -2.898641    0.654451    0.131315
     13          8           0       -2.506030   -1.567641   -0.131860
     14          8           0        3.380450   -1.060938    0.030372
 ---------------------------------------------------------------------

 SCF Done:  E(RHF) =  -525.360386728     A.U. after    2 cycles

 The electronic state is 1-A.
 Alpha  occ. eigenvalues --  -20.65256 -20.60136 -20.57896 -15.74855 -15.69987
 Alpha  occ. eigenvalues --  -11.44082 -11.34872 -11.33218 -11.29338 -11.27523
 Alpha  occ. eigenvalues --   -1.45441  -1.38944  -1.36514  -1.36277  -1.13867
 Alpha  occ. eigenvalues --   -1.09471  -0.94496  -0.92114  -0.84600  -0.80189
 Alpha  occ. eigenvalues --   -0.76502  -0.74343  -0.70531  -0.68652  -0.67879
 Alpha  occ. eigenvalues --   -0.65448  -0.64113  -0.63779  -0.60802  -0.55642
 Alpha  occ. eigenvalues --   -0.54069  -0.52180  -0.49337  -0.45579  -0.40382
 Alpha  occ. eigenvalues --   -0.38374
 Alpha virt. eigenvalues --    0.02309   0.03763   0.04605   0.05587   0.06613
 Alpha virt. eigenvalues --    0.07199   0.08585   0.08895   0.10099   0.10650
 Alpha virt. eigenvalues --    0.11063   0.12153   0.13172   0.13746   0.14489

 Mulliken charges:
               1
     1  C    0.584189
     2  C    0.526620
     3  C    0.565750
     4  C    0.279707
     5  C    0.866616
     6  H    0.221658
     7  H   -0.472151
     8  H   -0.179766
     9  H    0.032180
    10  N   -0.573858
    11  N   -0.391654
    12  O   -0.550921
    13  O   -0.413645
    14  O   -0.494723
 Sum of Mulliken charges =  -0.00000

 Dipole moment (field-independent basis, Debye):
    X=             -3.5730    Y=              4.0068    Z=              0.3361  Tot=              5.3790

 Test job not archived.
 1\1\GINC-SE039\SP\RHF\Aug-CC-pVDZ\C5H4N2O3\OHZDE\08-Apr-2025\0\\#t hf
 aug-cc-pvdz iop(5/13=1,5/36=2,99/5=2) pseudo=read geom=check guess=(re
 ad,tcheck) scf=(maxcycle=1)\\title\\0,1\C,0,-2.10112,-0.452928,-0.0137
 84\C,0,-0.6675,0.0266631,0.0320927\C,0,0.485547,-0.759208,0.0576408\C,
 0,1.46155,0.242052,0.0100192\C,0,2.87144,0.0377267,0.0103976\H,0,-3.80
 462,0.332477,0.24178\H,0,0.424942,-1.81171,0.0675042\H,0,3.48778,0.932
 972,0.211633\H,0,-0.815205,2.23768,-0.158214\N,0,0.99641,1.44455,-0.13
 6478\N,0,-0.339063,1.34627,-0.0320249\O,0,-2.89864,0.654452,0.131315\O

 Normal termination of Gaussian 16 at Tue Apr  8 19:12:52 2025.
