 Gaussian 16, Revision C.01,

 ----------------------------------------------------------------------
 #t hf aug-cc-pvdz symm=none int=(grid=ultrafine) guess=(read,tcheck) s
 table=(opt,rrhf)
 ----------------------------------------------------------------------
 -----
 title
 -----
 Symbolic Z-matrix:
 Charge =  0 Multiplicity = 1

 SCF Done:  E(RHF) =  -603.582179230     A.U. after   15 cycles
 Normal termination of Gaussian 16 at Tue Apr  8 22:17:21 2025.
 Gaussian 16:  ES64L-G16RevC.01  3-Jul-2019

 ----------------------------------------------------------------------
 #t hf aug-cc-pvdz iop(5/13=1,5/36=2,99/5=2) pseudo=read geom=check gue
 ss=(read,tcheck) scf=(maxcycle=1)
 ----------------------------------------------------------------------
 -----
 title
 -----
 Structure from the checkpoint file:  "ANI1ccx_999_conf3_mol1.chk"
 Charge =  0 Multiplicity = 1

                         Standard orientation:
 ---------------------------------------------------------------------
 Center     Atomic      Atomic             Coordinates (Angstroms)
 Number     Number       Type             X           Y           Z
 ---------------------------------------------------------------------
      1          6           0        1.657431   -1.079619   -0.422740
      2          6           0        1.254780    0.146746    0.423811
      3          6           0       -1.200610    0.404675    0.432895
      4          6           0       -1.653769   -0.996296   -0.025719
      5          6           0       -1.113931    1.318689   -0.741552
      6          1           0       -0.737315   -1.511001    1.441660
      7          1           0        0.060910    2.672650   -0.235987
      8          1           0       -0.286355    1.008260   -1.455300
      9          1           0       -2.020301    1.226038   -1.263410
     10          1           0       -1.970970    0.775340    1.119690
     11          1           0        1.675021   -1.952509    0.256359
     12          1           0        0.899604   -1.297450   -1.202880
     13          1           0        3.491270   -0.269770   -0.207942
     14          1           0        2.874630   -0.184860   -1.682010
     15          1           0        0.179428    0.888161    1.950080
     16          7           0        2.997091   -0.850957   -0.913541
     17          7           0        0.056279    0.206820    1.153910
     18          8           0       -0.896826    2.680669   -0.271954
     19          8           0        2.108629    0.990290    0.646118
     20          8           0       -2.485079   -1.140332   -0.863967
     21          8           0       -1.127089   -1.982011    0.689424
 ---------------------------------------------------------------------

 SCF Done:  E(RHF) =  -603.767361712     A.U. after    2 cycles

 The electronic state is 1-A.
 Alpha  occ. eigenvalues --  -20.63765 -20.60147 -20.59294 -20.57909 -15.68555
 Alpha  occ. eigenvalues --  -15.62456 -11.41209 -11.40243 -11.32898 -11.32133
 Alpha  occ. eigenvalues --  -11.30670  -1.45210  -1.40112  -1.36141  -1.34667
 Alpha  occ. eigenvalues --   -1.23558  -1.17570  -1.05602  -0.96233  -0.91322
 Alpha  occ. eigenvalues --   -0.85352  -0.80733  -0.75995  -0.75712  -0.73117
 Alpha  occ. eigenvalues --   -0.71074  -0.69898  -0.68600  -0.67327  -0.66264
 Alpha  occ. eigenvalues --   -0.63688  -0.61633  -0.59456  -0.58944  -0.58194
 Alpha  occ. eigenvalues --   -0.54942  -0.53503  -0.52027  -0.51052  -0.49688
 Alpha  occ. eigenvalues --   -0.48709  -0.43944  -0.41879
 Alpha virt. eigenvalues --    0.02294   0.03329   0.04044   0.04514   0.05881
 Alpha virt. eigenvalues --    0.06012   0.06810   0.06972   0.08234   0.08905
 Alpha virt. eigenvalues --    0.10269   0.10426   0.11262   0.11898   0.12395

 Mulliken charges:
               1
     1  C    0.792940
     2  C    0.270009
     3  C   -0.255546
     4  C    0.744953
     5  C    1.120384
     6  H    0.299701
     7  H    0.191137
     8  H    0.036617
     9  H   -0.263238
    10  H   -0.014923
    11  H   -0.008110
    12  H   -0.111500
    13  H    0.106584
    14  H    0.071455
    15  H    0.075609
    16  N   -0.485937
    17  N   -0.547183
    18  O   -0.568382
    19  O   -0.526787
    20  O   -0.466315
    21  O   -0.461469
 Sum of Mulliken charges =   0.00000

 Dipole moment (field-independent basis, Debye):
    X=              0.7072    Y=              0.9862    Z=              2.2218  Tot=              2.5317

 Test job not archived.
 1\1\GINC-SE073\SP\RHF\Aug-CC-pVDZ\C5H10N2O4\OHZDE\08-Apr-2025\0\\#t hf
  aug-cc-pvdz iop(5/13=1,5/36=2,99/5=2) pseudo=read geom=check guess=(r
 ead,tcheck) scf=(maxcycle=1)\\title\\0,1\C,0,1.65743,-1.07962,-0.42274
 \C,0,1.25478,0.146746,0.423811\C,0,-1.20061,0.404676,0.432895\C,0,-1.6
 5377,-0.996295,-0.0257191\C,0,-1.11393,1.31869,-0.741552\H,0,-0.737316
 ,-1.511,1.44166\H,0,0.0609117,2.67265,-0.235987\H,0,-0.286354,1.00826,
 -1.4553\H,0,-2.0203,1.22604,-1.26341\H,0,-1.97097,0.775342,1.11969\H,0
 ,1.67502,-1.95251,0.256359\H,0,0.899603,-1.29745,-1.20288\H,0,3.49127,

 Normal termination of Gaussian 16 at Tue Apr  8 22:17:35 2025.
