 Gaussian 16, Revision C.01,

 ----------------------------------------------------------------------
 #t hf aug-cc-pvdz symm=none int=(grid=ultrafine) guess=(read,tcheck) s
 table=(opt,rrhf)
 ----------------------------------------------------------------------
 -----
 title
 -----
 Symbolic Z-matrix:
 Charge =  0 Multiplicity = 1

 SCF Done:  E(RHF) =  -331.681304752     A.U. after   14 cycles
 Normal termination of Gaussian 16 at Tue Apr  8 21:26:31 2025.
 Gaussian 16:  ES64L-G16RevC.01  3-Jul-2019

 ----------------------------------------------------------------------
 #t hf aug-cc-pvdz iop(5/13=1,5/36=2,99/5=2) pseudo=read geom=check gue
 ss=(read,tcheck) scf=(maxcycle=1)
 ----------------------------------------------------------------------
 -----
 title
 -----
 Structure from the checkpoint file:  "ANI1ccx_378_conf2_mol1.chk"
 Charge =  0 Multiplicity = 1

                         Standard orientation:
 ---------------------------------------------------------------------
 Center     Atomic      Atomic             Coordinates (Angstroms)
 Number     Number       Type             X           Y           Z
 ---------------------------------------------------------------------
      1          6           0        0.795097    0.024737    0.022920
      2          1           0        0.071344   -2.031930    0.091799
      3          1           0        0.131872    2.066540    0.114033
      4          7           0       -0.066619   -1.052080   -0.023368
      5          7           0       -1.394910   -0.639050    0.017169
      6          7           0       -1.426510    0.618362   -0.021531
      7          7           0       -0.119908    1.041450   -0.007432
      8          8           0        2.010230    0.004524   -0.012152
 ---------------------------------------------------------------------

 SCF Done:  E(RHF) =  -331.777632191     A.U. after    2 cycles

 The electronic state is 1-A.
 Alpha  occ. eigenvalues --  -20.55827 -15.76468 -15.76085 -15.73385 -15.72584
 Alpha  occ. eigenvalues --  -11.43034  -1.47522  -1.36336  -1.23135  -1.18220
 Alpha  occ. eigenvalues --   -0.91798  -0.90421  -0.78518  -0.71538  -0.70868
 Alpha  occ. eigenvalues --   -0.66724  -0.58567  -0.56406  -0.54232  -0.49619
 Alpha  occ. eigenvalues --   -0.45623  -0.39804
 Alpha virt. eigenvalues --    0.02963   0.03421   0.07922   0.08917   0.11442
 Alpha virt. eigenvalues --    0.11675   0.11992   0.13064   0.14752   0.16398
 Alpha virt. eigenvalues --    0.16794   0.17311   0.18257   0.18954   0.20538

 Mulliken charges:
               1
     1  C    0.840024
     2  H   -0.020034
     3  H    0.061239
     4  N   -0.104850
     5  N   -0.113761
     6  N   -0.085493
     7  N   -0.150822
     8  O   -0.426302
 Sum of Mulliken charges =  -0.00000

 Dipole moment (field-independent basis, Debye):
    X=             -1.4600    Y=              0.1765    Z=              0.4838  Tot=              1.5482

 Test job not archived.
 1\1\GINC-SE404\SP\RHF\Aug-CC-pVDZ\C1H2N4O1\OHZDE\08-Apr-2025\0\\#t hf
 aug-cc-pvdz iop(5/13=1,5/36=2,99/5=2) pseudo=read geom=check guess=(re
 ad,tcheck) scf=(maxcycle=1)\\title\\0,1\C,0,0.795097,0.0247365,0.02292
 01\H,0,0.0713441,-2.03193,0.0917989\H,0,0.131872,2.06654,0.114033\N,0,
 -0.0666185,-1.05208,-0.0233684\N,0,-1.39491,-0.63905,0.017169\N,0,-1.4
 2651,0.618362,-0.0215312\N,0,-0.119908,1.04145,-0.00743221\O,0,2.01023
 ,0.00452388,-0.0121516\\Version=ES64L-G16RevC.01\State=1-A\HF=-331.777
 6322\RMSD=3.203e-03\Dipole=-0.5743991,0.069459,0.1903609\Quadrupole=-9

 Normal termination of Gaussian 16 at Tue Apr  8 21:26:34 2025.
