 Gaussian 16, Revision C.01,

 ----------------------------------------------------------------------
 #t hf aug-cc-pvdz symm=none int=(grid=ultrafine) guess=(read,tcheck) s
 table=(opt,rrhf)
 ----------------------------------------------------------------------
 -----
 title
 -----
 Symbolic Z-matrix:
 Charge =  0 Multiplicity = 1

 SCF Done:  E(RHF) =  -912.039205824     A.U. after   14 cycles
 Normal termination of Gaussian 16 at Tue Apr  8 21:43:06 2025.
 Gaussian 16:  ES64L-G16RevC.01  3-Jul-2019

 ----------------------------------------------------------------------
 #t hf aug-cc-pvdz iop(5/13=1,5/36=2,99/5=2) pseudo=read geom=check gue
 ss=(read,tcheck) scf=(maxcycle=1)
 ----------------------------------------------------------------------
 -----
 title
 -----
 Structure from the checkpoint file:  "ANI1ccx_293_conf8_mol2.chk"
 Charge =  0 Multiplicity = 1

                         Standard orientation:
 ---------------------------------------------------------------------
 Center     Atomic      Atomic             Coordinates (Angstroms)
 Number     Number       Type             X           Y           Z
 ---------------------------------------------------------------------
      1          6           0        0.809424   -0.126652    1.168219
      2          6           0       -3.334670    3.176889    0.599690
      3          6           0       -3.085920    1.694719    0.732091
      4          6           0       -3.176790    0.963643   -0.624166
      5          6           0       -1.739799   -2.680261   -0.142922
      6          6           0       -1.725799   -1.142291   -0.086154
      7          6           0       -3.087219   -0.577377   -0.512397
      8          6           0        4.673591    0.373459    0.604571
      9          6           0        3.359211   -0.438938    0.857893
     10          6           0        2.223731    0.399654    1.327479
     11          6           0        0.467053   -0.097563   -0.355575
     12          6           0        4.548470    1.361891   -0.554208
     13          1           0       -2.405430    1.227289   -1.319341
     14          1           0       -3.856099   -1.022171    0.119153
     15          1           0       -3.275189   -0.983087   -1.532751
     16          1           0       -4.102920    1.212979   -1.151621
     17          1           0       -3.819590    1.168079    1.366359
     18          1           0       -0.994612   -4.154120   -1.001071
     19          1           0       -4.357690    3.359289    0.223500
     20          1           0       -3.337200    3.756739    1.531899
     21          1           0       -1.514100    4.146090    0.112958
     22          1           0       -2.354930    3.471709   -1.181101
     23          1           0       -1.538099   -0.857851    0.940281
     24          1           0       -2.099430    1.552479    1.140699
     25          1           0       -0.508696   -0.882793   -1.802631
     26          1           0        5.560330    1.762581   -0.678466
     27          1           0        4.522180    0.989971   -2.600271
     28          1           0        1.378591   -1.750500    2.244119
     29          1           0        0.538658   -2.085060    0.856126
     30          1           0        3.017680    0.737795   -1.739341
     31          1           0        2.170200    1.453170    0.996220
     32          1           0        2.399080    0.557719    2.384429
     33          1           0        0.139092    0.563863    1.697899
     34          1           0        3.538711   -1.175469    1.681349
     35          1           0        5.067550    0.981932    1.470539
     36          1           0        5.472291   -0.409235    0.374209
     37          1           0        3.872520    2.163731   -0.260844
     38          1           0        3.107411   -0.992790   -0.018677
     39          7           0        0.567646   -1.460030    1.706539
     40          7           0        4.036780    0.664531   -1.735351
     41          7           0       -0.674097   -0.581736   -0.877138
     42          7           0       -2.437590    3.871659   -0.268409
     43          8           0       -2.403509   -3.384171    0.543955
     44          8           0        1.262231    0.361127   -1.125971
     45          8           0       -0.940869   -3.189000   -1.133021
 ---------------------------------------------------------------------

 SCF Done:  E(RHF) =  -912.316717564     A.U. after    2 cycles

 The electronic state is 1-A.
 Alpha  occ. eigenvalues --  -20.64392 -20.58424 -20.54611 -15.65502 -15.63256
 Alpha  occ. eigenvalues --  -15.60096 -15.57431 -11.41406 -11.37024 -11.30970
 Alpha  occ. eigenvalues --  -11.29139 -11.26049 -11.25559 -11.24105 -11.24011
 Alpha  occ. eigenvalues --  -11.23574 -11.22848 -11.22598 -11.22191  -1.44680
 Alpha  occ. eigenvalues --   -1.38452  -1.34956  -1.23663  -1.18196  -1.15693
 Alpha  occ. eigenvalues --   -1.12130  -1.07841  -1.05004  -1.01925  -0.97412
 Alpha  occ. eigenvalues --   -0.94793  -0.91780  -0.86917  -0.85204  -0.83831
 Alpha  occ. eigenvalues --   -0.80270  -0.78860  -0.75722  -0.74567  -0.73330
 Alpha  occ. eigenvalues --   -0.71294  -0.70101  -0.68003  -0.67411  -0.65441
 Alpha  occ. eigenvalues --   -0.65338  -0.64718  -0.63747  -0.63371  -0.62293
 Alpha  occ. eigenvalues --   -0.61112  -0.60033  -0.58980  -0.58144  -0.57986
 Alpha  occ. eigenvalues --   -0.56568  -0.56070  -0.54195  -0.53517  -0.52992
 Alpha  occ. eigenvalues --   -0.52656  -0.51348  -0.50676  -0.49561  -0.49159
 Alpha  occ. eigenvalues --   -0.48698  -0.47259  -0.46636  -0.46129  -0.44432
 Alpha  occ. eigenvalues --   -0.44403  -0.40839  -0.40564  -0.37280  -0.35052
 Alpha virt. eigenvalues --    0.02774   0.02906   0.03356   0.03751   0.04436
 Alpha virt. eigenvalues --    0.04820   0.05090   0.05554   0.05845   0.06429
 Alpha virt. eigenvalues --    0.06642   0.06901   0.07232   0.07687   0.08380

 Mulliken charges:
               1
     1  C    0.206434
     2  C    1.004980
     3  C    0.540258
     4  C    0.718943
     5  C    0.931894
     6  C   -0.174772
     7  C    0.244291
     8  C    0.046123
     9  C    0.601659
    10  C    0.377186
    11  C    0.248350
    12  C    0.864947
    13  H   -0.247616
    14  H   -0.092575
    15  H    0.081250
    16  H   -0.219622
    17  H   -0.053126
    18  H    0.211264
    19  H   -0.166571
    20  H   -0.166460
    21  H    0.044485
    22  H   -0.016028
    23  H   -0.284860
    24  H   -0.478296
    25  H   -0.062100
    26  H   -0.127242
    27  H    0.000433
    28  H   -0.043780
    29  H    0.273370
    30  H    0.134618
    31  H   -0.232572
    32  H   -0.088815
    33  H   -0.283632
    34  H   -0.003867
    35  H   -0.057088
    36  H    0.029289
    37  H   -0.132713
    38  H   -0.378234
    39  N   -0.447840
    40  N   -0.385443
    41  N   -0.266436
    42  N   -0.376080
    43  O   -0.513013
    44  O   -0.630354
    45  O   -0.630639
 Sum of Mulliken charges =  -0.00000

 Dipole moment (field-independent basis, Debye):
    X=             -0.7405    Y=             -0.4836    Z=              0.3468  Tot=              0.9500

 Test job not archived.
 1\1\GINC-SE143\SP\RHF\Aug-CC-pVDZ\C12H26N4O3\OHZDE\08-Apr-2025\0\\#t h
 f aug-cc-pvdz iop(5/13=1,5/36=2,99/5=2) pseudo=read geom=check guess=(
 read,tcheck) scf=(maxcycle=1)\\title\\0,1\C,0,0.809423,-0.126652,1.168
 22\C,0,-3.33467,3.17689,0.599691\C,0,-3.08592,1.69472,0.732092\C,0,-3.
 17679,0.963644,-0.624165\C,0,-1.7398,-2.68026,-0.142921\C,0,-1.7258,-1
 .14229,-0.0861531\C,0,-3.08722,-0.577376,-0.512396\C,0,4.67359,0.37345
 8,0.604572\C,0,3.35921,-0.438939,0.857894\C,0,2.22373,0.399654,1.32748
 \C,0,0.467052,-0.0975626,-0.355574\C,0,4.54847,1.36189,-0.554207\H,0,-

 Normal termination of Gaussian 16 at Tue Apr  8 21:44:49 2025.
