 Gaussian 16, Revision C.01,

 ----------------------------------------------------------------------
 #t hf aug-cc-pvdz symm=none int=(grid=ultrafine) guess=(read,tcheck) s
 table=(opt,rrhf)
 ----------------------------------------------------------------------
 -----
 title
 -----
 Symbolic Z-matrix:
 Charge =  0 Multiplicity = 1

 SCF Done:  E(RHF) =  -456.229193556     A.U. after   11 cycles
 Normal termination of Gaussian 16 at Tue Apr  8 21:06:47 2025.
 Gaussian 16:  ES64L-G16RevC.01  3-Jul-2019

 ----------------------------------------------------------------------
 #t hf aug-cc-pvdz iop(5/13=1,5/36=2,99/5=2) pseudo=read geom=check gue
 ss=(read,tcheck) scf=(maxcycle=1)
 ----------------------------------------------------------------------
 -----
 title
 -----
 Structure from the checkpoint file:  "ANI1ccx_1844_conf347_mol1.chk"
 Charge =  0 Multiplicity = 1

                         Standard orientation:
 ---------------------------------------------------------------------
 Center     Atomic      Atomic             Coordinates (Angstroms)
 Number     Number       Type             X           Y           Z
 ---------------------------------------------------------------------
      1          1           0       -0.026506   -0.204029    1.755000
      2          1           0       -1.789544   -0.646531   -0.986285
      3          1           0       -1.457599   -2.223783   -1.497100
      4          1           0        1.916026   -0.589829    0.621007
      5          1           0        1.472082    0.887414    1.005620
      6          1           0       -0.035384    1.920230   -0.720333
      7          1           0       -1.109208   -1.233350    1.151520
      8          1           0        1.457247    2.538084   -0.914932
      9          1           0        1.562373   -0.314733   -1.266980
     10          1           0        0.650419   -1.512514   -0.886239
     11          1           0       -2.194189    2.113890   -0.033427
     12          1           0       -1.404486    0.745071    0.497752
     13          8           0        1.608791   -0.016533    1.411600
     14          8           0        1.579372   -1.247575   -0.963562
     15          8           0       -1.328386   -1.487482   -0.754180
     16          8           0        0.932867    1.625549   -0.821232
     17          8           0       -1.019226   -0.380873    1.642960
     18          8           0       -1.653572    1.321925   -0.356287
 ---------------------------------------------------------------------

 SCF Done:  E(RHF) =  -456.376454702     A.U. after    2 cycles

 The electronic state is 1-A.
 Alpha  occ. eigenvalues --  -20.61028 -20.59623 -20.59079 -20.56469 -20.55518
 Alpha  occ. eigenvalues --  -20.55309  -1.31998  -1.30437  -1.30065  -1.28623
 Alpha  occ. eigenvalues --   -1.27949  -1.26004  -0.75563  -0.72670  -0.72009
 Alpha  occ. eigenvalues --   -0.71288  -0.70671  -0.68909  -0.62815  -0.62244
 Alpha  occ. eigenvalues --   -0.61090  -0.59522  -0.58177  -0.56514  -0.54515
 Alpha  occ. eigenvalues --   -0.53147  -0.52725  -0.50679  -0.50280  -0.48751
 Alpha virt. eigenvalues --    0.02339   0.03622   0.04528   0.06731   0.07186
 Alpha virt. eigenvalues --    0.07589   0.07774   0.08436   0.08855   0.10363
 Alpha virt. eigenvalues --    0.10662   0.11139   0.16256   0.17167   0.18332

 Mulliken charges:
               1
     1  H    0.341088
     2  H    0.272647
     3  H    0.297400
     4  H    0.320825
     5  H    0.272657
     6  H    0.341087
     7  H    0.248375
     8  H    0.288042
     9  H    0.238863
    10  H    0.231664
    11  H    0.232991
    12  H    0.407557
    13  O   -0.583917
    14  O   -0.459544
    15  O   -0.596125
    16  O   -0.621057
    17  O   -0.592903
    18  O   -0.639649
 Sum of Mulliken charges =  -0.00000

 Dipole moment (field-independent basis, Debye):
    X=             -2.3957    Y=              2.7192    Z=             -3.0843  Tot=              4.7589

 Test job not archived.
 1\1\GINC-SE081\SP\RHF\Aug-CC-pVDZ\H12O6\OHZDE\08-Apr-2025\0\\#t hf aug
 -cc-pvdz iop(5/13=1,5/36=2,99/5=2) pseudo=read geom=check guess=(read,
 tcheck) scf=(maxcycle=1)\\title\\0,1\H,0,-0.0265078,-0.204029,1.755\H,
 0,-1.78955,-0.646515,-0.986285\H,0,-1.45762,-2.22377,-1.4971\H,0,1.916
 02,-0.589847,0.621007\H,0,1.47209,0.8874,1.00562\H,0,-0.0353667,1.9202
 3,-0.720333\H,0,-1.10922,-1.23334,1.15152\H,0,1.45727,2.53807,-0.91493
 2\H,0,1.56237,-0.314748,-1.26698\H,0,0.650405,-1.51252,-0.886239\H,0,-
 2.19417,2.11391,-0.0334275\H,0,-1.40448,0.745084,0.497752\O,0,1.60879,

 Normal termination of Gaussian 16 at Tue Apr  8 21:06:52 2025.
