 Gaussian 16, Revision C.01,

 ----------------------------------------------------------------------
 #t hf aug-cc-pvdz symm=none int=(grid=ultrafine) guess=(read,tcheck) s
 table=(opt,rrhf)
 ----------------------------------------------------------------------
 -----
 title
 -----
 Symbolic Z-matrix:
 Charge =  0 Multiplicity = 1

 SCF Done:  E(RHF) =  -752.385077009     A.U. after   15 cycles
 Normal termination of Gaussian 16 at Tue Apr  8 19:56:32 2025.
 Gaussian 16:  ES64L-G16RevC.01  3-Jul-2019

 ----------------------------------------------------------------------
 #t hf aug-cc-pvdz iop(5/13=1,5/36=2,99/5=2) pseudo=read geom=check gue
 ss=(read,tcheck) scf=(maxcycle=1)
 ----------------------------------------------------------------------
 -----
 title
 -----
 Structure from the checkpoint file:  "ANI1ccx_1572_conf10_mol1.chk"
 Charge =  0 Multiplicity = 1

                         Standard orientation:
 ---------------------------------------------------------------------
 Center     Atomic      Atomic             Coordinates (Angstroms)
 Number     Number       Type             X           Y           Z
 ---------------------------------------------------------------------
      1          6           0        2.198279   -2.376510   -0.235838
      2          6           0        1.662400   -0.984063   -0.548331
      3          6           0        0.090934    0.822117   -0.196528
      4          6           0        1.233291    1.810600    0.197201
      5          6           0       -1.173089    1.308411    0.440988
      6          6           0       -2.292880    0.369471    0.321878
      7          6           0       -3.478790    0.614871   -0.374433
      8          6           0       -3.281340   -1.491098    0.130823
      9          1           0        2.445971    3.115400   -0.515790
     10          1           0       -5.020560   -0.854051   -0.766886
     11          1           0       -3.474591   -2.615978    0.107473
     12          1           0       -3.736089    1.589212   -0.818007
     13          1           0       -1.403299    2.375501    0.179837
     14          1           0       -0.831671    1.432701    1.456510
     15          1           0       -0.035783    0.654729   -1.286840
     16          1           0        0.024743   -1.138560    0.630764
     17          1           0        2.427489   -2.865910   -1.155460
     18          1           0        1.433349   -3.024420    0.408254
     19          1           0        3.304630   -2.253301    1.553760
     20          1           0        3.945590   -1.311021    0.247433
     21          7           0        3.437670   -2.123351    0.576062
     22          7           0        0.659870   -0.444005    0.265167
     23          7           0       -2.177290   -0.973434    0.526273
     24          7           0       -4.115060   -0.660837   -0.362806
     25          8           0        2.352710   -0.195793   -1.182350
     26          8           0        1.709771    1.899080    1.322020
     27          8           0        1.753901    2.529750   -0.825728
 ---------------------------------------------------------------------

 SCF Done:  E(RHF) =  -752.609025573     A.U. after    2 cycles

 The electronic state is 1-A.
 Alpha  occ. eigenvalues --  -20.60390 -20.54841 -20.53256 -15.70909 -15.63584
 Alpha  occ. eigenvalues --  -15.61932 -15.60012 -11.39208 -11.35592 -11.32831
 Alpha  occ. eigenvalues --  -11.30143 -11.28945 -11.28762 -11.28303 -11.25747
 Alpha  occ. eigenvalues --   -1.40241  -1.35191  -1.34624  -1.30035  -1.19742
 Alpha  occ. eigenvalues --   -1.16517  -1.13246  -1.07297  -1.00925  -0.93779
 Alpha  occ. eigenvalues --   -0.90648  -0.84660  -0.82153  -0.79872  -0.76704
 Alpha  occ. eigenvalues --   -0.76252  -0.71303  -0.70119  -0.69050  -0.66975
 Alpha  occ. eigenvalues --   -0.64989  -0.63549  -0.62693  -0.62601  -0.61239
 Alpha  occ. eigenvalues --   -0.60831  -0.59153  -0.58321  -0.56044  -0.55537
 Alpha  occ. eigenvalues --   -0.53738  -0.53383  -0.50261  -0.47866  -0.45959
 Alpha  occ. eigenvalues --   -0.45264  -0.43923  -0.41422  -0.39380  -0.36765
 Alpha  occ. eigenvalues --   -0.33687
 Alpha virt. eigenvalues --    0.01552   0.02692   0.03943   0.04312   0.05117
 Alpha virt. eigenvalues --    0.05431   0.06400   0.06938   0.07098   0.07356
 Alpha virt. eigenvalues --    0.08652   0.09512   0.09900   0.10668   0.11099

 Mulliken charges:
               1
     1  C    0.854492
     2  C    0.137556
     3  C    0.115467
     4  C    1.075715
     5  C    0.568910
     6  C    0.272451
     7  C    0.875404
     8  C    0.372784
     9  H    0.175647
    10  H   -0.070319
    11  H   -0.201010
    12  H   -0.185668
    13  H   -0.077668
    14  H   -0.032653
    15  H   -0.262493
    16  H   -0.049440
    17  H   -0.231518
    18  H    0.072900
    19  H    0.002044
    20  H    0.051419
    21  N   -0.324304
    22  N   -0.378713
    23  N   -0.544184
    24  N   -0.397600
    25  O   -0.615282
    26  O   -0.623939
    27  O   -0.579999
 Sum of Mulliken charges =  -0.00000

 Dipole moment (field-independent basis, Debye):
    X=             -7.9132    Y=             -1.5075    Z=             -1.4682  Tot=              8.1882

 Test job not archived.
 1\1\GINC-SE086\SP\RHF\Aug-CC-pVDZ\C8H12N4O3\OHZDE\08-Apr-2025\0\\#t hf
  aug-cc-pvdz iop(5/13=1,5/36=2,99/5=2) pseudo=read geom=check guess=(r
 ead,tcheck) scf=(maxcycle=1)\\title\\0,1\C,0,2.19828,-2.37651,-0.23583
 8\C,0,1.6624,-0.984063,-0.548331\C,0,0.0909337,0.822117,-0.196528\C,0,
 1.23329,1.8106,0.197201\C,0,-1.17309,1.30841,0.440988\C,0,-2.29288,0.3
 6947,0.321878\C,0,-3.47879,0.614869,-0.374433\C,0,-3.28134,-1.4911,0.1
 30823\H,0,2.44597,3.1154,-0.51579\H,0,-5.02056,-0.854053,-0.766886\H,0
 ,-3.47459,-2.61598,0.107473\H,0,-3.73609,1.58921,-0.818007\H,0,-1.4033

 Normal termination of Gaussian 16 at Tue Apr  8 19:57:02 2025.
