 Gaussian 16, Revision C.01,

 ----------------------------------------------------------------------
 #t hf aug-cc-pvdz symm=none int=(grid=ultrafine) guess=(read,tcheck) s
 table=(opt,rrhf)
 ----------------------------------------------------------------------
 -----
 title
 -----
 Symbolic Z-matrix:
 Charge =  0 Multiplicity = 1

 SCF Done:  E(RHF) =  -380.190386618     A.U. after   11 cycles
 Normal termination of Gaussian 16 at Tue Apr  8 21:01:25 2025.
 Gaussian 16:  ES64L-G16RevC.01  3-Jul-2019

 ----------------------------------------------------------------------
 #t hf aug-cc-pvdz iop(5/13=1,5/36=2,99/5=2) pseudo=read geom=check gue
 ss=(read,tcheck) scf=(maxcycle=1)
 ----------------------------------------------------------------------
 -----
 title
 -----
 Structure from the checkpoint file:  "ANI1ccx_1843_conf387_mol1.chk"
 Charge =  0 Multiplicity = 1

                         Standard orientation:
 ---------------------------------------------------------------------
 Center     Atomic      Atomic             Coordinates (Angstroms)
 Number     Number       Type             X           Y           Z
 ---------------------------------------------------------------------
      1          1           0        2.743461   -0.335302   -0.322717
      2          1           0        2.817363   -1.940447   -0.926550
      3          1           0        2.191009    1.509222    1.042010
      4          1           0        1.106569    1.180751   -0.040930
      5          1           0       -1.549622    2.090268    0.073099
      6          1           0       -1.747030    0.775916   -0.681463
      7          1           0       -2.054168   -0.906447    0.326055
      8          1           0       -3.418188   -1.010825   -0.632424
      9          1           0       -0.551189   -0.129352    0.521364
     10          1           0        0.332569   -1.391620    0.156387
     11          8           0        2.495182   -1.323968   -0.200069
     12          8           0        2.001739    1.559182    0.055039
     13          8           0       -1.097741    1.313828   -0.177972
     14          8           0       -2.832449   -0.422031   -0.118507
     15          8           0       -0.550578   -1.107281    0.502155
 ---------------------------------------------------------------------

 SCF Done:  E(RHF) =  -380.316675428     A.U. after    2 cycles

 The electronic state is 1-A.
 Alpha  occ. eigenvalues --  -20.59154 -20.58634 -20.57651 -20.56746 -20.55689
 Alpha  occ. eigenvalues --   -1.33873  -1.30837  -1.30377  -1.28494  -1.27393
 Alpha  occ. eigenvalues --   -0.78658  -0.73957  -0.72910  -0.72577  -0.70571
 Alpha  occ. eigenvalues --   -0.62853  -0.61659  -0.59943  -0.57910  -0.55343
 Alpha  occ. eigenvalues --   -0.53603  -0.53501  -0.52399  -0.51922  -0.50012
 Alpha virt. eigenvalues --    0.03149   0.04387   0.04775   0.05962   0.07094
 Alpha virt. eigenvalues --    0.07996   0.08593   0.09443   0.09854   0.11344
 Alpha virt. eigenvalues --    0.17444   0.18048   0.18958   0.19926   0.20484

 Mulliken charges:
               1
     1  H    0.260415
     2  H    0.216579
     3  H    0.223762
     4  H    0.195908
     5  H    0.157743
     6  H    0.281717
     7  H    0.345533
     8  H    0.179023
     9  H    0.241479
    10  H    0.257625
    11  O   -0.470821
    12  O   -0.427741
    13  O   -0.481969
    14  O   -0.474726
    15  O   -0.504527
 Sum of Mulliken charges =  -0.00000

 Dipole moment (field-independent basis, Debye):
    X=             -0.0041    Y=             -0.1648    Z=             -1.1322  Tot=              1.1441

 Test job not archived.
 1\1\GINC-SE087\SP\RHF\Aug-CC-pVDZ\H10O5\OHZDE\08-Apr-2025\0\\#t hf aug
 -cc-pvdz iop(5/13=1,5/36=2,99/5=2) pseudo=read geom=check guess=(read,
 tcheck) scf=(maxcycle=1)\\title\\0,1\H,0,2.74346,-0.335305,-0.322717\H
 ,0,2.81736,-1.94045,-0.92655\H,0,2.19101,1.50922,1.04201\H,0,1.10657,1
 .18075,-0.0409302\H,0,-1.54962,2.09027,0.0730991\H,0,-1.74703,0.775919
 ,-0.681463\H,0,-2.05417,-0.906444,0.326055\H,0,-3.41819,-1.01082,-0.63
 2424\H,0,-0.55119,-0.129351,0.521364\H,0,0.332567,-1.39162,0.156387\O,
 0,2.49518,-1.32397,-0.200069\O,0,2.00174,1.55918,0.0550395\O,0,-1.0977

 Normal termination of Gaussian 16 at Tue Apr  8 21:01:28 2025.
