 Gaussian 16, Revision C.01,

 ----------------------------------------------------------------------
 #t hf aug-cc-pvdz symm=none int=(grid=ultrafine) guess=(read,tcheck) s
 table=(opt,rrhf)
 ----------------------------------------------------------------------
 -----
 title
 -----
 Symbolic Z-matrix:
 Charge =  0 Multiplicity = 1

 SCF Done:  E(RHF) =  -636.070294585     A.U. after   16 cycles
 Normal termination of Gaussian 16 at Tue Apr  8 19:37:10 2025.
 Gaussian 16:  ES64L-G16RevC.01  3-Jul-2019

 ----------------------------------------------------------------------
 #t hf aug-cc-pvdz iop(5/13=1,5/36=2,99/5=2) pseudo=read geom=check gue
 ss=(read,tcheck) scf=(maxcycle=1)
 ----------------------------------------------------------------------
 -----
 title
 -----
 Structure from the checkpoint file:  "ANI1ccx_1499_conf4_mol1.chk"
 Charge =  0 Multiplicity = 1

                         Standard orientation:
 ---------------------------------------------------------------------
 Center     Atomic      Atomic             Coordinates (Angstroms)
 Number     Number       Type             X           Y           Z
 ---------------------------------------------------------------------
      1          6           0        0.359426    0.468886   -0.009936
      2          6           0       -2.692130   -0.227962   -1.070910
      3          6           0       -2.703470   -0.195034    1.086790
      4          6           0        1.807320    0.091218   -0.008126
      5          6           0        2.438230   -1.204700    0.017410
      6          6           0        3.782560   -0.962801    0.007928
      7          6           0        2.780760    1.014210    0.008362
      8          1           0        2.723600    2.086500   -0.120457
      9          1           0        4.689140   -1.564820    0.002342
     10          1           0        1.970510   -2.152160   -0.212339
     11          1           0       -2.378690   -0.422373    2.103080
     12          1           0       -2.295800   -0.333096   -2.074090
     13          1           0       -0.097472   -1.531980   -0.054717
     14          7           0       -0.492631   -0.584479   -0.022357
     15          7           0       -1.888110   -0.445654    0.010002
     16          7           0       -3.903420    0.059695   -0.692578
     17          7           0       -3.934030    0.063515    0.708242
     18          8           0        0.002598    1.638580   -0.027658
     19          8           0        4.032390    0.406855    0.045645
 ---------------------------------------------------------------------

 SCF Done:  E(RHF) =  -636.257648923     A.U. after    2 cycles

 The electronic state is 1-A.
 Alpha  occ. eigenvalues --  -20.67297 -20.56735 -15.74840 -15.74028 -15.66220
 Alpha  occ. eigenvalues --  -15.65627 -11.40988 -11.34403 -11.34378 -11.33272
 Alpha  occ. eigenvalues --  -11.32895 -11.28603 -11.28213  -1.43581  -1.40276
 Alpha  occ. eigenvalues --   -1.36678  -1.27745  -1.14904  -1.11298  -1.08748
 Alpha  occ. eigenvalues --   -1.04111  -0.92043  -0.86126  -0.85186  -0.82707
 Alpha  occ. eigenvalues --   -0.81719  -0.79235  -0.76788  -0.69849  -0.67531
 Alpha  occ. eigenvalues --   -0.66587  -0.64555  -0.64515  -0.63654  -0.62515
 Alpha  occ. eigenvalues --   -0.61208  -0.60794  -0.58890  -0.48769  -0.47966
 Alpha  occ. eigenvalues --   -0.47410  -0.44659  -0.43170  -0.42303  -0.37400
 Alpha  occ. eigenvalues --   -0.36151
 Alpha virt. eigenvalues --    0.01432   0.02972   0.03172   0.04155   0.05477
 Alpha virt. eigenvalues --    0.06301   0.06767   0.08323   0.08558   0.09372
 Alpha virt. eigenvalues --    0.09755   0.10123   0.11405   0.11611   0.12018

 Mulliken charges:
               1
     1  C    0.228499
     2  C    0.735586
     3  C    0.775581
     4  C    0.217367
     5  C    0.515901
     6  C    0.756814
     7  C    0.747743
     8  H   -0.373213
     9  H   -0.292720
    10  H   -0.534370
    11  H   -0.234166
    12  H   -0.246085
    13  H    0.022318
    14  N   -0.151288
    15  N   -0.178804
    16  N   -0.438764
    17  N   -0.439153
    18  O   -0.477851
    19  O   -0.633397
 Sum of Mulliken charges =   0.00000

 Dipole moment (field-independent basis, Debye):
    X=              6.5893    Y=             -5.2276    Z=             -0.3078  Tot=              8.4167

 Test job not archived.
 1\1\GINC-SE088\SP\RHF\Aug-CC-pVDZ\C7H6N4O2\OHZDE\08-Apr-2025\0\\#t hf
 aug-cc-pvdz iop(5/13=1,5/36=2,99/5=2) pseudo=read geom=check guess=(re
 ad,tcheck) scf=(maxcycle=1)\\title\\0,1\C,0,0.359426,0.468886,-0.00993
 643\C,0,-2.69213,-0.227962,-1.07091\C,0,-2.70347,-0.195034,1.08679\C,0
 ,1.80732,0.0912184,-0.00812599\C,0,2.43823,-1.2047,0.0174098\C,0,3.782
 56,-0.962801,0.00792746\C,0,2.78076,1.01421,0.00836195\H,0,2.7236,2.08
 65,-0.120457\H,0,4.68914,-1.56482,0.00234163\H,0,1.97051,-2.15216,-0.2
 12339\H,0,-2.37869,-0.422373,2.10308\H,0,-2.2958,-0.333096,-2.07409\H,

 Normal termination of Gaussian 16 at Tue Apr  8 19:37:23 2025.
