 Gaussian 16, Revision C.01,

 ----------------------------------------------------------------------
 #t hf aug-cc-pvdz symm=none int=(grid=ultrafine) guess=(read,tcheck) s
 table=(opt,rrhf)
 ----------------------------------------------------------------------
 -----
 title
 -----
 Symbolic Z-matrix:
 Charge =  0 Multiplicity = 1

 SCF Done:  E(RHF) =  -578.776359464     A.U. after   14 cycles
 Normal termination of Gaussian 16 at Tue Apr  8 22:14:58 2025.
 Gaussian 16:  ES64L-G16RevC.01  3-Jul-2019

 ----------------------------------------------------------------------
 #t hf aug-cc-pvdz iop(5/13=1,5/36=2,99/5=2) pseudo=read geom=check gue
 ss=(read,tcheck) scf=(maxcycle=1)
 ----------------------------------------------------------------------
 -----
 title
 -----
 Structure from the checkpoint file:  "ANI1ccx_987_conf8_mol1.chk"
 Charge =  0 Multiplicity = 1

                         Standard orientation:
 ---------------------------------------------------------------------
 Center     Atomic      Atomic             Coordinates (Angstroms)
 Number     Number       Type             X           Y           Z
 ---------------------------------------------------------------------
      1          6           0        2.135919   -0.306274   -0.000445
      2          6           0        0.312851    1.168100    0.070445
      3          6           0       -1.762930    0.271340    1.079220
      4          6           0       -2.087151   -0.594986   -0.190304
      5          1           0       -0.262823   -1.450230   -0.218470
      6          1           0       -1.989131   -0.390238    1.983030
      7          1           0       -2.460580    1.124160    1.072830
      8          1           0       -0.287443    2.015840   -1.766140
      9          1           0        0.197595    0.057829    1.731910
     10          1           0        1.946619   -2.214191    0.481463
     11          1           0        3.709550    0.467595   -0.833357
     12          1           0        3.971169   -1.264331   -0.449300
     13          1           0       -1.398470    2.130900   -0.489242
     14          7           0        3.485489   -0.337202   -0.275631
     15          7           0        1.441649   -1.315221    0.512359
     16          7           0        1.584860    0.911342   -0.197704
     17          7           0       -0.505223    1.852770   -0.765514
     18          7           0       -0.353742    0.732797    1.167980
     19          8           0       -1.107871   -1.410080   -0.684053
     20          8           0       -3.215861   -0.667148   -0.610529
 ---------------------------------------------------------------------

 SCF Done:  E(RHF) =  -578.951080325     A.U. after    2 cycles

 The electronic state is 1-A.
 Alpha  occ. eigenvalues --  -20.59386 -20.56000 -15.67913 -15.67268 -15.64976
 Alpha  occ. eigenvalues --  -15.60131 -15.58183 -11.41771 -11.40310 -11.37263
 Alpha  occ. eigenvalues --  -11.32849  -1.39860  -1.32193  -1.31165  -1.25117
 Alpha  occ. eigenvalues --   -1.17897  -1.13672  -1.08914  -0.99172  -0.88432
 Alpha  occ. eigenvalues --   -0.83871  -0.81419  -0.76097  -0.73312  -0.71380
 Alpha  occ. eigenvalues --   -0.69063  -0.67396  -0.67142  -0.66084  -0.63241
 Alpha  occ. eigenvalues --   -0.60905  -0.59565  -0.56800  -0.56526  -0.54922
 Alpha  occ. eigenvalues --   -0.48721  -0.47658  -0.44716  -0.42323  -0.41069
 Alpha  occ. eigenvalues --   -0.39827  -0.34830
 Alpha virt. eigenvalues --    0.02759   0.02839   0.03314   0.04858   0.05427
 Alpha virt. eigenvalues --    0.06040   0.07742   0.08379   0.09091   0.09463
 Alpha virt. eigenvalues --    0.10790   0.11806   0.12568   0.13108   0.13266

 Mulliken charges:
               1
     1  C    0.836467
     2  C    0.800384
     3  C    0.459682
     4  C    0.648717
     5  H    0.244061
     6  H    0.072318
     7  H   -0.121874
     8  H    0.028347
     9  H    0.149469
    10  H   -0.079295
    11  H    0.019587
    12  H    0.068547
    13  H   -0.046127
    14  N   -0.352676
    15  N   -0.502048
    16  N   -0.609929
    17  N   -0.185398
    18  N   -0.483789
    19  O   -0.449229
    20  O   -0.497214
 Sum of Mulliken charges =  -0.00000

 Dipole moment (field-independent basis, Debye):
    X=              2.8312    Y=              2.1973    Z=              0.9458  Tot=              3.7066

 Test job not archived.
 1\1\GINC-SE338\SP\RHF\Aug-CC-pVDZ\C4H9N5O2\OHZDE\08-Apr-2025\0\\#t hf
 aug-cc-pvdz iop(5/13=1,5/36=2,99/5=2) pseudo=read geom=check guess=(re
 ad,tcheck) scf=(maxcycle=1)\\title\\0,1\C,0,2.13592,-0.306273,-0.00044
 476\C,0,0.312851,1.1681,0.0704452\C,0,-1.76293,0.27134,1.07922\C,0,-2.
 08715,-0.594986,-0.190304\H,0,-0.262822,-1.45023,-0.21847\H,0,-1.98913
 ,-0.390238,1.98303\H,0,-2.46058,1.12416,1.07283\H,0,-0.287443,2.01584,
 -1.76614\H,0,0.197595,0.0578288,1.73191\H,0,1.94662,-2.21419,0.481463\
 H,0,3.70955,0.467596,-0.833357\H,0,3.97117,-1.26433,-0.4493\H,0,-1.398

 Normal termination of Gaussian 16 at Tue Apr  8 22:15:08 2025.
