 Gaussian 16, Revision C.01,

 ----------------------------------------------------------------------
 #t hf aug-cc-pvdz symm=none int=(grid=ultrafine) guess=(read,tcheck) s
 table=(opt,rrhf)
 ----------------------------------------------------------------------
 -----
 title
 -----
 Symbolic Z-matrix:
 Charge =  0 Multiplicity = 1

 SCF Done:  E(RHF) =  -564.583402055     A.U. after   14 cycles
 Normal termination of Gaussian 16 at Tue Apr  8 22:12:59 2025.
 Gaussian 16:  ES64L-G16RevC.01  3-Jul-2019

 ----------------------------------------------------------------------
 #t hf aug-cc-pvdz iop(5/13=1,5/36=2,99/5=2) pseudo=read geom=check gue
 ss=(read,tcheck) scf=(maxcycle=1)
 ----------------------------------------------------------------------
 -----
 title
 -----
 Structure from the checkpoint file:  "ANI1ccx_958_conf2_mol1.chk"
 Charge =  0 Multiplicity = 1

                         Standard orientation:
 ---------------------------------------------------------------------
 Center     Atomic      Atomic             Coordinates (Angstroms)
 Number     Number       Type             X           Y           Z
 ---------------------------------------------------------------------
      1          6           0       -0.632575    1.747189    1.033870
      2          6           0       -0.374242    0.041718   -0.493150
      3          6           0        1.993140   -0.364903    0.008988
      4          6           0       -1.670000   -0.730607   -0.158029
      5          1           0       -2.546311    0.856080   -0.480505
      6          1           0        1.624679    1.520709   -0.953703
      7          1           0        3.259429    0.925701   -0.921530
      8          1           0        0.442490   -1.410811    0.774370
      9          1           0       -1.561481    1.396219    1.445560
     10          1           0        0.227782    1.307149    1.560830
     11          1           0       -0.525818    2.827969    1.138350
     12          1           0       -0.160990   -0.052241   -1.516620
     13          7           0        0.663188   -0.523014    0.392881
     14          7           0        2.283959    0.777845   -0.706825
     15          8           0       -2.792640   -0.056600   -0.368369
     16          8           0       -0.517888    1.440329   -0.326705
     17          8           0        2.854540   -1.163370    0.375536
     18          8           0       -1.704980   -1.884731    0.169638
 ---------------------------------------------------------------------

 SCF Done:  E(RHF) =  -564.762054479     A.U. after    2 cycles

 The electronic state is 1-A.
 Alpha  occ. eigenvalues --  -20.65079 -20.63716 -20.58949 -20.53675 -15.66553
 Alpha  occ. eigenvalues --  -15.66195 -11.42602 -11.40938 -11.38588 -11.31114
 Alpha  occ. eigenvalues --   -1.46569  -1.41112  -1.36473  -1.35738  -1.21987
 Alpha  occ. eigenvalues --   -1.16878  -1.03152  -0.94587  -0.87264  -0.83949
 Alpha  occ. eigenvalues --   -0.80634  -0.76510  -0.74405  -0.73070  -0.69556
 Alpha  occ. eigenvalues --   -0.68143  -0.67090  -0.66093  -0.64459  -0.61412
 Alpha  occ. eigenvalues --   -0.60393  -0.59182  -0.55691  -0.53011  -0.52345
 Alpha  occ. eigenvalues --   -0.48588  -0.46288  -0.43715  -0.42791
 Alpha virt. eigenvalues --    0.02112   0.03345   0.03690   0.04882   0.05841
 Alpha virt. eigenvalues --    0.06904   0.07189   0.07730   0.09472   0.11293
 Alpha virt. eigenvalues --    0.11635   0.12411   0.12915   0.13339   0.13437

 Mulliken charges:
               1
     1  C    0.847679
     2  C    1.210058
     3  C    0.715909
     4  C    0.560404
     5  H    0.230664
     6  H    0.070492
     7  H   -0.026254
     8  H   -0.037032
     9  H   -0.213276
    10  H    0.086976
    11  H   -0.173356
    12  H   -0.409849
    13  N   -0.467521
    14  N   -0.118381
    15  O   -0.436810
    16  O   -0.878002
    17  O   -0.505733
    18  O   -0.455969
 Sum of Mulliken charges =  -0.00000

 Dipole moment (field-independent basis, Debye):
    X=             -1.1970    Y=              6.1752    Z=             -1.4864  Tot=              6.4634

 Test job not archived.
 1\1\GINC-SE186\SP\RHF\Aug-CC-pVDZ\C4H8N2O4\OHZDE\08-Apr-2025\0\\#t hf
 aug-cc-pvdz iop(5/13=1,5/36=2,99/5=2) pseudo=read geom=check guess=(re
 ad,tcheck) scf=(maxcycle=1)\\title\\0,1\C,0,-0.632574,1.74719,1.03387\
 C,0,-0.374242,0.0417194,-0.49315\C,0,1.99314,-0.364902,0.00898869\C,0,
 -1.67,-0.730606,-0.158029\H,0,-2.54631,0.856081,-0.480505\H,0,1.62468,
 1.52071,-0.953703\H,0,3.25943,0.925701,-0.92153\H,0,0.44249,-1.41081,0
 .77437\H,0,-1.56148,1.39622,1.44556\H,0,0.227783,1.30715,1.56083\H,0,-
 0.525817,2.82797,1.13835\H,0,-0.16099,-0.0522399,-1.51662\N,0,0.663188

 Normal termination of Gaussian 16 at Tue Apr  8 22:13:10 2025.
