 Gaussian 16, Revision C.01,

 ----------------------------------------------------------------------
 #t hf aug-cc-pvdz symm=none int=(grid=ultrafine) guess=(read,tcheck) s
 table=(opt,rrhf)
 ----------------------------------------------------------------------
 -----
 title
 -----
 Symbolic Z-matrix:
 Charge =  0 Multiplicity = 1

 SCF Done:  E(RHF) =  -522.613651663     A.U. after   14 cycles
 Normal termination of Gaussian 16 at Tue Apr  8 22:06:12 2025.
 Gaussian 16:  ES64L-G16RevC.01  3-Jul-2019

 ----------------------------------------------------------------------
 #t hf aug-cc-pvdz iop(5/13=1,5/36=2,99/5=2) pseudo=read geom=check gue
 ss=(read,tcheck) scf=(maxcycle=1)
 ----------------------------------------------------------------------
 -----
 title
 -----
 Structure from the checkpoint file:  "ANI1ccx_922_conf8_mol1.chk"
 Charge =  0 Multiplicity = 1

                         Standard orientation:
 ---------------------------------------------------------------------
 Center     Atomic      Atomic             Coordinates (Angstroms)
 Number     Number       Type             X           Y           Z
 ---------------------------------------------------------------------
      1          6           0        1.714099   -0.188452    0.313092
      2          6           0        0.083364    0.935635   -0.900453
      3          6           0       -1.744831    0.065371    0.367289
      4          6           0       -0.089118   -0.631740   -1.119960
      5          1           0        1.758799    1.851451    0.073024
      6          1           0       -0.061941    1.530870   -1.790910
      7          1           0       -0.871265    1.946580    0.806100
      8          1           0       -1.782920   -1.707840   -0.695856
      9          1           0        0.164963   -0.887140   -2.158280
     10          1           0        1.107160   -2.115519    0.042770
     11          7           0        1.418559    1.013721   -0.365082
     12          7           0       -0.950291    1.203370    0.097710
     13          7           0       -1.449271   -0.768323   -0.719194
     14          7           0        0.904542   -1.150659   -0.204053
     15          8           0        2.518449   -0.303900    1.199070
     16          8           0       -2.463531   -0.169856    1.313140
 ---------------------------------------------------------------------

 SCF Done:  E(RHF) =  -522.770398571     A.U. after    2 cycles

 The electronic state is 1-A.
 Alpha  occ. eigenvalues --  -20.55886 -20.54467 -15.66582 -15.66433 -15.66260
 Alpha  occ. eigenvalues --  -15.66025 -11.41528 -11.40273 -11.36094 -11.35498
 Alpha  occ. eigenvalues --   -1.38969  -1.37522  -1.30998  -1.22755  -1.20416
 Alpha  occ. eigenvalues --   -1.13219  -0.99613  -0.87877  -0.86731  -0.82760
 Alpha  occ. eigenvalues --   -0.75626  -0.74849  -0.70594  -0.67634  -0.67047
 Alpha  occ. eigenvalues --   -0.65444  -0.63990  -0.63756  -0.60722  -0.58781
 Alpha  occ. eigenvalues --   -0.54477  -0.49971  -0.46942  -0.45436  -0.43011
 Alpha  occ. eigenvalues --   -0.42240  -0.40497
 Alpha virt. eigenvalues --    0.01995   0.02526   0.03727   0.04640   0.06183
 Alpha virt. eigenvalues --    0.06438   0.09168   0.10398   0.10724   0.11168
 Alpha virt. eigenvalues --    0.11518   0.11969   0.12885   0.13187   0.13791

 Mulliken charges:
               1
     1  C    0.670311
     2  C    0.675179
     3  C    0.773483
     4  C    1.012484
     5  H   -0.085792
     6  H   -0.214083
     7  H   -0.073061
     8  H   -0.079380
     9  H   -0.065696
    10  H   -0.103571
    11  N   -0.346772
    12  N   -0.418410
    13  N   -0.383405
    14  N   -0.459919
    15  O   -0.451536
    16  O   -0.449832
 Sum of Mulliken charges =  -0.00000

 Dipole moment (field-independent basis, Debye):
    X=              0.0549    Y=              0.4891    Z=             -5.0194  Tot=              5.0434

 Test job not archived.
 1\1\GINC-SE457\SP\RHF\Aug-CC-pVDZ\C4H6N4O2\OHZDE\08-Apr-2025\0\\#t hf
 aug-cc-pvdz iop(5/13=1,5/36=2,99/5=2) pseudo=read geom=check guess=(re
 ad,tcheck) scf=(maxcycle=1)\\title\\0,1\C,0,1.7141,-0.188453,0.313092\
 C,0,0.083365,0.935635,-0.900453\C,0,-1.74483,0.0653713,0.367289\C,0,-0
 .0891174,-0.63174,-1.11996\H,0,1.7588,1.85145,0.0730241\H,0,-0.0619396
 ,1.53087,-1.79091\H,0,-0.871264,1.94658,0.8061\H,0,-1.78292,-1.70784,-
 0.695856\H,0,0.164964,-0.88714,-2.15828\H,0,1.10716,-2.11552,0.0427698
 \N,0,1.41856,1.01372,-0.365082\N,0,-0.95029,1.20337,0.0977096\N,0,-1.4

 Normal termination of Gaussian 16 at Tue Apr  8 22:06:20 2025.
