 Gaussian 16, Revision C.01,

 ----------------------------------------------------------------------
 #t hf aug-cc-pvdz symm=none int=(grid=ultrafine) guess=(read,tcheck) s
 table=(opt,rrhf)
 ----------------------------------------------------------------------
 -----
 title
 -----
 Symbolic Z-matrix:
 Charge =  0 Multiplicity = 1

 SCF Done:  E(RHF) =  -404.780179250     A.U. after   15 cycles
 Normal termination of Gaussian 16 at Tue Apr  8 21:44:50 2025.
 Gaussian 16:  ES64L-G16RevC.01  3-Jul-2019

 ----------------------------------------------------------------------
 #t hf aug-cc-pvdz iop(5/13=1,5/36=2,99/5=2) pseudo=read geom=check gue
 ss=(read,tcheck) scf=(maxcycle=1)
 ----------------------------------------------------------------------
 -----
 title
 -----
 Structure from the checkpoint file:  "ANI1ccx_523_conf3_mol2.chk"
 Charge =  0 Multiplicity = 1

                         Standard orientation:
 ---------------------------------------------------------------------
 Center     Atomic      Atomic             Coordinates (Angstroms)
 Number     Number       Type             X           Y           Z
 ---------------------------------------------------------------------
      1          6           0       -1.071669   -0.268068   -0.068918
      2          6           0        1.092241   -0.274757    0.002617
      3          1           0       -2.420928   -1.840681    0.238394
      4          1           0       -3.100169   -0.231293    0.037658
      5          1           0        2.343012   -1.842609   -0.079289
      6          1           0        3.184321   -0.332316   -0.086470
      7          7           0       -2.318659   -0.859563    0.024497
      8          7           0       -1.135799    1.046580   -0.036193
      9          7           0       -0.007825    1.703420    0.019149
     10          7           0        1.134711    1.090801    0.037073
     11          7           0        2.300281   -0.860619    0.031879
     12          7           0        0.008767   -1.048640   -0.035331
 ---------------------------------------------------------------------

 SCF Done:  E(RHF) =  -404.896686946     A.U. after    2 cycles

 The electronic state is 1-A.
 Alpha  occ. eigenvalues --  -15.74777 -15.66757 -15.66432 -15.65487 -15.65327
 Alpha  occ. eigenvalues --  -15.64785 -11.39402 -11.38834  -1.39931  -1.27061
 Alpha  occ. eigenvalues --   -1.25677  -1.15826  -1.13455  -0.96346  -0.90210
 Alpha  occ. eigenvalues --   -0.80927  -0.76037  -0.70363  -0.68144  -0.65512
 Alpha  occ. eigenvalues --   -0.64573  -0.60758  -0.53902  -0.52469  -0.50822
 Alpha  occ. eigenvalues --   -0.44242  -0.40219  -0.40042  -0.36486
 Alpha virt. eigenvalues --    0.02572   0.02922   0.05160   0.06329   0.07572
 Alpha virt. eigenvalues --    0.08629   0.10071   0.12142   0.12212   0.12849
 Alpha virt. eigenvalues --    0.14428   0.14640   0.15174   0.17067   0.17453

 Mulliken charges:
               1
     1  C    0.982703
     2  C    1.013395
     3  H   -0.028881
     4  H   -0.005681
     5  H   -0.029310
     6  H    0.021978
     7  N   -0.312899
     8  N   -0.375423
     9  N   -0.115473
    10  N   -0.427491
    11  N   -0.273306
    12  N   -0.449611
 Sum of Mulliken charges =  -0.00000

 Dipole moment (field-independent basis, Debye):
    X=              0.5224    Y=             -4.0208    Z=             -0.0834  Tot=              4.0554

 Test job not archived.
 1\1\GINC-SE132\SP\RHF\Aug-CC-pVDZ\C2H4N6\OHZDE\08-Apr-2025\0\\#t hf au
 g-cc-pvdz iop(5/13=1,5/36=2,99/5=2) pseudo=read geom=check guess=(read
 ,tcheck) scf=(maxcycle=1)\\title\\0,1\C,0,-1.07167,-0.268068,-0.068918
 1\C,0,1.09224,-0.274758,0.00261695\H,0,-2.42093,-1.84068,0.238394\H,0,
 -3.10017,-0.231292,0.0376582\H,0,2.34301,-1.84261,-0.0792894\H,0,3.184
 32,-0.332317,-0.0864696\N,0,-2.31866,-0.859562,0.0244973\N,0,-1.1358,1
 .04658,-0.0361928\N,0,-0.00782566,1.70342,0.0191486\N,0,1.13471,1.0908
 ,0.0370726\N,0,2.30028,-0.86062,0.0318789\N,0,0.00876508,-1.04864,-0.0

 Normal termination of Gaussian 16 at Tue Apr  8 21:44:56 2025.
