 Gaussian 16, Revision C.01,

 ----------------------------------------------------------------------
 #t hf aug-cc-pvdz symm=none int=(grid=ultrafine) guess=(read,tcheck) s
 table=(opt,rrhf)
 ----------------------------------------------------------------------
 -----
 title
 -----
 Symbolic Z-matrix:
 Charge =  0 Multiplicity = 1

 SCF Done:  E(RHF) =  -639.623802304     A.U. after   15 cycles
 Normal termination of Gaussian 16 at Tue Apr  8 19:31:07 2025.
 Gaussian 16:  ES64L-G16RevC.01  3-Jul-2019

 ----------------------------------------------------------------------
 #t hf aug-cc-pvdz iop(5/13=1,5/36=2,99/5=2) pseudo=read geom=check gue
 ss=(read,tcheck) scf=(maxcycle=1)
 ----------------------------------------------------------------------
 -----
 title
 -----
 Structure from the checkpoint file:  "ANI1ccx_1409_conf3_mol1.chk"
 Charge =  0 Multiplicity = 1

                         Standard orientation:
 ---------------------------------------------------------------------
 Center     Atomic      Atomic             Coordinates (Angstroms)
 Number     Number       Type             X           Y           Z
 ---------------------------------------------------------------------
      1          6           0       -2.336909    0.919241   -0.525134
      2          6           0       -2.989200   -0.412258   -0.186592
      3          6           0       -1.008021   -1.408639    0.804312
      4          6           0        0.946218   -1.324160   -0.715351
      5          6           0        2.122119   -0.748953   -1.230181
      6          6           0        2.721930    0.306120   -0.348847
      7          6           0        0.863894    0.319039    1.083959
      8          1           0        4.616790    0.458944   -1.395941
      9          1           0        4.392001    1.527687    0.078712
     10          1           0        2.620479   -1.166312   -2.126291
     11          1           0        0.502715   -2.166740   -1.205141
     12          1           0       -0.808029   -2.493699    1.116719
     13          1           0       -1.391541   -0.899159    1.689359
     14          1           0       -3.616361   -0.748828   -1.105841
     15          1           0       -3.503890   -0.326113    0.749590
     16          1           0       -1.571379    1.204841    0.275682
     17          1           0       -1.739070    0.801404   -1.421771
     18          1           0       -3.823749    2.181153   -0.018785
     19          1           0       -3.028888    2.574832   -1.456491
     20          7           0       -3.425819    1.816882   -0.933444
     21          7           0        0.307365   -0.762059    0.368772
     22          7           0        3.918910    0.864782   -0.645064
     23          7           0        2.055830    0.791483    0.701037
     24          8           0       -2.024311   -1.474699   -0.165240
     25          8           0        0.203901    0.746204    2.051249
 ---------------------------------------------------------------------

 SCF Done:  E(RHF) =  -639.814078662     A.U. after    2 cycles

 The electronic state is 1-A.
 Alpha  occ. eigenvalues --  -20.58347 -20.50944 -15.68744 -15.68517 -15.61412
 Alpha  occ. eigenvalues --  -15.60730 -11.38312 -11.38151 -11.34604 -11.34207
 Alpha  occ. eigenvalues --  -11.29012 -11.26983 -11.25514  -1.35278  -1.33315
 Alpha  occ. eigenvalues --   -1.25502  -1.21915  -1.14823  -1.13614  -1.04129
 Alpha  occ. eigenvalues --   -0.98674  -0.91871  -0.88488  -0.85715  -0.81192
 Alpha  occ. eigenvalues --   -0.75096  -0.73025  -0.71299  -0.68369  -0.68091
 Alpha  occ. eigenvalues --   -0.66265  -0.63569  -0.63181  -0.61817  -0.61197
 Alpha  occ. eigenvalues --   -0.59344  -0.58678  -0.56735  -0.54031  -0.51607
 Alpha  occ. eigenvalues --   -0.50951  -0.47947  -0.47377  -0.46076  -0.44302
 Alpha  occ. eigenvalues --   -0.41634  -0.39299  -0.37839  -0.33982
 Alpha virt. eigenvalues --    0.01880   0.03182   0.04080   0.04187   0.05290
 Alpha virt. eigenvalues --    0.05717   0.06260   0.06707   0.07831   0.08387
 Alpha virt. eigenvalues --    0.08687   0.09207   0.09390   0.09937   0.11574

 Mulliken charges:
               1
     1  C    0.665617
     2  C    0.566661
     3  C    1.026701
     4  C    0.676063
     5  C    0.682553
     6  C    0.728104
     7  C    0.509401
     8  H    0.119528
     9  H    0.110451
    10  H   -0.452129
    11  H   -0.531354
    12  H   -0.169703
    13  H   -0.278362
    14  H   -0.025583
    15  H   -0.164161
    16  H   -0.110684
    17  H   -0.261435
    18  H    0.118920
    19  H   -0.028297
    20  N   -0.389647
    21  N   -0.308464
    22  N   -0.563451
    23  N   -0.608715
    24  O   -0.690505
    25  O   -0.621510
 Sum of Mulliken charges =  -0.00000

 Dipole moment (field-independent basis, Debye):
    X=              3.6512    Y=             -1.9501    Z=             -4.0051  Tot=              5.7598

 Test job not archived.
 1\1\GINC-SE109\SP\RHF\Aug-CC-pVDZ\C7H12N4O2\OHZDE\08-Apr-2025\0\\#t hf
  aug-cc-pvdz iop(5/13=1,5/36=2,99/5=2) pseudo=read geom=check guess=(r
 ead,tcheck) scf=(maxcycle=1)\\title\\0,1\C,0,-2.33691,0.919239,-0.5251
 33\C,0,-2.9892,-0.41226,-0.186591\C,0,-1.00802,-1.40864,0.804313\C,0,0
 .946219,-1.32416,-0.71535\C,0,2.12212,-0.748952,-1.23018\C,0,2.72193,0
 .306122,-0.348846\C,0,0.863894,0.319039,1.08396\H,0,4.61679,0.458947,-
 1.39594\H,0,4.392,1.52769,0.0787128\H,0,2.62048,-1.16631,-2.12629\H,0,
 0.502716,-2.16674,-1.20514\H,0,-0.808027,-2.4937,1.11672\H,0,-1.39154,

 Normal termination of Gaussian 16 at Tue Apr  8 19:31:32 2025.
