 Gaussian 16, Revision C.01,

 ----------------------------------------------------------------------
 #t hf aug-cc-pvdz symm=none int=(grid=ultrafine) guess=(read,tcheck) s
 table=(opt,rrhf)
 ----------------------------------------------------------------------
 -----
 title
 -----
 Symbolic Z-matrix:
 Charge =  0 Multiplicity = 1

 SCF Done:  E(RHF) =  -744.722666813     A.U. after   13 cycles
 Normal termination of Gaussian 16 at Tue Apr  8 22:24:33 2025.
 Gaussian 16:  ES64L-G16RevC.01  3-Jul-2019

 ----------------------------------------------------------------------
 #t hf aug-cc-pvdz iop(5/13=1,5/36=2,99/5=2) pseudo=read geom=check gue
 ss=(read,tcheck) scf=(maxcycle=1)
 ----------------------------------------------------------------------
 -----
 title
 -----
 Structure from the checkpoint file:  "ANI1ccx_96_conf2_mol1.chk"
 Charge =  0 Multiplicity = 1

                         Standard orientation:
 ---------------------------------------------------------------------
 Center     Atomic      Atomic             Coordinates (Angstroms)
 Number     Number       Type             X           Y           Z
 ---------------------------------------------------------------------
      1          6           0        2.699069    0.414236   -0.526923
      2          6           0        1.016388   -2.203691   -0.727453
      3          6           0       -0.963665   -2.027480    0.611921
      4          6           0       -2.128172   -1.154850    1.097890
      5          6           0       -2.826991   -0.105088   -0.955950
      6          6           0        2.166508   -1.971151    0.213336
      7          6           0       -0.620808    2.377290    0.413173
      8          6           0        0.710711    2.639099   -0.323134
      9          6           0        1.904219    0.797951    0.734954
     10          6           0       -2.519191    1.312340   -0.470849
     11          1           0       -2.576812   -1.770920    1.889870
     12          1           0        4.108168   -1.121652   -0.131941
     13          1           0        2.661348   -2.954322    0.408278
     14          1           0        1.810348   -1.693041    1.251350
     15          1           0        0.657216   -3.224021   -0.593465
     16          1           0        1.242018   -2.017571   -1.780340
     17          1           0       -0.320796   -2.110790    1.508390
     18          1           0       -1.276782   -2.903100    0.217882
     19          1           0       -1.782921   -0.199816    1.479350
     20          1           0       -1.990851   -0.464181   -1.489540
     21          1           0       -1.486210    3.155340    0.267558
     22          1           0       -3.162941    1.547811    0.374746
     23          1           0       -2.731251    2.037430   -1.269980
     24          1           0       -0.490715    2.297070    1.522420
     25          1           0        0.695561    2.069919   -1.245900
     26          1           0        0.801866    3.701679   -0.599516
     27          1           0        2.563839    0.597644    1.691690
     28          1           0        0.822152    0.372413    0.804042
     29          1           0        2.104609    0.503804   -1.419150
     30          1           0        3.541089    1.064708   -0.851435
     31          1           0       -3.777321   -0.206136   -1.438390
     32          7           0        3.142868   -0.964474   -0.321522
     33          8           0       -3.054222   -1.052919    0.099979
     34          8           0        1.777320    2.220649    0.567907
     35          8           0       -1.123941    1.162980   -0.101896
     36          8           0       -0.104169   -1.381071   -0.409371
 ---------------------------------------------------------------------

 SCF Done:  E(RHF) =  -744.953201914     A.U. after    2 cycles

 The electronic state is 1-A.
 Alpha  occ. eigenvalues --  -20.56937 -20.55372 -20.55076 -20.54960 -15.58807
 Alpha  occ. eigenvalues --  -11.29201 -11.29104 -11.28297 -11.28256 -11.27310
 Alpha  occ. eigenvalues --  -11.27282 -11.27066 -11.26919 -11.26426 -11.24979
 Alpha  occ. eigenvalues --   -1.34692  -1.32759  -1.30386  -1.30138  -1.14897
 Alpha  occ. eigenvalues --   -1.04001  -1.01614  -0.97490  -0.96697  -0.90876
 Alpha  occ. eigenvalues --   -0.88217  -0.84615  -0.82130  -0.80504  -0.77442
 Alpha  occ. eigenvalues --   -0.70916  -0.70140  -0.68549  -0.67749  -0.66596
 Alpha  occ. eigenvalues --   -0.64997  -0.63553  -0.62733  -0.62414  -0.61460
 Alpha  occ. eigenvalues --   -0.60458  -0.58700  -0.57229  -0.55908  -0.55148
 Alpha  occ. eigenvalues --   -0.54048  -0.53887  -0.53429  -0.51961  -0.51234
 Alpha  occ. eigenvalues --   -0.50033  -0.48441  -0.46542  -0.46182  -0.45161
 Alpha  occ. eigenvalues --   -0.44102  -0.42835  -0.42127  -0.40553  -0.32765
 Alpha virt. eigenvalues --    0.03170   0.03642   0.04045   0.04260   0.04943
 Alpha virt. eigenvalues --    0.05006   0.05304   0.05858   0.06031   0.07139
 Alpha virt. eigenvalues --    0.07475   0.08070   0.08225   0.08457   0.08999

 Mulliken charges:
               1
     1  C    0.854379
     2  C    0.592049
     3  C    0.818197
     4  C    1.009315
     5  C    1.136331
     6  C    0.704175
     7  C    0.283807
     8  C    0.851536
     9  C    0.623429
    10  C    0.684715
    11  H   -0.195941
    12  H   -0.196390
    13  H   -0.169529
    14  H   -0.134635
    15  H   -0.095744
    16  H   -0.395358
    17  H   -0.032733
    18  H   -0.604467
    19  H   -0.121372
    20  H   -0.207781
    21  H   -0.063943
    22  H   -0.227716
    23  H   -0.246228
    24  H   -0.185807
    25  H   -0.162015
    26  H   -0.188806
    27  H   -0.046707
    28  H   -0.162911
    29  H   -0.471530
    30  H   -0.148801
    31  H   -0.360480
    32  N   -0.349352
    33  O   -0.731215
    34  O   -0.782384
    35  O   -0.604312
    36  O   -0.671779
 Sum of Mulliken charges =  -0.00000

 Dipole moment (field-independent basis, Debye):
    X=             -0.5849    Y=             -0.0546    Z=              0.0487  Tot=              0.5894

 Test job not archived.
 1\1\GINC-SE219\SP\RHF\Aug-CC-pVDZ\C10H21N1O4\OHZDE\08-Apr-2025\0\\#t h
 f aug-cc-pvdz iop(5/13=1,5/36=2,99/5=2) pseudo=read geom=check guess=(
 read,tcheck) scf=(maxcycle=1)\\title\\0,1\C,0,2.69907,0.414238,-0.5269
 23\C,0,1.01639,-2.20369,-0.727453\C,0,-0.963663,-2.02748,0.611921\C,0,
 -2.12817,-1.15485,1.09789\C,0,-2.82699,-0.105088,-0.95595\C,0,2.16651,
 -1.97115,0.213336\C,0,-0.620808,2.37729,0.413173\C,0,0.710711,2.6391,-
 0.323134\C,0,1.90422,0.797952,0.734954\C,0,-2.51919,1.31234,-0.470849\
 H,0,-2.57681,-1.77092,1.88987\H,0,4.10817,-1.12165,-0.131941\H,0,2.661

 Normal termination of Gaussian 16 at Tue Apr  8 22:25:39 2025.
