 Gaussian 16, Revision C.01,

 ----------------------------------------------------------------------
 #t hf aug-cc-pvdz symm=none int=(grid=ultrafine) guess=(read,tcheck) s
 table=(opt,rrhf)
 ----------------------------------------------------------------------
 -----
 title
 -----
 Symbolic Z-matrix:
 Charge =  0 Multiplicity = 1

 SCF Done:  E(RHF) =  -577.551345642     A.U. after   15 cycles
 Normal termination of Gaussian 16 at Tue Apr  8 22:11:45 2025.
 Gaussian 16:  ES64L-G16RevC.01  3-Jul-2019

 ----------------------------------------------------------------------
 #t hf aug-cc-pvdz iop(5/13=1,5/36=2,99/5=2) pseudo=read geom=check gue
 ss=(read,tcheck) scf=(maxcycle=1)
 ----------------------------------------------------------------------
 -----
 title
 -----
 Structure from the checkpoint file:  "ANI1ccx_949_conf1_mol2.chk"
 Charge =  0 Multiplicity = 1

                         Standard orientation:
 ---------------------------------------------------------------------
 Center     Atomic      Atomic             Coordinates (Angstroms)
 Number     Number       Type             X           Y           Z
 ---------------------------------------------------------------------
      1          6           0        1.375100    0.747891    0.017347
      2          6           0        1.631490   -1.411351   -0.106935
      3          6           0       -1.520450   -1.048170    0.667774
      4          6           0       -2.144390   -0.096354   -0.333183
      5          1           0       -2.429220    1.696020   -0.649914
      6          1           0       -1.362890   -2.015740    0.178859
      7          1           0       -0.063398   -0.992410    2.116160
      8          1           0       -2.249800   -1.142420    1.462830
      9          1           0        1.566641    2.690129    0.285488
     10          1           0        0.211699    2.002839    1.067020
     11          1           0        1.433170   -2.478191    0.083735
     12          7           0        0.850671    1.966559    0.301483
     13          7           0        2.459960    0.523477   -0.695390
     14          7           0        2.606780   -0.842138   -0.729214
     15          7           0        0.791101   -0.429579    0.420809
     16          7           0       -0.301195   -0.488225    1.283170
     17          8           0       -2.019770    1.196960    0.058884
     18          8           0       -2.731220   -0.449832   -1.318910
 ---------------------------------------------------------------------

 SCF Done:  E(RHF) =  -577.722879003     A.U. after    2 cycles

 The electronic state is 1-A.
 Alpha  occ. eigenvalues --  -20.64429 -20.58998 -15.72054 -15.70982 -15.64772
 Alpha  occ. eigenvalues --  -15.64558 -15.62449 -11.42402 -11.35541 -11.32332
 Alpha  occ. eigenvalues --  -11.31329  -1.44913  -1.38040  -1.35343  -1.27439
 Alpha  occ. eigenvalues --   -1.20897  -1.11642  -1.04431  -1.00172  -0.86618
 Alpha  occ. eigenvalues --   -0.84287  -0.81020  -0.77003  -0.74716  -0.72476
 Alpha  occ. eigenvalues --   -0.70089  -0.69769  -0.67046  -0.65934  -0.63594
 Alpha  occ. eigenvalues --   -0.61756  -0.61085  -0.60263  -0.52455  -0.50123
 Alpha  occ. eigenvalues --   -0.48669  -0.47713  -0.46176  -0.41606  -0.40308
 Alpha  occ. eigenvalues --   -0.32211
 Alpha virt. eigenvalues --    0.01608   0.02672   0.03575   0.04446   0.05899
 Alpha virt. eigenvalues --    0.07017   0.07199   0.08765   0.09528   0.11439
 Alpha virt. eigenvalues --    0.11654   0.12225   0.12370   0.13165   0.13458

 Mulliken charges:
               1
     1  C    0.709475
     2  C    0.605213
     3  C    0.852078
     4  C    0.461700
     5  H    0.220119
     6  H   -0.057236
     7  H   -0.002701
     8  H   -0.062824
     9  H    0.004851
    10  H    0.050881
    11  H   -0.236655
    12  N   -0.164750
    13  N   -0.488830
    14  N   -0.454535
    15  N   -0.394453
    16  N    0.000518
    17  O   -0.581959
    18  O   -0.460892
 Sum of Mulliken charges =  -0.00000

 Dipole moment (field-independent basis, Debye):
    X=             -3.9419    Y=             -0.0159    Z=              5.7835  Tot=              6.9991

 Test job not archived.
 1\1\GINC-SE342\SP\RHF\Aug-CC-pVDZ\C4H7N5O2\OHZDE\08-Apr-2025\0\\#t hf
 aug-cc-pvdz iop(5/13=1,5/36=2,99/5=2) pseudo=read geom=check guess=(re
 ad,tcheck) scf=(maxcycle=1)\\title\\0,1\C,0,1.3751,0.747892,0.017347\C
 ,0,1.63149,-1.41135,-0.106935\C,0,-1.52045,-1.04817,0.667774\C,0,-2.14
 439,-0.0963539,-0.333183\H,0,-2.42922,1.69602,-0.649914\H,0,-1.36289,-
 2.01574,0.178859\H,0,-0.063398,-0.992409,2.11616\H,0,-2.2498,-1.14242,
 1.46283\H,0,1.56664,2.69013,0.285488\H,0,0.211699,2.00284,1.06702\H,0,
 1.43317,-2.47819,0.0837352\N,0,0.850671,1.96656,0.301483\N,0,2.45996,0

 Normal termination of Gaussian 16 at Tue Apr  8 22:11:55 2025.
