 Gaussian 16, Revision C.01,

 ----------------------------------------------------------------------
 #t hf aug-cc-pvdz symm=none int=(grid=ultrafine) guess=(read,tcheck) s
 table=(opt,rrhf)
 ----------------------------------------------------------------------
 -----
 title
 -----
 Symbolic Z-matrix:
 Charge =  0 Multiplicity = 1

 SCF Done:  E(RHF) =  -339.587230005     A.U. after   14 cycles
 Normal termination of Gaussian 16 at Tue Apr  8 21:35:32 2025.
 Gaussian 16:  ES64L-G16RevC.01  3-Jul-2019

 ----------------------------------------------------------------------
 #t hf aug-cc-pvdz iop(5/13=1,5/36=2,99/5=2) pseudo=read geom=check gue
 ss=(read,tcheck) scf=(maxcycle=1)
 ----------------------------------------------------------------------
 -----
 title
 -----
 Structure from the checkpoint file:  "ANI1ccx_409_conf5_mol1.chk"
 Charge =  0 Multiplicity = 1

                         Standard orientation:
 ---------------------------------------------------------------------
 Center     Atomic      Atomic             Coordinates (Angstroms)
 Number     Number       Type             X           Y           Z
 ---------------------------------------------------------------------
      1          6           0        1.304859    0.020212    0.295807
      2          1           0       -2.227400   -1.343780   -0.063279
      3          1           0       -1.520361    0.800743    0.665140
      4          1           0        2.330840   -1.602569    0.124106
      5          1           0        0.801461   -0.557529    1.109000
      6          8           0       -2.675000   -0.491964    0.025188
      7          8           0       -1.569281    0.383320   -0.200841
      8          8           0        2.298030   -0.705254   -0.229690
      9          8           0        1.044539    1.136631   -0.045883
 ---------------------------------------------------------------------

 SCF Done:  E(RHF) =  -339.700077258     A.U. after    2 cycles

 The electronic state is 1-A.
 Alpha  occ. eigenvalues --  -20.64504 -20.64175 -20.64122 -20.57987 -11.41685
 Alpha  occ. eigenvalues --   -1.43974  -1.43756  -1.35104  -1.18826  -0.88822
 Alpha  occ. eigenvalues --   -0.80813  -0.73382  -0.73332  -0.69209  -0.65843
 Alpha  occ. eigenvalues --   -0.63555  -0.61454  -0.54151  -0.51229  -0.49970
 Alpha  occ. eigenvalues --   -0.48815
 Alpha virt. eigenvalues --    0.01641   0.04294   0.04788   0.06792   0.09331
 Alpha virt. eigenvalues --    0.10960   0.12841   0.14081   0.14927   0.17185
 Alpha virt. eigenvalues --    0.18403   0.19766   0.20594   0.21122   0.22236

 Mulliken charges:
               1
     1  C    0.767750
     2  H    0.212044
     3  H    0.242035
     4  H    0.180647
     5  H   -0.160870
     6  O   -0.257636
     7  O   -0.186845
     8  O   -0.409569
     9  O   -0.387557
 Sum of Mulliken charges =   0.00000

 Dipole moment (field-independent basis, Debye):
    X=              1.0601    Y=             -4.7985    Z=              3.2726  Tot=              5.9042

 Test job not archived.
 1\1\GINC-SE094\SP\RHF\Aug-CC-pVDZ\C1H4O4\OHZDE\08-Apr-2025\0\\#t hf au
 g-cc-pvdz iop(5/13=1,5/36=2,99/5=2) pseudo=read geom=check guess=(read
 ,tcheck) scf=(maxcycle=1)\\title\\0,1\C,0,1.30486,0.0202109,0.295807\H
 ,0,-2.2274,-1.34378,-0.0632789\H,0,-1.52036,0.800743,0.66514\H,0,2.330
 84,-1.60257,0.124106\H,0,0.801461,-0.55753,1.109\O,0,-2.675,-0.491964,
 0.025188\O,0,-1.56928,0.38332,-0.200841\O,0,2.29803,-0.705255,-0.22969
 \O,0,1.04454,1.13663,-0.0458833\\Version=ES64L-G16RevC.01\State=1-A\HF
 =-339.7000773\RMSD=2.343e-03\Dipole=0.4170643,-1.887876,1.2875549\Quad

 Normal termination of Gaussian 16 at Tue Apr  8 21:35:34 2025.
