 Gaussian 16, Revision C.01,

 ----------------------------------------------------------------------
 #t hf aug-cc-pvdz symm=none int=(grid=ultrafine) guess=(read,tcheck) s
 table=(opt,rrhf)
 ----------------------------------------------------------------------
 -----
 title
 -----
 Symbolic Z-matrix:
 Charge =  0 Multiplicity = 1

 SCF Done:  E(RHF) =  -394.541903660     A.U. after   15 cycles
 Normal termination of Gaussian 16 at Tue Apr  8 21:36:37 2025.
 Gaussian 16:  ES64L-G16RevC.01  3-Jul-2019

 ----------------------------------------------------------------------
 #t hf aug-cc-pvdz iop(5/13=1,5/36=2,99/5=2) pseudo=read geom=check gue
 ss=(read,tcheck) scf=(maxcycle=1)
 ----------------------------------------------------------------------
 -----
 title
 -----
 Structure from the checkpoint file:  "ANI1ccx_415_conf1_mol1.chk"
 Charge =  0 Multiplicity = 1

                         Standard orientation:
 ---------------------------------------------------------------------
 Center     Atomic      Atomic             Coordinates (Angstroms)
 Number     Number       Type             X           Y           Z
 ---------------------------------------------------------------------
      1          6           0        2.187070    0.337803   -0.043391
      2          1           0        1.434800   -1.549270    0.277065
      3          1           0        0.265818   -0.202506    0.303998
      4          1           0        1.765210    1.352000   -0.167179
      5          1           0       -1.588010    1.523850   -0.697148
      6          1           0       -3.043080   -1.124340   -0.037590
      7          7           0        1.198840   -0.568601    0.111962
      8          8           0        3.382900    0.095000   -0.093217
      9          8           0       -2.218570    1.166550   -0.041197
     10          8           0       -1.583360    0.016037    0.432110
     11          8           0       -2.124600   -1.033380   -0.323013
 ---------------------------------------------------------------------

 SCF Done:  E(RHF) =  -394.671203747     A.U. after    2 cycles

 The electronic state is 1-A.
 Alpha  occ. eigenvalues --  -20.74884 -20.68937 -20.68302 -20.53593 -15.64758
 Alpha  occ. eigenvalues --  -11.36267  -1.54878  -1.36777  -1.33659  -1.17839
 Alpha  occ. eigenvalues --   -1.15978  -0.84617  -0.83456  -0.77076  -0.74399
 Alpha  occ. eigenvalues --   -0.72933  -0.69390  -0.66816  -0.61199  -0.57569
 Alpha  occ. eigenvalues --   -0.56856  -0.56694  -0.54289  -0.44237  -0.41447
 Alpha virt. eigenvalues --    0.02552   0.03468   0.05176   0.06147   0.07682
 Alpha virt. eigenvalues --    0.10005   0.11925   0.12867   0.13530   0.15454
 Alpha virt. eigenvalues --    0.15780   0.16635   0.17555   0.18083   0.18957

 Mulliken charges:
               1
     1  C    0.744886
     2  H    0.003438
     3  H    0.063338
     4  H   -0.208852
     5  H    0.238913
     6  H    0.233588
     7  N   -0.083730
     8  O   -0.489332
     9  O   -0.183010
    10  O   -0.145043
    11  O   -0.174195
 Sum of Mulliken charges =  -0.00000

 Dipole moment (field-independent basis, Debye):
    X=             -5.9633    Y=              0.2920    Z=             -0.2072  Tot=              5.9741

 Test job not archived.
 1\1\GINC-SE038\SP\RHF\Aug-CC-pVDZ\C1H5N1O4\OHZDE\08-Apr-2025\0\\#t hf
 aug-cc-pvdz iop(5/13=1,5/36=2,99/5=2) pseudo=read geom=check guess=(re
 ad,tcheck) scf=(maxcycle=1)\\title\\0,1\C,0,2.18707,0.337803,-0.043390
 6\H,0,1.4348,-1.54927,0.277065\H,0,0.265818,-0.202506,0.303998\H,0,1.7
 6521,1.352,-0.167179\H,0,-1.58801,1.52385,-0.697148\H,0,-3.04308,-1.12
 434,-0.0375899\N,0,1.19884,-0.568601,0.111962\O,0,3.3829,0.0950005,-0.
 0932174\O,0,-2.21857,1.16655,-0.0411967\O,0,-1.58336,0.0160371,0.43211
 \O,0,-2.1246,-1.03338,-0.323013\\Version=ES64L-G16RevC.01\State=1-A\HF

 Normal termination of Gaussian 16 at Tue Apr  8 21:36:41 2025.
