 Gaussian 16, Revision C.01,

 ----------------------------------------------------------------------
 #t hf aug-cc-pvdz symm=none int=(grid=ultrafine) guess=(read,tcheck) s
 table=(opt,rrhf)
 ----------------------------------------------------------------------
 -----
 title
 -----
 Symbolic Z-matrix:
 Charge =  0 Multiplicity = 1

 SCF Done:  E(RHF) =  -489.707679755     A.U. after   14 cycles
 Normal termination of Gaussian 16 at Tue Apr  8 22:12:07 2025.
 Gaussian 16:  ES64L-G16RevC.01  3-Jul-2019

 ----------------------------------------------------------------------
 #t hf aug-cc-pvdz iop(5/13=1,5/36=2,99/5=2) pseudo=read geom=check gue
 ss=(read,tcheck) scf=(maxcycle=1)
 ----------------------------------------------------------------------
 -----
 title
 -----
 Structure from the checkpoint file:  "ANI1ccx_957_conf2_mol1.chk"
 Charge =  0 Multiplicity = 1

                         Standard orientation:
 ---------------------------------------------------------------------
 Center     Atomic      Atomic             Coordinates (Angstroms)
 Number     Number       Type             X           Y           Z
 ---------------------------------------------------------------------
      1          6           0       -0.502383    0.699183   -0.157337
      2          6           0       -1.353070   -0.660757   -0.093818
      3          6           0        0.711241    0.526169    0.863062
      4          6           0        1.846110    0.027575    0.038517
      5          1           0       -2.617660    0.582493   -0.419108
      6          1           0        1.294111   -1.923000    0.282304
      7          1           0        2.607381   -1.582519   -0.746028
      8          1           0        1.031699    1.524340    1.216640
      9          1           0       -0.097153    0.822502   -1.169430
     10          1           0       -1.416921    1.900469    1.048770
     11          1           0       -1.016101    2.643479   -0.299467
     12          1           0        0.492795   -0.106187    1.699140
     13          7           0       -1.374261    1.778049    0.023843
     14          7           0        1.996131   -1.269260   -0.017968
     15          8           0        2.531340    0.856098   -0.542619
     16          8           0       -1.018449   -1.789001    0.187448
     17          8           0       -2.618220   -0.439113   -0.339390
 ---------------------------------------------------------------------

 SCF Done:  E(RHF) =  -489.859343396     A.U. after    2 cycles

 The electronic state is 1-A.
 Alpha  occ. eigenvalues --  -20.62047 -20.56454 -20.53240 -15.66991 -15.65146
 Alpha  occ. eigenvalues --  -11.40445 -11.36326 -11.32967 -11.26526  -1.43531
 Alpha  occ. eigenvalues --   -1.35304  -1.32855  -1.23780  -1.20256  -1.04341
 Alpha  occ. eigenvalues --   -0.92925  -0.82573  -0.81123  -0.77611  -0.74294
 Alpha  occ. eigenvalues --   -0.70928  -0.69491  -0.68398  -0.65828  -0.64602
 Alpha  occ. eigenvalues --   -0.61390  -0.58686  -0.58230  -0.55746  -0.53702
 Alpha  occ. eigenvalues --   -0.49542  -0.49272  -0.45529  -0.42991  -0.42517
 Alpha virt. eigenvalues --    0.02278   0.03664   0.04037   0.04869   0.05786
 Alpha virt. eigenvalues --    0.06576   0.07459   0.08216   0.10488   0.10840
 Alpha virt. eigenvalues --    0.11619   0.12446   0.13022   0.13953   0.14497

 Mulliken charges:
               1
     1  C    0.120041
     2  C    0.605502
     3  C    0.706452
     4  C    0.450048
     5  H    0.359416
     6  H    0.067311
     7  H    0.000817
     8  H   -0.040191
     9  H   -0.101645
    10  H    0.150220
    11  H    0.041889
    12  H   -0.178526
    13  N   -0.538048
    14  N   -0.054192
    15  O   -0.600881
    16  O   -0.474259
    17  O   -0.513955
 Sum of Mulliken charges =  -0.00000

 Dipole moment (field-independent basis, Debye):
    X=             -1.0090    Y=              2.5965    Z=              1.2339  Tot=              3.0467

 Test job not archived.
 1\1\GINC-SE118\SP\RHF\Aug-CC-pVDZ\C4H8N2O3\OHZDE\08-Apr-2025\0\\#t hf
 aug-cc-pvdz iop(5/13=1,5/36=2,99/5=2) pseudo=read geom=check guess=(re
 ad,tcheck) scf=(maxcycle=1)\\title\\0,1\C,0,-0.502383,0.699184,-0.1573
 37\C,0,-1.35307,-0.660756,-0.0938184\C,0,0.711241,0.526169,0.863062\C,
 0,1.84611,0.027575,0.0385169\H,0,-2.61766,0.582495,-0.419108\H,0,1.294
 11,-1.923,0.282304\H,0,2.60738,-1.58252,-0.746028\H,0,1.0317,1.52434,1
 .21664\H,0,-0.0971529,0.822502,-1.16943\H,0,-1.41692,1.90047,1.04877\H
 ,0,-1.0161,2.64348,-0.299467\H,0,0.492795,-0.106187,1.69914\N,0,-1.374

 Normal termination of Gaussian 16 at Tue Apr  8 22:12:15 2025.
