 Gaussian 16, Revision C.01,

 ----------------------------------------------------------------------
 #t hf aug-cc-pvdz symm=none int=(grid=ultrafine) guess=(read,tcheck) s
 table=(opt,rrhf)
 ----------------------------------------------------------------------
 -----
 title
 -----
 Symbolic Z-matrix:
 Charge =  0 Multiplicity = 1

 SCF Done:  E(RHF) =  -565.489666571     A.U. after   15 cycles
 Normal termination of Gaussian 16 at Tue Apr  8 19:24:56 2025.
 Gaussian 16:  ES64L-G16RevC.01  3-Jul-2019

 ----------------------------------------------------------------------
 #t hf aug-cc-pvdz iop(5/13=1,5/36=2,99/5=2) pseudo=read geom=check gue
 ss=(read,tcheck) scf=(maxcycle=1)
 ----------------------------------------------------------------------
 -----
 title
 -----
 Structure from the checkpoint file:  "ANI1ccx_1346_conf1_mol2.chk"
 Charge =  0 Multiplicity = 1

                         Standard orientation:
 ---------------------------------------------------------------------
 Center     Atomic      Atomic             Coordinates (Angstroms)
 Number     Number       Type             X           Y           Z
 ---------------------------------------------------------------------
      1          6           0        2.370171   -0.039645   -0.549119
      2          6           0        1.025970    0.007796    0.156560
      3          6           0        1.286110   -0.010350    1.687090
      4          6           0        0.228091    1.224651   -0.188828
      5          6           0       -1.828890    0.009449    0.074942
      6          6           0        0.218544   -1.220089   -0.209694
      7          1           0       -1.639667   -1.971371    0.011491
      8          1           0       -1.555812    2.023119   -0.140771
      9          1           0        0.362842    0.126680    2.281370
     10          1           0        1.720182   -0.993863    2.019430
     11          1           0        2.089300    0.735471    1.996130
     12          1           0        2.214450   -0.026626   -1.633180
     13          1           0        2.950571   -0.939799   -0.285915
     14          1           0        3.011370    0.837059   -0.312254
     15          7           0       -1.091231    1.151429    0.086536
     16          7           0       -1.094638   -1.155421    0.245956
     17          8           0        0.688528    2.261991   -0.659645
     18          8           0       -3.047230    0.000138   -0.085575
     19          8           0        0.652185   -2.211329   -0.765962
 ---------------------------------------------------------------------

 SCF Done:  E(RHF) =  -565.660347010     A.U. after    2 cycles

 The electronic state is 1-A.
 Alpha  occ. eigenvalues --  -20.59639 -20.58614 -20.58106 -15.71021 -15.70603
 Alpha  occ. eigenvalues --  -11.45098 -11.41608 -11.41211 -11.30804 -11.28462
 Alpha  occ. eigenvalues --  -11.25159  -1.42522  -1.39538  -1.38529  -1.28108
 Alpha  occ. eigenvalues --   -1.22980  -1.13300  -0.96291  -0.95307  -0.91298
 Alpha  occ. eigenvalues --   -0.89909  -0.79215  -0.78373  -0.71671  -0.70541
 Alpha  occ. eigenvalues --   -0.69107  -0.67592  -0.67252  -0.65689  -0.60490
 Alpha  occ. eigenvalues --   -0.60274  -0.57323  -0.56856  -0.56009  -0.54453
 Alpha  occ. eigenvalues --   -0.52183  -0.51707  -0.49479  -0.46889  -0.46489
 Alpha  occ. eigenvalues --   -0.46202
 Alpha virt. eigenvalues --    0.02875   0.04011   0.04169   0.04276   0.06241
 Alpha virt. eigenvalues --    0.06442   0.06716   0.07494   0.08100   0.08968
 Alpha virt. eigenvalues --    0.10171   0.11246   0.11346   0.12468   0.12681

 Mulliken charges:
               1
     1  C    1.284011
     2  C   -2.095560
     3  C    0.809959
     4  C    0.608539
     5  C    0.658401
     6  C    0.634544
     7  H   -0.041545
     8  H   -0.032461
     9  H   -0.070023
    10  H    0.011133
    11  H    0.068356
    12  H   -0.003185
    13  H    0.046555
    14  H    0.018638
    15  N   -0.219649
    16  N   -0.271198
    17  O   -0.487310
    18  O   -0.463446
    19  O   -0.455761
 Sum of Mulliken charges =   0.00000

 Dipole moment (field-independent basis, Debye):
    X=              1.4073    Y=             -0.1796    Z=              2.6280  Tot=              2.9865

 Test job not archived.
 1\1\GINC-SE016\SP\RHF\Aug-CC-pVDZ\C6H8N2O3\OHZDE\08-Apr-2025\0\\#t hf
 aug-cc-pvdz iop(5/13=1,5/36=2,99/5=2) pseudo=read geom=check guess=(re
 ad,tcheck) scf=(maxcycle=1)\\title\\0,1\C,0,2.37017,-0.0396482,-0.5491
 19\C,0,1.02597,0.00779421,0.15656\C,0,1.28611,-0.0103524,1.68709\C,0,0
 .228092,1.22465,-0.188828\C,0,-1.82889,0.00945033,0.0749415\C,0,0.2185
 42,-1.22009,-0.209694\H,0,-1.63967,-1.97137,0.011491\H,0,-1.55581,2.02
 312,-0.140771\H,0,0.362842,0.126679,2.28137\H,0,1.72018,-0.993865,2.01
 943\H,0,2.0893,0.735468,1.99613\H,0,2.21445,-0.0266285,-1.63318\H,0,2.

 Normal termination of Gaussian 16 at Tue Apr  8 19:25:08 2025.
