 Gaussian 16, Revision C.01,

 ----------------------------------------------------------------------
 #t hf aug-cc-pvdz symm=none int=(grid=ultrafine) guess=(read,tcheck) s
 table=(opt,rrhf)
 ----------------------------------------------------------------------
 -----
 title
 -----
 Symbolic Z-matrix:
 Charge =  0 Multiplicity = 1

 SCF Done:  E(RHF) =  -645.329538174     A.U. after   17 cycles
 Normal termination of Gaussian 16 at Tue Apr  8 21:20:01 2025.
 Gaussian 16:  ES64L-G16RevC.01  3-Jul-2019

 ----------------------------------------------------------------------
 #t hf aug-cc-pvdz iop(5/13=1,5/36=2,99/5=2) pseudo=read geom=check gue
 ss=(read,tcheck) scf=(maxcycle=1)
 ----------------------------------------------------------------------
 -----
 title
 -----
 Structure from the checkpoint file:  "ANI1ccx_33_conf1_mol1.chk"
 Charge =  0 Multiplicity = 1

                         Standard orientation:
 ---------------------------------------------------------------------
 Center     Atomic      Atomic             Coordinates (Angstroms)
 Number     Number       Type             X           Y           Z
 ---------------------------------------------------------------------
      1          6           0       -5.006330    0.905029   -0.113798
      2          6           0        4.133180    0.783062    0.124020
      3          6           0        1.144620   -0.667178    0.912318
      4          6           0        1.616590    0.504460    0.298623
      5          6           0        0.632866    1.389709   -0.283572
      6          6           0       -0.211628   -0.995196    0.908921
      7          6           0       -1.134610   -0.085399    0.244560
      8          6           0       -3.288860   -0.713537   -0.607874
      9          6           0       -4.761240   -0.557269   -0.252687
     10          6           0       -0.656688    1.042440   -0.477602
     11          1           0        1.060321    2.325109   -0.545063
     12          1           0        4.268830   -1.860841   -1.339810
     13          1           0        5.445920   -0.316397   -0.866376
     14          1           0        4.819010    1.602258    0.506704
     15          1           0       -0.690922   -1.838830    1.396860
     16          1           0        1.896700   -1.107091    1.491850
     17          1           0       -1.320290    1.764090   -0.982864
     18          1           0       -4.830790   -1.100229    0.692402
     19          1           0       -2.986100   -0.217852   -1.469650
     20          1           0       -5.427760   -1.196189   -0.841172
     21          1           0       -4.302530    1.370620    0.504561
     22          1           0       -5.926040    1.202921    0.351498
     23          1           0       -4.952200    1.130971   -1.147270
     24          1           0       -3.050270   -1.804620   -0.717476
     25          7           0        2.872690    1.027759    0.575769
     26          7           0        4.498990   -0.278960   -0.507849
     27          8           0       -2.472090   -0.413138    0.504956
     28          8           0        3.670460   -1.440891   -0.758341
 ---------------------------------------------------------------------

 SCF Done:  E(RHF) =  -645.526426829     A.U. after    2 cycles

 The electronic state is 1-A.
 Alpha  occ. eigenvalues --  -20.67039 -20.56520 -15.73323 -15.59036 -11.36080
 Alpha  occ. eigenvalues --  -11.28925 -11.26941 -11.25770 -11.23039 -11.22737
 Alpha  occ. eigenvalues --  -11.21838 -11.21804 -11.21491 -11.20073  -1.42247
 Alpha  occ. eigenvalues --   -1.33228  -1.22751  -1.14208  -1.08431  -1.05089
 Alpha  occ. eigenvalues --   -0.99550  -0.96444  -0.91258  -0.84957  -0.82183
 Alpha  occ. eigenvalues --   -0.81494  -0.80089  -0.77339  -0.71464  -0.70257
 Alpha  occ. eigenvalues --   -0.67611  -0.66346  -0.65416  -0.63121  -0.61423
 Alpha  occ. eigenvalues --   -0.61033  -0.59232  -0.58031  -0.57278  -0.55953
 Alpha  occ. eigenvalues --   -0.53276  -0.51876  -0.50964  -0.48879  -0.48065
 Alpha  occ. eigenvalues --   -0.46477  -0.45905  -0.42873  -0.40126  -0.34190
 Alpha  occ. eigenvalues --   -0.32436  -0.25827
 Alpha virt. eigenvalues --    0.01304   0.03388   0.04163   0.04805   0.05000
 Alpha virt. eigenvalues --    0.05443   0.05934   0.06265   0.07265   0.07677
 Alpha virt. eigenvalues --    0.08107   0.08240   0.09070   0.09981   0.10206

 Mulliken charges:
               1
     1  C    0.702911
     2  C    0.703928
     3  C    1.413304
     4  C   -0.737711
     5  C    1.324161
     6  C    0.148896
     7  C    0.436669
     8  C    0.623104
     9  C    0.122642
    10  C    0.321846
    11  H   -0.622266
    12  H    0.178097
    13  H   -0.002384
    14  H   -0.163054
    15  H   -0.544869
    16  H   -0.635279
    17  H   -0.510977
    18  H   -0.086974
    19  H   -0.338106
    20  H   -0.166589
    21  H   -0.110933
    22  H   -0.160188
    23  H    0.003396
    24  H   -0.122106
    25  N   -0.749889
    26  N    0.162242
    27  O   -0.766352
    28  O   -0.423516
 Sum of Mulliken charges =  -0.00000

 Dipole moment (field-independent basis, Debye):
    X=              5.6412    Y=             -1.5129    Z=             -3.5709  Tot=              6.8457

 Test job not archived.
 1\1\GINC-SE332\SP\RHF\Aug-CC-pVDZ\C10H14N2O2\OHZDE\08-Apr-2025\0\\#t h
 f aug-cc-pvdz iop(5/13=1,5/36=2,99/5=2) pseudo=read geom=check guess=(
 read,tcheck) scf=(maxcycle=1)\\title\\0,1\C,0,-5.00633,0.905028,-0.113
 798\C,0,4.13318,0.783063,0.12402\C,0,1.14462,-0.667177,0.912318\C,0,1.
 61659,0.504461,0.298623\C,0,0.632866,1.38971,-0.283572\C,0,-0.211628,-
 0.995196,0.908921\C,0,-1.13461,-0.0853983,0.24456\C,0,-3.28886,-0.7135
 37,-0.607874\C,0,-4.76124,-0.55727,-0.252687\C,0,-0.656688,1.04244,-0.
 477602\H,0,1.06032,2.32511,-0.545063\H,0,4.26883,-1.86084,-1.33981\H,0

 Normal termination of Gaussian 16 at Tue Apr  8 21:20:23 2025.
