 Gaussian 16, Revision C.01,

 ----------------------------------------------------------------------
 #t hf aug-cc-pvdz symm=none int=(grid=ultrafine) guess=(read,tcheck) s
 table=(opt,rrhf)
 ----------------------------------------------------------------------
 -----
 title
 -----
 Symbolic Z-matrix:
 Charge =  0 Multiplicity = 1

 SCF Done:  E(RHF) =  -563.414616473     A.U. after   15 cycles
 Normal termination of Gaussian 16 at Tue Apr  8 22:04:39 2025.
 Gaussian 16:  ES64L-G16RevC.01  3-Jul-2019

 ----------------------------------------------------------------------
 #t hf aug-cc-pvdz iop(5/13=1,5/36=2,99/5=2) pseudo=read geom=check gue
 ss=(read,tcheck) scf=(maxcycle=1)
 ----------------------------------------------------------------------
 -----
 title
 -----
 Structure from the checkpoint file:  "ANI1ccx_918_conf4_mol1.chk"
 Charge =  0 Multiplicity = 1

                         Standard orientation:
 ---------------------------------------------------------------------
 Center     Atomic      Atomic             Coordinates (Angstroms)
 Number     Number       Type             X           Y           Z
 ---------------------------------------------------------------------
      1          6           0        1.132969   -0.126503   -0.009603
      2          6           0       -1.014561   -1.186420   -0.078723
      3          6           0       -1.529741    0.087043    0.441697
      4          6           0       -0.811647    1.317970   -0.041289
      5          1           0        3.156879   -0.181388   -0.192198
      6          1           0        2.390659    0.489117   -1.535530
      7          1           0        1.706839    0.729372    1.755650
      8          1           0        0.714774   -0.575983    1.944880
      9          1           0       -2.583301    0.166744    0.191264
     10          1           0       -1.435701    0.124123    1.529320
     11          7           0        2.329009   -0.159125   -0.767160
     12          7           0        1.467089   -0.192196    1.403710
     13          8           0        0.351062   -1.217270   -0.371148
     14          8           0       -1.689741   -2.148050   -0.293216
     15          8           0       -1.330850    2.406260   -0.245925
     16          8           0        0.521410    1.103400   -0.342426
 ---------------------------------------------------------------------

 SCF Done:  E(RHF) =  -563.590144055     A.U. after    2 cycles

 The electronic state is 1-A.
 Alpha  occ. eigenvalues --  -20.65146 -20.64903 -20.59914 -20.59833 -15.65646
 Alpha  occ. eigenvalues --  -15.63151 -11.46406 -11.44311 -11.43738 -11.31068
 Alpha  occ. eigenvalues --   -1.48698  -1.43019  -1.38623  -1.34799  -1.22114
 Alpha  occ. eigenvalues --   -1.15076  -1.10028  -0.94478  -0.90377  -0.80636
 Alpha  occ. eigenvalues --   -0.78414  -0.76925  -0.74731  -0.71108  -0.69246
 Alpha  occ. eigenvalues --   -0.68502  -0.67747  -0.64469  -0.64258  -0.62209
 Alpha  occ. eigenvalues --   -0.59337  -0.57739  -0.53215  -0.52454  -0.50929
 Alpha  occ. eigenvalues --   -0.49821  -0.45649  -0.43105
 Alpha virt. eigenvalues --    0.02193   0.03346   0.04298   0.05292   0.05779
 Alpha virt. eigenvalues --    0.06785   0.09460   0.09619   0.10244   0.10663
 Alpha virt. eigenvalues --    0.11706   0.12276   0.12824   0.13331   0.13850

 Mulliken charges:
               1
     1  C    1.458079
     2  C    0.612564
     3  C    0.059043
     4  C    0.547857
     5  H    0.033491
     6  H    0.023764
     7  H    0.034750
     8  H   -0.001038
     9  H   -0.014157
    10  H    0.244421
    11  N   -0.242539
    12  N   -0.373575
    13  O   -0.725174
    14  O   -0.444249
    15  O   -0.500550
    16  O   -0.712689
 Sum of Mulliken charges =  -0.00000

 Dipole moment (field-independent basis, Debye):
    X=              1.6429    Y=              1.3411    Z=              3.2008  Tot=              3.8396

 Test job not archived.
 1\1\GINC-SE334\SP\RHF\Aug-CC-pVDZ\C4H6N2O4\OHZDE\08-Apr-2025\0\\#t hf
 aug-cc-pvdz iop(5/13=1,5/36=2,99/5=2) pseudo=read geom=check guess=(re
 ad,tcheck) scf=(maxcycle=1)\\title\\0,1\C,0,1.13297,-0.126503,-0.00960
 334\C,0,-1.01456,-1.18642,-0.0787225\C,0,-1.52974,0.0870429,0.441697\C
 ,0,-0.811647,1.31797,-0.0412888\H,0,3.15688,-0.181387,-0.192198\H,0,2.
 39066,0.489118,-1.53553\H,0,1.70684,0.729373,1.75565\H,0,0.714775,-0.5
 75983,1.94488\H,0,-2.5833,0.166743,0.191264\H,0,-1.4357,0.124123,1.529
 32\N,0,2.32901,-0.159124,-0.76716\N,0,1.46709,-0.192196,1.40371\O,0,0.

 Normal termination of Gaussian 16 at Tue Apr  8 22:04:47 2025.
