 Gaussian 16, Revision C.01,

 ----------------------------------------------------------------------
 #t hf aug-cc-pvdz symm=none int=(grid=ultrafine) guess=(read,tcheck) s
 table=(opt,rrhf)
 ----------------------------------------------------------------------
 -----
 title
 -----
 Symbolic Z-matrix:
 Charge =  0 Multiplicity = 1

 SCF Done:  E(RHF) =  -559.965193253     A.U. after   14 cycles
 Normal termination of Gaussian 16 at Tue Apr  8 21:42:23 2025.
 Gaussian 16:  ES64L-G16RevC.01  3-Jul-2019

 ----------------------------------------------------------------------
 #t hf aug-cc-pvdz iop(5/13=1,5/36=2,99/5=2) pseudo=read geom=check gue
 ss=(read,tcheck) scf=(maxcycle=1)
 ----------------------------------------------------------------------
 -----
 title
 -----
 Structure from the checkpoint file:  "ANI1ccx_485_conf4_mol1.chk"
 Charge =  0 Multiplicity = 1

                         Standard orientation:
 ---------------------------------------------------------------------
 Center     Atomic      Atomic             Coordinates (Angstroms)
 Number     Number       Type             X           Y           Z
 ---------------------------------------------------------------------
      1          6           0       -1.051782   -0.709542   -0.201085
      2          6           0        1.139768   -0.620289    0.232956
      3          1           0        1.269584    2.448536   -0.320635
      4          1           0       -2.444348    1.273593    1.000840
      5          7           0        0.631570    0.626000    0.256669
      6          7           0       -0.684148    0.633745   -0.123774
      7          8           0        1.451622    1.385066   -0.558823
      8          8           0       -1.527048    1.649081    0.306861
      9          8           0       -2.186233   -1.211858   -0.137108
     10          8           0        0.085183   -1.520812   -0.173843
     11          8           0        2.303338   -0.871647    0.337701
 ---------------------------------------------------------------------

 SCF Done:  E(RHF) =  -560.134799001     A.U. after    2 cycles

 The electronic state is 1-A.
 Alpha  occ. eigenvalues --  -20.70383 -20.70159 -20.68028 -20.61444 -20.60411
 Alpha  occ. eigenvalues --  -15.80077 -15.79408 -11.48869 -11.48178  -1.53680
 Alpha  occ. eigenvalues --   -1.44457  -1.43410  -1.38840  -1.35761  -1.25163
 Alpha  occ. eigenvalues --   -1.09008  -0.93143  -0.89624  -0.81330  -0.79321
 Alpha  occ. eigenvalues --   -0.75139  -0.72229  -0.70167  -0.69643  -0.68558
 Alpha  occ. eigenvalues --   -0.66867  -0.62925  -0.59781  -0.59468  -0.55092
 Alpha  occ. eigenvalues --   -0.54451  -0.52649  -0.49730  -0.42467
 Alpha virt. eigenvalues --    0.01388   0.02876   0.06851   0.07563   0.09777
 Alpha virt. eigenvalues --    0.09814   0.10481   0.11100   0.12042   0.12255
 Alpha virt. eigenvalues --    0.12487   0.14403   0.15049   0.15792   0.16311

 Mulliken charges:
               1
     1  C    0.901881
     2  C    0.870672
     3  H    0.358642
     4  H    0.421461
     5  N   -0.097808
     6  N    0.191472
     7  O   -0.556148
     8  O   -0.713932
     9  O   -0.463164
    10  O   -0.572037
    11  O   -0.341039
 Sum of Mulliken charges =  -0.00000

 Dipole moment (field-independent basis, Debye):
    X=             -1.6126    Y=              4.4458    Z=              1.6052  Tot=              4.9942

 Test job not archived.
 1\1\GINC-SE221\SP\RHF\Aug-CC-pVDZ\C2H2N2O5\OHZDE\08-Apr-2025\0\\#t hf
 aug-cc-pvdz iop(5/13=1,5/36=2,99/5=2) pseudo=read geom=check guess=(re
 ad,tcheck) scf=(maxcycle=1)\\title\\0,1\C,0,-1.05178,-0.709542,-0.2010
 85\C,0,1.13977,-0.620285,0.232956\H,0,1.26958,2.44854,-0.320635\H,0,-2
 .44435,1.27359,1.00084\N,0,0.631569,0.626003,0.256669\N,0,-0.684149,0.
 633745,-0.123774\O,0,1.45162,1.38507,-0.558823\O,0,-1.52705,1.64908,0.
 306861\O,0,-2.18623,-1.21186,-0.137108\O,0,0.0851871,-1.52081,-0.17384
 3\O,0,2.30334,-0.871641,0.337701\\Version=ES64L-G16RevC.01\State=1-A\H

 Normal termination of Gaussian 16 at Tue Apr  8 21:42:28 2025.
