 Gaussian 16, Revision C.01,

 ----------------------------------------------------------------------
 #t hf aug-cc-pvdz symm=none int=(grid=ultrafine) guess=(read,tcheck) s
 table=(opt,rrhf)
 ----------------------------------------------------------------------
 -----
 title
 -----
 Symbolic Z-matrix:
 Charge =  0 Multiplicity = 1

 SCF Done:  E(RHF) =  -304.170615564     A.U. after   11 cycles
 Normal termination of Gaussian 16 at Tue Apr  8 21:12:23 2025.
 Gaussian 16:  ES64L-G16RevC.01  3-Jul-2019

 ----------------------------------------------------------------------
 #t hf aug-cc-pvdz iop(5/13=1,5/36=2,99/5=2) pseudo=read geom=check gue
 ss=(read,tcheck) scf=(maxcycle=1)
 ----------------------------------------------------------------------
 -----
 title
 -----
 Structure from the checkpoint file:  "ANI1ccx_1904_conf30_mol1.chk"
 Charge =  0 Multiplicity = 1

                         Standard orientation:
 ---------------------------------------------------------------------
 Center     Atomic      Atomic             Coordinates (Angstroms)
 Number     Number       Type             X           Y           Z
 ---------------------------------------------------------------------
      1          1           0       -1.007827    0.782916   -0.239843
      2          1           0       -2.524628    0.681910   -0.513931
      3          1           0        0.175265   -0.740936   -1.488449
      4          1           0        0.923545   -1.112475   -0.218571
      5          1           0        1.134813    0.794018   -0.242286
      6          1           0        1.124469    2.279815    0.166568
      7          1           0        0.165869   -0.043414    1.585791
      8          1           0       -0.809862   -0.948674    0.776680
      9          8           0       -1.673250    0.142069   -0.568171
     10          8           0        1.095046   -0.791470   -1.139989
     11          8           0        0.705572    1.431146    0.360174
     12          8           0       -0.025072   -0.993390    1.369741
 ---------------------------------------------------------------------

 SCF Done:  E(RHF) =  -304.270490921     A.U. after    2 cycles

 The electronic state is 1-A.
 Alpha  occ. eigenvalues --  -20.60400 -20.59873 -20.57206 -20.56967  -1.34268
 Alpha  occ. eigenvalues --   -1.32213  -1.30227  -1.28864  -0.76698  -0.74174
 Alpha  occ. eigenvalues --   -0.71644  -0.70300  -0.63801  -0.63382  -0.60819
 Alpha  occ. eigenvalues --   -0.58385  -0.55240  -0.54230  -0.52303  -0.50880
 Alpha virt. eigenvalues --    0.02443   0.04252   0.06479   0.06847   0.07931
 Alpha virt. eigenvalues --    0.08249   0.08895   0.09687   0.16831   0.18431
 Alpha virt. eigenvalues --    0.18523   0.20143   0.22215   0.22940   0.24331

 Mulliken charges:
               1
     1  H    0.203144
     2  H    0.254336
     3  H    0.225973
     4  H    0.244184
     5  H    0.234159
     6  H    0.227525
     7  H    0.248239
     8  H    0.245846
     9  O   -0.460890
    10  O   -0.477458
    11  O   -0.475704
    12  O   -0.469353
 Sum of Mulliken charges =  -0.00000

 Dipole moment (field-independent basis, Debye):
    X=             -1.7984    Y=              3.8903    Z=             -0.4174  Tot=              4.3062

 Test job not archived.
 1\1\GINC-SE072\SP\RHF\Aug-CC-pVDZ\H8O4\OHZDE\08-Apr-2025\0\\#t hf aug-
 cc-pvdz iop(5/13=1,5/36=2,99/5=2) pseudo=read geom=check guess=(read,t
 check) scf=(maxcycle=1)\\title\\0,1\H,0,-1.00783,0.782912,-0.239844\H,
 0,-2.52463,0.681899,-0.513932\H,0,0.175269,-0.740935,-1.48845\H,0,0.92
 3551,-1.11247,-0.218572\H,0,1.13481,0.794023,-0.242287\H,0,1.12446,2.2
 7982,0.166567\H,0,0.16587,-0.0434124,1.58579\H,0,-0.809857,-0.948677,0
 .776679\O,0,-1.67325,0.142062,-0.568172\O,0,1.09505,-0.791465,-1.13999
 \O,0,0.705566,1.43115,0.360173\O,0,-0.025067,-0.99339,1.36974\\Version

 Normal termination of Gaussian 16 at Tue Apr  8 21:12:25 2025.
