 Gaussian 16, Revision C.01,

 ----------------------------------------------------------------------
 #t hf aug-cc-pvdz symm=none int=(grid=ultrafine) guess=(read,tcheck) s
 table=(opt,rrhf)
 ----------------------------------------------------------------------
 -----
 title
 -----
 Symbolic Z-matrix:
 Charge =  0 Multiplicity = 1

 SCF Done:  E(RHF) =  -459.996616027     A.U. after   12 cycles

 1\1\GINC-SE458\Stability\RHF\Aug-CC-pVDZ\C6H14O3\OHZDE\08-Apr-2025\0\\
 #t hf aug-cc-pvdz symm=none int=(grid=ultrafine) guess=(read,tcheck) s
 table=(opt,rrhf)\\title\\0,1\C,0,2.56741,0.946695,1.06526\C,0,2.35303,
 -0.422316,0.448067\C,0,1.13563,-0.301331,-0.512878\C,0,-1.12224,0.3843
 91,-0.503154\C,0,-2.31261,0.30722,0.418499\C,0,-2.59853,-1.09459,0.943
 422\H,0,-2.79045,-1.7927,0.129177\H,0,-3.47165,-1.14126,1.6229\H,0,-1.
 76397,-1.57774,1.52624\H,0,-2.26732,1.06934,1.23099\H,0,-3.18115,0.770
 647,-0.0652043\H,0,-1.03308,2.3215,-0.247173\H,0,-1.2904,-0.276895,-1.

 Normal termination of Gaussian 16 at Tue Apr  8 19:18:47 2025.
 Gaussian 16:  ES64L-G16RevC.01  3-Jul-2019

 ----------------------------------------------------------------------
 #t hf aug-cc-pvdz iop(5/13=1,5/36=2,99/5=2) pseudo=read geom=check gue
 ss=(read,tcheck) scf=(maxcycle=1)
 ----------------------------------------------------------------------
 -----
 title
 -----
 Structure from the checkpoint file:  "ANI1ccx_1253_conf1_mol1.chk"
 Charge =  0 Multiplicity = 1

                         Standard orientation:
 ---------------------------------------------------------------------
 Center     Atomic      Atomic             Coordinates (Angstroms)
 Number     Number       Type             X           Y           Z
 ---------------------------------------------------------------------
      1          6           0        2.567411    0.946694    1.065260
      2          6           0        2.353031   -0.422317    0.448067
      3          6           0        1.135631   -0.301332   -0.512878
      4          6           0       -1.122239    0.384390   -0.503154
      5          6           0       -2.312609    0.307219    0.418499
      6          6           0       -2.598529   -1.094591    0.943422
      7          1           0       -2.790449   -1.792701    0.129177
      8          1           0       -3.471649   -1.141261    1.622900
      9          1           0       -1.763969   -1.577741    1.526240
     10          1           0       -2.267319    1.069339    1.230990
     11          1           0       -3.181149    0.770646   -0.065204
     12          1           0       -1.033079    2.321499   -0.247173
     13          1           0       -1.290399   -0.276896   -1.351720
     14          1           0        1.330391    0.569025   -1.155450
     15          1           0        2.173031   -1.278801    1.133060
     16          1           0        3.235501   -0.694405   -0.127704
     17          1           0        1.736971    1.183039    1.742610
     18          1           0        3.567701    1.019869    1.559430
     19          1           0        2.637681    1.629589    0.261419
     20          1           0        1.068851   -2.234271   -0.701311
     21          8           0       -0.014943   -0.062574    0.223050
     22          8           0        0.978557   -1.471521   -1.272630
     23          8           0       -0.974651    1.723179   -1.039490
 ---------------------------------------------------------------------

 SCF Done:  E(RHF) =  -460.143380786     A.U. after    2 cycles

 The electronic state is 1-A.
 Alpha  occ. eigenvalues --  -20.58276 -20.57927 -20.57437 -11.34398 -11.34088
 Alpha  occ. eigenvalues --  -11.23904 -11.23741 -11.23278 -11.22605  -1.39468
 Alpha  occ. eigenvalues --   -1.32770  -1.28794  -1.06390  -1.03410  -0.93389
 Alpha  occ. eigenvalues --   -0.88560  -0.83181  -0.82652  -0.74933  -0.71075
 Alpha  occ. eigenvalues --   -0.66812  -0.65287  -0.62843  -0.62380  -0.60876
 Alpha  occ. eigenvalues --   -0.58285  -0.56542  -0.55103  -0.53404  -0.51928
 Alpha  occ. eigenvalues --   -0.50875  -0.50219  -0.49579  -0.48225  -0.47332
 Alpha  occ. eigenvalues --   -0.46488  -0.44755
 Alpha virt. eigenvalues --    0.03349   0.03996   0.04142   0.04959   0.05379
 Alpha virt. eigenvalues --    0.05798   0.06179   0.06853   0.07405   0.08330
 Alpha virt. eigenvalues --    0.08760   0.09145   0.09159   0.09710   0.13827

 Mulliken charges:
               1
     1  C    0.419256
     2  C    0.295568
     3  C    0.584800
     4  C    0.747276
     5  C    0.299916
     6  C    0.382072
     7  H   -0.101184
     8  H   -0.102576
     9  H   -0.006050
    10  H   -0.196145
    11  H   -0.090098
    12  H    0.199541
    13  H   -0.231190
    14  H   -0.232637
    15  H   -0.108850
    16  H   -0.089806
    17  H    0.021882
    18  H   -0.070144
    19  H   -0.110035
    20  H    0.155555
    21  O   -0.633886
    22  O   -0.529067
    23  O   -0.604200
 Sum of Mulliken charges =  -0.00000

 Dipole moment (field-independent basis, Debye):
    X=              0.0983    Y=             -0.3180    Z=              2.2273  Tot=              2.2520

 Test job not archived.
 1\1\GINC-SE458\SP\RHF\Aug-CC-pVDZ\C6H14O3\OHZDE\08-Apr-2025\0\\#t hf a
 ug-cc-pvdz iop(5/13=1,5/36=2,99/5=2) pseudo=read geom=check guess=(rea
 d,tcheck) scf=(maxcycle=1)\\title\\0,1\C,0,2.56741,0.946695,1.06526\C,
 0,2.35303,-0.422316,0.448067\C,0,1.13563,-0.301331,-0.512878\C,0,-1.12
 224,0.384391,-0.503154\C,0,-2.31261,0.30722,0.418499\C,0,-2.59853,-1.0
 9459,0.943422\H,0,-2.79045,-1.7927,0.129177\H,0,-3.47165,-1.14126,1.62
 29\H,0,-1.76397,-1.57774,1.52624\H,0,-2.26732,1.06934,1.23099\H,0,-3.1
 8115,0.770647,-0.0652043\H,0,-1.03308,2.3215,-0.247173\H,0,-1.2904,-0.

 Normal termination of Gaussian 16 at Tue Apr  8 19:18:59 2025.
