 Gaussian 16, Revision C.01,

 ----------------------------------------------------------------------
 #t hf aug-cc-pvdz symm=none int=(grid=ultrafine) guess=(read,tcheck) s
 table=(opt,rrhf)
 ----------------------------------------------------------------------
 -----
 title
 -----
 Symbolic Z-matrix:
 Charge =  0 Multiplicity = 1

 SCF Done:  E(RHF) =  -853.783543434     A.U. after   14 cycles
 Normal termination of Gaussian 16 at Tue Apr  8 22:34:19 2025.
 Gaussian 16:  ES64L-G16RevC.01  3-Jul-2019

 ----------------------------------------------------------------------
 #t hf aug-cc-pvdz iop(5/13=1,5/36=2,99/5=2) pseudo=read geom=check gue
 ss=(read,tcheck) scf=(maxcycle=1)
 ----------------------------------------------------------------------
 -----
 title
 -----
 Structure from the checkpoint file:  "ANI1ccx_97_conf9_mol1.chk"
 Charge =  0 Multiplicity = 1

                         Standard orientation:
 ---------------------------------------------------------------------
 Center     Atomic      Atomic             Coordinates (Angstroms)
 Number     Number       Type             X           Y           Z
 ---------------------------------------------------------------------
      1          6           0       -1.116599    1.721360    0.520583
      2          6           0        2.500540   -0.960077    1.013980
      3          6           0        2.789780    0.200767   -1.228960
      4          6           0        2.416100    0.315144    0.176299
      5          6           0       -4.441050   -1.096578   -0.654602
      6          6           0        3.527409   -1.936861    0.788666
      7          6           0       -2.760620   -0.043236    1.020440
      8          6           0       -2.468290    1.207831    0.257464
      9          6           0       -0.160487    0.697589   -0.079557
     10          6           0       -4.140020   -0.591464    0.783703
     11          1           0       -3.679171   -2.988339   -0.898981
     12          1           0        1.151170   -0.728571   -1.669340
     13          1           0        3.379239   -2.821661    1.469800
     14          1           0        3.267679   -2.354781   -0.164708
     15          1           0        4.564140   -1.557131    0.783619
     16          1           0        2.391150   -1.291501    2.904210
     17          1           0        1.574530   -1.432600    0.706561
     18          1           0        3.052960    1.026319    0.615076
     19          1           0        1.174650    1.398210    1.236550
     20          1           0       -2.517731   -1.751519   -1.015530
     21          1           0       -4.925920    0.094514    1.096950
     22          1           0       -5.383821   -1.673898   -0.775964
     23          1           0       -0.895624    2.974110   -1.130560
     24          1           0       -4.596810   -0.293831   -1.304940
     25          1           0       -0.942215    1.769760    1.663450
     26          1           0       -2.547280    1.062741   -0.862429
     27          1           0        0.068305    3.294310    0.151009
     28          1           0       -1.985260   -0.816898    0.772823
     29          1           0       -2.685980    0.195922    2.070340
     30          1           0       -4.264160   -1.533429    1.431990
     31          1           0       -3.141919    1.992701    0.534674
     32          7           0       -0.877106    3.032690   -0.101634
     33          7           0       -3.460181   -2.032669   -1.174620
     34          7           0        1.132360    0.934106    0.404365
     35          8           0        2.485670   -0.477861    2.361230
     36          8           0       -0.520183   -0.181277   -0.813766
     37          8           0        3.705350    0.748464   -1.767530
     38          8           0        2.141160   -0.738099   -1.917370
 ---------------------------------------------------------------------

 SCF Done:  E(RHF) =  -854.046727872     A.U. after    2 cycles

 The electronic state is 1-A.
 Alpha  occ. eigenvalues --  -20.61210 -20.60406 -20.58912 -20.56630 -15.66987
 Alpha  occ. eigenvalues --  -15.63651 -15.58964 -11.39816 -11.39583 -11.31520
 Alpha  occ. eigenvalues --  -11.30563 -11.29990 -11.24911 -11.24577 -11.23360
 Alpha  occ. eigenvalues --  -11.23299 -11.23145  -1.42786  -1.40742  -1.35458
 Alpha  occ. eigenvalues --   -1.32535  -1.24811  -1.18807  -1.14373  -1.08620
 Alpha  occ. eigenvalues --   -1.07698  -1.01625  -0.98875  -0.91230  -0.87908
 Alpha  occ. eigenvalues --   -0.86628  -0.82781  -0.81573  -0.78680  -0.76322
 Alpha  occ. eigenvalues --   -0.73619  -0.73165  -0.69961  -0.69492  -0.67962
 Alpha  occ. eigenvalues --   -0.67360  -0.67001  -0.65766  -0.64663  -0.63554
 Alpha  occ. eigenvalues --   -0.63140  -0.61248  -0.60240  -0.59301  -0.58022
 Alpha  occ. eigenvalues --   -0.57386  -0.56825  -0.54599  -0.53975  -0.53150
 Alpha  occ. eigenvalues --   -0.52368  -0.51043  -0.50721  -0.49901  -0.48788
 Alpha  occ. eigenvalues --   -0.48532  -0.48003  -0.47200  -0.46032  -0.42920
 Alpha  occ. eigenvalues --   -0.40380  -0.36364
 Alpha virt. eigenvalues --    0.02054   0.03070   0.03370   0.03779   0.04465
 Alpha virt. eigenvalues --    0.04727   0.05218   0.05666   0.05989   0.06702
 Alpha virt. eigenvalues --    0.06774   0.07585   0.08036   0.08375   0.08642

 Mulliken charges:
               1
     1  C   -0.149752
     2  C    0.219750
     3  C    0.513602
     4  C    0.495560
     5  C    1.087646
     6  C    0.492868
     7  C    0.295966
     8  C    0.623622
     9  C    0.030108
    10  C    0.161072
    11  H    0.019111
    12  H    0.326149
    13  H    0.035401
    14  H    0.048001
    15  H    0.033234
    16  H    0.205373
    17  H   -0.130125
    18  H   -0.390515
    19  H   -0.069362
    20  H   -0.051260
    21  H   -0.153211
    22  H   -0.130344
    23  H    0.053062
    24  H   -0.389900
    25  H   -0.030777
    26  H    0.001079
    27  H    0.062673
    28  H   -0.148086
    29  H   -0.122062
    30  H    0.119695
    31  H   -0.109622
    32  N   -0.267942
    33  N   -0.353524
    34  N   -0.104052
    35  O   -0.718173
    36  O   -0.438722
    37  O   -0.489747
    38  O   -0.576798
 Sum of Mulliken charges =  -0.00000

 Dipole moment (field-independent basis, Debye):
    X=             -1.4467    Y=             -1.0370    Z=              5.7232  Tot=              5.9936

 Test job not archived.
 1\1\GINC-SE195\SP\RHF\Aug-CC-pVDZ\C10H21N3O4\OHZDE\08-Apr-2025\0\\#t h
 f aug-cc-pvdz iop(5/13=1,5/36=2,99/5=2) pseudo=read geom=check guess=(
 read,tcheck) scf=(maxcycle=1)\\title\\0,1\C,0,-1.1166,1.72136,0.520583
 \C,0,2.50054,-0.960076,1.01398\C,0,2.78978,0.200768,-1.22896\C,0,2.416
 1,0.315145,0.176299\C,0,-4.44105,-1.09658,-0.654602\C,0,3.52741,-1.936
 86,0.788666\C,0,-2.76062,-0.0432367,1.02044\C,0,-2.46829,1.20783,0.257
 464\C,0,-0.160487,0.697589,-0.0795576\C,0,-4.14002,-0.591465,0.783703\
 H,0,-3.67917,-2.98834,-0.898981\H,0,1.15117,-0.728571,-1.66934\H,0,3.3

 Normal termination of Gaussian 16 at Tue Apr  8 22:35:24 2025.
