 Gaussian 16, Revision C.01,

 ----------------------------------------------------------------------
 #t hf aug-cc-pvdz symm=none int=(grid=ultrafine) guess=(read,tcheck) s
 table=(opt,rrhf)
 ----------------------------------------------------------------------
 -----
 title
 -----
 Symbolic Z-matrix:
 Charge =  0 Multiplicity = 1

 SCF Done:  E(RHF) =  -810.423079739     A.U. after   14 cycles
 Normal termination of Gaussian 16 at Tue Apr  8 19:36:39 2025.
 Gaussian 16:  ES64L-G16RevC.01  3-Jul-2019

 ----------------------------------------------------------------------
 #t hf aug-cc-pvdz iop(5/13=1,5/36=2,99/5=2) pseudo=read geom=check gue
 ss=(read,tcheck) scf=(maxcycle=1)
 ----------------------------------------------------------------------
 -----
 title
 -----
 Structure from the checkpoint file:  "ANI1ccx_1427_conf11_mol1.chk"
 Charge =  0 Multiplicity = 1

                         Standard orientation:
 ---------------------------------------------------------------------
 Center     Atomic      Atomic             Coordinates (Angstroms)
 Number     Number       Type             X           Y           Z
 ---------------------------------------------------------------------
      1          6           0       -2.194891   -0.763675   -0.542993
      2          6           0       -1.141071    0.354860   -0.137361
      3          6           0       -3.450071   -0.492559    0.343472
      4          6           0        1.208829    0.574817    0.238200
      5          6           0        1.575238    2.026412   -0.011019
      6          6           0        2.397619   -0.279110   -0.110435
      7          6           0        2.050530   -1.659988    0.018351
      8          1           0       -0.250076    2.472611    0.489711
      9          1           0        3.068370   -1.832858    1.745150
     10          1           0        2.277861   -3.348878    1.094590
     11          1           0        2.712449   -0.069077   -1.179630
     12          1           0        3.222439   -0.099004    0.560233
     13          1           0        0.850961    0.409969    1.215970
     14          1           0        0.277955   -0.502771   -1.301760
     15          1           0       -3.061752    1.275689    0.209592
     16          1           0       -3.196691   -0.536145    1.393070
     17          1           0       -4.159780   -1.269721    0.022343
     18          1           0       -2.492871   -0.602833   -1.656140
     19          1           0       -1.672490   -2.298940    0.719814
     20          1           0       -0.744317   -2.221740   -0.759711
     21          7           0       -1.699740   -2.116550   -0.283421
     22          7           0        0.055540    0.292607   -0.669498
     23          7           0        2.559710   -2.343328    1.003350
     24          8           0       -1.313471    1.056310    0.864122
     25          8           0       -3.864761    0.827793    0.061689
     26          8           0        2.606318    2.397972   -0.437026
     27          8           0        1.254280   -2.239869   -0.794523
     28          8           0        0.577919    2.861551    0.093794
 ---------------------------------------------------------------------

 SCF Done:  E(RHF) =  -810.672376673     A.U. after    2 cycles

 The electronic state is 1-A.
 Alpha  occ. eigenvalues --  -20.60923 -20.58000 -20.56393 -20.56340 -20.55618
 Alpha  occ. eigenvalues --  -15.70715 -15.68226 -15.62933 -11.40258 -11.39686
 Alpha  occ. eigenvalues --  -11.39261 -11.33300 -11.30672 -11.29026 -11.28990
 Alpha  occ. eigenvalues --   -1.44127  -1.40200  -1.36986  -1.34006  -1.32909
 Alpha  occ. eigenvalues --   -1.24730  -1.23164  -1.16489  -1.10599  -0.99020
 Alpha  occ. eigenvalues --   -0.96556  -0.87774  -0.85226  -0.84001  -0.82078
 Alpha  occ. eigenvalues --   -0.78319  -0.76687  -0.74077  -0.73276  -0.70766
 Alpha  occ. eigenvalues --   -0.70412  -0.68660  -0.66199  -0.65633  -0.65072
 Alpha  occ. eigenvalues --   -0.63787  -0.62834  -0.61321  -0.60449  -0.59621
 Alpha  occ. eigenvalues --   -0.57857  -0.57593  -0.55404  -0.54430  -0.51857
 Alpha  occ. eigenvalues --   -0.50095  -0.49569  -0.48842  -0.48140  -0.46215
 Alpha  occ. eigenvalues --   -0.45127  -0.43342  -0.39714
 Alpha virt. eigenvalues --    0.00977   0.03104   0.03384   0.04219   0.05152
 Alpha virt. eigenvalues --    0.05465   0.06191   0.06679   0.07518   0.07688
 Alpha virt. eigenvalues --    0.08261   0.08870   0.09393   0.10187   0.11323

 Mulliken charges:
               1
     1  C   -0.162689
     2  C    0.249613
     3  C    1.084215
     4  C    0.258578
     5  C    0.672361
     6  C    0.614094
     7  C    0.875858
     8  H    0.250787
     9  H    0.090232
    10  H    0.065884
    11  H    0.227457
    12  H   -0.172659
    13  H   -0.363945
    14  H    0.106830
    15  H    0.152255
    16  H   -0.156744
    17  H   -0.017390
    18  H    0.042875
    19  H    0.035344
    20  H    0.149191
    21  N   -0.333901
    22  N   -0.493917
    23  N   -0.273925
    24  O   -0.768807
    25  O   -0.474351
    26  O   -0.405269
    27  O   -0.780663
    28  O   -0.471315
 Sum of Mulliken charges =  -0.00000

 Dipole moment (field-independent basis, Debye):
    X=              4.2337    Y=             -5.6396    Z=              3.7724  Tot=              7.9975

 Test job not archived.
 1\1\GINC-SE322\SP\RHF\Aug-CC-pVDZ\C7H13N3O5\OHZDE\08-Apr-2025\0\\#t hf
  aug-cc-pvdz iop(5/13=1,5/36=2,99/5=2) pseudo=read geom=check guess=(r
 ead,tcheck) scf=(maxcycle=1)\\title\\0,1\C,0,-2.19489,-0.763675,-0.542
 993\C,0,-1.14107,0.35486,-0.137361\C,0,-3.45007,-0.492558,0.343472\C,0
 ,1.20883,0.574816,0.2382\C,0,1.57524,2.02641,-0.0110197\C,0,2.39762,-0
 .279112,-0.110435\C,0,2.05053,-1.65999,0.0183509\H,0,-0.250074,2.47261
 ,0.489711\H,0,3.06837,-1.83286,1.74515\H,0,2.27786,-3.34888,1.09459\H,
 0,2.71245,-0.0690786,-1.17963\H,0,3.22244,-0.0990059,0.560233\H,0,0.85

 Normal termination of Gaussian 16 at Tue Apr  8 19:37:13 2025.
