 Gaussian 16, Revision C.01,

 ----------------------------------------------------------------------
 #t hf aug-cc-pvdz symm=none int=(grid=ultrafine) guess=(read,tcheck) s
 table=(opt,rrhf)
 ----------------------------------------------------------------------
 -----
 title
 -----
 Symbolic Z-matrix:
 Charge =  0 Multiplicity = 1

 SCF Done:  E(RHF) =  -616.073596932     A.U. after   13 cycles

 1\1\GINC-SE231\Stability\RHF\Aug-CC-pVDZ\C6H13N7\OHZDE\08-Apr-2025\0\\
 #t hf aug-cc-pvdz symm=none int=(grid=ultrafine) guess=(read,tcheck) s
 table=(opt,rrhf)\\title\\0,1\C,0,2.75603,0.254769,1.13239\C,0,3.21054,
 -0.813189,0.125924\C,0,2.16882,-1.02402,-0.998393\C,0,-0.239558,-0.756
 842,-0.282795\C,0,-2.41224,-0.606653,0.257901\C,0,-1.29778,1.23764,-0.
 286271\H,0,-0.482356,3.004,-0.903648\H,0,-2.14284,3.05998,-0.524771\H,
 0,-4.29453,-0.641002,0.88423\H,0,-3.47982,-2.14015,1.03687\H,0,0.76055
 1,-2.45237,-0.35687\H,0,2.02864,-0.0609359,-1.52842\H,0,2.5815,-1.7060

 Normal termination of Gaussian 16 at Tue Apr  8 19:22:07 2025.
 Gaussian 16:  ES64L-G16RevC.01  3-Jul-2019

 ----------------------------------------------------------------------
 #t hf aug-cc-pvdz iop(5/13=1,5/36=2,99/5=2) pseudo=read geom=check gue
 ss=(read,tcheck) scf=(maxcycle=1)
 ----------------------------------------------------------------------
 -----
 title
 -----
 Structure from the checkpoint file:  "ANI1ccx_1241_conf2_mol2.chk"
 Charge =  0 Multiplicity = 1

                         Standard orientation:
 ---------------------------------------------------------------------
 Center     Atomic      Atomic             Coordinates (Angstroms)
 Number     Number       Type             X           Y           Z
 ---------------------------------------------------------------------
      1          6           0        2.756030    0.254769    1.132390
      2          6           0        3.210540   -0.813189    0.125924
      3          6           0        2.168820   -1.024020   -0.998393
      4          6           0       -0.239558   -0.756842   -0.282795
      5          6           0       -2.412240   -0.606653    0.257901
      6          6           0       -1.297780    1.237640   -0.286271
      7          1           0       -0.482356    3.004000   -0.903648
      8          1           0       -2.142839    3.059980   -0.524771
      9          1           0       -4.294530   -0.641001    0.884230
     10          1           0       -3.479820   -2.140150    1.036870
     11          1           0        0.760551   -2.452370   -0.356870
     12          1           0        2.028640   -0.060936   -1.528420
     13          1           0        2.581500   -1.706020   -1.729160
     14          1           0        4.158270   -0.486412   -0.319159
     15          1           0        3.376350   -1.765590    0.621857
     16          1           0        3.540360    0.362780    1.878550
     17          1           0        1.898460   -0.121797    1.681690
     18          1           0        2.706460    2.315030    1.139080
     19          1           0        1.616490    1.568230    0.084054
     20          7           0        2.585970    1.554920    0.464435
     21          7           0        0.857591   -1.486910   -0.596019
     22          7           0       -1.328350   -1.386930    0.146427
     23          7           0       -3.561100   -1.238080    0.569315
     24          7           0       -2.475550    0.720956    0.049987
     25          7           0       -1.271800    2.584860   -0.441772
     26          7           0       -0.147106    0.581759   -0.429065
 ---------------------------------------------------------------------

 SCF Done:  E(RHF) =  -616.256405859     A.U. after    2 cycles

 The electronic state is 1-A.
 Alpha  occ. eigenvalues --  -15.64335 -15.64288 -15.64129 -15.60230 -15.60088
 Alpha  occ. eigenvalues --  -15.59924 -15.58582 -11.37007 -11.36990 -11.36821
 Alpha  occ. eigenvalues --  -11.26699 -11.24433 -11.22358  -1.33134  -1.24661
 Alpha  occ. eigenvalues --   -1.24025  -1.16011  -1.12756  -1.11955  -1.11019
 Alpha  occ. eigenvalues --   -1.00857  -0.91799  -0.87778  -0.85385  -0.79643
 Alpha  occ. eigenvalues --   -0.77550  -0.74567  -0.70103  -0.67444  -0.66066
 Alpha  occ. eigenvalues --   -0.64821  -0.63031  -0.62518  -0.61718  -0.60739
 Alpha  occ. eigenvalues --   -0.57712  -0.55863  -0.54509  -0.52451  -0.51314
 Alpha  occ. eigenvalues --   -0.50015  -0.48000  -0.46804  -0.41614  -0.41172
 Alpha  occ. eigenvalues --   -0.39175  -0.37143  -0.36094  -0.34718
 Alpha virt. eigenvalues --    0.03000   0.03121   0.03417   0.04230   0.05592
 Alpha virt. eigenvalues --    0.05745   0.06799   0.07071   0.07420   0.07542
 Alpha virt. eigenvalues --    0.08389   0.09540   0.10559   0.11553   0.12163

 Mulliken charges:
               1
     1  C    0.913220
     2  C    0.095157
     3  C    0.767766
     4  C    0.638325
     5  C    0.672373
     6  C    0.829722
     7  H   -0.027162
     8  H   -0.046327
     9  H   -0.020072
    10  H    0.005175
    11  H   -0.109784
    12  H   -0.077918
    13  H   -0.313246
    14  H   -0.072572
    15  H   -0.114323
    16  H   -0.208199
    17  H   -0.155168
    18  H   -0.016409
    19  H    0.122746
    20  N   -0.453321
    21  N   -0.260818
    22  N   -0.550161
    23  N   -0.244007
    24  N   -0.588704
    25  N   -0.180096
    26  N   -0.606198
 Sum of Mulliken charges =  -0.00000

 Dipole moment (field-independent basis, Debye):
    X=             -0.8393    Y=             -0.2580    Z=              0.8918  Tot=              1.2515

 Test job not archived.
 1\1\GINC-SE231\SP\RHF\Aug-CC-pVDZ\C6H13N7\OHZDE\08-Apr-2025\0\\#t hf a
 ug-cc-pvdz iop(5/13=1,5/36=2,99/5=2) pseudo=read geom=check guess=(rea
 d,tcheck) scf=(maxcycle=1)\\title\\0,1\C,0,2.75603,0.254769,1.13239\C,
 0,3.21054,-0.813189,0.125924\C,0,2.16882,-1.02402,-0.998393\C,0,-0.239
 558,-0.756842,-0.282795\C,0,-2.41224,-0.606653,0.257901\C,0,-1.29778,1
 .23764,-0.286271\H,0,-0.482356,3.004,-0.903648\H,0,-2.14284,3.05998,-0
 .524771\H,0,-4.29453,-0.641002,0.88423\H,0,-3.47982,-2.14015,1.03687\H
 ,0,0.760551,-2.45237,-0.35687\H,0,2.02864,-0.0609359,-1.52842\H,0,2.58

 Normal termination of Gaussian 16 at Tue Apr  8 19:22:30 2025.
