 Gaussian 16, Revision C.01,

 ----------------------------------------------------------------------
 #t hf aug-cc-pvdz symm=none int=(grid=ultrafine) guess=(read,tcheck) s
 table=(opt,rrhf)
 ----------------------------------------------------------------------
 -----
 title
 -----
 Symbolic Z-matrix:
 Charge =  0 Multiplicity = 1

 SCF Done:  E(RHF) =  -334.916975097     A.U. after   14 cycles
 Normal termination of Gaussian 16 at Tue Apr  8 21:50:06 2025.
 Gaussian 16:  ES64L-G16RevC.01  3-Jul-2019

 ----------------------------------------------------------------------
 #t hf aug-cc-pvdz iop(5/13=1,5/36=2,99/5=2) pseudo=read geom=check gue
 ss=(read,tcheck) scf=(maxcycle=1)
 ----------------------------------------------------------------------
 -----
 title
 -----
 Structure from the checkpoint file:  "ANI1ccx_726_conf3_mol2.chk"
 Charge =  0 Multiplicity = 1

                         Standard orientation:
 ---------------------------------------------------------------------
 Center     Atomic      Atomic             Coordinates (Angstroms)
 Number     Number       Type             X           Y           Z
 ---------------------------------------------------------------------
      1          6           0        0.503879   -0.568400    0.045822
      2          6           0       -1.640640   -0.706331   -0.005281
      3          6           0        0.062685    0.697992    0.027427
      4          1           0        2.204150   -1.273450    0.895592
      5          1           0        2.040490   -1.695410   -0.671816
      6          1           0       -2.706190   -1.048763    0.122194
      7          1           0       -1.922302    1.447978   -0.178071
      8          1           0        0.450980    2.557969    0.748820
      9          1           0        1.693608    1.883380   -0.183955
     10          7           0        1.900220   -0.910282   -0.043240
     11          7           0       -0.552883   -1.447591   -0.000867
     12          7           0       -1.316901    0.634014   -0.019086
     13          7           0        0.638668    1.950819   -0.099746
 ---------------------------------------------------------------------

 SCF Done:  E(RHF) =  -335.015382935     A.U. after    2 cycles

 The electronic state is 1-A.
 Alpha  occ. eigenvalues --  -15.67438 -15.64240 -15.62005 -15.60896 -11.31058
 Alpha  occ. eigenvalues --  -11.29381 -11.26825  -1.31147  -1.17388  -1.15475
 Alpha  occ. eigenvalues --   -1.08956  -0.95636  -0.82033  -0.77300  -0.73311
 Alpha  occ. eigenvalues --   -0.66140  -0.64653  -0.62276  -0.59749  -0.58196
 Alpha  occ. eigenvalues --   -0.57285  -0.47095  -0.42960  -0.41742  -0.38331
 Alpha  occ. eigenvalues --   -0.29104
 Alpha virt. eigenvalues --    0.02694   0.03371   0.04291   0.05323   0.06357
 Alpha virt. eigenvalues --    0.07492   0.10505   0.10926   0.11615   0.12762
 Alpha virt. eigenvalues --    0.13562   0.14421   0.14997   0.16257   0.16572

 Mulliken charges:
               1
     1  C    0.980163
     2  C    0.473142
     3  C    0.569471
     4  H    0.089661
     5  H    0.009501
     6  H   -0.135937
     7  H   -0.070744
     8  H    0.069865
     9  H    0.106571
    10  N   -0.501140
    11  N   -0.654582
    12  N   -0.426905
    13  N   -0.509065
 Sum of Mulliken charges =  -0.00000

 Dipole moment (field-independent basis, Debye):
    X=             -0.9285    Y=              2.3866    Z=              1.2599  Tot=              2.8540

 Test job not archived.
 1\1\GINC-SE367\SP\RHF\Aug-CC-pVDZ\C3H6N4\OHZDE\08-Apr-2025\0\\#t hf au
 g-cc-pvdz iop(5/13=1,5/36=2,99/5=2) pseudo=read geom=check guess=(read
 ,tcheck) scf=(maxcycle=1)\\title\\0,1\C,0,0.503879,-0.568399,0.0458224
 \C,0,-1.64064,-0.706329,-0.00528116\C,0,0.0626863,0.697993,0.0274274\H
 ,0,2.20415,-1.27345,0.895592\H,0,2.04049,-1.69541,-0.671816\H,0,-2.706
 19,-1.04876,0.122194\H,0,-1.9223,1.44798,-0.178071\H,0,0.450982,2.5579
 7,0.74882\H,0,1.69361,1.88338,-0.183955\N,0,1.90022,-0.910282,-0.04324
 \N,0,-0.552883,-1.44759,-0.00086732\N,0,-1.3169,0.634016,-0.0190855\N,

 Normal termination of Gaussian 16 at Tue Apr  8 21:50:10 2025.
