 Gaussian 16, Revision C.01,

 ----------------------------------------------------------------------
 #t hf aug-cc-pvdz symm=none int=(grid=ultrafine) guess=(read,tcheck) s
 table=(opt,rrhf)
 ----------------------------------------------------------------------
 -----
 title
 -----
 Symbolic Z-matrix:
 Charge =  0 Multiplicity = 1

 SCF Done:  E(RHF) =  -810.410434652     A.U. after   14 cycles
 Normal termination of Gaussian 16 at Tue Apr  8 19:36:16 2025.
 Gaussian 16:  ES64L-G16RevC.01  3-Jul-2019

 ----------------------------------------------------------------------
 #t hf aug-cc-pvdz iop(5/13=1,5/36=2,99/5=2) pseudo=read geom=check gue
 ss=(read,tcheck) scf=(maxcycle=1)
 ----------------------------------------------------------------------
 -----
 title
 -----
 Structure from the checkpoint file:  "ANI1ccx_1427_conf22_mol1.chk"
 Charge =  0 Multiplicity = 1

                         Standard orientation:
 ---------------------------------------------------------------------
 Center     Atomic      Atomic             Coordinates (Angstroms)
 Number     Number       Type             X           Y           Z
 ---------------------------------------------------------------------
      1          6           0       -2.536040   -0.263719    0.433419
      2          6           0       -1.149021    0.003707   -0.074459
      3          6           0       -3.505550   -0.741550   -0.823459
      4          6           0        1.197980   -0.516080   -0.030984
      5          6           0        2.151600   -1.724288    0.007976
      6          6           0        1.628029    0.549777    0.969567
      7          6           0        2.225679    1.619902    0.044802
      8          1           0        3.457870   -0.398355   -0.516784
      9          1           0        0.487929    2.553231    0.227434
     10          1           0        1.687678    3.327061   -0.892780
     11          1           0        0.877963    1.034541    1.610050
     12          1           0        2.445999    0.155203    1.555270
     13          1           0        1.134409   -0.046461   -0.995464
     14          1           0       -0.257571   -1.901839    0.300796
     15          1           0       -4.792841    0.462235   -0.279398
     16          1           0       -2.964090   -0.238896   -1.598760
     17          1           0       -3.326820   -1.836520   -1.030710
     18          1           0       -2.417220   -0.865963    1.306430
     19          1           0       -3.153091    1.798960    0.415557
     20          1           0       -3.130301    1.148290    1.988950
     21          7           0       -3.316331    0.934261    0.987741
     22          7           0       -0.141611   -0.934720    0.186824
     23          7           0        1.418188    2.658551   -0.185751
     24          8           0       -0.789071    1.087171   -0.467174
     25          8           0       -4.814750   -0.491623   -0.520757
     26          8           0        1.955730   -2.810648    0.421235
     27          8           0        3.325559    1.362022   -0.477053
     28          8           0        3.341570   -1.317498   -0.477932
 ---------------------------------------------------------------------

 SCF Done:  E(RHF) =  -810.659829471     A.U. after    2 cycles

 The electronic state is 1-A.
 Alpha  occ. eigenvalues --  -20.59725 -20.58799 -20.58208 -20.57926 -20.55725
 Alpha  occ. eigenvalues --  -15.67177 -15.66978 -15.65193 -11.41111 -11.39947
 Alpha  occ. eigenvalues --  -11.38889 -11.32146 -11.31592 -11.31143 -11.27619
 Alpha  occ. eigenvalues --   -1.43305  -1.40580  -1.36378  -1.35334  -1.34600
 Alpha  occ. eigenvalues --   -1.23688  -1.21090  -1.16033  -1.07706  -1.00473
 Alpha  occ. eigenvalues --   -0.94750  -0.89259  -0.85502  -0.82922  -0.81179
 Alpha  occ. eigenvalues --   -0.78176  -0.75758  -0.75206  -0.72531  -0.71340
 Alpha  occ. eigenvalues --   -0.69190  -0.68784  -0.67424  -0.66737  -0.65384
 Alpha  occ. eigenvalues --   -0.63989  -0.62528  -0.61412  -0.59904  -0.59546
 Alpha  occ. eigenvalues --   -0.58381  -0.57217  -0.56504  -0.55441  -0.51658
 Alpha  occ. eigenvalues --   -0.50951  -0.48700  -0.48019  -0.45990  -0.45692
 Alpha  occ. eigenvalues --   -0.44110  -0.42942  -0.41375
 Alpha virt. eigenvalues --    0.01880   0.02844   0.03491   0.03852   0.05100
 Alpha virt. eigenvalues --    0.05690   0.05838   0.06448   0.06686   0.08146
 Alpha virt. eigenvalues --    0.08251   0.08965   0.09060   0.09434   0.10999

 Mulliken charges:
               1
     1  C    0.692364
     2  C    0.066084
     3  C    1.050800
     4  C    0.422488
     5  C    0.703725
     6  C    0.633123
     7  C    0.697317
     8  H    0.194324
     9  H    0.167066
    10  H   -0.021124
    11  H   -0.180226
    12  H   -0.173656
    13  H   -0.290144
    14  H   -0.148084
    15  H    0.258904
    16  H   -0.120063
    17  H   -0.058223
    18  H   -0.341132
    19  H    0.106956
    20  H    0.000646
    21  N   -0.549925
    22  N   -0.275970
    23  N   -0.191556
    24  O   -0.541944
    25  O   -0.559714
    26  O   -0.419841
    27  O   -0.703077
    28  O   -0.419116
 Sum of Mulliken charges =  -0.00000

 Dipole moment (field-independent basis, Debye):
    X=             -3.6308    Y=              4.4963    Z=              1.8420  Tot=              6.0657

 Test job not archived.
 1\1\GINC-SE195\SP\RHF\Aug-CC-pVDZ\C7H13N3O5\OHZDE\08-Apr-2025\0\\#t hf
  aug-cc-pvdz iop(5/13=1,5/36=2,99/5=2) pseudo=read geom=check guess=(r
 ead,tcheck) scf=(maxcycle=1)\\title\\0,1\C,0,-2.53604,-0.263719,0.4334
 19\C,0,-1.14902,0.0037065,-0.0744584\C,0,-3.50555,-0.74155,-0.823459\C
 ,0,1.19798,-0.516081,-0.0309838\C,0,2.1516,-1.72429,0.00797642\C,0,1.6
 2803,0.549776,0.969567\C,0,2.22568,1.6199,0.0448018\H,0,3.45787,-0.398
 357,-0.516784\H,0,0.487931,2.55323,0.227434\H,0,1.68768,3.32706,-0.892
 78\H,0,0.877964,1.03454,1.61005\H,0,2.446,0.155201,1.55527\H,0,1.13441

 Normal termination of Gaussian 16 at Tue Apr  8 19:36:47 2025.
