 Gaussian 16, Revision C.01,

 ----------------------------------------------------------------------
 #t hf aug-cc-pvdz symm=none int=(grid=ultrafine) guess=(read,tcheck) s
 table=(opt,rrhf)
 ----------------------------------------------------------------------
 -----
 title
 -----
 Symbolic Z-matrix:
 Charge =  0 Multiplicity = 1

 SCF Done:  E(RHF) =  -959.252447877     A.U. after   15 cycles
 Normal termination of Gaussian 16 at Tue Apr  8 22:02:48 2025.
 Gaussian 16:  ES64L-G16RevC.01  3-Jul-2019

 ----------------------------------------------------------------------
 #t hf aug-cc-pvdz iop(5/13=1,5/36=2,99/5=2) pseudo=read geom=check gue
 ss=(read,tcheck) scf=(maxcycle=1)
 ----------------------------------------------------------------------
 -----
 title
 -----
 Structure from the checkpoint file:  "ANI1ccx_47_conf1_mol1.chk"
 Charge =  0 Multiplicity = 1

                         Standard orientation:
 ---------------------------------------------------------------------
 Center     Atomic      Atomic             Coordinates (Angstroms)
 Number     Number       Type             X           Y           Z
 ---------------------------------------------------------------------
      1          6           0        0.646438   -0.809146    0.927134
      2          6           0        1.241760    2.862760    0.585410
      3          6           0       -0.376835    1.914170   -0.489665
      4          6           0       -1.807710    1.558549   -0.717910
      5          6           0       -3.408089   -0.267445    0.075682
      6          6           0        0.708040    1.546010   -1.167120
      7          6           0        3.073731   -0.808499    0.057071
      8          6           0        2.052121   -1.343160    1.078410
      9          6           0       -0.031837   -1.485530   -0.295155
     10          6           0       -1.932910    0.166772   -0.113965
     11          1           0       -2.479170    2.229609   -0.182917
     12          1           0       -4.618269   -1.546221   -0.433449
     13          1           0        2.781230    1.996630   -0.509658
     14          1           0        1.719240    3.601480    1.277300
     15          1           0        0.938210    0.901494   -2.042810
     16          1           0       -2.047520    1.617879   -1.725380
     17          1           0       -1.579870    0.140974    0.952420
     18          1           0        3.914651   -1.178579   -1.788010
     19          1           0        2.328301   -1.957100   -1.477710
     20          1           0        1.900661   -2.405550    1.068570
     21          1           0        2.450501   -1.013750    2.051500
     22          1           0        0.493154    0.209263    0.756611
     23          1           0       -0.062706   -2.113200    2.394490
     24          1           0       -0.255955   -0.523840    2.796960
     25          1           0       -1.635389   -1.512700   -1.519170
     26          7           0       -0.328569   -1.200440    2.015470
     27          7           0        3.110881   -1.378000   -1.170910
     28          7           0       -1.183659   -0.930595   -0.785289
     29          7           0       -0.034506    2.734960    0.567076
     30          7           0        1.767290    2.058250   -0.413192
     31          8           0       -4.253830    0.307663    0.724775
     32          8           0        0.517157   -2.439620   -0.794683
     33          8           0        3.900500    0.063594    0.341991
     34          8           0       -3.683249   -1.361951   -0.615863
 ---------------------------------------------------------------------

 SCF Done:  E(RHF) =  -959.539681592     A.U. after    2 cycles

 The electronic state is 1-A.
 Alpha  occ. eigenvalues --  -20.64264 -20.57204 -20.55369 -20.53674 -15.67860
 Alpha  occ. eigenvalues --  -15.66218 -15.64612 -15.64037 -15.60812 -11.41064
 Alpha  occ. eigenvalues --  -11.37495 -11.37379 -11.31505 -11.31480 -11.29220
 Alpha  occ. eigenvalues --  -11.27920 -11.26192 -11.25895 -11.25015  -1.45134
 Alpha  occ. eigenvalues --   -1.37643  -1.34244  -1.33612  -1.31466  -1.21546
 Alpha  occ. eigenvalues --   -1.17481  -1.16560  -1.13281  -1.07514  -1.03299
 Alpha  occ. eigenvalues --   -1.01043  -0.93584  -0.91623  -0.84208  -0.81540
 Alpha  occ. eigenvalues --   -0.80561  -0.77657  -0.77081  -0.75445  -0.74245
 Alpha  occ. eigenvalues --   -0.72964  -0.72800  -0.71121  -0.68223  -0.66914
 Alpha  occ. eigenvalues --   -0.66779  -0.64885  -0.64420  -0.63380  -0.62351
 Alpha  occ. eigenvalues --   -0.60815  -0.60719  -0.60403  -0.59309  -0.58479
 Alpha  occ. eigenvalues --   -0.56655  -0.55612  -0.54848  -0.54265  -0.53360
 Alpha  occ. eigenvalues --   -0.52109  -0.50725  -0.48352  -0.46485  -0.44520
 Alpha  occ. eigenvalues --   -0.43131  -0.41680  -0.41132  -0.40870  -0.39206
 Alpha  occ. eigenvalues --   -0.33523
 Alpha virt. eigenvalues --    0.02690   0.02947   0.03266   0.03959   0.04883
 Alpha virt. eigenvalues --    0.05613   0.05870   0.06037   0.06399   0.07583
 Alpha virt. eigenvalues --    0.07948   0.08588   0.09038   0.09413   0.09660

 Mulliken charges:
               1
     1  C    0.135401
     2  C    0.518148
     3  C    0.007519
     4  C    1.124419
     5  C    0.752163
     6  C    0.981081
     7  C    0.778280
     8  C    0.840984
     9  C    0.576092
    10  C   -0.001058
    11  H   -0.080675
    12  H    0.229953
    13  H   -0.051430
    14  H   -0.285708
    15  H   -0.334737
    16  H   -0.163913
    17  H    0.187299
    18  H   -0.025231
    19  H    0.096750
    20  H    0.046996
    21  H    0.031282
    22  H   -0.634848
    23  H   -0.032539
    24  H    0.076078
    25  H   -0.039908
    26  N   -0.285601
    27  N   -0.210458
    28  N   -0.605394
    29  N   -0.666925
    30  N   -0.512709
    31  O   -0.548109
    32  O   -0.652568
    33  O   -0.675308
    34  O   -0.575328
 Sum of Mulliken charges =   0.00000

 Dipole moment (field-independent basis, Debye):
    X=              0.1100    Y=             -1.6164    Z=             -1.8371  Tot=              2.4494

 Test job not archived.
 1\1\GINC-SE457\SP\RHF\Aug-CC-pVDZ\C10H15N5O4\OHZDE\08-Apr-2025\0\\#t h
 f aug-cc-pvdz iop(5/13=1,5/36=2,99/5=2) pseudo=read geom=check guess=(
 read,tcheck) scf=(maxcycle=1)\\title\\0,1\C,0,0.646437,-0.809146,0.927
 134\C,0,1.24176,2.86276,0.58541\C,0,-0.376835,1.91417,-0.489665\C,0,-1
 .80771,1.55855,-0.71791\C,0,-3.40809,-0.267444,0.075682\C,0,0.70804,1.
 54601,-1.16712\C,0,3.07373,-0.808499,0.0570708\C,0,2.05212,-1.34316,1.
 07841\C,0,-0.0318382,-1.48553,-0.295155\C,0,-1.93291,0.166773,-0.11396
 5\H,0,-2.47917,2.22961,-0.182917\H,0,-4.61827,-1.54622,-0.433449\H,0,2

 Normal termination of Gaussian 16 at Tue Apr  8 22:03:51 2025.
