 Gaussian 16, Revision C.01,

 ----------------------------------------------------------------------
 #t hf aug-cc-pvdz symm=none int=(grid=ultrafine) guess=(read,tcheck) s
 table=(opt,rrhf)
 ----------------------------------------------------------------------
 -----
 title
 -----
 Symbolic Z-matrix:
 Charge =  0 Multiplicity = 1

 SCF Done:  E(RHF) =  -376.430063782     A.U. after   15 cycles
 Normal termination of Gaussian 16 at Tue Apr  8 21:42:08 2025.
 Gaussian 16:  ES64L-G16RevC.01  3-Jul-2019

 ----------------------------------------------------------------------
 #t hf aug-cc-pvdz iop(5/13=1,5/36=2,99/5=2) pseudo=read geom=check gue
 ss=(read,tcheck) scf=(maxcycle=1)
 ----------------------------------------------------------------------
 -----
 title
 -----
 Structure from the checkpoint file:  "ANI1ccx_494_conf2_mol1.chk"
 Charge =  0 Multiplicity = 1

                         Standard orientation:
 ---------------------------------------------------------------------
 Center     Atomic      Atomic             Coordinates (Angstroms)
 Number     Number       Type             X           Y           Z
 ---------------------------------------------------------------------
      1          6           0        0.720732    0.153611   -0.030492
      2          6           0       -0.779198   -0.175983   -0.079587
      3          1           0        2.427170   -0.708297   -0.007962
      4          1           0       -1.004210    1.625150    0.237095
      5          8           0        1.503300   -0.941232    0.108063
      6          8           0        1.129660    1.280730   -0.082613
      7          8           0       -1.571350    0.856224    0.087675
      8          8           0       -1.195630   -1.293550   -0.059207
 ---------------------------------------------------------------------

 SCF Done:  E(RHF) =  -376.551449670     A.U. after    2 cycles

 The electronic state is 1-A.
 Alpha  occ. eigenvalues --  -20.66335 -20.65559 -20.62656 -20.59535 -11.45619
 Alpha  occ. eigenvalues --  -11.43452  -1.48533  -1.45359  -1.38663  -1.36352
 Alpha  occ. eigenvalues --   -0.98156  -0.87658  -0.82529  -0.76528  -0.71317
 Alpha  occ. eigenvalues --   -0.70695  -0.68125  -0.65847  -0.62547  -0.57538
 Alpha  occ. eigenvalues --   -0.55103  -0.52377  -0.49102
 Alpha virt. eigenvalues --    0.02851   0.04306   0.05128   0.08065   0.09089
 Alpha virt. eigenvalues --    0.10661   0.11534   0.11839   0.12683   0.14080
 Alpha virt. eigenvalues --    0.17819   0.19121   0.19700   0.21084   0.23154

 Mulliken charges:
               1
     1  C    0.613404
     2  C    0.586675
     3  H    0.181533
     4  H    0.231725
     5  O   -0.436987
     6  O   -0.421020
     7  O   -0.411971
     8  O   -0.343359
 Sum of Mulliken charges =   0.00000

 Dipole moment (field-independent basis, Debye):
    X=              2.8078    Y=              1.7432    Z=              0.0123  Tot=              3.3049

 Test job not archived.
 1\1\GINC-SE458\SP\RHF\Aug-CC-pVDZ\C2H2O4\OHZDE\08-Apr-2025\0\\#t hf au
 g-cc-pvdz iop(5/13=1,5/36=2,99/5=2) pseudo=read geom=check guess=(read
 ,tcheck) scf=(maxcycle=1)\\title\\0,1\C,0,0.720732,0.153611,-0.0304922
 \C,0,-0.779198,-0.175983,-0.0795867\H,0,2.42717,-0.708297,-0.00796193\
 H,0,-1.00421,1.62515,0.237095\O,0,1.5033,-0.941232,0.108063\O,0,1.1296
 6,1.28073,-0.0826128\O,0,-1.57135,0.856224,0.0876745\O,0,-1.19563,-1.2
 9355,-0.0592073\\Version=ES64L-G16RevC.01\State=1-A\HF=-376.5514497\RM
 SD=3.874e-03\Dipole=1.1046758,0.685808,0.0048572\Quadrupole=1.2579911,

 Normal termination of Gaussian 16 at Tue Apr  8 21:42:10 2025.
