 Gaussian 16, Revision C.01,

 ----------------------------------------------------------------------
 #t hf aug-cc-pvdz symm=none int=(grid=ultrafine) guess=(read,tcheck) s
 table=(opt,rrhf)
 ----------------------------------------------------------------------
 -----
 title
 -----
 Symbolic Z-matrix:
 Charge =  0 Multiplicity = 1

 SCF Done:  E(RHF) =  -538.492421866     A.U. after   15 cycles
 Normal termination of Gaussian 16 at Tue Apr  8 21:50:52 2025.
 Gaussian 16:  ES64L-G16RevC.01  3-Jul-2019

 ----------------------------------------------------------------------
 #t hf aug-cc-pvdz iop(5/13=1,5/36=2,99/5=2) pseudo=read geom=check gue
 ss=(read,tcheck) scf=(maxcycle=1)
 ----------------------------------------------------------------------
 -----
 title
 -----
 Structure from the checkpoint file:  "ANI1ccx_716_conf6_mol1.chk"
 Charge =  0 Multiplicity = 1

                         Standard orientation:
 ---------------------------------------------------------------------
 Center     Atomic      Atomic             Coordinates (Angstroms)
 Number     Number       Type             X           Y           Z
 ---------------------------------------------------------------------
      1          6           0       -0.821539    0.563214    0.501870
      2          6           0       -1.843090   -0.459191   -0.094653
      3          6           0        0.663492    0.165265    0.169657
      4          1           0       -1.759081    2.456440    0.599205
      5          1           0       -1.493431    1.817020   -0.795572
      6          1           0       -0.797482    0.482965    1.552690
      7          1           0       -0.387621   -1.714540    0.093615
      8          1           0        1.655309    1.987580   -0.379575
      9          7           0       -0.992975    1.927420    0.143216
     10          7           0        1.190190   -1.032660    0.275869
     11          7           0        2.426600   -0.944734   -0.049085
     12          7           0        2.779609    0.216495   -0.358747
     13          7           0        1.649229    1.013110   -0.166183
     14          8           0       -1.413070   -1.730270    0.076962
     15          8           0       -2.909360   -0.132556   -0.507849
 ---------------------------------------------------------------------

 SCF Done:  E(RHF) =  -538.647481946     A.U. after    2 cycles

 The electronic state is 1-A.
 Alpha  occ. eigenvalues --  -20.62454 -20.59294 -15.75673 -15.74135 -15.73088
 Alpha  occ. eigenvalues --  -15.68800 -15.66832 -11.42518 -11.38157 -11.34987
 Alpha  occ. eigenvalues --   -1.48828  -1.43288  -1.35073  -1.25041  -1.22923
 Alpha  occ. eigenvalues --   -1.18515  -1.00473  -0.92361  -0.88000  -0.84831
 Alpha  occ. eigenvalues --   -0.78745  -0.77938  -0.72654  -0.70451  -0.69247
 Alpha  occ. eigenvalues --   -0.66852  -0.64243  -0.61633  -0.59313  -0.56971
 Alpha  occ. eigenvalues --   -0.52171  -0.51197  -0.49603  -0.48220  -0.46850
 Alpha  occ. eigenvalues --   -0.45447  -0.42739
 Alpha virt. eigenvalues --    0.01978   0.03074   0.04122   0.04966   0.07234
 Alpha virt. eigenvalues --    0.08827   0.09016   0.10375   0.10925   0.11371
 Alpha virt. eigenvalues --    0.12752   0.13212   0.13342   0.13827   0.14272

 Mulliken charges:
               1
     1  C    0.577469
     2  C    0.704841
     3  C    0.670456
     4  H    0.055484
     5  H    0.168149
     6  H    0.011278
     7  H    0.329779
     8  H   -0.037866
     9  N   -0.513381
    10  N   -0.459342
    11  N   -0.174153
    12  N   -0.226324
    13  N   -0.161777
    14  O   -0.536222
    15  O   -0.408391
 Sum of Mulliken charges =  -0.00000

 Dipole moment (field-independent basis, Debye):
    X=              0.3184    Y=              4.9309    Z=              1.0854  Tot=              5.0590

 Test job not archived.
 1\1\GINC-SE339\SP\RHF\Aug-CC-pVDZ\C3H5N5O2\OHZDE\08-Apr-2025\0\\#t hf
 aug-cc-pvdz iop(5/13=1,5/36=2,99/5=2) pseudo=read geom=check guess=(re
 ad,tcheck) scf=(maxcycle=1)\\title\\0,1\C,0,-0.821538,0.563214,0.50187
 \C,0,-1.84309,-0.459191,-0.0946526\C,0,0.663492,0.165265,0.169657\H,0,
 -1.75908,2.45644,0.599205\H,0,-1.49343,1.81702,-0.795572\H,0,-0.797481
 ,0.482965,1.55269\H,0,-0.387621,-1.71454,0.0936148\H,0,1.65531,1.98758
 ,-0.379575\N,0,-0.992974,1.92742,0.143216\N,0,1.19019,-1.03266,0.27586
 9\N,0,2.4266,-0.944735,-0.0490848\N,0,2.77961,0.216494,-0.358747\N,0,1

 Normal termination of Gaussian 16 at Tue Apr  8 21:50:59 2025.
