 Gaussian 16, Revision C.01,

 ----------------------------------------------------------------------
 #t hf aug-cc-pvdz symm=none int=(grid=ultrafine) guess=(read,tcheck) s
 table=(opt,rrhf)
 ----------------------------------------------------------------------
 -----
 title
 -----
 Symbolic Z-matrix:
 Charge =  0 Multiplicity = 1

 SCF Done:  E(RHF) =  -428.573321641     A.U. after   13 cycles
 Normal termination of Gaussian 16 at Tue Apr  8 21:36:47 2025.
 Gaussian 16:  ES64L-G16RevC.01  3-Jul-2019

 ----------------------------------------------------------------------
 #t hf aug-cc-pvdz iop(5/13=1,5/36=2,99/5=2) pseudo=read geom=check gue
 ss=(read,tcheck) scf=(maxcycle=1)
 ----------------------------------------------------------------------
 -----
 title
 -----
 Structure from the checkpoint file:  "ANI1ccx_419_conf4_mol1.chk"
 Charge =  0 Multiplicity = 1

                         Standard orientation:
 ---------------------------------------------------------------------
 Center     Atomic      Atomic             Coordinates (Angstroms)
 Number     Number       Type             X           Y           Z
 ---------------------------------------------------------------------
      1          6           0       -0.144894   -0.239737    0.165206
      2          1           0        2.021970    1.156519   -0.150035
      3          1           0       -0.577462    1.689879   -0.252850
      4          1           0       -1.667729   -1.529011    0.182178
      5          1           0       -2.946530    0.595242    0.207425
      6          1           0        2.424871   -1.750911   -0.141078
      7          7           0        0.205937    1.024399   -0.314365
      8          7           0       -1.506359   -0.542002    0.492646
      9          7           0        0.608856   -1.276151    0.121322
     10          8           0        1.294170    1.638439    0.326800
     11          8           0       -2.349310    0.152986   -0.404767
     12          8           0        1.862041   -0.937304   -0.288794
 ---------------------------------------------------------------------

 SCF Done:  E(RHF) =  -428.702499771     A.U. after    2 cycles

 The electronic state is 1-A.
 Alpha  occ. eigenvalues --  -20.63268 -20.62279 -20.62005 -15.71027 -15.69992
 Alpha  occ. eigenvalues --  -15.67511 -11.36074  -1.41693  -1.39682  -1.37379
 Alpha  occ. eigenvalues --   -1.20221  -1.08078  -1.05008  -0.81413  -0.77297
 Alpha  occ. eigenvalues --   -0.73438  -0.72159  -0.68763  -0.67502  -0.64868
 Alpha  occ. eigenvalues --   -0.63389  -0.62884  -0.55588  -0.53592  -0.49555
 Alpha  occ. eigenvalues --   -0.45220  -0.43247  -0.35347
 Alpha virt. eigenvalues --    0.03157   0.03659   0.04594   0.06770   0.07495
 Alpha virt. eigenvalues --    0.08768   0.13146   0.13577   0.13936   0.15341
 Alpha virt. eigenvalues --    0.15734   0.16873   0.18238   0.18618   0.19048

 Mulliken charges:
               1
     1  C    1.255402
     2  H    0.270066
     3  H    0.123135
     4  H    0.183428
     5  H    0.218265
     6  H    0.230146
     7  N   -0.170871
     8  N   -0.254548
     9  N   -0.210106
    10  O   -0.520219
    11  O   -0.521184
    12  O   -0.603515
 Sum of Mulliken charges =  -0.00000

 Dipole moment (field-independent basis, Debye):
    X=             -0.8048    Y=             -0.5807    Z=              0.2971  Tot=              1.0359

 Test job not archived.
 1\1\GINC-SE365\SP\RHF\Aug-CC-pVDZ\C1H5N3O3\OHZDE\08-Apr-2025\0\\#t hf
 aug-cc-pvdz iop(5/13=1,5/36=2,99/5=2) pseudo=read geom=check guess=(re
 ad,tcheck) scf=(maxcycle=1)\\title\\0,1\C,0,-0.144895,-0.239736,0.1652
 06\H,0,2.02197,1.15652,-0.150035\H,0,-0.577462,1.68988,-0.25285\H,0,-1
 .66773,-1.52901,0.182178\H,0,-2.94653,0.595243,0.207425\H,0,2.42487,-1
 .75091,-0.141078\N,0,0.205937,1.0244,-0.314365\N,0,-1.50636,-0.542001,
 0.492646\N,0,0.608855,-1.27615,0.121322\O,0,1.29417,1.63844,0.3268\O,0
 ,-2.34931,0.152987,-0.404767\O,0,1.86204,-0.937303,-0.288794\\Version=

 Normal termination of Gaussian 16 at Tue Apr  8 21:36:51 2025.
