 Gaussian 16, Revision C.01,

 ----------------------------------------------------------------------
 #t hf aug-cc-pvdz symm=none int=(grid=ultrafine) guess=(read,tcheck) s
 table=(opt,rrhf)
 ----------------------------------------------------------------------
 -----
 title
 -----
 Symbolic Z-matrix:
 Charge =  0 Multiplicity = 1

 SCF Done:  E(RHF) =  -480.753328434     A.U. after   14 cycles
 Normal termination of Gaussian 16 at Tue Apr  8 21:46:32 2025.
 Gaussian 16:  ES64L-G16RevC.01  3-Jul-2019

 ----------------------------------------------------------------------
 #t hf aug-cc-pvdz iop(5/13=1,5/36=2,99/5=2) pseudo=read geom=check gue
 ss=(read,tcheck) scf=(maxcycle=1)
 ----------------------------------------------------------------------
 -----
 title
 -----
 Structure from the checkpoint file:  "ANI1ccx_558_conf1_mol1.chk"
 Charge =  0 Multiplicity = 1

                         Standard orientation:
 ---------------------------------------------------------------------
 Center     Atomic      Atomic             Coordinates (Angstroms)
 Number     Number       Type             X           Y           Z
 ---------------------------------------------------------------------
      1          6           0        1.235259   -0.657594   -0.120884
      2          6           0       -1.123581   -0.721654    0.113946
      3          1           0       -1.942070    2.153189    0.480207
      4          1           0       -2.032310    1.169249   -0.919485
      5          1           0        0.991591    2.559088   -0.267356
      6          1           0        1.413040    1.814638    1.104170
      7          1           0        0.001749   -2.436681   -0.179297
      8          1           0       -2.404461   -2.079461    0.081991
      9          7           0       -1.383110    1.653969   -0.251257
     10          7           0       -0.720461    0.564751    0.253844
     11          7           0        0.665433    0.564526   -0.177805
     12          7           0        1.429680    1.685168    0.112523
     13          7           0        0.065091   -1.483001    0.022272
     14          7           0       -2.333981   -1.040641    0.056929
     15          8           0        2.405479   -1.064742   -0.046767
 ---------------------------------------------------------------------

 SCF Done:  E(RHF) =  -480.894702598     A.U. after    2 cycles

 The electronic state is 1-A.
 Alpha  occ. eigenvalues --  -20.55798 -15.73544 -15.73141 -15.69364 -15.68558
 Alpha  occ. eigenvalues --  -15.67657 -15.61757 -11.42816 -11.39097  -1.42562
 Alpha  occ. eigenvalues --   -1.34179  -1.27211  -1.24649  -1.17194  -1.09272
 Alpha  occ. eigenvalues --   -1.02280  -0.87380  -0.81766  -0.77506  -0.74959
 Alpha  occ. eigenvalues --   -0.70484  -0.69531  -0.67721  -0.66667  -0.64990
 Alpha  occ. eigenvalues --   -0.61891  -0.54662  -0.50723  -0.49574  -0.46632
 Alpha  occ. eigenvalues --   -0.45645  -0.44495  -0.42075  -0.36040
 Alpha virt. eigenvalues --    0.02298   0.02909   0.03770   0.04650   0.06730
 Alpha virt. eigenvalues --    0.07471   0.09819   0.10969   0.11470   0.12331
 Alpha virt. eigenvalues --    0.13095   0.13827   0.14622   0.15452   0.16051

 Mulliken charges:
               1
     1  C    0.848444
     2  C    0.962468
     3  H    0.140690
     4  H    0.139798
     5  H    0.144898
     6  H    0.075747
     7  H   -0.146589
     8  H    0.040351
     9  N   -0.113288
    10  N   -0.494270
    11  N   -0.404264
    12  N    0.063425
    13  N   -0.414137
    14  N   -0.371044
    15  O   -0.472229
 Sum of Mulliken charges =  -0.00000

 Dipole moment (field-independent basis, Debye):
    X=             -3.7346    Y=              1.4439    Z=              0.5770  Tot=              4.0454

 Test job not archived.
 1\1\GINC-SE250\SP\RHF\Aug-CC-pVDZ\C2H6N6O1\OHZDE\08-Apr-2025\0\\#t hf
 aug-cc-pvdz iop(5/13=1,5/36=2,99/5=2) pseudo=read geom=check guess=(re
 ad,tcheck) scf=(maxcycle=1)\\title\\0,1\C,0,1.23526,-0.657592,-0.12088
 4\C,0,-1.12358,-0.721653,0.113946\H,0,-1.94207,2.15319,0.480207\H,0,-2
 .03231,1.16925,-0.919485\H,0,0.991591,2.55909,-0.267356\H,0,1.41304,1.
 81464,1.10417\H,0,0.00175019,-2.43668,-0.179297\H,0,-2.40446,-2.07946,
 0.0819907\N,0,-1.38311,1.65397,-0.251257\N,0,-0.72046,0.564752,0.25384
 4\N,0,0.665434,0.564528,-0.177805\N,0,1.42968,1.68517,0.112523\N,0,0.0

 Normal termination of Gaussian 16 at Tue Apr  8 21:46:39 2025.
