 Gaussian 16, Revision C.01,

 ----------------------------------------------------------------------
 #t hf aug-cc-pvdz symm=none int=(grid=ultrafine) guess=(read,tcheck) s
 table=(opt,rrhf)
 ----------------------------------------------------------------------
 -----
 title
 -----
 Symbolic Z-matrix:
 Charge =  0 Multiplicity = 1

 SCF Done:  E(RHF) =  -506.626932009     A.U. after   17 cycles
 Normal termination of Gaussian 16 at Tue Apr  8 21:53:51 2025.
 Gaussian 16:  ES64L-G16RevC.01  3-Jul-2019

 ----------------------------------------------------------------------
 #t hf aug-cc-pvdz iop(5/13=1,5/36=2,99/5=2) pseudo=read geom=check gue
 ss=(read,tcheck) scf=(maxcycle=1)
 ----------------------------------------------------------------------
 -----
 title
 -----
 Structure from the checkpoint file:  "ANI1ccx_787_conf15_mol1.chk"
 Charge =  0 Multiplicity = 1

                         Standard orientation:
 ---------------------------------------------------------------------
 Center     Atomic      Atomic             Coordinates (Angstroms)
 Number     Number       Type             X           Y           Z
 ---------------------------------------------------------------------
      1          6           0        1.102959    1.726111   -0.592736
      2          6           0       -1.084681    0.718225   -0.108621
      3          6           0       -1.922100   -0.522008   -0.313960
      4          1           0        1.369771   -2.029609   -1.389820
      5          1           0       -3.219400   -0.097359    1.042890
      6          1           0       -1.388909   -1.375451    0.178134
      7          1           0       -1.059211    1.046110    0.950485
      8          1           0       -1.984919   -0.829093   -1.380520
      9          1           0        2.111089    1.419812   -0.941016
     10          1           0        0.628162    2.464531   -1.253340
     11          1           0        1.158108    2.113831    0.412222
     12          1           0       -1.493821    1.605659   -0.588016
     13          7           0        0.280379    0.542388   -0.638696
     14          7           0        1.006580   -0.547144   -0.156928
     15          7           0        1.418960   -0.686639    1.129610
     16          8           0        1.818891   -1.196958   -1.129030
     17          8           0       -3.264050   -0.326312    0.095359
     18          8           0        0.990237    0.146691    1.874040
 ---------------------------------------------------------------------

 SCF Done:  E(RHF) =  -506.783156031     A.U. after    2 cycles

 The electronic state is 1-A.
 Alpha  occ. eigenvalues --  -20.65751 -20.62711 -20.58741 -15.81624 -15.76968
 Alpha  occ. eigenvalues --  -15.67795 -11.30150 -11.28126 -11.26809  -1.50826
 Alpha  occ. eigenvalues --   -1.40651  -1.33382  -1.26040  -1.12845  -1.01868
 Alpha  occ. eigenvalues --   -0.94181  -0.88293  -0.82194  -0.77976  -0.73192
 Alpha  occ. eigenvalues --   -0.72685  -0.70256  -0.65907  -0.64542  -0.63585
 Alpha  occ. eigenvalues --   -0.63308  -0.60095  -0.58809  -0.57477  -0.56088
 Alpha  occ. eigenvalues --   -0.55291  -0.49938  -0.47186  -0.46044  -0.41921
 Alpha  occ. eigenvalues --   -0.38266
 Alpha virt. eigenvalues --    0.02931   0.03473   0.03940   0.05180   0.06715
 Alpha virt. eigenvalues --    0.06867   0.07124   0.08231   0.08846   0.10364
 Alpha virt. eigenvalues --    0.11398   0.12764   0.13066   0.13658   0.14332

 Mulliken charges:
               1
     1  C    0.763441
     2  C    0.802331
     3  C    0.742371
     4  H    0.214652
     5  H    0.172603
     6  H   -0.065965
     7  H   -0.223220
     8  H   -0.138943
     9  H   -0.093611
    10  H   -0.123333
    11  H   -0.058200
    12  H   -0.236153
    13  N   -0.449315
    14  N    0.122995
    15  N    0.068388
    16  O   -0.476414
    17  O   -0.583079
    18  O   -0.438547
 Sum of Mulliken charges =  -0.00000

 Dipole moment (field-independent basis, Debye):
    X=              0.0037    Y=             -0.0985    Z=             -1.1777  Tot=              1.1818

 Test job not archived.
 1\1\GINC-SE105\SP\RHF\Aug-CC-pVDZ\C3H9N3O3\OHZDE\08-Apr-2025\0\\#t hf
 aug-cc-pvdz iop(5/13=1,5/36=2,99/5=2) pseudo=read geom=check guess=(re
 ad,tcheck) scf=(maxcycle=1)\\title\\0,1\C,0,1.10296,1.72611,-0.592736\
 C,0,-1.08468,0.718225,-0.108621\C,0,-1.9221,-0.522007,-0.31396\H,0,1.3
 6977,-2.02961,-1.38982\H,0,-3.2194,-0.0973566,1.04289\H,0,-1.38891,-1.
 37545,0.178134\H,0,-1.05921,1.04611,0.950485\H,0,-1.98492,-0.829092,-1
 .38052\H,0,2.11109,1.41981,-0.941016\H,0,0.628164,2.46453,-1.25334\H,0
 ,1.15811,2.11383,0.412222\H,0,-1.49382,1.60566,-0.588016\N,0,0.280379,

 Normal termination of Gaussian 16 at Tue Apr  8 21:54:00 2025.
