 Gaussian 16, Revision C.01,

 ----------------------------------------------------------------------
 #t hf aug-cc-pvdz symm=none int=(grid=ultrafine) guess=(read,tcheck) s
 table=(opt,rrhf)
 ----------------------------------------------------------------------
 -----
 title
 -----
 Symbolic Z-matrix:
 Charge =  0 Multiplicity = 1

 SCF Done:  E(RHF) =  -872.535424575     A.U. after   14 cycles
 Normal termination of Gaussian 16 at Tue Apr  8 22:07:44 2025.
 Gaussian 16:  ES64L-G16RevC.01  3-Jul-2019

 ----------------------------------------------------------------------
 #t hf aug-cc-pvdz iop(5/13=1,5/36=2,99/5=2) pseudo=read geom=check gue
 ss=(read,tcheck) scf=(maxcycle=1)
 ----------------------------------------------------------------------
 -----
 title
 -----
 Structure from the checkpoint file:  "ANI1ccx_68_conf2_mol1.chk"
 Charge =  0 Multiplicity = 1

                         Standard orientation:
 ---------------------------------------------------------------------
 Center     Atomic      Atomic             Coordinates (Angstroms)
 Number     Number       Type             X           Y           Z
 ---------------------------------------------------------------------
      1          6           0       -0.979386    2.062639    0.514192
      2          6           0        4.199489    0.829635    0.170013
      3          6           0        3.283110   -0.404413    0.180441
      4          6           0        1.196010   -1.468210   -0.645671
      5          6           0        1.913819   -0.103296   -0.460011
      6          6           0        3.030450   -0.892327    1.637360
      7          6           0       -2.601051    0.195314   -0.337879
      8          6           0       -2.010651    0.894900    0.876829
      9          6           0        0.147181    1.608000   -0.364819
     10          6           0       -3.026820   -1.227841    0.013102
     11          1           0        3.722580   -1.232119   -0.396824
     12          1           0       -0.463365   -2.250640   -0.320511
     13          1           0        3.989350   -1.097369    2.150040
     14          1           0        2.528529   -0.077350    2.163640
     15          1           0        2.426490   -1.773839    1.646960
     16          1           0        3.835279    1.659641    0.786486
     17          1           0        4.261699    1.206491   -0.849982
     18          1           0        5.202959    0.628816    0.513700
     19          1           0        1.960269    0.257268   -1.503140
     20          1           0       -4.535450   -2.174532    0.685403
     21          1           0       -3.496981    0.704858   -0.619208
     22          1           0       -1.881601    0.289341   -1.167660
     23          1           0       -2.737001    1.312779    1.520570
     24          1           0       -1.528991    0.212324    1.593580
     25          1           0       -0.499132    2.341600    1.483910
     26          1           0       -2.468742    3.407219    0.355451
     27          1           0       -1.594132    3.015939   -1.037810
     28          1           0        0.821933    0.448769    1.139240
     29          7           0       -1.555282    3.231959   -0.069527
     30          7           0        1.115819    0.846260    0.264797
     31          8           0        1.636830   -2.393770   -1.257780
     32          8           0        0.181800    1.801410   -1.555920
     33          8           0       -2.299070   -2.200021   -0.001374
     34          8           0       -4.272590   -1.266072    0.421294
     35          8           0        0.080484   -1.490690    0.017274
 ---------------------------------------------------------------------

 SCF Done:  E(RHF) =  -872.804982893     A.U. after    2 cycles

 The electronic state is 1-A.
 Alpha  occ. eigenvalues --  -20.65714 -20.61408 -20.58190 -20.55703 -20.55084
 Alpha  occ. eigenvalues --  -15.64919 -15.61661 -11.42557 -11.38208 -11.37334
 Alpha  occ. eigenvalues --  -11.29771 -11.28645 -11.27132 -11.26919 -11.24932
 Alpha  occ. eigenvalues --  -11.23073 -11.22161  -1.46167  -1.43593  -1.37628
 Alpha  occ. eigenvalues --   -1.35159  -1.32527  -1.21754  -1.18855  -1.08564
 Alpha  occ. eigenvalues --   -1.07389  -0.99189  -0.95522  -0.93422  -0.90268
 Alpha  occ. eigenvalues --   -0.85598  -0.84995  -0.79142  -0.78073  -0.74912
 Alpha  occ. eigenvalues --   -0.74021  -0.73073  -0.71835  -0.70676  -0.68124
 Alpha  occ. eigenvalues --   -0.67522  -0.66179  -0.64991  -0.63838  -0.62863
 Alpha  occ. eigenvalues --   -0.62112  -0.59729  -0.59619  -0.58791  -0.58272
 Alpha  occ. eigenvalues --   -0.57557  -0.55912  -0.54927  -0.53856  -0.53534
 Alpha  occ. eigenvalues --   -0.52172  -0.51559  -0.50262  -0.49406  -0.49001
 Alpha  occ. eigenvalues --   -0.48405  -0.47733  -0.45992  -0.45363  -0.40465
 Alpha  occ. eigenvalues --   -0.38946
 Alpha virt. eigenvalues --    0.02072   0.03071   0.03592   0.04049   0.04905
 Alpha virt. eigenvalues --    0.05294   0.05751   0.06297   0.06728   0.07225
 Alpha virt. eigenvalues --    0.07506   0.07511   0.08200   0.08813   0.09647

 Mulliken charges:
               1
     1  C    0.290531
     2  C    0.917050
     3  C   -0.922174
     4  C    0.686666
     5  C    0.192769
     6  C    0.999711
     7  C    0.772420
     8  C    0.399739
     9  C    0.770912
    10  C    0.610782
    11  H   -0.257463
    12  H    0.306285
    13  H   -0.106071
    14  H   -0.006341
    15  H   -0.200400
    16  H   -0.051047
    17  H   -0.040749
    18  H   -0.117944
    19  H   -0.130460
    20  H    0.214040
    21  H   -0.089291
    22  H   -0.204455
    23  H   -0.303234
    24  H   -0.213547
    25  H   -0.104622
    26  H    0.046040
    27  H    0.049725
    28  H    0.015561
    29  N   -0.336720
    30  N   -0.475174
    31  O   -0.566470
    32  O   -0.619259
    33  O   -0.508734
    34  O   -0.502149
    35  O   -0.515927
 Sum of Mulliken charges =  -0.00000

 Dipole moment (field-independent basis, Debye):
    X=             -4.2898    Y=              0.4923    Z=              4.3584  Tot=              6.1352

 Test job not archived.
 1\1\GINC-SE393\SP\RHF\Aug-CC-pVDZ\C10H18N2O5\OHZDE\08-Apr-2025\0\\#t h
 f aug-cc-pvdz iop(5/13=1,5/36=2,99/5=2) pseudo=read geom=check guess=(
 read,tcheck) scf=(maxcycle=1)\\title\\0,1\C,0,-0.979385,2.06264,0.5141
 92\C,0,4.19949,0.829634,0.170013\C,0,3.28311,-0.404414,0.180441\C,0,1.
 19601,-1.46821,-0.645671\C,0,1.91382,-0.103296,-0.460011\C,0,3.03045,-
 0.892328,1.63736\C,0,-2.60105,0.195315,-0.337879\C,0,-2.01065,0.894901
 ,0.876829\C,0,0.147182,1.608,-0.364819\C,0,-3.02682,-1.22784,0.0131018
 \H,0,3.72258,-1.23212,-0.396824\H,0,-0.463365,-2.25064,-0.320511\H,0,3

 Normal termination of Gaussian 16 at Tue Apr  8 22:08:38 2025.
