 Gaussian 16, Revision C.01,

 ----------------------------------------------------------------------
 #t hf aug-cc-pvdz symm=none int=(grid=ultrafine) guess=(read,tcheck) s
 table=(opt,rrhf)
 ----------------------------------------------------------------------
 -----
 title
 -----
 Symbolic Z-matrix:
 Charge =  0 Multiplicity = 1

 SCF Done:  E(RHF) =  -302.697318321     A.U. after   13 cycles
 Normal termination of Gaussian 16 at Tue Apr  8 21:44:46 2025.
 Gaussian 16:  ES64L-G16RevC.01  3-Jul-2019

 ----------------------------------------------------------------------
 #t hf aug-cc-pvdz iop(5/13=1,5/36=2,99/5=2) pseudo=read geom=check gue
 ss=(read,tcheck) scf=(maxcycle=1)
 ----------------------------------------------------------------------
 -----
 title
 -----
 Structure from the checkpoint file:  "ANI1ccx_528_conf44_mol1.chk"
 Charge =  0 Multiplicity = 1

                         Standard orientation:
 ---------------------------------------------------------------------
 Center     Atomic      Atomic             Coordinates (Angstroms)
 Number     Number       Type             X           Y           Z
 ---------------------------------------------------------------------
      1          6           0       -0.693664   -0.746116    0.071452
      2          6           0        0.533237    0.128118    0.025703
      3          1           0       -1.547330    0.869755   -0.119325
      4          1           0       -0.628775   -1.270741    1.070690
      5          1           0       -0.595048   -1.462871   -0.730277
      6          1           0        1.577160   -1.424901    0.098247
      7          8           0       -1.821580   -0.024818   -0.077139
      8          8           0        1.712030   -0.438999   -0.084568
      9          8           0        0.379121    1.338409    0.048924
 ---------------------------------------------------------------------

 SCF Done:  E(RHF) =  -302.795871995     A.U. after    2 cycles

 The electronic state is 1-A.
 Alpha  occ. eigenvalues --  -20.66462 -20.58528 -20.57744 -11.41551 -11.32733
 Alpha  occ. eigenvalues --   -1.45597  -1.38297  -1.33862  -1.00523  -0.86345
 Alpha  occ. eigenvalues --   -0.80769  -0.71477  -0.71038  -0.67270  -0.65162
 Alpha  occ. eigenvalues --   -0.63961  -0.56139  -0.51618  -0.48975  -0.48089
 Alpha virt. eigenvalues --    0.02071   0.04650   0.04894   0.06494   0.09000
 Alpha virt. eigenvalues --    0.11013   0.11441   0.11641   0.12998   0.14824
 Alpha virt. eigenvalues --    0.15696   0.15789   0.19032   0.20750   0.21545

 Mulliken charges:
               1
     1  C    0.644341
     2  C    0.439114
     3  H    0.172579
     4  H    0.057480
     5  H   -0.106956
     6  H    0.239720
     7  O   -0.453501
     8  O   -0.475331
     9  O   -0.517446
 Sum of Mulliken charges =  -0.00000

 Dipole moment (field-independent basis, Debye):
    X=              0.8155    Y=             -4.0913    Z=              0.3826  Tot=              4.1893

 Test job not archived.
 1\1\GINC-SE044\SP\RHF\Aug-CC-pVDZ\C2H4O3\OHZDE\08-Apr-2025\0\\#t hf au
 g-cc-pvdz iop(5/13=1,5/36=2,99/5=2) pseudo=read geom=check guess=(read
 ,tcheck) scf=(maxcycle=1)\\title\\0,1\C,0,-0.693664,-0.746115,0.071452
 2\C,0,0.533237,0.128119,0.0257025\H,0,-1.54733,0.869756,-0.119325\H,0,
 -0.628775,-1.27074,1.07069\H,0,-0.595048,-1.46287,-0.730277\H,0,1.5771
 6,-1.4249,0.0982471\O,0,-1.82158,-0.024817,-0.0771392\O,0,1.71203,-0.4
 38998,-0.0845684\O,0,0.379121,1.33841,0.0489241\\Version=ES64L-G16RevC
 .01\State=1-A\HF=-302.795872\RMSD=3.705e-03\Dipole=0.3208397,-1.609646

 Normal termination of Gaussian 16 at Tue Apr  8 21:44:49 2025.
