 Gaussian 16, Revision C.01,

 ----------------------------------------------------------------------
 #t hf aug-cc-pvdz symm=none int=(grid=ultrafine) guess=(read,tcheck) s
 table=(opt,rrhf)
 ----------------------------------------------------------------------
 -----
 title
 -----
 Symbolic Z-matrix:
 Charge =  0 Multiplicity = 1

 SCF Done:  E(RHF) =  -276.588020690     A.U. after   14 cycles
 Normal termination of Gaussian 16 at Tue Apr  8 21:16:23 2025.
 Gaussian 16:  ES64L-G16RevC.01  3-Jul-2019

 ----------------------------------------------------------------------
 #t hf aug-cc-pvdz iop(5/13=1,5/36=2,99/5=2) pseudo=read geom=check gue
 ss=(read,tcheck) scf=(maxcycle=1)
 ----------------------------------------------------------------------
 -----
 title
 -----
 Structure from the checkpoint file:  "ANI1ccx_370_conf72_mol1.chk"
 Charge =  0 Multiplicity = 1

                         Standard orientation:
 ---------------------------------------------------------------------
 Center     Atomic      Atomic             Coordinates (Angstroms)
 Number     Number       Type             X           Y           Z
 ---------------------------------------------------------------------
      1          6           0       -1.038050    0.041808   -0.012857
      2          1           0       -2.132620   -0.014793    0.091737
      3          7           0       -0.357623    1.146057    0.013492
      4          7           0        0.953083    0.642272   -0.031593
      5          7           0        0.946961   -0.578848    0.045004
      6          8           0       -0.304502   -1.087802   -0.025365
 ---------------------------------------------------------------------

 SCF Done:  E(RHF) =  -276.667570514     A.U. after    2 cycles

 The electronic state is 1-A.
 Alpha  occ. eigenvalues --  -20.72715 -15.77893 -15.75048 -15.70574 -11.40347
 Alpha  occ. eigenvalues --   -1.56800  -1.34014  -1.21605  -0.94004  -0.90118
 Alpha  occ. eigenvalues --   -0.79081  -0.75204  -0.67469  -0.59125  -0.54178
 Alpha  occ. eigenvalues --   -0.51803  -0.49475  -0.45740
 Alpha virt. eigenvalues --    0.02714   0.06644   0.07478   0.09220   0.10704
 Alpha virt. eigenvalues --    0.12950   0.13237   0.15086   0.15437   0.17500
 Alpha virt. eigenvalues --    0.18404   0.20171   0.20777   0.23281   0.25505

 Mulliken charges:
               1
     1  C    0.878678
     2  H   -0.118924
     3  N   -0.327798
     4  N   -0.052284
     5  N    0.119822
     6  O   -0.499493
 Sum of Mulliken charges =   0.00000

 Dipole moment (field-independent basis, Debye):
    X=             -2.8922    Y=             -0.8390    Z=              0.0534  Tot=              3.0119

 Test job not archived.
 1\1\GINC-SE043\SP\RHF\Aug-CC-pVDZ\C1H1N3O1\OHZDE\08-Apr-2025\0\\#t hf
 aug-cc-pvdz iop(5/13=1,5/36=2,99/5=2) pseudo=read geom=check guess=(re
 ad,tcheck) scf=(maxcycle=1)\\title\\0,1\C,0,-1.03805,0.0418153,-0.0128
 573\H,0,-2.13262,-0.0147787,0.0917373\N,0,-0.357616,1.14606,0.0134921\
 N,0,0.953087,0.642266,-0.0315927\N,0,0.946957,-0.578854,0.0450043\O,0,
 -0.304509,-1.0878,-0.025365\\Version=ES64L-G16RevC.01\State=1-A\HF=-27
 6.6675705\RMSD=3.363e-03\Dipole=-1.1378773,-0.3300996,0.0210031\Quadru
 pole=2.3212605,-3.222994,0.9017336,0.6215218,-0.1669406,-0.0155688\PG=

 Normal termination of Gaussian 16 at Tue Apr  8 21:16:25 2025.
