 Gaussian 16, Revision C.01,

 ----------------------------------------------------------------------
 #t hf aug-cc-pvdz symm=none int=(grid=ultrafine) guess=(read,tcheck) s
 table=(opt,rrhf)
 ----------------------------------------------------------------------
 -----
 title
 -----
 Symbolic Z-matrix:
 Charge =  0 Multiplicity = 1

 SCF Done:  E(RHF) =  -355.344475888     A.U. after   14 cycles
 Normal termination of Gaussian 16 at Tue Apr  8 21:39:44 2025.
 Gaussian 16:  ES64L-G16RevC.01  3-Jul-2019

 ----------------------------------------------------------------------
 #t hf aug-cc-pvdz iop(5/13=1,5/36=2,99/5=2) pseudo=read geom=check gue
 ss=(read,tcheck) scf=(maxcycle=1)
 ----------------------------------------------------------------------
 -----
 title
 -----
 Structure from the checkpoint file:  "ANI1ccx_469_conf11_mol1.chk"
 Charge =  0 Multiplicity = 1

                         Standard orientation:
 ---------------------------------------------------------------------
 Center     Atomic      Atomic             Coordinates (Angstroms)
 Number     Number       Type             X           Y           Z
 ---------------------------------------------------------------------
      1          6           0        0.786754    0.041863   -0.028890
      2          6           0       -1.349079    0.500235    0.007725
      3          1           0       -2.159629    1.163291    0.052204
      4          7           0       -1.360440   -0.748476   -0.054523
      5          8           0        1.993020    0.034992   -0.012742
      6          8           0       -0.130810    1.105570    0.012869
      7          8           0        0.019872   -1.037630    0.056929
 ---------------------------------------------------------------------

 SCF Done:  E(RHF) =  -355.456692292     A.U. after    2 cycles

 The electronic state is 1-A.
 Alpha  occ. eigenvalues --  -20.70393 -20.69596 -20.60206 -15.74899 -11.49467
 Alpha  occ. eigenvalues --  -11.40919  -1.56330  -1.41613  -1.39423  -1.21472
 Alpha  occ. eigenvalues --   -0.95321  -0.91972  -0.79768  -0.77525  -0.70951
 Alpha  occ. eigenvalues --   -0.69902  -0.63975  -0.62688  -0.58320  -0.57570
 Alpha  occ. eigenvalues --   -0.51945  -0.45792
 Alpha virt. eigenvalues --    0.02357   0.06671   0.06866   0.07683   0.10261
 Alpha virt. eigenvalues --    0.10772   0.11398   0.13560   0.13940   0.15491
 Alpha virt. eigenvalues --    0.16617   0.17079   0.19113   0.20177   0.23025

 Mulliken charges:
               1
     1  C    0.732029
     2  C    0.939264
     3  H   -0.217623
     4  N   -0.035780
     5  O   -0.377920
     6  O   -0.498279
     7  O   -0.541691
 Sum of Mulliken charges =  -0.00000

 Dipole moment (field-independent basis, Debye):
    X=             -3.9835    Y=              2.0456    Z=             -0.0380  Tot=              4.4782

 Test job not archived.
 1\1\GINC-SE087\SP\RHF\Aug-CC-pVDZ\C2H1N1O3\OHZDE\08-Apr-2025\0\\#t hf
 aug-cc-pvdz iop(5/13=1,5/36=2,99/5=2) pseudo=read geom=check guess=(re
 ad,tcheck) scf=(maxcycle=1)\\title\\0,1\C,0,0.786754,0.0418637,-0.0288
 897\C,0,-1.34908,0.500234,0.0077249\H,0,-2.15963,1.16329,0.0522036\N,0
 ,-1.36044,-0.748477,-0.0545227\O,0,1.99302,0.0349925,-0.0127421\O,0,-0
 .130811,1.10557,0.0128686\O,0,0.0198718,-1.03763,0.056929\\Version=ES6
 4L-G16RevC.01\State=1-A\HF=-355.4566923\RMSD=2.851e-03\Dipole=-1.56723
 56,0.8048148,-0.0149394\Quadrupole=-1.3957857,-0.531668,1.9274536,-3.4

 Normal termination of Gaussian 16 at Tue Apr  8 21:39:46 2025.
