 Gaussian 16, Revision C.01,

 ----------------------------------------------------------------------
 #t hf aug-cc-pvdz symm=none int=(grid=ultrafine) guess=(read,tcheck) s
 table=(opt,rrhf)
 ----------------------------------------------------------------------
 -----
 title
 -----
 Symbolic Z-matrix:
 Charge =  0 Multiplicity = 1

 SCF Done:  E(RHF) =  -380.147989507     A.U. after   12 cycles
 Normal termination of Gaussian 16 at Tue Apr  8 21:02:36 2025.
 Gaussian 16:  ES64L-G16RevC.01  3-Jul-2019

 ----------------------------------------------------------------------
 #t hf aug-cc-pvdz iop(5/13=1,5/36=2,99/5=2) pseudo=read geom=check gue
 ss=(read,tcheck) scf=(maxcycle=1)
 ----------------------------------------------------------------------
 -----
 title
 -----
 Structure from the checkpoint file:  "ANI1ccx_1843_conf578_mol1.chk"
 Charge =  0 Multiplicity = 1

                         Standard orientation:
 ---------------------------------------------------------------------
 Center     Atomic      Atomic             Coordinates (Angstroms)
 Number     Number       Type             X           Y           Z
 ---------------------------------------------------------------------
      1          1           0        0.585571   -1.331680    0.925449
      2          1           0       -0.667432   -1.843521    1.800230
      3          1           0        1.718511   -0.510108   -0.225823
      4          1           0        1.416562   -1.592179   -1.454880
      5          1           0        2.352019    1.689302    0.390261
      6          1           0        0.944759    1.606101   -0.243056
      7          1           0       -1.462320    0.935696    0.000073
      8          1           0       -0.554803    1.030619    1.282450
      9          1           0       -3.400509   -0.270580   -0.555843
     10          1           0       -1.704529   -0.613653   -0.405745
     11          8           0       -0.250820   -0.985005    1.234290
     12          8           0        1.754252   -1.567459   -0.470208
     13          8           0        1.888509    1.386902   -0.462954
     14          8           0       -0.801732    1.605339    0.505301
     15          8           0       -2.493689   -0.327277   -0.995567
 ---------------------------------------------------------------------

 SCF Done:  E(RHF) =  -380.270454293     A.U. after    2 cycles

 The electronic state is 1-A.
 Alpha  occ. eigenvalues --  -20.60990 -20.60119 -20.58779 -20.58650 -20.57876
 Alpha  occ. eigenvalues --   -1.31739  -1.30265  -1.29979  -1.27668  -1.26663
 Alpha  occ. eigenvalues --   -0.74962  -0.73338  -0.70686  -0.68663  -0.67479
 Alpha  occ. eigenvalues --   -0.64114  -0.61171  -0.59336  -0.58693  -0.57571
 Alpha  occ. eigenvalues --   -0.55240  -0.53194  -0.52385  -0.51580  -0.51271
 Alpha virt. eigenvalues --    0.02142   0.04401   0.04649   0.05487   0.07330
 Alpha virt. eigenvalues --    0.07964   0.08407   0.08985   0.10318   0.11068
 Alpha virt. eigenvalues --    0.15765   0.16869   0.18141   0.18647   0.19427

 Mulliken charges:
               1
     1  H    0.223020
     2  H    0.357299
     3  H    0.348711
     4  H    0.247986
     5  H    0.242208
     6  H    0.245848
     7  H    0.277706
     8  H    0.270207
     9  H    0.225582
    10  H    0.287890
    11  O   -0.609877
    12  O   -0.597536
    13  O   -0.479156
    14  O   -0.575223
    15  O   -0.464664
 Sum of Mulliken charges =  -0.00000

 Dipole moment (field-independent basis, Debye):
    X=             -1.8132    Y=             -2.0527    Z=              3.0593  Tot=              4.1062

 Test job not archived.
 1\1\GINC-SE163\SP\RHF\Aug-CC-pVDZ\H10O5\OHZDE\08-Apr-2025\0\\#t hf aug
 -cc-pvdz iop(5/13=1,5/36=2,99/5=2) pseudo=read geom=check guess=(read,
 tcheck) scf=(maxcycle=1)\\title\\0,1\H,0,0.585569,-1.33168,0.925449\H,
 0,-0.667435,-1.84352,1.80023\H,0,1.71851,-0.510109,-0.225823\H,0,1.416
 56,-1.59218,-1.45488\H,0,2.35202,1.6893,0.390261\H,0,0.94476,1.6061,-0
 .243056\H,0,-1.46232,0.935698,0.00007331\H,0,-0.554803,1.03062,1.28245
 \H,0,-3.40051,-0.270576,-0.555843\H,0,-1.70453,-0.613651,-0.405745\O,0
 ,-0.250822,-0.985004,1.23429\O,0,1.75425,-1.56746,-0.470208\O,0,1.8885

 Normal termination of Gaussian 16 at Tue Apr  8 21:02:40 2025.
