 Gaussian 16, Revision C.01,

 ----------------------------------------------------------------------
 #t hf aug-cc-pvdz symm=none int=(grid=ultrafine) guess=(read,tcheck) s
 table=(opt,rrhf)
 ----------------------------------------------------------------------
 -----
 title
 -----
 Symbolic Z-matrix:
 Charge =  0 Multiplicity = 1

 SCF Done:  E(RHF) =  -560.063930419     A.U. after   14 cycles
 Normal termination of Gaussian 16 at Tue Apr  8 21:42:21 2025.
 Gaussian 16:  ES64L-G16RevC.01  3-Jul-2019

 ----------------------------------------------------------------------
 #t hf aug-cc-pvdz iop(5/13=1,5/36=2,99/5=2) pseudo=read geom=check gue
 ss=(read,tcheck) scf=(maxcycle=1)
 ----------------------------------------------------------------------
 -----
 title
 -----
 Structure from the checkpoint file:  "ANI1ccx_485_conf1_mol2.chk"
 Charge =  0 Multiplicity = 1

                         Standard orientation:
 ---------------------------------------------------------------------
 Center     Atomic      Atomic             Coordinates (Angstroms)
 Number     Number       Type             X           Y           Z
 ---------------------------------------------------------------------
      1          6           0       -1.112029   -0.686063   -0.171065
      2          6           0        1.107241   -0.709750    0.152885
      3          1           0        1.770531    2.128371    0.240685
      4          1           0       -1.730829    1.322431    1.126900
      5          7           0        0.644402    0.626081    0.303838
      6          7           0       -0.633244    0.651363   -0.290144
      7          8           0        1.497841    1.482201   -0.423723
      8          8           0       -1.474299    1.610061    0.231268
      9          8           0       -2.254529   -1.052449   -0.083465
     10          8           0       -0.012098   -1.468229   -0.061630
     11          8           0        2.231951   -1.073839    0.168254
 ---------------------------------------------------------------------

 SCF Done:  E(RHF) =  -560.238128728     A.U. after    2 cycles

 The electronic state is 1-A.
 Alpha  occ. eigenvalues --  -20.71020 -20.67633 -20.67118 -20.62395 -20.62174
 Alpha  occ. eigenvalues --  -15.79703 -15.79397 -11.49005 -11.48809  -1.55620
 Alpha  occ. eigenvalues --   -1.46676  -1.45118  -1.40982  -1.39653  -1.24935
 Alpha  occ. eigenvalues --   -1.08478  -0.95022  -0.91668  -0.82546  -0.80663
 Alpha  occ. eigenvalues --   -0.76860  -0.73747  -0.72891  -0.71916  -0.69476
 Alpha  occ. eigenvalues --   -0.67351  -0.62226  -0.60532  -0.59247  -0.58209
 Alpha  occ. eigenvalues --   -0.54673  -0.53491  -0.51895  -0.44806
 Alpha virt. eigenvalues --    0.02353   0.03778   0.06876   0.07144   0.09630
 Alpha virt. eigenvalues --    0.10293   0.11039   0.11761   0.11780   0.12219
 Alpha virt. eigenvalues --    0.12465   0.14327   0.15938   0.16339   0.17845

 Mulliken charges:
               1
     1  C    0.895517
     2  C    0.903244
     3  H    0.235882
     4  H    0.194260
     5  N   -0.200730
     6  N   -0.032770
     7  O   -0.401001
     8  O   -0.428645
     9  O   -0.368320
    10  O   -0.479705
    11  O   -0.317732
 Sum of Mulliken charges =   0.00000

 Dipole moment (field-independent basis, Debye):
    X=              0.3326    Y=              2.7047    Z=              2.5212  Tot=              3.7125

 Test job not archived.
 1\1\GINC-SE094\SP\RHF\Aug-CC-pVDZ\C2H2N2O5\OHZDE\08-Apr-2025\0\\#t hf
 aug-cc-pvdz iop(5/13=1,5/36=2,99/5=2) pseudo=read geom=check guess=(re
 ad,tcheck) scf=(maxcycle=1)\\title\\0,1\C,0,-1.11203,-0.686064,-0.1710
 65\C,0,1.10724,-0.709751,0.152885\H,0,1.77053,2.12837,0.240685\H,0,-1.
 73083,1.32243,1.1269\N,0,0.644401,0.62608,0.303838\N,0,-0.633245,0.651
 362,-0.290144\O,0,1.49784,1.4822,-0.423723\O,0,-1.4743,1.61006,0.23126
 8\O,0,-2.25453,-1.05245,-0.0834652\O,0,-0.0120985,-1.46823,-0.06163\O,
 0,2.23195,-1.07384,0.168254\\Version=ES64L-G16RevC.01\State=1-A\HF=-56

 Normal termination of Gaussian 16 at Tue Apr  8 21:42:27 2025.
