 Gaussian 16, Revision C.01,

 ----------------------------------------------------------------------
 #t hf aug-cc-pvdz symm=none int=(grid=ultrafine) guess=(read,tcheck) s
 table=(opt,rrhf)
 ----------------------------------------------------------------------
 -----
 title
 -----
 Symbolic Z-matrix:
 Charge =  0 Multiplicity = 1

 SCF Done:  E(RHF) =  -482.913641388     A.U. after   14 cycles
 Normal termination of Gaussian 16 at Tue Apr  8 22:13:33 2025.
 Gaussian 16:  ES64L-G16RevC.01  3-Jul-2019

 ----------------------------------------------------------------------
 #t hf aug-cc-pvdz iop(5/13=1,5/36=2,99/5=2) pseudo=read geom=check gue
 ss=(read,tcheck) scf=(maxcycle=1)
 ----------------------------------------------------------------------
 -----
 title
 -----
 Structure from the checkpoint file:  "ANI1ccx_965_conf1_mol1.chk"
 Charge =  0 Multiplicity = 1

                         Standard orientation:
 ---------------------------------------------------------------------
 Center     Atomic      Atomic             Coordinates (Angstroms)
 Number     Number       Type             X           Y           Z
 ---------------------------------------------------------------------
      1          6           0       -1.598890   -0.049412   -0.032924
      2          6           0        0.354471   -1.149290    0.058253
      3          6           0        1.040320    0.073754   -0.171558
      4          6           0        0.274714    1.206560    0.009602
      5          1           0        0.281448    3.194480    0.652168
      6          1           0        1.857336    2.487522    0.439198
      7          1           0        2.813609    0.809258   -0.866288
      8          1           0        2.743601   -0.842537   -0.654175
      9          1           0        0.590609   -3.137040    0.403576
     10          1           0       -3.395918   -0.968153   -0.399149
     11          1           0       -3.489431    0.741514   -0.168038
     12          1           0        1.882624   -2.315698    0.909244
     13          7           0        0.869988    2.438661    0.214197
     14          7           0       -2.930540   -0.137259   -0.087851
     15          7           0       -0.967952   -1.250582   -0.027053
     16          7           0        1.112504   -2.359009    0.222715
     17          7           0        2.450880    0.042207   -0.281693
     18          7           0       -1.064532    1.200408    0.031576
 ---------------------------------------------------------------------

 SCF Done:  E(RHF) =  -483.054815503     A.U. after    2 cycles

 The electronic state is 1-A.
 Alpha  occ. eigenvalues --  -15.63927 -15.63447 -15.63020 -15.62387 -15.60066
 Alpha  occ. eigenvalues --  -15.59942 -11.35300 -11.33543 -11.32940 -11.25082
 Alpha  occ. eigenvalues --   -1.29095  -1.21362  -1.20799  -1.14989  -1.12301
 Alpha  occ. eigenvalues --   -1.09927  -0.97133  -0.85567  -0.84630  -0.76434
 Alpha  occ. eigenvalues --   -0.73103  -0.67589  -0.67277  -0.65437  -0.64144
 Alpha  occ. eigenvalues --   -0.60973  -0.60450  -0.59869  -0.58618  -0.51683
 Alpha  occ. eigenvalues --   -0.50132  -0.47165  -0.45085  -0.40278  -0.38926
 Alpha  occ. eigenvalues --   -0.35597  -0.26682
 Alpha virt. eigenvalues --    0.02962   0.03537   0.03632   0.04736   0.06159
 Alpha virt. eigenvalues --    0.06772   0.07854   0.08793   0.09658   0.10816
 Alpha virt. eigenvalues --    0.12880   0.13332   0.13796   0.13921   0.14962

 Mulliken charges:
               1
     1  C    0.729942
     2  C    0.665304
     3  C    0.929423
     4  C    0.620509
     5  H    0.035164
     6  H   -0.010147
     7  H    0.001120
     8  H    0.015764
     9  H   -0.121527
    10  H   -0.063864
    11  H    0.034989
    12  H    0.031387
    13  N   -0.410807
    14  N   -0.269210
    15  N   -0.694095
    16  N   -0.269994
    17  N   -0.513417
    18  N   -0.710542
 Sum of Mulliken charges =   0.00000

 Dipole moment (field-independent basis, Debye):
    X=              1.0990    Y=              0.1571    Z=              0.3352  Tot=              1.1596

 Test job not archived.
 1\1\GINC-SE187\SP\RHF\Aug-CC-pVDZ\C4H8N6\OHZDE\08-Apr-2025\0\\#t hf au
 g-cc-pvdz iop(5/13=1,5/36=2,99/5=2) pseudo=read geom=check guess=(read
 ,tcheck) scf=(maxcycle=1)\\title\\0,1\C,0,-1.59889,-0.0494092,-0.03292
 43\C,0,0.354469,-1.14929,0.0582532\C,0,1.04032,0.0737532,-0.171558\C,0
 ,0.274716,1.20656,0.0096021\H,0,0.281453,3.19448,0.652168\H,0,1.85734,
 2.48752,0.439198\H,0,2.81361,0.809254,-0.866288\H,0,2.7436,-0.842541,-
 0.654175\H,0,0.590604,-3.13704,0.403576\H,0,-3.39592,-0.968147,-0.3991
 49\H,0,-3.48943,0.74152,-0.168038\H,0,1.88262,-2.3157,0.909244\N,0,0.8

 Normal termination of Gaussian 16 at Tue Apr  8 22:13:43 2025.
