 Gaussian 16, Revision C.01,

 ----------------------------------------------------------------------
 #t hf aug-cc-pvdz symm=none int=(grid=ultrafine) guess=(read,tcheck) s
 table=(opt,rrhf)
 ----------------------------------------------------------------------
 -----
 title
 -----
 Symbolic Z-matrix:
 Charge =  0 Multiplicity = 1

 SCF Done:  E(RHF) =  -304.180409239     A.U. after   11 cycles
 Normal termination of Gaussian 16 at Tue Apr  8 21:12:22 2025.
 Gaussian 16:  ES64L-G16RevC.01  3-Jul-2019

 ----------------------------------------------------------------------
 #t hf aug-cc-pvdz iop(5/13=1,5/36=2,99/5=2) pseudo=read geom=check gue
 ss=(read,tcheck) scf=(maxcycle=1)
 ----------------------------------------------------------------------
 -----
 title
 -----
 Structure from the checkpoint file:  "ANI1ccx_1904_conf13_mol1.chk"
 Charge =  0 Multiplicity = 1

                         Standard orientation:
 ---------------------------------------------------------------------
 Center     Atomic      Atomic             Coordinates (Angstroms)
 Number     Number       Type             X           Y           Z
 ---------------------------------------------------------------------
      1          1           0        0.001740   -2.182272    0.828596
      2          1           0       -0.804619   -1.276883   -0.142540
      3          1           0        1.308320   -0.742063    0.037044
      4          1           0        2.370700   -0.079939   -0.797560
      5          1           0        0.797818    1.223319    0.143949
      6          1           0        0.124598    2.348908   -0.669271
      7          1           0       -1.305851    0.727001   -0.086893
      8          1           0       -2.514311    0.162346    0.682660
      9          8           0        0.003839   -1.836112   -0.097325
     10          8           0        1.982719    0.001208    0.101159
     11          8           0        0.006892    1.822548    0.102811
     12          8           0       -1.990751   -0.010197   -0.106143
 ---------------------------------------------------------------------

 SCF Done:  E(RHF) =  -304.281302423     A.U. after    2 cycles

 The electronic state is 1-A.
 Alpha  occ. eigenvalues --  -20.58250 -20.58177 -20.57558 -20.57543  -1.32918
 Alpha  occ. eigenvalues --   -1.31344  -1.30747  -1.29202  -0.74812  -0.73959
 Alpha  occ. eigenvalues --   -0.72049  -0.71297  -0.64216  -0.61829  -0.60752
 Alpha  occ. eigenvalues --   -0.58724  -0.52943  -0.52739  -0.52344  -0.51857
 Alpha virt. eigenvalues --    0.02984   0.04470   0.05285   0.06487   0.07756
 Alpha virt. eigenvalues --    0.08180   0.09371   0.10984   0.16491   0.17488
 Alpha virt. eigenvalues --    0.18416   0.20402   0.21010   0.22670   0.22769

 Mulliken charges:
               1
     1  H    0.225331
     2  H    0.252976
     3  H    0.281320
     4  H    0.194272
     5  H    0.274247
     6  H    0.143182
     7  H    0.304206
     8  H    0.160612
     9  O   -0.476967
    10  O   -0.484830
    11  O   -0.416865
    12  O   -0.457483
 Sum of Mulliken charges =   0.00000

 Dipole moment (field-independent basis, Debye):
    X=             -0.0126    Y=              0.3597    Z=             -0.0049  Tot=              0.3600

 Test job not archived.
 1\1\GINC-SE393\SP\RHF\Aug-CC-pVDZ\H8O4\OHZDE\08-Apr-2025\0\\#t hf aug-
 cc-pvdz iop(5/13=1,5/36=2,99/5=2) pseudo=read geom=check guess=(read,t
 check) scf=(maxcycle=1)\\title\\0,1\H,0,0.00173884,-2.18227,0.828596\H
 ,0,-0.80462,-1.27688,-0.14254\H,0,1.30832,-0.742062,0.037044\H,0,2.370
 7,-0.0799396,-0.79756\H,0,0.79782,1.22332,0.143949\H,0,0.124601,2.3489
 1,-0.669271\H,0,-1.30585,0.727004,-0.0868931\H,0,-2.51431,0.16235,0.68
 266\O,0,0.00383808,-1.83611,-0.0973252\O,0,1.98272,0.00120786,0.101159
 \O,0,0.00689451,1.82255,0.102811\O,0,-1.99075,-0.0101929,-0.106143\\Ve

 Normal termination of Gaussian 16 at Tue Apr  8 21:12:25 2025.
