 Gaussian 16, Revision C.01,

 ----------------------------------------------------------------------
 #t hf aug-cc-pvdz symm=none int=(grid=ultrafine) guess=(read,tcheck) s
 table=(opt,rrhf)
 ----------------------------------------------------------------------
 -----
 title
 -----
 Symbolic Z-matrix:
 Charge =  0 Multiplicity = 1

 SCF Done:  E(RHF) =  -907.718437759     A.U. after   14 cycles
 Normal termination of Gaussian 16 at Tue Apr  8 22:28:06 2025.
 Gaussian 16:  ES64L-G16RevC.01  3-Jul-2019

 ----------------------------------------------------------------------
 #t hf aug-cc-pvdz iop(5/13=1,5/36=2,99/5=2) pseudo=read geom=check gue
 ss=(read,tcheck) scf=(maxcycle=1)
 ----------------------------------------------------------------------
 -----
 title
 -----
 Structure from the checkpoint file:  "ANI1ccx_88_conf1_mol1.chk"
 Charge =  0 Multiplicity = 1

                         Standard orientation:
 ---------------------------------------------------------------------
 Center     Atomic      Atomic             Coordinates (Angstroms)
 Number     Number       Type             X           Y           Z
 ---------------------------------------------------------------------
      1          6           0       -1.751620    1.937659   -0.316071
      2          6           0        2.502500    0.648350   -0.365505
      3          6           0        1.142631   -0.982660    1.020360
      4          6           0        1.293221   -0.267092   -0.307080
      5          6           0       -3.337949   -2.021351   -0.450125
      6          6           0        3.816371   -0.056409   -0.649856
      7          6           0       -2.984499    0.098029    1.011810
      8          6           0       -2.778130    1.586559    0.752823
      9          6           0       -0.360261    1.428520    0.111951
     10          6           0       -3.988359   -0.675097    0.040321
     11          1           0       -2.311209   -1.540731   -2.108890
     12          1           0        2.085461   -1.486679    2.474040
     13          1           0        4.938980    1.451061    0.236670
     14          1           0        5.810931    0.148022   -0.365587
     15          1           0        2.494400    1.344871   -1.186570
     16          1           0        2.579340    1.296961    0.529339
     17          1           0        1.428501   -1.049410   -1.067210
     18          1           0       -0.486239   -0.079122   -1.270100
     19          1           0       -1.576948   -2.736621   -1.249810
     20          1           0       -4.019289   -2.598241   -1.078180
     21          1           0       -4.195439   -0.092646   -0.859394
     22          1           0       -2.343439    0.442026   -1.720220
     23          1           0       -4.949089   -0.848471    0.566292
     24          1           0       -1.955649   -0.327194    1.010100
     25          1           0       -3.310549   -0.068197    2.026000
     26          1           0       -2.486330    2.114299    1.647710
     27          1           0       -3.707690    2.114509    0.475153
     28          1           0       -1.645250    3.014879   -0.307732
     29          1           0       -2.851070    1.886569   -1.976050
     30          1           0       -3.196059   -2.648191    0.410653
     31          7           0       -2.045940    1.417789   -1.621430
     32          7           0       -2.097279   -1.878861   -1.193010
     33          7           0        0.080496    0.406160   -0.601820
     34          7           0        4.930730    0.612589   -0.255958
     35          8           0        0.196798   -1.580370    1.522210
     36          8           0        3.857281   -1.139879   -1.287090
     37          8           0        0.211764    1.833700    1.102220
     38          8           0        2.271301   -0.916012    1.716110
 ---------------------------------------------------------------------

 SCF Done:  E(RHF) =  -907.993716835     A.U. after    2 cycles

 The electronic state is 1-A.
 Alpha  occ. eigenvalues --  -20.61976 -20.55659 -20.53392 -20.52732 -15.65159
 Alpha  occ. eigenvalues --  -15.63821 -15.61495 -15.61145 -11.39744 -11.37372
 Alpha  occ. eigenvalues --  -11.34847 -11.30253 -11.27366 -11.26310 -11.25345
 Alpha  occ. eigenvalues --  -11.24302 -11.22595 -11.22306  -1.43397  -1.35322
 Alpha  occ. eigenvalues --   -1.32465  -1.30892  -1.22398  -1.18599  -1.17774
 Alpha  occ. eigenvalues --   -1.16389  -1.05929  -1.04515  -0.98629  -0.95610
 Alpha  occ. eigenvalues --   -0.91376  -0.86194  -0.82728  -0.81349  -0.79260
 Alpha  occ. eigenvalues --   -0.77735  -0.73808  -0.72698  -0.72265  -0.69630
 Alpha  occ. eigenvalues --   -0.68740  -0.67297  -0.66383  -0.65555  -0.64184
 Alpha  occ. eigenvalues --   -0.62625  -0.61986  -0.61473  -0.61067  -0.60263
 Alpha  occ. eigenvalues --   -0.59730  -0.57709  -0.57398  -0.55715  -0.55220
 Alpha  occ. eigenvalues --   -0.53900  -0.52741  -0.52045  -0.50494  -0.48835
 Alpha  occ. eigenvalues --   -0.48195  -0.47123  -0.46727  -0.46136  -0.44154
 Alpha  occ. eigenvalues --   -0.42577  -0.42007  -0.40931  -0.38625  -0.38071
 Alpha virt. eigenvalues --    0.02623   0.03066   0.03435   0.03791   0.04707
 Alpha virt. eigenvalues --    0.05085   0.05574   0.05875   0.06153   0.06704
 Alpha virt. eigenvalues --    0.06779   0.07644   0.08252   0.08598   0.08993

 Mulliken charges:
               1
     1  C    0.347863
     2  C    0.747720
     3  C    0.844320
     4  C   -0.625739
     5  C    0.820802
     6  C    0.576135
     7  C    0.905324
     8  C    0.308225
     9  C    0.646282
    10  C    0.280755
    11  H    0.106963
    12  H    0.216984
    13  H   -0.097112
    14  H   -0.024954
    15  H   -0.115935
    16  H   -0.039631
    17  H   -0.155869
    18  H    0.081502
    19  H   -0.068474
    20  H   -0.208295
    21  H   -0.266465
    22  H   -0.040343
    23  H   -0.130623
    24  H   -0.475609
    25  H   -0.147472
    26  H   -0.168800
    27  H   -0.160855
    28  H   -0.049062
    29  H   -0.016981
    30  H   -0.312062
    31  N   -0.205988
    32  N   -0.275036
    33  N    0.118410
    34  N   -0.027032
    35  O   -0.527462
    36  O   -0.634349
    37  O   -0.666523
    38  O   -0.560615
 Sum of Mulliken charges =  -0.00000

 Dipole moment (field-independent basis, Debye):
    X=             -1.5961    Y=              1.0399    Z=             -1.3966  Tot=              2.3621

 Test job not archived.
 1\1\GINC-SE049\SP\RHF\Aug-CC-pVDZ\C10H20N4O4\OHZDE\08-Apr-2025\0\\#t h
 f aug-cc-pvdz iop(5/13=1,5/36=2,99/5=2) pseudo=read geom=check guess=(
 read,tcheck) scf=(maxcycle=1)\\title\\0,1\C,0,-1.75162,1.93766,-0.3160
 71\C,0,2.5025,0.648349,-0.365505\C,0,1.14263,-0.98266,1.02036\C,0,1.29
 322,-0.267092,-0.30708\C,0,-3.33795,-2.02135,-0.450125\C,0,3.81637,-0.
 05641,-0.649856\C,0,-2.9845,0.0980296,1.01181\C,0,-2.77813,1.58656,0.7
 52823\C,0,-0.360261,1.42852,0.111951\C,0,-3.98836,-0.675096,0.0403219\
 H,0,-2.31121,-1.54073,-2.10889\H,0,2.08546,-1.48668,2.47404\H,0,4.9389

 Normal termination of Gaussian 16 at Tue Apr  8 22:29:18 2025.
