 Gaussian 16, Revision C.01,

 ----------------------------------------------------------------------
 #t hf aug-cc-pvdz symm=none int=(grid=ultrafine) guess=(read,tcheck) s
 table=(opt,rrhf)
 ----------------------------------------------------------------------
 -----
 title
 -----
 Symbolic Z-matrix:
 Charge =  0 Multiplicity = 1

 SCF Done:  E(RHF) =  -813.591886667     A.U. after   15 cycles
 Normal termination of Gaussian 16 at Tue Apr  8 21:03:00 2025.
 Gaussian 16:  ES64L-G16RevC.01  3-Jul-2019

 ----------------------------------------------------------------------
 #t hf aug-cc-pvdz iop(5/13=1,5/36=2,99/5=2) pseudo=read geom=check gue
 ss=(read,tcheck) scf=(maxcycle=1)
 ----------------------------------------------------------------------
 -----
 title
 -----
 Structure from the checkpoint file:  "ANI1ccx_1770_conf9_mol1.chk"
 Charge =  0 Multiplicity = 1

                         Standard orientation:
 ---------------------------------------------------------------------
 Center     Atomic      Atomic             Coordinates (Angstroms)
 Number     Number       Type             X           Y           Z
 ---------------------------------------------------------------------
      1          6           0       -1.120810   -0.903272   -0.345280
      2          6           0        1.899719    0.596872   -0.910893
      3          6           0        0.171196    2.256590   -0.032328
      4          6           0        1.161109    1.066521    0.341047
      5          6           0        2.867280   -0.588949   -0.415368
      6          6           0       -3.085070   -0.221248    1.133720
      7          6           0       -2.349201    0.010870   -0.192427
      8          6           0       -0.188934   -1.028800    0.750616
      9          6           0       -3.069730   -0.100165   -1.546260
     10          1           0        1.137380   -0.229046    1.895180
     11          1           0       -0.634505    3.980649    0.600718
     12          1           0        1.828911   -2.171149   -1.351210
     13          1           0        3.034451   -2.695898   -0.336167
     14          1           0        1.263519    0.220300   -1.629560
     15          1           0        2.541569    1.391001   -1.298910
     16          1           0        1.905408    1.593791    0.985685
     17          1           0       -2.216151    0.121543   -2.236330
     18          1           0       -3.818631    0.613417   -1.713950
     19          1           0       -4.065401    0.239374    1.232780
     20          1           0       -3.013320   -1.311002    1.365000
     21          1           0       -2.572041    0.207701    1.957510
     22          1           0       -2.028491    1.074038   -0.103664
     23          1           0       -0.538615   -0.482011   -1.171140
     24          1           0       -0.917398   -2.838751   -0.307399
     25          1           0       -2.456709   -2.495022   -0.153823
     26          1           0       -3.365230   -1.097913   -1.789230
     27          7           0       -1.649949   -2.307211   -0.687816
     28          7           0        0.550865    0.061907    1.102260
     29          7           0        2.500761   -1.916499   -0.635306
     30          8           0        3.834850   -0.291642    0.186922
     31          8           0       -0.162297   -1.994610    1.562760
     32          8           0       -0.121801    2.497620   -1.161950
     33          8           0       -0.251982    3.098770    1.025210
 ---------------------------------------------------------------------

 SCF Done:  E(RHF) =  -813.838962602     A.U. after    2 cycles

 The electronic state is 1-A.
 Alpha  occ. eigenvalues --  -20.64332 -20.59646 -20.55931 -20.55023 -15.66881
 Alpha  occ. eigenvalues --  -15.66034 -15.60585 -11.42632 -11.38807 -11.37855
 Alpha  occ. eigenvalues --  -11.34014 -11.28853 -11.27677 -11.25984 -11.22777
 Alpha  occ. eigenvalues --  -11.22233  -1.43090  -1.39266  -1.35076  -1.33120
 Alpha  occ. eigenvalues --   -1.23717  -1.18237  -1.17294  -1.07029  -1.05841
 Alpha  occ. eigenvalues --   -0.98093  -0.94844  -0.94208  -0.83964  -0.82179
 Alpha  occ. eigenvalues --   -0.80487  -0.76231  -0.74100  -0.73085  -0.72695
 Alpha  occ. eigenvalues --   -0.71513  -0.69865  -0.69229  -0.68681  -0.65713
 Alpha  occ. eigenvalues --   -0.63991  -0.63491  -0.61474  -0.61122  -0.60143
 Alpha  occ. eigenvalues --   -0.59036  -0.57501  -0.56865  -0.56659  -0.55957
 Alpha  occ. eigenvalues --   -0.55586  -0.53107  -0.52900  -0.49397  -0.49119
 Alpha  occ. eigenvalues --   -0.48701  -0.45830  -0.45651  -0.44893  -0.43431
 Alpha  occ. eigenvalues --   -0.41470  -0.40695
 Alpha virt. eigenvalues --    0.02566   0.03128   0.03774   0.04141   0.04953
 Alpha virt. eigenvalues --    0.05489   0.05715   0.06119   0.06959   0.07609
 Alpha virt. eigenvalues --    0.07981   0.08292   0.08411   0.09091   0.10024

 Mulliken charges:
               1
     1  C    0.180310
     2  C    1.162025
     3  C    0.916659
     4  C   -0.274666
     5  C    0.687529
     6  C    0.874705
     7  C   -0.691901
     8  C    0.829582
     9  C    0.985672
    10  H   -0.001459
    11  H    0.263775
    12  H    0.030037
    13  H   -0.065269
    14  H   -0.340151
    15  H   -0.050612
    16  H   -0.029483
    17  H    0.102273
    18  H   -0.233015
    19  H   -0.170307
    20  H    0.061134
    21  H   -0.234208
    22  H   -0.220680
    23  H   -0.494107
    24  H   -0.093018
    25  H    0.080001
    26  H   -0.051887
    27  N   -0.033954
    28  N   -0.470540
    29  N   -0.217858
    30  O   -0.509813
    31  O   -0.745499
    32  O   -0.482923
    33  O   -0.762349
 Sum of Mulliken charges =   0.00000

 Dipole moment (field-independent basis, Debye):
    X=             -0.9826    Y=              1.8338    Z=             -1.6535  Tot=              2.6576

 Test job not archived.
 1\1\GINC-SE252\SP\RHF\Aug-CC-pVDZ\C9H17N3O4\OHZDE\08-Apr-2025\0\\#t hf
  aug-cc-pvdz iop(5/13=1,5/36=2,99/5=2) pseudo=read geom=check guess=(r
 ead,tcheck) scf=(maxcycle=1)\\title\\0,1\C,0,-1.12081,-0.903271,-0.345
 28\C,0,1.89972,0.596871,-0.910893\C,0,0.171198,2.25659,-0.0323286\C,0,
 1.16111,1.06652,0.341047\C,0,2.86728,-0.588951,-0.415368\C,0,-3.08507,
 -0.221246,1.13372\C,0,-2.3492,0.0108718,-0.192427\C,0,-0.188934,-1.028
 8,0.750616\C,0,-3.06973,-0.100163,-1.54626\H,0,1.13738,-0.229047,1.895
 18\H,0,-0.634502,3.98065,0.600718\H,0,1.82891,-2.17115,-1.35121\H,0,3.

 Normal termination of Gaussian 16 at Tue Apr  8 21:03:49 2025.
