 Gaussian 16, Revision C.01,

 ----------------------------------------------------------------------
 #t hf aug-cc-pvdz symm=none int=(grid=ultrafine) guess=(read,tcheck) s
 table=(opt,rrhf)
 ----------------------------------------------------------------------
 -----
 title
 -----
 Symbolic Z-matrix:
 Charge =  0 Multiplicity = 1

 SCF Done:  E(RHF) =  -480.756537571     A.U. after   14 cycles
 Normal termination of Gaussian 16 at Tue Apr  8 21:46:31 2025.
 Gaussian 16:  ES64L-G16RevC.01  3-Jul-2019

 ----------------------------------------------------------------------
 #t hf aug-cc-pvdz iop(5/13=1,5/36=2,99/5=2) pseudo=read geom=check gue
 ss=(read,tcheck) scf=(maxcycle=1)
 ----------------------------------------------------------------------
 -----
 title
 -----
 Structure from the checkpoint file:  "ANI1ccx_558_conf2_mol1.chk"
 Charge =  0 Multiplicity = 1

                         Standard orientation:
 ---------------------------------------------------------------------
 Center     Atomic      Atomic             Coordinates (Angstroms)
 Number     Number       Type             X           Y           Z
 ---------------------------------------------------------------------
      1          6           0       -1.179850   -0.642122    0.177344
      2          6           0        1.107020   -0.715206   -0.210602
      3          1           0        2.098539    1.775349   -0.281924
      4          1           0        1.809969    1.345989    1.284230
      5          1           0       -1.020322    2.473898    0.103976
      6          1           0       -1.560551    1.671018   -1.254850
      7          1           0       -0.104278   -2.395741   -0.047304
      8          1           0        2.597750   -1.961700   -0.054275
      9          7           0        1.350129    1.612429    0.387313
     10          7           0        0.632646    0.616538   -0.341600
     11          7           0       -0.682468    0.599709    0.106858
     12          7           0       -1.469611    1.608628   -0.202694
     13          7           0       -0.017412   -1.435491   -0.044744
     14          7           0        2.325100   -0.955794   -0.060844
     15          8           0       -2.294100   -1.135872    0.192458
 ---------------------------------------------------------------------

 SCF Done:  E(RHF) =  -480.898144371     A.U. after    2 cycles

 The electronic state is 1-A.
 Alpha  occ. eigenvalues --  -20.55906 -15.73275 -15.72795 -15.68256 -15.67439
 Alpha  occ. eigenvalues --  -15.67162 -15.61574 -11.42162 -11.38924  -1.44460
 Alpha  occ. eigenvalues --   -1.35322  -1.29524  -1.23520  -1.17201  -1.09472
 Alpha  occ. eigenvalues --   -1.01349  -0.88460  -0.83507  -0.78269  -0.75186
 Alpha  occ. eigenvalues --   -0.71322  -0.70192  -0.67324  -0.66935  -0.65611
 Alpha  occ. eigenvalues --   -0.61574  -0.55193  -0.51549  -0.48815  -0.46427
 Alpha  occ. eigenvalues --   -0.44806  -0.43622  -0.41481  -0.36517
 Alpha virt. eigenvalues --    0.02593   0.03235   0.03503   0.04731   0.06719
 Alpha virt. eigenvalues --    0.07537   0.09679   0.11099   0.11406   0.12379
 Alpha virt. eigenvalues --    0.13082   0.13616   0.14678   0.15316   0.15774

 Mulliken charges:
               1
     1  C    0.764074
     2  C    1.009584
     3  H    0.125005
     4  H    0.107942
     5  H    0.103197
     6  H    0.148908
     7  H   -0.181655
     8  H    0.028134
     9  N   -0.066470
    10  N   -0.670386
    11  N   -0.297454
    12  N    0.044681
    13  N   -0.301764
    14  N   -0.380593
    15  O   -0.433200
 Sum of Mulliken charges =  -0.00000

 Dipole moment (field-independent basis, Debye):
    X=              3.3382    Y=              0.3540    Z=             -0.6060  Tot=              3.4112

 Test job not archived.
 1\1\GINC-SE393\SP\RHF\Aug-CC-pVDZ\C2H6N6O1\OHZDE\08-Apr-2025\0\\#t hf
 aug-cc-pvdz iop(5/13=1,5/36=2,99/5=2) pseudo=read geom=check guess=(re
 ad,tcheck) scf=(maxcycle=1)\\title\\0,1\C,0,-1.17985,-0.64212,0.177344
 \C,0,1.10702,-0.715205,-0.210602\H,0,2.09854,1.77535,-0.281924\H,0,1.8
 0997,1.34599,1.28423\H,0,-1.02032,2.4739,0.103976\H,0,-1.56055,1.67102
 ,-1.25485\H,0,-0.104278,-2.39574,-0.0473036\H,0,2.59775,-1.9617,-0.054
 2747\N,0,1.35013,1.61243,0.387313\N,0,0.632647,0.616539,-0.3416\N,0,-0
 .682467,0.59971,0.106858\N,0,-1.46961,1.60863,-0.202694\N,0,-0.0174122

 Normal termination of Gaussian 16 at Tue Apr  8 21:46:38 2025.
