 Gaussian 16, Revision C.01,

 ----------------------------------------------------------------------
 #t hf aug-cc-pvdz symm=none int=(grid=ultrafine) guess=(read,tcheck) s
 table=(opt,rrhf)
 ----------------------------------------------------------------------
 -----
 title
 -----
 Symbolic Z-matrix:
 Charge =  0 Multiplicity = 1

 SCF Done:  E(RHF) =  -869.338363528     A.U. after   14 cycles
 Normal termination of Gaussian 16 at Tue Apr  8 20:07:51 2025.
 Gaussian 16:  ES64L-G16RevC.01  3-Jul-2019

 ----------------------------------------------------------------------
 #t hf aug-cc-pvdz iop(5/13=1,5/36=2,99/5=2) pseudo=read geom=check gue
 ss=(read,tcheck) scf=(maxcycle=1)
 ----------------------------------------------------------------------
 -----
 title
 -----
 Structure from the checkpoint file:  "ANI1ccx_1593_conf1_mol1.chk"
 Charge =  0 Multiplicity = 1

                         Standard orientation:
 ---------------------------------------------------------------------
 Center     Atomic      Atomic             Coordinates (Angstroms)
 Number     Number       Type             X           Y           Z
 ---------------------------------------------------------------------
      1          6           0       -1.613539   -0.495843   -0.122220
      2          6           0       -0.338230    0.245702   -0.521987
      3          6           0       -2.742219    0.547939   -0.130237
      4          6           0       -4.118269   -0.014418   -0.003222
      5          6           0        2.044911    0.137563   -0.490950
      6          6           0        2.896200   -1.085561   -0.666538
      7          6           0        2.889171    1.070499    0.443335
      8          6           0        2.378321    2.476010    0.322474
      9          1           0        2.993730   -2.850591   -0.182089
     10          1           0        2.863201    3.165309    1.008610
     11          1           0        1.305131    2.467440    0.465690
     12          1           0        2.575071    2.825710   -0.700938
     13          1           0        1.849671    0.501970    2.041040
     14          1           0        3.924321    1.033229    0.146942
     15          1           0        1.899921    0.681165   -1.401980
     16          1           0        0.717352   -1.033980    0.619927
     17          1           0       -5.884109    0.353866   -0.323928
     18          1           0       -2.490959    1.210320    0.735341
     19          1           0       -2.554159    1.123440   -1.045910
     20          1           0       -1.772160   -1.298270   -0.800800
     21          1           0       -1.500019   -0.317840    1.951900
     22          1           0       -2.228230   -1.761770    1.350230
     23          7           0       -1.510240   -1.086950    1.247340
     24          7           0        0.761667   -0.198392    0.091663
     25          8           0       -0.334494    1.230670   -1.228260
     26          8           0       -4.392490   -0.995788    0.613149
     27          8           0       -5.038299    0.667032   -0.699743
     28          8           0        3.990970   -1.087801   -1.112900
     29          8           0        2.820871    0.568544    1.754520
     30          8           0        2.348840   -2.181900   -0.104392
 ---------------------------------------------------------------------

 SCF Done:  E(RHF) =  -869.608397080     A.U. after    2 cycles

 The electronic state is 1-A.
 Alpha  occ. eigenvalues --  -20.63987 -20.63564 -20.58235 -20.58055 -20.57549
 Alpha  occ. eigenvalues --  -20.55573 -15.66132 -15.62825 -11.41357 -11.40777
 Alpha  occ. eigenvalues --  -11.37712 -11.30386 -11.29994 -11.29928 -11.26699
 Alpha  occ. eigenvalues --  -11.22470  -1.45565  -1.45166  -1.38043  -1.35432
 Alpha  occ. eigenvalues --   -1.35010  -1.33051  -1.23385  -1.17820  -1.06060
 Alpha  occ. eigenvalues --   -1.04501  -0.99230  -0.93473  -0.87228  -0.84458
 Alpha  occ. eigenvalues --   -0.82706  -0.81070  -0.76250  -0.74256  -0.73891
 Alpha  occ. eigenvalues --   -0.73267  -0.70667  -0.69319  -0.68256  -0.67586
 Alpha  occ. eigenvalues --   -0.67392  -0.66177  -0.64214  -0.62937  -0.61962
 Alpha  occ. eigenvalues --   -0.61247  -0.60518  -0.58819  -0.58270  -0.56885
 Alpha  occ. eigenvalues --   -0.55401  -0.54139  -0.53324  -0.51822  -0.51754
 Alpha  occ. eigenvalues --   -0.49513  -0.49423  -0.48658  -0.46730  -0.46654
 Alpha  occ. eigenvalues --   -0.41359  -0.40050
 Alpha virt. eigenvalues --    0.02806   0.03118   0.03503   0.04203   0.05074
 Alpha virt. eigenvalues --    0.05576   0.06072   0.06568   0.06779   0.07406
 Alpha virt. eigenvalues --    0.08167   0.08673   0.09199   0.09701   0.11054

 Mulliken charges:
               1
     1  C    0.575905
     2  C    0.142922
     3  C    0.389896
     4  C    0.713093
     5  C    0.432911
     6  C    0.760056
     7  C    0.652196
     8  C    0.510668
     9  H    0.167450
    10  H   -0.040032
    11  H   -0.050317
    12  H    0.067075
    13  H    0.236454
    14  H   -0.345577
    15  H   -0.205876
    16  H    0.004126
    17  H    0.208661
    18  H    0.079278
    19  H   -0.120713
    20  H   -0.219493
    21  H    0.117989
    22  H    0.048203
    23  N   -0.490254
    24  N   -0.418243
    25  O   -0.518106
    26  O   -0.483238
    27  O   -0.496132
    28  O   -0.482697
    29  O   -0.690305
    30  O   -0.545898
 Sum of Mulliken charges =  -0.00000

 Dipole moment (field-independent basis, Debye):
    X=             -3.0786    Y=             -0.6555    Z=              1.1652  Tot=              3.3564

 Test job not archived.
 1\1\GINC-SE455\SP\RHF\Aug-CC-pVDZ\C8H14N2O6\OHZDE\08-Apr-2025\0\\#t hf
  aug-cc-pvdz iop(5/13=1,5/36=2,99/5=2) pseudo=read geom=check guess=(r
 ead,tcheck) scf=(maxcycle=1)\\title\\0,1\C,0,-1.61354,-0.495843,-0.122
 22\C,0,-0.338231,0.245702,-0.521987\C,0,-2.74222,0.547939,-0.130237\C,
 0,-4.11827,-0.014418,-0.00322198\C,0,2.04491,0.137563,-0.49095\C,0,2.8
 962,-1.08556,-0.666538\C,0,2.88917,1.0705,0.443335\C,0,2.37832,2.47601
 ,0.322474\H,0,2.99373,-2.85059,-0.182089\H,0,2.8632,3.16531,1.00861\H,
 0,1.30513,2.46744,0.46569\H,0,2.57507,2.82571,-0.700938\H,0,1.84967,0.

 Normal termination of Gaussian 16 at Tue Apr  8 20:08:28 2025.
