 Gaussian 16, Revision C.01,

 ----------------------------------------------------------------------
 #t hf aug-cc-pvdz symm=none int=(grid=ultrafine) guess=(read,tcheck) s
 table=(opt,rrhf)
 ----------------------------------------------------------------------
 -----
 title
 -----
 Symbolic Z-matrix:
 Charge =  0 Multiplicity = 1

 SCF Done:  E(RHF) =  -540.246480442     A.U. after   14 cycles
 Normal termination of Gaussian 16 at Tue Apr  8 21:43:03 2025.
 Gaussian 16:  ES64L-G16RevC.01  3-Jul-2019

 ----------------------------------------------------------------------
 #t hf aug-cc-pvdz iop(5/13=1,5/36=2,99/5=2) pseudo=read geom=check gue
 ss=(read,tcheck) scf=(maxcycle=1)
 ----------------------------------------------------------------------
 -----
 title
 -----
 Structure from the checkpoint file:  "ANI1ccx_504_conf3_mol2.chk"
 Charge =  0 Multiplicity = 1

                         Standard orientation:
 ---------------------------------------------------------------------
 Center     Atomic      Atomic             Coordinates (Angstroms)
 Number     Number       Type             X           Y           Z
 ---------------------------------------------------------------------
      1          6           0        1.158501   -0.690812    0.079277
      2          6           0       -1.137069   -0.689389   -0.075763
      3          1           0       -1.566139    2.223051   -0.363279
      4          1           0        1.679901    2.137441    0.424232
      5          1           0        0.114365   -2.448299    0.128995
      6          7           0       -0.657921    0.629049   -0.253724
      7          7           0        0.669101    0.621960    0.319497
      8          7           0        0.025265   -1.457289   -0.069689
      9          8           0       -1.471699    1.537031    0.303976
     10          8           0        1.370271    1.637311   -0.337527
     11          8           0        2.301921   -1.074879    0.067020
     12          8           0       -2.276969   -1.122839   -0.056422
 ---------------------------------------------------------------------

 SCF Done:  E(RHF) =  -540.411133320     A.U. after    2 cycles

 The electronic state is 1-A.
 Alpha  occ. eigenvalues --  -20.66491 -20.66352 -20.59154 -20.59042 -15.77990
 Alpha  occ. eigenvalues --  -15.77875 -15.71491 -11.44839 -11.44477  -1.50260
 Alpha  occ. eigenvalues --   -1.43648  -1.40414  -1.38324  -1.30483  -1.18488
 Alpha  occ. eigenvalues --   -1.07162  -0.90212  -0.87932  -0.81173  -0.78978
 Alpha  occ. eigenvalues --   -0.74236  -0.72995  -0.70919  -0.69588  -0.68435
 Alpha  occ. eigenvalues --   -0.65883  -0.60092  -0.59235  -0.57338  -0.54175
 Alpha  occ. eigenvalues --   -0.50872  -0.48814  -0.46870  -0.42753
 Alpha virt. eigenvalues --    0.02531   0.03668   0.04299   0.06768   0.09032
 Alpha virt. eigenvalues --    0.10238   0.11594   0.12404   0.12486   0.12972
 Alpha virt. eigenvalues --    0.13324   0.14606   0.14791   0.16564   0.16897

 Mulliken charges:
               1
     1  C    0.957327
     2  C    0.980287
     3  H    0.223667
     4  H    0.237581
     5  H   -0.033149
     6  N   -0.113080
     7  N   -0.207927
     8  N   -0.336019
     9  O   -0.443922
    10  O   -0.430716
    11  O   -0.407104
    12  O   -0.426945
 Sum of Mulliken charges =  -0.00000

 Dipole moment (field-independent basis, Debye):
    X=              0.3660    Y=              2.2000    Z=              0.4395  Tot=              2.2731

 Test job not archived.
 1\1\GINC-SE460\SP\RHF\Aug-CC-pVDZ\C2H3N3O4\OHZDE\08-Apr-2025\0\\#t hf
 aug-cc-pvdz iop(5/13=1,5/36=2,99/5=2) pseudo=read geom=check guess=(re
 ad,tcheck) scf=(maxcycle=1)\\title\\0,1\C,0,1.1585,-0.690813,0.0792774
 \C,0,-1.13707,-0.68939,-0.0757627\H,0,-1.56614,2.22305,-0.363279\H,0,1
 .6799,2.13744,0.424232\H,0,0.114364,-2.4483,0.128995\N,0,-0.657922,0.6
 29048,-0.253724\N,0,0.6691,0.621959,0.319497\N,0,0.0252646,-1.45729,-0
 .069689\O,0,-1.4717,1.53703,0.303976\O,0,1.37027,1.63731,-0.337527\O,0
 ,2.30192,-1.07488,0.0670202\O,0,-2.27697,-1.12284,-0.0564224\\Version=

 Normal termination of Gaussian 16 at Tue Apr  8 21:43:09 2025.
