 Gaussian 16, Revision C.01,

 ----------------------------------------------------------------------
 #t hf aug-cc-pvdz symm=none int=(grid=ultrafine) guess=(read,tcheck) s
 table=(opt,rrhf)
 ----------------------------------------------------------------------
 -----
 title
 -----
 Symbolic Z-matrix:
 Charge =  0 Multiplicity = 1

 SCF Done:  E(RHF) =  -947.037552565     A.U. after   16 cycles
 Normal termination of Gaussian 16 at Tue Apr  8 21:29:58 2025.
 Gaussian 16:  ES64L-G16RevC.01  3-Jul-2019

 ----------------------------------------------------------------------
 #t hf aug-cc-pvdz iop(5/13=1,5/36=2,99/5=2) pseudo=read geom=check gue
 ss=(read,tcheck) scf=(maxcycle=1)
 ----------------------------------------------------------------------
 -----
 title
 -----
 Structure from the checkpoint file:  "ANI1ccx_253_conf5_mol1.chk"
 Charge =  0 Multiplicity = 1

                         Standard orientation:
 ---------------------------------------------------------------------
 Center     Atomic      Atomic             Coordinates (Angstroms)
 Number     Number       Type             X           Y           Z
 ---------------------------------------------------------------------
      1          6           0        3.134470   -0.443099    0.814253
      2          6           0       -3.187201   -1.744550    0.009179
      3          6           0       -3.674520   -0.505602   -0.316848
      4          6           0       -2.752480    0.438584   -0.808950
      5          6           0       -1.095500   -1.290380   -1.057741
      6          6           0       -1.458760    0.112995   -1.163601
      7          6           0       -1.934961   -2.151240   -0.325899
      8          6           0       -0.807252    2.147640    0.779346
      9          6           0        0.237455    1.709680   -0.236634
     10          6           0        4.284850   -1.406040    0.237325
     11          6           0        2.195560    0.290453   -0.103508
     12          6           0       -0.474910    1.181510   -1.555121
     13          1           0       -1.085230    1.994040   -2.086941
     14          1           0       -2.159840    3.496270    1.071429
     15          1           0       -4.529581   -2.207540    1.431589
     16          1           0       -4.717290   -0.235706   -0.180350
     17          1           0       -1.688161   -3.154430    0.006692
     18          1           0       -3.049320    1.520990   -0.796696
     19          1           0       -0.155402   -1.651480   -1.442891
     20          1           0        0.322207    0.707858   -2.094191
     21          1           0        4.101150   -0.419615   -1.410421
     22          1           0        1.010060    0.590357    1.420389
     23          1           0        3.901099   -2.382770   -0.041205
     24          1           0        5.108619   -1.491710    0.932034
     25          1           0        3.683440    0.239346    1.377959
     26          1           0        1.634399   -1.910130    1.184019
     27          1           0        2.414470   -1.370510    2.603899
     28          1           0        0.803734    2.634720   -0.575914
     29          7           0        2.131340   -1.133400    1.670599
     30          7           0        1.003760    0.701994    0.433043
     31          8           0       -3.991671   -2.613570    0.676586
     32          8           0        2.390150    0.505050   -1.266601
     33          8           0        4.878850   -0.666131   -0.871944
     34          8           0       -0.953974    1.651400    1.897529
     35          8           0       -1.615920    3.200800    0.344967
 ---------------------------------------------------------------------

 SCF Done:  E(RHF) =  -947.321104161     A.U. after    2 cycles

 The electronic state is 1-A.
 Alpha  occ. eigenvalues --  -20.63453 -20.59527 -20.58247 -20.55935 -20.55440
 Alpha  occ. eigenvalues --  -15.64486 -15.63054 -11.42163 -11.37316 -11.31920
 Alpha  occ. eigenvalues --  -11.30492 -11.30000 -11.29865 -11.25892 -11.25617
 Alpha  occ. eigenvalues --  -11.24813 -11.24654 -11.23834 -11.23796  -1.41941
 Alpha  occ. eigenvalues --   -1.38888  -1.35076  -1.32921  -1.29982  -1.22367
 Alpha  occ. eigenvalues --   -1.16914  -1.14111  -1.06225  -1.01149  -1.00112
 Alpha  occ. eigenvalues --   -0.98020  -0.91462  -0.89884  -0.85385  -0.83242
 Alpha  occ. eigenvalues --   -0.80641  -0.77666  -0.74941  -0.74044  -0.72822
 Alpha  occ. eigenvalues --   -0.71077  -0.69632  -0.67726  -0.67508  -0.66531
 Alpha  occ. eigenvalues --   -0.65383  -0.64213  -0.62886  -0.62849  -0.61683
 Alpha  occ. eigenvalues --   -0.61364  -0.59966  -0.59043  -0.58767  -0.58382
 Alpha  occ. eigenvalues --   -0.57333  -0.56253  -0.54852  -0.53098  -0.52945
 Alpha  occ. eigenvalues --   -0.51761  -0.50458  -0.49094  -0.47942  -0.47046
 Alpha  occ. eigenvalues --   -0.46604  -0.45456  -0.41466  -0.38637  -0.33850
 Alpha  occ. eigenvalues --   -0.31659
 Alpha virt. eigenvalues --    0.02613   0.02890   0.03371   0.04010   0.04643
 Alpha virt. eigenvalues --    0.04965   0.05471   0.05792   0.06503   0.06736
 Alpha virt. eigenvalues --    0.07279   0.07891   0.08471   0.08713   0.09127

 Mulliken charges:
               1
     1  C    0.551690
     2  C    0.365423
     3  C    0.260860
     4  C    0.416555
     5  C    1.306933
     6  C    0.142384
     7  C    0.294121
     8  C    1.009427
     9  C    0.138239
    10  C    1.250311
    11  C   -0.455666
    12  C    0.408562
    13  H    0.045758
    14  H    0.207947
    15  H    0.204622
    16  H   -0.505433
    17  H   -0.553532
    18  H   -0.526188
    19  H   -0.694005
    20  H   -0.110313
    21  H    0.184373
    22  H   -0.056079
    23  H   -0.103407
    24  H   -0.126921
    25  H   -0.095120
    26  H    0.103591
    27  H   -0.039766
    28  H   -0.025390
    29  N   -0.394288
    30  N   -0.127558
    31  O   -0.640081
    32  O   -0.586457
    33  O   -0.582670
    34  O   -0.621856
    35  O   -0.646068
 Sum of Mulliken charges =  -0.00000

 Dipole moment (field-independent basis, Debye):
    X=             -1.7476    Y=              0.7885    Z=              3.7038  Tot=              4.1706

 Test job not archived.
 1\1\GINC-SE458\SP\RHF\Aug-CC-pVDZ\C12H16N2O5\OHZDE\08-Apr-2025\0\\#t h
 f aug-cc-pvdz iop(5/13=1,5/36=2,99/5=2) pseudo=read geom=check guess=(
 read,tcheck) scf=(maxcycle=1)\\title\\0,1\C,0,3.13447,-0.443099,0.8142
 54\C,0,-3.1872,-1.74455,0.00918021\C,0,-3.67452,-0.505602,-0.316847\C,
 0,-2.75248,0.438584,-0.808949\C,0,-1.0955,-1.29038,-1.05774\C,0,-1.458
 76,0.112995,-1.1636\C,0,-1.93496,-2.15124,-0.325898\C,0,-0.807252,2.14
 764,0.779347\C,0,0.237455,1.70968,-0.236633\C,0,4.28485,-1.40604,0.237
 326\C,0,2.19556,0.290453,-0.103507\C,0,-0.47491,1.18151,-1.55512\H,0,-

 Normal termination of Gaussian 16 at Tue Apr  8 21:30:59 2025.
