 Gaussian 16, Revision C.01,

 ----------------------------------------------------------------------
 #t hf aug-cc-pvdz symm=none int=(grid=ultrafine) guess=(read,tcheck) s
 table=(opt,rrhf)
 ----------------------------------------------------------------------
 -----
 title
 -----
 Symbolic Z-matrix:
 Charge =  0 Multiplicity = 1

 SCF Done:  E(RHF) =  -755.394275359     A.U. after   14 cycles
 Normal termination of Gaussian 16 at Tue Apr  8 19:32:52 2025.
 Gaussian 16:  ES64L-G16RevC.01  3-Jul-2019

 ----------------------------------------------------------------------
 #t hf aug-cc-pvdz iop(5/13=1,5/36=2,99/5=2) pseudo=read geom=check gue
 ss=(read,tcheck) scf=(maxcycle=1)
 ----------------------------------------------------------------------
 -----
 title
 -----
 Structure from the checkpoint file:  "ANI1ccx_1405_conf16_mol1.chk"
 Charge =  0 Multiplicity = 1

                         Standard orientation:
 ---------------------------------------------------------------------
 Center     Atomic      Atomic             Coordinates (Angstroms)
 Number     Number       Type             X           Y           Z
 ---------------------------------------------------------------------
      1          6           0       -1.644649    1.329801    0.189881
      2          6           0       -0.250579    0.979891    0.738166
      3          6           0       -2.225629    0.337804   -0.855444
      4          6           0       -2.585569   -0.977672   -0.235026
      5          6           0       -1.374350   -1.698559    0.216828
      6          6           0        2.135741    1.101341    0.014542
      7          6           0        2.784331   -0.217585   -0.249872
      8          1           0        1.071551   -0.901985   -0.641894
      9          1           0        2.648941    1.672901   -0.735980
     10          1           0        2.376971    1.472891    1.020350
     11          1           0        0.467410    1.485491   -1.142360
     12          1           0        0.064775   -2.502859   -0.493139
     13          1           0       -3.182759   -0.830511    0.695078
     14          1           0       -3.158920   -1.493599   -1.015380
     15          1           0       -3.116739    0.883358   -1.302800
     16          1           0       -1.539259    0.281035   -1.726500
     17          1           0       -2.287919    1.340871    1.142990
     18          1           0       -1.115769    3.354191   -0.012270
     19          1           0       -2.398659    2.851511   -0.936724
     20          7           0       -1.490139    2.543471   -0.609445
     21          7           0        0.711607    1.037711   -0.267464
     22          8           0        0.100756    0.743913    1.841560
     23          8           0       -1.013710   -1.981119    1.301270
     24          8           0       -0.701764   -2.061279   -0.881767
     25          8           0        3.989561   -0.195293   -0.162986
     26          8           0        1.948200   -1.232679   -0.551505
 ---------------------------------------------------------------------

 SCF Done:  E(RHF) =  -755.627427936     A.U. after    2 cycles

 The electronic state is 1-A.
 Alpha  occ. eigenvalues --  -20.63787 -20.62618 -20.58244 -20.56732 -20.55647
 Alpha  occ. eigenvalues --  -15.65923 -15.65869 -11.40611 -11.39688 -11.38171
 Alpha  occ. eigenvalues --  -11.31798 -11.29311 -11.28379 -11.27388  -1.46228
 Alpha  occ. eigenvalues --   -1.42300  -1.39729  -1.35716  -1.33799  -1.22695
 Alpha  occ. eigenvalues --   -1.19063  -1.09967  -1.01642  -0.96596  -0.90411
 Alpha  occ. eigenvalues --   -0.85692  -0.83098  -0.80092  -0.75241  -0.74398
 Alpha  occ. eigenvalues --   -0.73377  -0.72066  -0.70718  -0.69236  -0.68335
 Alpha  occ. eigenvalues --   -0.65835  -0.65310  -0.64576  -0.63233  -0.62285
 Alpha  occ. eigenvalues --   -0.60450  -0.59114  -0.58161  -0.57435  -0.56903
 Alpha  occ. eigenvalues --   -0.54483  -0.52019  -0.50887  -0.49253  -0.48438
 Alpha  occ. eigenvalues --   -0.47470  -0.46160  -0.43608  -0.41322
 Alpha virt. eigenvalues --    0.01658   0.02718   0.03188   0.04189   0.05512
 Alpha virt. eigenvalues --    0.05763   0.06240   0.06599   0.07404   0.08026
 Alpha virt. eigenvalues --    0.08707   0.09301   0.09960   0.10844   0.11383

 Mulliken charges:
               1
     1  C    0.204012
     2  C    0.510541
     3  C    0.554587
     4  C    0.148430
     5  C    0.543496
     6  C    0.577446
     7  C    0.442956
     8  H    0.239678
     9  H   -0.072643
    10  H   -0.022386
    11  H    0.103263
    12  H    0.235318
    13  H    0.137285
    14  H    0.018867
    15  H   -0.128218
    16  H   -0.064344
    17  H   -0.010885
    18  H    0.090914
    19  H   -0.005842
    20  N   -0.298999
    21  N   -0.829092
    22  O   -0.488834
    23  O   -0.432623
    24  O   -0.567090
    25  O   -0.502031
    26  O   -0.383806
 Sum of Mulliken charges =  -0.00000

 Dipole moment (field-independent basis, Debye):
    X=             -7.0005    Y=              4.4594    Z=             -4.1381  Tot=              9.2746

 Test job not archived.
 1\1\GINC-SE132\SP\RHF\Aug-CC-pVDZ\C7H12N2O5\OHZDE\08-Apr-2025\0\\#t hf
  aug-cc-pvdz iop(5/13=1,5/36=2,99/5=2) pseudo=read geom=check guess=(r
 ead,tcheck) scf=(maxcycle=1)\\title\\0,1\C,0,-1.64465,1.3298,0.189881\
 C,0,-0.25058,0.97989,0.738166\C,0,-2.22563,0.337803,-0.855444\C,0,-2.5
 8557,-0.977673,-0.235026\C,0,-1.37435,-1.69856,0.216828\C,0,2.13574,1.
 10134,0.0145427\C,0,2.78433,-0.217586,-0.249872\H,0,1.07155,-0.901986,
 -0.641894\H,0,2.64894,1.6729,-0.73598\H,0,2.37697,1.47289,1.02035\H,0,
 0.467409,1.48549,-1.14236\H,0,0.0647748,-2.50286,-0.493139\H,0,-3.1827

 Normal termination of Gaussian 16 at Tue Apr  8 19:33:22 2025.
