 Gaussian 16, Revision C.01,

 ----------------------------------------------------------------------
 #t hf aug-cc-pvdz symm=none int=(grid=ultrafine) guess=(read,tcheck) s
 table=(opt,rrhf)
 ----------------------------------------------------------------------
 -----
 title
 -----
 Symbolic Z-matrix:
 Charge =  0 Multiplicity = 1

 SCF Done:  E(RHF) =  -380.223191149     A.U. after   11 cycles
 Normal termination of Gaussian 16 at Tue Apr  8 21:03:24 2025.
 Gaussian 16:  ES64L-G16RevC.01  3-Jul-2019

 ----------------------------------------------------------------------
 #t hf aug-cc-pvdz iop(5/13=1,5/36=2,99/5=2) pseudo=read geom=check gue
 ss=(read,tcheck) scf=(maxcycle=1)
 ----------------------------------------------------------------------
 -----
 title
 -----
 Structure from the checkpoint file:  "ANI1ccx_1843_conf66_mol1.chk"
 Charge =  0 Multiplicity = 1

                         Standard orientation:
 ---------------------------------------------------------------------
 Center     Atomic      Atomic             Coordinates (Angstroms)
 Number     Number       Type             X           Y           Z
 ---------------------------------------------------------------------
      1          1           0        1.829569    0.494970   -0.453892
      2          1           0        2.417269    1.856928    0.120885
      3          1           0        1.114417   -1.535881   -0.058765
      4          1           0        2.594777   -1.608962    0.277792
      5          1           0       -1.143153   -1.790399    1.364500
      6          1           0       -0.576276   -0.359353    0.879683
      7          1           0       -1.269301    1.186441    0.087046
      8          1           0        0.135057    1.562790    0.521236
      9          1           0       -3.205052   -0.157000   -0.538949
     10          1           0       -1.771132   -0.710348   -0.666876
     11          8           0        1.668389    1.479629   -0.349663
     12          8           0        1.989757   -1.298102   -0.409413
     13          8           0       -0.604164   -1.330960    0.653383
     14          8           0       -0.702663    1.241500    0.885951
     15          8           0       -2.367092    0.040534   -0.971841
 ---------------------------------------------------------------------

 SCF Done:  E(RHF) =  -380.349011828     A.U. after    2 cycles

 The electronic state is 1-A.
 Alpha  occ. eigenvalues --  -20.58923 -20.58717 -20.57698 -20.57318 -20.55780
 Alpha  occ. eigenvalues --   -1.33108  -1.32008  -1.30465  -1.29859  -1.28694
 Alpha  occ. eigenvalues --   -0.75482  -0.74270  -0.73093  -0.72035  -0.71357
 Alpha  occ. eigenvalues --   -0.63778  -0.61615  -0.60869  -0.60542  -0.57626
 Alpha  occ. eigenvalues --   -0.53747  -0.53177  -0.52250  -0.51843  -0.50745
 Alpha virt. eigenvalues --    0.02544   0.03851   0.05268   0.06019   0.07170
 Alpha virt. eigenvalues --    0.07987   0.08819   0.09315   0.10425   0.12029
 Alpha virt. eigenvalues --    0.16621   0.17085   0.18766   0.20258   0.21064

 Mulliken charges:
               1
     1  H    0.276064
     2  H    0.163863
     3  H    0.222042
     4  H    0.192434
     5  H    0.256946
     6  H    0.354772
     7  H    0.269239
     8  H    0.240481
     9  H    0.182528
    10  H    0.263876
    11  O   -0.425393
    12  O   -0.400893
    13  O   -0.667188
    14  O   -0.504971
    15  O   -0.423798
 Sum of Mulliken charges =  -0.00000

 Dipole moment (field-independent basis, Debye):
    X=              0.5110    Y=             -2.3679    Z=              3.2800  Tot=              4.0776

 Test job not archived.
 1\1\GINC-SE362\SP\RHF\Aug-CC-pVDZ\H10O5\OHZDE\08-Apr-2025\0\\#t hf aug
 -cc-pvdz iop(5/13=1,5/36=2,99/5=2) pseudo=read geom=check guess=(read,
 tcheck) scf=(maxcycle=1)\\title\\0,1\H,0,1.82957,0.494971,-0.453892\H,
 0,2.41727,1.85693,0.120885\H,0,1.11442,-1.53588,-0.0587655\H,0,2.59478
 ,-1.60896,0.277792\H,0,-1.14315,-1.7904,1.3645\H,0,-0.576274,-0.359353
 ,0.879683\H,0,-1.2693,1.18644,0.0870458\H,0,0.135058,1.56279,0.521236\
 H,0,-3.20505,-0.157002,-0.538949\H,0,-1.77113,-0.710349,-0.666876\O,0,
 1.66839,1.47963,-0.349663\O,0,1.98976,-1.2981,-0.409413\O,0,-0.604161,

 Normal termination of Gaussian 16 at Tue Apr  8 21:03:27 2025.
