 Gaussian 16, Revision C.01,

 ----------------------------------------------------------------------
 #t hf aug-cc-pvdz symm=none int=(grid=ultrafine) guess=(read,tcheck) s
 table=(opt,rrhf)
 ----------------------------------------------------------------------
 -----
 title
 -----
 Symbolic Z-matrix:
 Charge =  0 Multiplicity = 1

 SCF Done:  E(RHF) =  -480.052779963     A.U. after   17 cycles
 Normal termination of Gaussian 16 at Tue Apr  8 21:39:39 2025.
 Gaussian 16:  ES64L-G16RevC.01  3-Jul-2019

 ----------------------------------------------------------------------
 #t hf aug-cc-pvdz iop(5/13=1,5/36=2,99/5=2) pseudo=read geom=check gue
 ss=(read,tcheck) scf=(maxcycle=1)
 ----------------------------------------------------------------------
 -----
 title
 -----
 Structure from the checkpoint file:  "ANI1ccx_456_conf3_mol1.chk"
 Charge =  0 Multiplicity = 1

                         Standard orientation:
 ---------------------------------------------------------------------
 Center     Atomic      Atomic             Coordinates (Angstroms)
 Number     Number       Type             X           Y           Z
 ---------------------------------------------------------------------
      1          6           0        0.068526    0.096325    0.026790
      2          7           0       -1.388000   -0.005994   -0.023571
      3          7           0        0.832693    1.124769    0.246727
      4          7           0        2.129020    0.597652    0.114422
      5          7           0        2.046030   -0.623892   -0.172216
      6          8           0       -1.890560   -1.049651    0.286443
      7          8           0       -2.046180    1.023059   -0.271661
      8          8           0        0.718068   -1.001621   -0.179566
 ---------------------------------------------------------------------

 SCF Done:  E(RHF) =  -480.193818855     A.U. after    2 cycles

 The electronic state is 1-A.
 Alpha  occ. eigenvalues --  -20.76956 -20.68905 -20.66924 -15.98830 -15.83156
 Alpha  occ. eigenvalues --  -15.80360 -15.75429 -11.48860  -1.63052  -1.60227
 Alpha  occ. eigenvalues --   -1.41966  -1.37998  -1.26881  -1.09246  -0.98481
 Alpha  occ. eigenvalues --   -0.90710  -0.85860  -0.81780  -0.78868  -0.76510
 Alpha  occ. eigenvalues --   -0.76428  -0.64444  -0.58864  -0.57584  -0.57344
 Alpha  occ. eigenvalues --   -0.55846  -0.54051  -0.51841  -0.49709
 Alpha virt. eigenvalues --   -0.01894   0.06078   0.06422   0.07621   0.07905
 Alpha virt. eigenvalues --    0.08561   0.11680   0.12399   0.14009   0.15516
 Alpha virt. eigenvalues --    0.15893   0.17365   0.17893   0.19510   0.20067

 Mulliken charges:
               1
     1  C    1.189573
     2  N    0.344626
     3  N   -0.256503
     4  N   -0.033232
     5  N    0.168989
     6  O   -0.461668
     7  O   -0.531417
     8  O   -0.420368
 Sum of Mulliken charges =  -0.00000

 Dipole moment (field-independent basis, Debye):
    X=              1.3910    Y=             -0.7408    Z=             -0.1232  Tot=              1.5808

 Test job not archived.
 1\1\GINC-SE038\SP\RHF\Aug-CC-pVDZ\C1N4O3\OHZDE\08-Apr-2025\0\\#t hf au
 g-cc-pvdz iop(5/13=1,5/36=2,99/5=2) pseudo=read geom=check guess=(read
 ,tcheck) scf=(maxcycle=1)\\title\\0,1\C,0,0.0685256,0.0963255,0.02679\
 N,0,-1.388,-0.00599297,-0.0235708\N,0,0.832693,1.12477,0.246727\N,0,2.
 12902,0.597653,0.114422\N,0,2.04603,-0.623891,-0.172216\O,0,-1.89056,-
 1.04965,0.286443\O,0,-2.04618,1.02306,-0.271661\O,0,0.718068,-1.00162,
 -0.179566\\Version=ES64L-G16RevC.01\State=1-A\HF=-480.1938189\RMSD=3.3
 65e-03\Dipole=0.5472643,-0.2914393,-0.0484512\Quadrupole=-3.2855166,-1

 Normal termination of Gaussian 16 at Tue Apr  8 21:39:43 2025.
