 Gaussian 16, Revision C.01,

 ----------------------------------------------------------------------
 #t hf aug-cc-pvdz symm=none int=(grid=ultrafine) guess=(read,tcheck) s
 table=(opt,rrhf)
 ----------------------------------------------------------------------
 -----
 title
 -----
 Symbolic Z-matrix:
 Charge =  0 Multiplicity = 1

 SCF Done:  E(RHF) =  -724.112376755     A.U. after   15 cycles
 Normal termination of Gaussian 16 at Tue Apr  8 20:13:46 2025.
 Gaussian 16:  ES64L-G16RevC.01  3-Jul-2019

 ----------------------------------------------------------------------
 #t hf aug-cc-pvdz iop(5/13=1,5/36=2,99/5=2) pseudo=read geom=check gue
 ss=(read,tcheck) scf=(maxcycle=1)
 ----------------------------------------------------------------------
 -----
 title
 -----
 Structure from the checkpoint file:  "ANI1ccx_161_conf1_mol1.chk"
 Charge =  0 Multiplicity = 1

                         Standard orientation:
 ---------------------------------------------------------------------
 Center     Atomic      Atomic             Coordinates (Angstroms)
 Number     Number       Type             X           Y           Z
 ---------------------------------------------------------------------
      1          6           0        5.493610    0.192520    0.399901
      2          6           0       -0.516024    1.368000   -0.157649
      3          6           0       -1.873700    1.643830    0.017765
      4          6           0       -4.135960    0.438224    0.511913
      5          6           0       -4.510860   -0.916891   -0.041986
      6          6           0       -2.711850    0.576369    0.091673
      7          6           0       -0.889099   -1.097130   -0.121557
      8          6           0       -0.053246   -0.040704   -0.131588
      9          6           0        2.494940   -0.164160    0.432917
     10          6           0        3.434280   -0.883400   -0.383828
     11          6           0       -2.252870   -0.794494   -0.106434
     12          1           0       -5.369470   -1.511220    0.380084
     13          1           0        0.294686    3.235290   -0.305209
     14          1           0       -2.203050    2.679610   -0.206893
     15          1           0       -4.116810    0.356379    1.564410
     16          1           0       -4.754150    1.236670    0.206813
     17          1           0       -4.796560   -0.757659   -1.113460
     18          1           0       -0.646066   -2.079980   -0.174977
     19          1           0        3.360590   -0.444405   -1.428510
     20          1           0        2.282370   -0.689429    1.385510
     21          1           0        2.972220   -1.864171   -0.564265
     22          1           0        5.212420    0.881930   -0.422843
     23          1           0        5.210740    0.774905    1.292980
     24          1           0        6.495660   -0.113019    0.253765
     25          1           0        2.738880    0.905821    0.604672
     26          8           0       -3.314700   -1.662020    0.010425
     27          8           0        4.785500   -0.996629    0.085636
     28          8           0        1.308390   -0.227953   -0.351352
     29          8           0        0.526212    2.318640   -0.312062
 ---------------------------------------------------------------------

 SCF Done:  E(RHF) =  -724.336176718     A.U. after    2 cycles

 The electronic state is 1-A.
 Alpha  occ. eigenvalues --  -20.59925 -20.59861 -20.56849 -20.56771 -11.32039
 Alpha  occ. eigenvalues --  -11.31930 -11.30921 -11.30363 -11.29179 -11.28066
 Alpha  occ. eigenvalues --  -11.27854 -11.25715 -11.24884 -11.24207 -11.24018
 Alpha  occ. eigenvalues --   -1.38075  -1.35196  -1.33193  -1.31805  -1.14221
 Alpha  occ. eigenvalues --   -1.07981  -1.03810  -1.01284  -0.97223  -0.92643
 Alpha  occ. eigenvalues --   -0.87327  -0.83125  -0.82597  -0.79942  -0.74379
 Alpha  occ. eigenvalues --   -0.72692  -0.71795  -0.69037  -0.67962  -0.65543
 Alpha  occ. eigenvalues --   -0.65175  -0.64216  -0.63114  -0.62532  -0.59848
 Alpha  occ. eigenvalues --   -0.59775  -0.58635  -0.57959  -0.56413  -0.55062
 Alpha  occ. eigenvalues --   -0.53550  -0.53263  -0.51235  -0.50350  -0.48381
 Alpha  occ. eigenvalues --   -0.47765  -0.44532  -0.43857  -0.42657  -0.35511
 Alpha  occ. eigenvalues --   -0.28183
 Alpha virt. eigenvalues --    0.02880   0.03567   0.04076   0.04716   0.04968
 Alpha virt. eigenvalues --    0.05154   0.05505   0.06442   0.06556   0.07260
 Alpha virt. eigenvalues --    0.07512   0.07812   0.08925   0.09351   0.10147

 Mulliken charges:
               1
     1  C    0.851028
     2  C    0.460896
     3  C    0.936695
     4  C    0.091720
     5  C    0.900297
     6  C   -0.898964
     7  C    2.134357
     8  C   -0.109018
     9  C    0.740956
    10  C    0.548207
    11  C   -0.470758
    12  H   -0.169461
    13  H    0.140704
    14  H   -0.413634
    15  H    0.101346
    16  H   -0.009257
    17  H   -0.094635
    18  H   -0.804216
    19  H   -0.019319
    20  H   -0.120741
    21  H   -0.178448
    22  H   -0.103744
    23  H   -0.066302
    24  H   -0.322035
    25  H   -0.233560
    26  O   -0.809006
    27  O   -0.673493
    28  O   -0.729794
    29  O   -0.679821
 Sum of Mulliken charges =  -0.00000

 Dipole moment (field-independent basis, Debye):
    X=             -2.5822    Y=              3.5694    Z=              0.9330  Tot=              4.5032

 Test job not archived.
 1\1\GINC-SE096\SP\RHF\Aug-CC-pVDZ\C11H14O4\OHZDE\08-Apr-2025\0\\#t hf
 aug-cc-pvdz iop(5/13=1,5/36=2,99/5=2) pseudo=read geom=check guess=(re
 ad,tcheck) scf=(maxcycle=1)\\title\\0,1\C,0,5.49361,0.192521,0.399901\
 C,0,-0.516024,1.368,-0.157649\C,0,-1.8737,1.64383,0.0177648\C,0,-4.135
 96,0.438224,0.511913\C,0,-4.51086,-0.916891,-0.0419858\C,0,-2.71185,0.
 576369,0.0916729\C,0,-0.889099,-1.09713,-0.121557\C,0,-0.0532457,-0.04
 07037,-0.131588\C,0,2.49494,-0.164159,0.432917\C,0,3.43428,-0.883399,-
 0.383828\C,0,-2.25287,-0.794494,-0.106434\H,0,-5.36947,-1.51122,0.3800

 Normal termination of Gaussian 16 at Tue Apr  8 20:14:18 2025.
