 Gaussian 16, Revision C.01,

 ----------------------------------------------------------------------
 #t hf aug-cc-pvdz symm=none int=(grid=ultrafine) guess=(read,tcheck) s
 table=(opt,rrhf)
 ----------------------------------------------------------------------
 -----
 title
 -----
 Symbolic Z-matrix:
 Charge =  0 Multiplicity = 1

 SCF Done:  E(RHF) =  -431.383930344     A.U. after   15 cycles
 Normal termination of Gaussian 16 at Tue Apr  8 21:42:50 2025.
 Gaussian 16:  ES64L-G16RevC.01  3-Jul-2019

 ----------------------------------------------------------------------
 #t hf aug-cc-pvdz iop(5/13=1,5/36=2,99/5=2) pseudo=read geom=check gue
 ss=(read,tcheck) scf=(maxcycle=1)
 ----------------------------------------------------------------------
 -----
 title
 -----
 Structure from the checkpoint file:  "ANI1ccx_499_conf8_mol1.chk"
 Charge =  0 Multiplicity = 1

                         Standard orientation:
 ---------------------------------------------------------------------
 Center     Atomic      Atomic             Coordinates (Angstroms)
 Number     Number       Type             X           Y           Z
 ---------------------------------------------------------------------
      1          6           0        0.271860    0.322145    0.022821
      2          6           0       -1.219252    0.013198    0.007759
      3          1           0        2.387648    0.584599    0.324736
      4          1           0        0.986613   -1.696530   -0.115650
      5          1           0       -2.502863   -1.410348   -0.092366
      6          7           0        1.136638   -0.694067   -0.181530
      7          8           0        2.464628   -0.401930   -0.065732
      8          8           0        0.723348    1.449650    0.186382
      9          8           0       -1.561223   -1.283599    0.218019
     10          8           0       -2.019692    0.906965   -0.217356
 ---------------------------------------------------------------------

 SCF Done:  E(RHF) =  -431.518035659     A.U. after    2 cycles

 The electronic state is 1-A.
 Alpha  occ. eigenvalues --  -20.67379 -20.64457 -20.61032 -20.58438 -15.74064
 Alpha  occ. eigenvalues --  -11.45115 -11.41836  -1.46156  -1.43837  -1.36897
 Alpha  occ. eigenvalues --   -1.35184  -1.14844  -0.96130  -0.86986  -0.81110
 Alpha  occ. eigenvalues --   -0.75618  -0.72451  -0.70047  -0.68288  -0.66207
 Alpha  occ. eigenvalues --   -0.64779  -0.61036  -0.57282  -0.53424  -0.53072
 Alpha  occ. eigenvalues --   -0.49442  -0.41408
 Alpha virt. eigenvalues --    0.02174   0.04141   0.05321   0.05857   0.08981
 Alpha virt. eigenvalues --    0.09757   0.11064   0.11663   0.12127   0.13373
 Alpha virt. eigenvalues --    0.15045   0.16689   0.17009   0.17745   0.19612

 Mulliken charges:
               1
     1  C    0.510982
     2  C    0.811881
     3  H    0.314860
     4  H    0.056420
     5  H    0.233724
     6  N    0.164304
     7  O   -0.628363
     8  O   -0.509090
     9  O   -0.525409
    10  O   -0.429309
 Sum of Mulliken charges =  -0.00000

 Dipole moment (field-independent basis, Debye):
    X=             -1.1500    Y=             -4.5610    Z=              0.2004  Tot=              4.7080

 Test job not archived.
 1\1\GINC-SE221\SP\RHF\Aug-CC-pVDZ\C2H3N1O4\OHZDE\08-Apr-2025\0\\#t hf
 aug-cc-pvdz iop(5/13=1,5/36=2,99/5=2) pseudo=read geom=check guess=(re
 ad,tcheck) scf=(maxcycle=1)\\title\\0,1\C,0,0.271862,0.322145,0.022821
 1\C,0,-1.21925,0.0131974,0.00775895\H,0,2.38765,0.5846,0.324736\H,0,0.
 986616,-1.69653,-0.11565\H,0,-2.50286,-1.41035,-0.0923656\N,0,1.13664,
 -0.694066,-0.18153\O,0,2.46463,-0.401929,-0.0657316\O,0,0.723349,1.449
 65,0.186382\O,0,-1.56122,-1.2836,0.218019\O,0,-2.01969,0.906964,-0.217
 356\\Version=ES64L-G16RevC.01\State=1-A\HF=-431.5180357\RMSD=3.623e-03

 Normal termination of Gaussian 16 at Tue Apr  8 21:42:54 2025.
