 Gaussian 16, Revision C.01,

 ----------------------------------------------------------------------
 #t hf aug-cc-pvdz symm=none int=(grid=ultrafine) guess=(read,tcheck) s
 table=(opt,rrhf)
 ----------------------------------------------------------------------
 -----
 title
 -----
 Symbolic Z-matrix:
 Charge =  0 Multiplicity = 1

 SCF Done:  E(RHF) =  -414.350788666     A.U. after   15 cycles
 Normal termination of Gaussian 16 at Tue Apr  8 21:35:43 2025.
 Gaussian 16:  ES64L-G16RevC.01  3-Jul-2019

 ----------------------------------------------------------------------
 #t hf aug-cc-pvdz iop(5/13=1,5/36=2,99/5=2) pseudo=read geom=check gue
 ss=(read,tcheck) scf=(maxcycle=1)
 ----------------------------------------------------------------------
 -----
 title
 -----
 Structure from the checkpoint file:  "ANI1ccx_410_conf11_mol1.chk"
 Charge =  0 Multiplicity = 1

                         Standard orientation:
 ---------------------------------------------------------------------
 Center     Atomic      Atomic             Coordinates (Angstroms)
 Number     Number       Type             X           Y           Z
 ---------------------------------------------------------------------
      1          6           0       -1.574729   -0.003840   -0.217948
      2          1           0        2.179160    1.130631    0.584317
      3          1           0        2.110492   -1.214979    0.980900
      4          1           0       -1.206020    1.800939    0.255237
      5          1           0       -0.757609    0.097952   -0.950947
      6          8           0        2.439550    0.670908   -0.236974
      7          8           0        1.359921   -0.153392   -0.542808
      8          8           0        1.249891   -0.911263    0.666900
      9          8           0       -1.916030    1.163699    0.403240
     10          8           0       -2.243039   -0.993889   -0.235585
 ---------------------------------------------------------------------

 SCF Done:  E(RHF) =  -414.487859302     A.U. after    2 cycles

 The electronic state is 1-A.
 Alpha  occ. eigenvalues --  -20.74883 -20.68607 -20.67538 -20.63361 -20.56680
 Alpha  occ. eigenvalues --  -11.39562  -1.54238  -1.41642  -1.35151  -1.33767
 Alpha  occ. eigenvalues --   -1.16859  -0.86307  -0.83603  -0.78953  -0.74156
 Alpha  occ. eigenvalues --   -0.73235  -0.69747  -0.67588  -0.63985  -0.60827
 Alpha  occ. eigenvalues --   -0.58943  -0.57172  -0.52354  -0.50394  -0.46725
 Alpha virt. eigenvalues --    0.01922   0.03771   0.05121   0.06088   0.10224
 Alpha virt. eigenvalues --    0.11552   0.12743   0.13506   0.14411   0.15203
 Alpha virt. eigenvalues --    0.16118   0.17820   0.18270   0.19904   0.21048

 Mulliken charges:
               1
     1  C    0.839503
     2  H    0.228889
     3  H    0.226955
     4  H    0.183821
     5  H   -0.159746
     6  O   -0.220528
     7  O   -0.019268
     8  O   -0.225496
     9  O   -0.449787
    10  O   -0.404342
 Sum of Mulliken charges =   0.00000

 Dipole moment (field-independent basis, Debye):
    X=              4.9820    Y=              3.0912    Z=              1.3477  Tot=              6.0160

 Test job not archived.
 1\1\GINC-SE226\SP\RHF\Aug-CC-pVDZ\C1H4O5\OHZDE\08-Apr-2025\0\\#t hf au
 g-cc-pvdz iop(5/13=1,5/36=2,99/5=2) pseudo=read geom=check guess=(read
 ,tcheck) scf=(maxcycle=1)\\title\\0,1\C,0,-1.57473,-0.0038392,-0.21794
 8\H,0,2.17916,1.13063,0.584317\H,0,2.11049,-1.21498,0.9809\H,0,-1.2060
 2,1.80094,0.255237\H,0,-0.75761,0.0979527,-0.950947\O,0,2.43955,0.6709
 07,-0.236974\O,0,1.35992,-0.153393,-0.542808\O,0,1.24989,-0.911264,0.6
 669\O,0,-1.91603,1.1637,0.40324\O,0,-2.24304,-0.993888,-0.235585\\Vers
 ion=ES64L-G16RevC.01\State=1-A\HF=-414.4878593\RMSD=2.358e-03\Dipole=1

 Normal termination of Gaussian 16 at Tue Apr  8 21:35:46 2025.
