 Gaussian 16, Revision C.01,

 ----------------------------------------------------------------------
 #t hf aug-cc-pvdz symm=none int=(grid=ultrafine) guess=(read,tcheck) s
 table=(opt,rrhf)
 ----------------------------------------------------------------------
 -----
 title
 -----
 Symbolic Z-matrix:
 Charge =  0 Multiplicity = 1

 SCF Done:  E(RHF) =  -817.957498503     A.U. after   14 cycles
 Normal termination of Gaussian 16 at Tue Apr  8 21:39:50 2025.
 Gaussian 16:  ES64L-G16RevC.01  3-Jul-2019

 ----------------------------------------------------------------------
 #t hf aug-cc-pvdz iop(5/13=1,5/36=2,99/5=2) pseudo=read geom=check gue
 ss=(read,tcheck) scf=(maxcycle=1)
 ----------------------------------------------------------------------
 -----
 title
 -----
 Structure from the checkpoint file:  "ANI1ccx_211_conf6_mol1.chk"
 Charge =  0 Multiplicity = 1

                         Standard orientation:
 ---------------------------------------------------------------------
 Center     Atomic      Atomic             Coordinates (Angstroms)
 Number     Number       Type             X           Y           Z
 ---------------------------------------------------------------------
      1          6           0        1.072741    1.504220   -0.661317
      2          6           0       -3.813629    0.334292   -2.047150
      3          6           0       -3.253460   -0.634976   -0.920337
      4          6           0       -2.442030   -0.396374    1.460680
      5          6           0       -2.425029    0.215920    0.042238
      6          6           0       -2.643760   -1.929209   -1.305400
      7          6           0        3.339810   -1.763730    0.069329
      8          6           0        2.259250   -0.677969    0.501494
      9          6           0        1.860141    0.126864   -0.773741
     10          6           0       -0.226326    1.339771    0.057610
     11          6           0        4.768030   -1.322461    0.260263
     12          1           0       -0.777173   -0.330347   -1.111320
     13          1           0       -0.945838    0.522451    1.983470
     14          1           0       -1.724240   -1.709809   -1.828690
     15          1           0       -3.222340   -2.405419   -2.031490
     16          1           0       -2.598780   -2.544209   -0.434103
     17          1           0       -4.346999    1.054022   -1.442050
     18          1           0       -4.580069   -0.140213   -2.668760
     19          1           0       -2.972849    0.866212   -2.585170
     20          1           0       -4.172400   -0.942317   -0.354702
     21          1           0       -2.822529    1.219311    0.192116
     22          1           0        6.067701   -0.206775   -0.840475
     23          1           0        3.181440   -2.097670   -1.034200
     24          1           0        4.910650   -0.942018    1.273190
     25          1           0        1.919071    3.332330   -0.736153
     26          1           0        1.289161    2.945210    0.738358
     27          1           0        4.697011    0.699165   -0.357589
     28          1           0        1.279640   -0.524649   -1.405460
     29          1           0        2.769871    0.420448   -1.337820
     30          1           0        0.749880    1.793630   -1.664930
     31          1           0        1.449040   -1.271440    0.970329
     32          1           0        3.100910   -2.687520    0.583178
     33          1           0        5.437220   -2.220661    0.101455
     34          1           0        2.672811   -0.071635    1.351740
     35          7           0        1.790071    2.590140   -0.028974
     36          7           0        5.094711   -0.218584   -0.679888
     37          7           0       -1.033709    0.407784   -0.469448
     38          8           0       -3.465910   -0.963079    1.737600
     39          8           0       -0.534362    1.886581    1.125550
     40          8           0       -1.411369   -0.297449    2.235000
 ---------------------------------------------------------------------

 SCF Done:  E(RHF) =  -818.208026107     A.U. after    2 cycles

 The electronic state is 1-A.
 Alpha  occ. eigenvalues --  -20.60388 -20.57158 -20.54032 -15.67039 -15.61480
 Alpha  occ. eigenvalues --  -15.60489 -11.39016 -11.38095 -11.30048 -11.29702
 Alpha  occ. eigenvalues --  -11.26600 -11.25686 -11.25194 -11.24955 -11.24245
 Alpha  occ. eigenvalues --  -11.23852 -11.23048  -1.42687  -1.38260  -1.32386
 Alpha  occ. eigenvalues --   -1.22670  -1.17989  -1.14393  -1.09383  -1.05078
 Alpha  occ. eigenvalues --   -1.00341  -0.97051  -0.95108  -0.91765  -0.86010
 Alpha  occ. eigenvalues --   -0.84138  -0.81876  -0.79240  -0.78311  -0.74925
 Alpha  occ. eigenvalues --   -0.73435  -0.69834  -0.68403  -0.67672  -0.66411
 Alpha  occ. eigenvalues --   -0.65740  -0.63910  -0.63222  -0.62722  -0.61189
 Alpha  occ. eigenvalues --   -0.60924  -0.58789  -0.58439  -0.58121  -0.57128
 Alpha  occ. eigenvalues --   -0.56475  -0.54842  -0.54114  -0.53962  -0.52538
 Alpha  occ. eigenvalues --   -0.51282  -0.49087  -0.48783  -0.48516  -0.47929
 Alpha  occ. eigenvalues --   -0.47183  -0.46421  -0.45870  -0.45540  -0.41567
 Alpha  occ. eigenvalues --   -0.39090  -0.37892
 Alpha virt. eigenvalues --    0.02225   0.03120   0.03335   0.03914   0.04494
 Alpha virt. eigenvalues --    0.04655   0.05489   0.05971   0.06201   0.06356
 Alpha virt. eigenvalues --    0.06893   0.07391   0.07956   0.08439   0.08698

 Mulliken charges:
               1
     1  C    0.095899
     2  C    0.667642
     3  C   -0.689859
     4  C    0.538782
     5  C   -0.029940
     6  C    0.893764
     7  C    0.369843
     8  C    0.468393
     9  C    0.379826
    10  C    0.890393
    11  C    0.546975
    12  H   -0.043009
    13  H    0.232798
    14  H   -0.014924
    15  H   -0.251840
    16  H   -0.017799
    17  H   -0.029962
    18  H   -0.076046
    19  H    0.072812
    20  H   -0.065151
    21  H   -0.247623
    22  H   -0.105228
    23  H    0.009015
    24  H   -0.143828
    25  H    0.068546
    26  H   -0.034055
    27  H    0.157628
    28  H   -0.210290
    29  H   -0.185815
    30  H    0.091332
    31  H   -0.226033
    32  H   -0.255810
    33  H   -0.048013
    34  H   -0.196231
    35  N   -0.203606
    36  N   -0.351028
    37  N   -0.363570
    38  O   -0.500772
    39  O   -0.768454
    40  O   -0.424764
 Sum of Mulliken charges =  -0.00000

 Dipole moment (field-independent basis, Debye):
    X=              2.8856    Y=              0.9365    Z=             -5.2815  Tot=              6.0908

 Test job not archived.
 1\1\GINC-SE454\SP\RHF\Aug-CC-pVDZ\C11H23N3O3\OHZDE\08-Apr-2025\0\\#t h
 f aug-cc-pvdz iop(5/13=1,5/36=2,99/5=2) pseudo=read geom=check guess=(
 read,tcheck) scf=(maxcycle=1)\\title\\0,1\C,0,1.07274,1.50422,-0.66131
 7\C,0,-3.81363,0.33429,-2.04715\C,0,-3.25346,-0.634977,-0.920337\C,0,-
 2.44203,-0.396375,1.46068\C,0,-2.42503,0.215919,0.0422374\C,0,-2.64376
 ,-1.92921,-1.3054\C,0,3.33981,-1.76373,0.069329\C,0,2.25925,-0.677969,
 0.501494\C,0,1.86014,0.126864,-0.773741\C,0,-0.226327,1.33977,0.057609
 8\C,0,4.76803,-1.32246,0.260263\H,0,-0.777174,-0.330348,-1.11132\H,0,-

 Normal termination of Gaussian 16 at Tue Apr  8 21:41:01 2025.
