 Gaussian 16, Revision C.01,

 ----------------------------------------------------------------------
 #t hf aug-cc-pvdz symm=none int=(grid=ultrafine) guess=(read,tcheck) s
 table=(opt,rrhf)
 ----------------------------------------------------------------------
 -----
 title
 -----
 Symbolic Z-matrix:
 Charge =  0 Multiplicity = 1

 SCF Done:  E(RHF) =  -380.147079050     A.U. after   12 cycles
 Normal termination of Gaussian 16 at Tue Apr  8 21:02:25 2025.
 Gaussian 16:  ES64L-G16RevC.01  3-Jul-2019

 ----------------------------------------------------------------------
 #t hf aug-cc-pvdz iop(5/13=1,5/36=2,99/5=2) pseudo=read geom=check gue
 ss=(read,tcheck) scf=(maxcycle=1)
 ----------------------------------------------------------------------
 -----
 title
 -----
 Structure from the checkpoint file:  "ANI1ccx_1843_conf574_mol1.chk"
 Charge =  0 Multiplicity = 1

                         Standard orientation:
 ---------------------------------------------------------------------
 Center     Atomic      Atomic             Coordinates (Angstroms)
 Number     Number       Type             X           Y           Z
 ---------------------------------------------------------------------
      1          1           0       -1.763011   -0.448377   -0.413430
      2          1           0       -1.986896   -1.787965   -1.200810
      3          1           0       -0.727558    1.813171    0.064780
      4          1           0       -2.134082    2.377466   -0.047697
      5          1           0        1.373125    1.696454    1.198410
      6          1           0        0.640887    0.508152    0.787355
      7          1           0        0.976864   -1.236904    0.574190
      8          1           0       -0.598147   -1.525459    0.612011
      9          1           0        3.172959   -0.478577   -1.231540
     10          1           0        1.929261    0.412070   -0.716892
     11          8           0       -1.749834   -1.386996   -0.284276
     12          8           0       -1.570895    1.498934   -0.383739
     13          8           0        0.945151    1.351306    0.411548
     14          8           0        0.174955   -1.100752    1.123030
     15          8           0        2.090198   -0.528746   -0.819860
 ---------------------------------------------------------------------

 SCF Done:  E(RHF) =  -380.270533612     A.U. after    2 cycles

 The electronic state is 1-A.
 Alpha  occ. eigenvalues --  -20.58503 -20.58442 -20.58411 -20.58390 -20.52465
 Alpha  occ. eigenvalues --   -1.33988  -1.32130  -1.27721  -1.27173  -1.24979
 Alpha  occ. eigenvalues --   -0.74937  -0.73799  -0.71273  -0.69043  -0.67442
 Alpha  occ. eigenvalues --   -0.62105  -0.61794  -0.60145  -0.57657  -0.55824
 Alpha  occ. eigenvalues --   -0.53572  -0.51932  -0.51189  -0.50906  -0.47740
 Alpha virt. eigenvalues --    0.02747   0.04183   0.04763   0.05572   0.07416
 Alpha virt. eigenvalues --    0.08110   0.09272   0.09752   0.10451   0.11229
 Alpha virt. eigenvalues --    0.17255   0.18135   0.18835   0.19863   0.20204

 Mulliken charges:
               1
     1  H    0.197629
     2  H    0.261019
     3  H    0.264135
     4  H    0.314599
     5  H    0.273311
     6  H    0.226103
     7  H    0.256271
     8  H    0.328276
     9  H    0.341831
    10  H    0.223713
    11  O   -0.452888
    12  O   -0.518655
    13  O   -0.647005
    14  O   -0.579464
    15  O   -0.488875
 Sum of Mulliken charges =  -0.00000

 Dipole moment (field-independent basis, Debye):
    X=              1.3160    Y=              2.6877    Z=             -1.1937  Tot=              3.2219

 Test job not archived.
 1\1\GINC-SE398\SP\RHF\Aug-CC-pVDZ\H10O5\OHZDE\08-Apr-2025\0\\#t hf aug
 -cc-pvdz iop(5/13=1,5/36=2,99/5=2) pseudo=read geom=check guess=(read,
 tcheck) scf=(maxcycle=1)\\title\\0,1\H,0,-1.76301,-0.448381,-0.41343\H
 ,0,-1.98689,-1.78797,-1.20081\H,0,-0.727564,1.81317,0.0647796\H,0,-2.1
 3409,2.37746,-0.0476966\H,0,1.37312,1.69646,1.19841\H,0,0.640885,0.508
 155,0.787355\H,0,0.976868,-1.2369,0.57419\H,0,-0.598142,-1.52546,0.612
 011\H,0,3.17296,-0.478566,-1.23154\H,0,1.92926,0.412077,-0.716892\O,0,
 -1.74983,-1.387,-0.284276\O,0,-1.5709,1.49893,-0.383739\O,0,0.945147,1

 Normal termination of Gaussian 16 at Tue Apr  8 21:02:28 2025.
