 Gaussian 16, Revision C.01,

 ----------------------------------------------------------------------
 #t hf aug-cc-pvdz symm=none int=(grid=ultrafine) guess=(read,tcheck) s
 table=(opt,rrhf)
 ----------------------------------------------------------------------
 -----
 title
 -----
 Symbolic Z-matrix:
 Charge =  0 Multiplicity = 1

 SCF Done:  E(RHF) =  -1021.05223130     A.U. after   15 cycles
 Normal termination of Gaussian 16 at Tue Apr  8 22:06:06 2025.
 Gaussian 16:  ES64L-G16RevC.01  3-Jul-2019

 ----------------------------------------------------------------------
 #t hf aug-cc-pvdz iop(5/13=1,5/36=2,99/5=2) pseudo=read geom=check gue
 ss=(read,tcheck) scf=(maxcycle=1)
 ----------------------------------------------------------------------
 -----
 title
 -----
 Structure from the checkpoint file:  "ANI1ccx_54_conf22_mol1.chk"
 Charge =  0 Multiplicity = 1

                         Standard orientation:
 ---------------------------------------------------------------------
 Center     Atomic      Atomic             Coordinates (Angstroms)
 Number     Number       Type             X           Y           Z
 ---------------------------------------------------------------------
      1          6           0       -1.300471   -0.017484    0.767554
      2          6           0        2.820940    2.047370   -0.021872
      3          6           0        2.779439   -0.309457    0.883349
      4          6           0        1.852369   -1.920180   -0.962771
      5          6           0        1.519599   -0.754647    0.102367
      6          6           0        2.621000    1.153730    1.172939
      7          6           0       -2.611321    0.390229   -1.303911
      8          6           0       -1.676991   -0.599327   -0.644908
      9          6           0       -0.587986   -1.124049    1.448989
     10          6           0       -3.957891    0.702753   -0.524941
     11          1           0        0.969466    0.071683   -0.252163
     12          1           0        1.279629   -2.111970   -2.733791
     13          1           0        2.069290    3.734950   -0.736812
     14          1           0        3.461340    1.383450    1.862009
     15          1           0        1.667710    1.342110    1.526129
     16          1           0        3.599599   -0.455321    0.210265
     17          1           0        2.976079   -0.848570    1.714969
     18          1           0        0.895392   -2.125229    1.634249
     19          1           0       -5.518711   -0.254184    0.139898
     20          1           0       -2.920561   -0.057981   -2.239791
     21          1           0       -2.101070    1.308211   -1.603621
     22          1           0       -2.012151   -1.573409   -0.576933
     23          1           0       -0.815470   -0.459867   -1.286671
     24          1           0       -2.215531    0.073900    1.377669
     25          1           0       -0.150889    1.580551    0.057786
     26          1           0       -1.556530    1.967171    0.839510
     27          7           0       -0.716096    1.299621    0.802913
     28          7           0        0.544883   -1.589479    0.850462
     29          8           0       -1.079521   -1.788009    2.421149
     30          8           0       -4.327990    1.763251   -0.146884
     31          8           0       -4.748561   -0.464638   -0.386482
     32          8           0        2.448869   -2.934320   -0.855048
     33          8           0        3.490700    1.758280   -1.040951
     34          8           0        2.031930    3.143700    0.032588
     35          8           0        1.286919   -1.348280   -2.150261
 ---------------------------------------------------------------------

 SCF Done:  E(RHF) =  -1021.36259884     A.U. after    2 cycles

 The electronic state is 1-A.
 Alpha  occ. eigenvalues --  -20.65183 -20.63621 -20.62625 -20.60643 -20.59116
 Alpha  occ. eigenvalues --  -20.58228 -20.54742 -15.66391 -15.64380 -11.43082
 Alpha  occ. eigenvalues --  -11.42893 -11.42059 -11.37394 -11.32998 -11.29759
 Alpha  occ. eigenvalues --  -11.27884 -11.27229 -11.26012 -11.26009  -1.43639
 Alpha  occ. eigenvalues --   -1.43488  -1.42912  -1.35420  -1.33960  -1.33608
 Alpha  occ. eigenvalues --   -1.32518  -1.22513  -1.19485  -1.11593  -1.08286
 Alpha  occ. eigenvalues --   -1.01800  -0.98347  -0.93722  -0.89498  -0.84749
 Alpha  occ. eigenvalues --   -0.82961  -0.82205  -0.80455  -0.74334  -0.73629
 Alpha  occ. eigenvalues --   -0.73184  -0.72532  -0.72412  -0.70687  -0.70153
 Alpha  occ. eigenvalues --   -0.68818  -0.68389  -0.66487  -0.66320  -0.65122
 Alpha  occ. eigenvalues --   -0.64415  -0.63452  -0.63410  -0.62524  -0.61427
 Alpha  occ. eigenvalues --   -0.59884  -0.58477  -0.57435  -0.57274  -0.55968
 Alpha  occ. eigenvalues --   -0.54855  -0.54518  -0.53766  -0.52562  -0.51735
 Alpha  occ. eigenvalues --   -0.51491  -0.50566  -0.48913  -0.48049  -0.46951
 Alpha  occ. eigenvalues --   -0.46462  -0.41222  -0.40363
 Alpha virt. eigenvalues --    0.02115   0.02898   0.03384   0.03964   0.05246
 Alpha virt. eigenvalues --    0.05582   0.05643   0.06112   0.06814   0.07116
 Alpha virt. eigenvalues --    0.07668   0.08059   0.08533   0.09256   0.10119

 Mulliken charges:
               1
     1  C    0.605001
     2  C    0.747084
     3  C    1.043669
     4  C    0.628415
     5  C    0.569003
     6  C    0.543979
     7  C    0.204575
     8  C    1.109504
     9  C    0.060276
    10  C    0.935959
    11  H   -0.874385
    12  H    0.187006
    13  H    0.211339
    14  H    0.097944
    15  H   -0.204895
    16  H   -0.086790
    17  H   -0.275233
    18  H   -0.029295
    19  H    0.164560
    20  H   -0.000392
    21  H   -0.203458
    22  H   -0.553700
    23  H    0.037576
    24  H   -0.326045
    25  H    0.055830
    26  H    0.116815
    27  N   -0.324757
    28  N   -0.385344
    29  O   -0.702849
    30  O   -0.479657
    31  O   -0.612147
    32  O   -0.433127
    33  O   -0.590576
    34  O   -0.593270
    35  O   -0.642612
 Sum of Mulliken charges =  -0.00000

 Dipole moment (field-independent basis, Debye):
    X=              0.4405    Y=              2.9582    Z=             -2.3967  Tot=              3.8327

 Test job not archived.
 1\1\GINC-SE143\SP\RHF\Aug-CC-pVDZ\C10H16N2O7\OHZDE\08-Apr-2025\0\\#t h
 f aug-cc-pvdz iop(5/13=1,5/36=2,99/5=2) pseudo=read geom=check guess=(
 read,tcheck) scf=(maxcycle=1)\\title\\0,1\C,0,-1.30047,-0.0174851,0.76
 7555\C,0,2.82094,2.04737,-0.0218715\C,0,2.77944,-0.309457,0.88335\C,0,
 1.85237,-1.92018,-0.96277\C,0,1.5196,-0.754647,0.102368\C,0,2.621,1.15
 373,1.17294\C,0,-2.61132,0.390228,-1.30391\C,0,-1.67699,-0.599328,-0.6
 44907\C,0,-0.587985,-1.12405,1.44899\C,0,-3.95789,0.702752,-0.52494\H,
 0,0.969467,0.0716824,-0.252162\H,0,1.27963,-2.11197,-2.73379\H,0,2.069

 Normal termination of Gaussian 16 at Tue Apr  8 22:07:12 2025.
