 Gaussian 16, Revision C.01,

 ----------------------------------------------------------------------
 #t hf aug-cc-pvdz symm=none int=(grid=ultrafine) guess=(read,tcheck) s
 table=(opt,rrhf)
 ----------------------------------------------------------------------
 -----
 title
 -----
 Symbolic Z-matrix:
 Charge =  0 Multiplicity = 1

 SCF Done:  E(RHF) =  -506.622178039     A.U. after   17 cycles
 Normal termination of Gaussian 16 at Tue Apr  8 21:53:49 2025.
 Gaussian 16:  ES64L-G16RevC.01  3-Jul-2019

 ----------------------------------------------------------------------
 #t hf aug-cc-pvdz iop(5/13=1,5/36=2,99/5=2) pseudo=read geom=check gue
 ss=(read,tcheck) scf=(maxcycle=1)
 ----------------------------------------------------------------------
 -----
 title
 -----
 Structure from the checkpoint file:  "ANI1ccx_787_conf10_mol1.chk"
 Charge =  0 Multiplicity = 1

                         Standard orientation:
 ---------------------------------------------------------------------
 Center     Atomic      Atomic             Coordinates (Angstroms)
 Number     Number       Type             X           Y           Z
 ---------------------------------------------------------------------
      1          6           0        0.553507    1.643260   -0.532532
      2          6           0        1.126610   -0.052324    1.162660
      3          6           0        1.886060   -0.993461    0.260707
      4          1           0       -1.761600   -0.944507   -1.195980
      5          1           0        3.428960   -0.854378   -0.977160
      6          1           0        2.464320   -1.672690    0.948281
      7          1           0        0.696583   -0.632812    1.977020
      8          1           0        1.248220   -1.619920   -0.333177
      9          1           0       -0.217634    2.392560   -0.803906
     10          1           0        1.319040    2.177990    0.020087
     11          1           0        1.062850    1.067670   -1.306570
     12          1           0        1.914090    0.705139    1.460940
     13          7           0        0.047143    0.737917    0.592360
     14          7           0       -1.004500   -0.018187    0.116395
     15          7           0       -2.227620    0.098112    0.588863
     16          8           0       -0.827632   -0.551561   -1.129880
     17          8           0        2.755560   -0.221696   -0.564091
     18          8           0       -3.085060   -0.467840   -0.083262
 ---------------------------------------------------------------------

 SCF Done:  E(RHF) =  -506.777303060     A.U. after    2 cycles

 The electronic state is 1-A.
 Alpha  occ. eigenvalues --  -20.64393 -20.60907 -20.59337 -15.80877 -15.78368
 Alpha  occ. eigenvalues --  -15.68555 -11.29875 -11.28462 -11.26934  -1.51008
 Alpha  occ. eigenvalues --   -1.40397  -1.33044  -1.26370  -1.13936  -1.01558
 Alpha  occ. eigenvalues --   -0.94256  -0.88609  -0.80376  -0.78693  -0.73175
 Alpha  occ. eigenvalues --   -0.72561  -0.71508  -0.66735  -0.65364  -0.62044
 Alpha  occ. eigenvalues --   -0.61132  -0.59506  -0.58581  -0.56509  -0.55579
 Alpha  occ. eigenvalues --   -0.54489  -0.52477  -0.47435  -0.44868  -0.41491
 Alpha  occ. eigenvalues --   -0.38791
 Alpha virt. eigenvalues --    0.02642   0.03909   0.04212   0.04914   0.06340
 Alpha virt. eigenvalues --    0.06767   0.07206   0.07662   0.08668   0.10943
 Alpha virt. eigenvalues --    0.11843   0.12499   0.12881   0.13942   0.14152

 Mulliken charges:
               1
     1  C    0.794376
     2  C    0.425162
     3  C    0.852224
     4  H    0.334529
     5  H    0.217724
     6  H   -0.052022
     7  H   -0.226051
     8  H   -0.204856
     9  H   -0.139132
    10  H   -0.122286
    11  H    0.054034
    12  H    0.013367
    13  N   -0.587888
    14  N    0.393257
    15  N    0.235185
    16  O   -0.716942
    17  O   -0.655622
    18  O   -0.615059
 Sum of Mulliken charges =  -0.00000

 Dipole moment (field-independent basis, Debye):
    X=              4.2047    Y=             -1.2603    Z=             -0.1350  Tot=              4.3915

 Test job not archived.
 1\1\GINC-SE058\SP\RHF\Aug-CC-pVDZ\C3H9N3O3\OHZDE\08-Apr-2025\0\\#t hf
 aug-cc-pvdz iop(5/13=1,5/36=2,99/5=2) pseudo=read geom=check guess=(re
 ad,tcheck) scf=(maxcycle=1)\\title\\0,1\C,0,0.553507,1.64326,-0.532532
 \C,0,1.12661,-0.0523238,1.16266\C,0,1.88606,-0.993461,0.260707\H,0,-1.
 7616,-0.944507,-1.19598\H,0,3.42896,-0.854378,-0.97716\H,0,2.46432,-1.
 67269,0.948281\H,0,0.696583,-0.632812,1.97702\H,0,1.24822,-1.61992,-0.
 333177\H,0,-0.217634,2.39256,-0.803906\H,0,1.31904,2.17799,0.0200869\H
 ,0,1.06285,1.06767,-1.30657\H,0,1.91409,0.705139,1.46094\N,0,0.0471433

 Normal termination of Gaussian 16 at Tue Apr  8 21:53:57 2025.
