 Gaussian 16, Revision C.01,

 ----------------------------------------------------------------------
 #t hf aug-cc-pvdz symm=none int=(grid=ultrafine) guess=(read,tcheck) s
 table=(opt,rrhf)
 ----------------------------------------------------------------------
 -----
 title
 -----
 Symbolic Z-matrix:
 Charge =  0 Multiplicity = 1

 SCF Done:  E(RHF) =  -445.274092241     A.U. after   15 cycles
 Normal termination of Gaussian 16 at Tue Apr  8 21:54:54 2025.
 Gaussian 16:  ES64L-G16RevC.01  3-Jul-2019

 ----------------------------------------------------------------------
 #t hf aug-cc-pvdz iop(5/13=1,5/36=2,99/5=2) pseudo=read geom=check gue
 ss=(read,tcheck) scf=(maxcycle=1)
 ----------------------------------------------------------------------
 -----
 title
 -----
 Structure from the checkpoint file:  "ANI1ccx_856_conf3_mol1.chk"
 Charge =  0 Multiplicity = 1

                         Standard orientation:
 ---------------------------------------------------------------------
 Center     Atomic      Atomic             Coordinates (Angstroms)
 Number     Number       Type             X           Y           Z
 ---------------------------------------------------------------------
      1          6           0        1.369029   -0.443442    0.044298
      2          6           0        1.516192    1.087888    0.027045
      3          6           0       -0.568008    0.811114   -0.014366
      4          6           0       -1.105092   -1.305068    0.032866
      5          1           0        2.501382    1.544156    0.139702
      6          1           0       -1.044773   -2.385978   -0.043118
      7          7           0        0.425089    1.786019   -0.041336
      8          7           0       -1.860349    0.775954   -0.004799
      9          7           0       -2.207851   -0.576930   -0.007744
     10          7           0       -0.092186   -0.488584    0.020888
     11          8           0        2.177218   -1.317043   -0.050588
 ---------------------------------------------------------------------

 SCF Done:  E(RHF) =  -445.400027920     A.U. after    2 cycles

 The electronic state is 1-A.
 Alpha  occ. eigenvalues --  -20.65093 -15.73074 -15.72246 -15.68434 -15.67189
 Alpha  occ. eigenvalues --  -11.46112 -11.37475 -11.37297 -11.35298  -1.45425
 Alpha  occ. eigenvalues --   -1.41531  -1.30527  -1.21465  -1.09707  -1.00368
 Alpha  occ. eigenvalues --   -0.90545  -0.85631  -0.83061  -0.75423  -0.71887
 Alpha  occ. eigenvalues --   -0.71207  -0.68602  -0.65379  -0.61469  -0.58297
 Alpha  occ. eigenvalues --   -0.53713  -0.52373  -0.47365  -0.45531  -0.44773
 Alpha  occ. eigenvalues --   -0.37127
 Alpha virt. eigenvalues --   -0.01211   0.02460   0.03370   0.05651   0.06949
 Alpha virt. eigenvalues --    0.08044   0.09829   0.10350   0.10662   0.12094
 Alpha virt. eigenvalues --    0.12558   0.12812   0.13484   0.13916   0.14686

 Mulliken charges:
               1
     1  C    0.560521
     2  C    0.541493
     3  C    0.644297
     4  C    0.616325
     5  H   -0.171159
     6  H   -0.184965
     7  N   -0.437015
     8  N   -0.342011
     9  N   -0.532859
    10  N   -0.358907
    11  O   -0.335720
 Sum of Mulliken charges =  -0.00000

 Dipole moment (field-independent basis, Debye):
    X=              3.7775    Y=             -0.8043    Z=              0.3389  Tot=              3.8770

 Test job not archived.
 1\1\GINC-SE163\SP\RHF\Aug-CC-pVDZ\C4H2N4O1\OHZDE\08-Apr-2025\0\\#t hf
 aug-cc-pvdz iop(5/13=1,5/36=2,99/5=2) pseudo=read geom=check guess=(re
 ad,tcheck) scf=(maxcycle=1)\\title\\0,1\C,0,1.36903,-0.44344,0.0442981
 \C,0,1.51619,1.08789,0.0270454\C,0,-0.568009,0.811113,-0.0143665\C,0,-
 1.10509,-1.30507,0.0328662\H,0,2.50138,1.54416,0.139702\H,0,-1.04477,-
 2.38598,-0.0431181\N,0,0.425086,1.78602,-0.041336\N,0,-1.86035,0.77595
 1,-0.00479881\N,0,-2.20785,-0.576933,-0.00774368\N,0,-0.0921858,-0.488
 584,0.0208875\O,0,2.17722,-1.31704,-0.0505884\\Version=ES64L-G16RevC.0

 Normal termination of Gaussian 16 at Tue Apr  8 21:55:00 2025.
