 Gaussian 16, Revision C.01,

 ----------------------------------------------------------------------
 #t hf aug-cc-pvdz symm=none int=(grid=ultrafine) guess=(read,tcheck) s
 table=(opt,rrhf)
 ----------------------------------------------------------------------
 -----
 title
 -----
 Symbolic Z-matrix:
 Charge =  0 Multiplicity = 1

 SCF Done:  E(RHF) =  -634.175729785     A.U. after   16 cycles
 Normal termination of Gaussian 16 at Tue Apr  8 19:14:26 2025.
 Gaussian 16:  ES64L-G16RevC.01  3-Jul-2019

 ----------------------------------------------------------------------
 #t hf aug-cc-pvdz iop(5/13=1,5/36=2,99/5=2) pseudo=read geom=check gue
 ss=(read,tcheck) scf=(maxcycle=1)
 ----------------------------------------------------------------------
 -----
 title
 -----
 Structure from the checkpoint file:  "ANI1ccx_1093_conf5_mol1.chk"
 Charge =  0 Multiplicity = 1

                         Standard orientation:
 ---------------------------------------------------------------------
 Center     Atomic      Atomic             Coordinates (Angstroms)
 Number     Number       Type             X           Y           Z
 ---------------------------------------------------------------------
      1          6           0       -0.869509    1.300911   -0.021581
      2          6           0        0.286193    0.606015   -0.016522
      3          6           0        2.445839   -0.204072    0.007962
      4          6           0        0.266808   -0.815912   -0.058315
      5          6           0       -1.954071   -0.943644   -0.024391
      6          1           0       -1.767778    2.887872    0.551870
      7          1           0        2.004021    1.848759   -0.064019
      8          1           0        1.716488   -2.271331   -0.100141
      9          1           0       -2.910370    0.905827   -0.024949
     10          7           0        1.665000    0.930200    0.045588
     11          7           0        1.557269   -1.256481   -0.027132
     12          7           0       -0.774187   -1.587439   -0.140950
     13          7           0       -1.988310    0.484470   -0.050377
     14          8           0       -1.060228    2.616012   -0.073383
     15          8           0        3.689339   -0.229527    0.091200
     16          8           0       -3.043152   -1.514757    0.172734
 ---------------------------------------------------------------------

 SCF Done:  E(RHF) =  -634.365455552     A.U. after    2 cycles

 The electronic state is 1-A.
 Alpha  occ. eigenvalues --  -20.68489 -20.56117 -20.53191 -15.71666 -15.70767
 Alpha  occ. eigenvalues --  -15.69864 -15.64337 -11.43901 -11.42886 -11.40965
 Alpha  occ. eigenvalues --  -11.39194 -11.32074  -1.46057  -1.39929  -1.35923
 Alpha  occ. eigenvalues --   -1.31453  -1.25160  -1.23283  -1.18779  -1.07013
 Alpha  occ. eigenvalues --   -0.94884  -0.92473  -0.88627  -0.83749  -0.79854
 Alpha  occ. eigenvalues --   -0.77907  -0.73022  -0.71927  -0.70616  -0.68663
 Alpha  occ. eigenvalues --   -0.68458  -0.65131  -0.63893  -0.62591  -0.60264
 Alpha  occ. eigenvalues --   -0.53185  -0.52324  -0.48825  -0.48147  -0.46871
 Alpha  occ. eigenvalues --   -0.45632  -0.41995  -0.33773
 Alpha virt. eigenvalues --    0.00721   0.03511   0.04109   0.04856   0.06259
 Alpha virt. eigenvalues --    0.06947   0.07918   0.08646   0.09633   0.10066
 Alpha virt. eigenvalues --    0.11431   0.11599   0.12395   0.13440   0.13553

 Mulliken charges:
               1
     1  C    1.132476
     2  C    0.606658
     3  C    0.765978
     4  C    0.448354
     5  C    0.750468
     6  H    0.182392
     7  H   -0.134095
     8  H    0.006537
     9  H   -0.034290
    10  N   -0.630401
    11  N   -0.479114
    12  N   -0.482400
    13  N   -0.519074
    14  O   -0.532342
    15  O   -0.511857
    16  O   -0.569290
 Sum of Mulliken charges =  -0.00000

 Dipole moment (field-independent basis, Debye):
    X=             -0.9868    Y=              5.9335    Z=              0.2727  Tot=              6.0211

 Test job not archived.
 1\1\GINC-SE403\SP\RHF\Aug-CC-pVDZ\C5H4N4O3\OHZDE\08-Apr-2025\0\\#t hf
 aug-cc-pvdz iop(5/13=1,5/36=2,99/5=2) pseudo=read geom=check guess=(re
 ad,tcheck) scf=(maxcycle=1)\\title\\0,1\C,0,-0.86951,1.30091,-0.021580
 5\C,0,0.286193,0.606015,-0.016522\C,0,2.44584,-0.204071,0.00796201\C,0
 ,0.266809,-0.815913,-0.058315\C,0,-1.95407,-0.943646,-0.0243913\H,0,-1
 .76778,2.88787,0.55187\H,0,2.00402,1.84876,-0.064019\H,0,1.71649,-2.27
 133,-0.100141\H,0,-2.91037,0.905824,-0.0249493\N,0,1.665,0.930201,0.04
 55882\N,0,1.55727,-1.25648,-0.0271316\N,0,-0.774185,-1.58744,-0.14095\

 Normal termination of Gaussian 16 at Tue Apr  8 19:14:35 2025.
