 Gaussian 16, Revision C.01,

 ----------------------------------------------------------------------
 #t hf aug-cc-pvdz symm=none int=(grid=ultrafine) guess=(read,tcheck) s
 table=(opt,rrhf)
 ----------------------------------------------------------------------
 -----
 title
 -----
 Symbolic Z-matrix:
 Charge =  0 Multiplicity = 1

 SCF Done:  E(RHF) =  -506.625245503     A.U. after   17 cycles
 Normal termination of Gaussian 16 at Tue Apr  8 21:54:05 2025.
 Gaussian 16:  ES64L-G16RevC.01  3-Jul-2019

 ----------------------------------------------------------------------
 #t hf aug-cc-pvdz iop(5/13=1,5/36=2,99/5=2) pseudo=read geom=check gue
 ss=(read,tcheck) scf=(maxcycle=1)
 ----------------------------------------------------------------------
 -----
 title
 -----
 Structure from the checkpoint file:  "ANI1ccx_787_conf5_mol1.chk"
 Charge =  0 Multiplicity = 1

                         Standard orientation:
 ---------------------------------------------------------------------
 Center     Atomic      Atomic             Coordinates (Angstroms)
 Number     Number       Type             X           Y           Z
 ---------------------------------------------------------------------
      1          6           0        0.441072    1.531250   -0.758059
      2          6           0        1.183660    0.163528    1.172750
      3          6           0        1.965580   -0.885899    0.342561
      4          1           0       -1.719210   -1.437369   -0.680179
      5          1           0        2.869980   -0.792285   -1.352530
      6          1           0        2.684070   -1.382880    1.037330
      7          1           0        0.755898   -0.300316    2.060210
      8          1           0        1.268740   -1.610850   -0.059041
      9          1           0       -0.481675    2.073291   -1.041510
     10          1           0        1.206430    2.275020   -0.421502
     11          1           0        0.836587    0.947830   -1.574600
     12          1           0        1.843820    0.985514    1.568530
     13          7           0        0.110971    0.809092    0.408152
     14          7           0       -0.951247   -0.034524    0.175958
     15          7           0       -2.193130    0.373661    0.420963
     16          8           0       -0.767242   -1.222899   -0.615340
     17          8           0        2.636750   -0.171345   -0.634180
     18          8           0       -3.066090   -0.311860   -0.139948
 ---------------------------------------------------------------------

 SCF Done:  E(RHF) =  -506.780997137     A.U. after    2 cycles

 The electronic state is 1-A.
 Alpha  occ. eigenvalues --  -20.64848 -20.61279 -20.58723 -15.81858 -15.78399
 Alpha  occ. eigenvalues --  -15.68541 -11.29486 -11.28681 -11.26493  -1.49181
 Alpha  occ. eigenvalues --   -1.38687  -1.34919  -1.28274  -1.14037  -1.01682
 Alpha  occ. eigenvalues --   -0.94428  -0.88426  -0.80428  -0.78433  -0.74124
 Alpha  occ. eigenvalues --   -0.72105  -0.70616  -0.67657  -0.66652  -0.62255
 Alpha  occ. eigenvalues --   -0.61142  -0.60642  -0.59008  -0.57043  -0.55405
 Alpha  occ. eigenvalues --   -0.53812  -0.52198  -0.47761  -0.45325  -0.40807
 Alpha  occ. eigenvalues --   -0.39032
 Alpha virt. eigenvalues --    0.02897   0.03872   0.04049   0.05108   0.06223
 Alpha virt. eigenvalues --    0.06762   0.07157   0.07734   0.08511   0.10259
 Alpha virt. eigenvalues --    0.12020   0.12604   0.13281   0.13696   0.14176

 Mulliken charges:
               1
     1  C    0.788240
     2  C    0.553533
     3  C    0.836962
     4  H    0.268312
     5  H    0.186771
     6  H   -0.104940
     7  H   -0.229325
     8  H   -0.187070
     9  H   -0.163112
    10  H   -0.050331
    11  H   -0.062122
    12  H   -0.141066
    13  N   -0.425740
    14  N    0.322807
    15  N    0.258812
    16  O   -0.681768
    17  O   -0.552328
    18  O   -0.617634
 Sum of Mulliken charges =  -0.00000

 Dipole moment (field-independent basis, Debye):
    X=              3.4847    Y=             -1.0672    Z=             -0.1028  Tot=              3.6459

 Test job not archived.
 1\1\GINC-SE232\SP\RHF\Aug-CC-pVDZ\C3H9N3O3\OHZDE\08-Apr-2025\0\\#t hf
 aug-cc-pvdz iop(5/13=1,5/36=2,99/5=2) pseudo=read geom=check guess=(re
 ad,tcheck) scf=(maxcycle=1)\\title\\0,1\C,0,0.441072,1.53125,-0.758059
 \C,0,1.18366,0.163528,1.17275\C,0,1.96558,-0.885899,0.342561\H,0,-1.71
 921,-1.43737,-0.680179\H,0,2.86998,-0.792285,-1.35253\H,0,2.68407,-1.3
 8288,1.03733\H,0,0.755898,-0.300316,2.06021\H,0,1.26874,-1.61085,-0.05
 90409\H,0,-0.481675,2.07329,-1.04151\H,0,1.20643,2.27502,-0.421502\H,0
 ,0.836587,0.94783,-1.5746\H,0,1.84382,0.985514,1.56853\N,0,0.110971,0.

 Normal termination of Gaussian 16 at Tue Apr  8 21:54:15 2025.
