 Gaussian 16, Revision C.01,

 ----------------------------------------------------------------------
 #t hf aug-cc-pvdz symm=none int=(grid=ultrafine) guess=(read,tcheck) s
 table=(opt,rrhf)
 ----------------------------------------------------------------------
 -----
 title
 -----
 Symbolic Z-matrix:
 Charge =  0 Multiplicity = 1

 SCF Done:  E(RHF) =  -903.320593023     A.U. after   15 cycles
 Normal termination of Gaussian 16 at Tue Apr  8 20:18:02 2025.
 Gaussian 16:  ES64L-G16RevC.01  3-Jul-2019

 ----------------------------------------------------------------------
 #t hf aug-cc-pvdz iop(5/13=1,5/36=2,99/5=2) pseudo=read geom=check gue
 ss=(read,tcheck) scf=(maxcycle=1)
 ----------------------------------------------------------------------
 -----
 title
 -----
 Structure from the checkpoint file:  "ANI1ccx_1597_conf25_mol1.chk"
 Charge =  0 Multiplicity = 1

                         Standard orientation:
 ---------------------------------------------------------------------
 Center     Atomic      Atomic             Coordinates (Angstroms)
 Number     Number       Type             X           Y           Z
 ---------------------------------------------------------------------
      1          6           0       -1.563520   -1.131870   -0.541969
      2          6           0       -0.712627   -0.869994    0.644665
      3          6           0       -3.056820   -0.711718   -0.178557
      4          6           0       -3.207090    0.789458    0.016305
      5          6           0        1.437410    0.734450    0.998912
      6          6           0        1.891470    1.881160    0.006648
      7          6           0        2.284830   -0.521046    0.999461
      8          6           0        2.654790   -0.878206   -0.392514
      9          1           0        1.314320    2.656820   -1.673420
     10          1           0        4.366500   -1.560020    0.568547
     11          1           0        4.107160   -2.321830   -0.956351
     12          1           0        1.650210   -1.391700    1.393630
     13          1           0        3.209490   -0.466360    1.560910
     14          1           0        1.490980    1.308860    1.917560
     15          1           0       -0.434427    1.099060    0.070302
     16          1           0       -5.118870    0.264262   -0.203096
     17          1           0       -3.842780   -1.006920   -0.924076
     18          1           0       -3.318090   -1.263120    0.684745
     19          1           0       -1.239970   -0.575967   -1.429290
     20          1           0       -0.561546   -2.926140   -1.018920
     21          1           0       -2.035690   -2.971810   -0.096563
     22          1           0       -5.008220    1.967910   -0.084306
     23          7           0       -1.576650   -2.546410   -0.917809
     24          7           0       -4.532370    1.101410   -0.246688
     25          7           0       -0.028431    0.292720    0.581703
     26          7           0        3.862550   -1.567970   -0.363495
     27          8           0        1.978040   -0.740401   -1.389370
     28          8           0       -0.654664   -1.679700    1.608460
     29          8           0       -2.294460    1.562400    0.286515
     30          8           0        2.980160    2.352130    0.006045
     31          8           0        0.862746    2.314980   -0.824565
 ---------------------------------------------------------------------

 SCF Done:  E(RHF) =  -903.593347773     A.U. after    2 cycles

 The electronic state is 1-A.
 Alpha  occ. eigenvalues --  -20.62851 -20.58540 -20.55744 -20.55403 -20.53212
 Alpha  occ. eigenvalues --  -15.66369 -15.65473 -15.62567 -15.61819 -11.41763
 Alpha  occ. eigenvalues --  -11.38900 -11.37940 -11.35869 -11.32840 -11.28218
 Alpha  occ. eigenvalues --  -11.27070 -11.26480  -1.42629  -1.36392  -1.35961
 Alpha  occ. eigenvalues --   -1.33445  -1.31905  -1.19614  -1.18322  -1.17212
 Alpha  occ. eigenvalues --   -1.15275  -1.06413  -1.01527  -0.95635  -0.89246
 Alpha  occ. eigenvalues --   -0.82956  -0.81406  -0.78353  -0.76248  -0.73491
 Alpha  occ. eigenvalues --   -0.72464  -0.71887  -0.71407  -0.69625  -0.69453
 Alpha  occ. eigenvalues --   -0.68501  -0.66316  -0.64983  -0.64396  -0.63106
 Alpha  occ. eigenvalues --   -0.62190  -0.61396  -0.60716  -0.60590  -0.57198
 Alpha  occ. eigenvalues --   -0.55731  -0.54344  -0.53987  -0.53112  -0.52287
 Alpha  occ. eigenvalues --   -0.51687  -0.48391  -0.47946  -0.45592  -0.45391
 Alpha  occ. eigenvalues --   -0.44482  -0.43554  -0.42649  -0.40120  -0.36936
 Alpha virt. eigenvalues --    0.02456   0.02776   0.04004   0.04217   0.04629
 Alpha virt. eigenvalues --    0.05296   0.05947   0.06314   0.07172   0.07459
 Alpha virt. eigenvalues --    0.07936   0.08965   0.09942   0.10830   0.11165

 Mulliken charges:
               1
     1  C    0.525599
     2  C    0.517073
     3  C    0.736043
     4  C    0.575696
     5  C    0.286062
     6  C    0.861260
     7  C    0.468895
     8  C    0.499447
     9  H    0.263276
    10  H    0.106833
    11  H   -0.086378
    12  H    0.213642
    13  H   -0.235435
    14  H   -0.084749
    15  H    0.089036
    16  H    0.063494
    17  H   -0.047041
    18  H   -0.222523
    19  H   -0.309676
    20  H    0.115001
    21  H    0.139796
    22  H   -0.061575
    23  N   -0.532359
    24  N   -0.205863
    25  N   -0.422243
    26  N   -0.277308
    27  O   -0.563101
    28  O   -0.717113
    29  O   -0.469989
    30  O   -0.510747
    31  O   -0.715052
 Sum of Mulliken charges =  -0.00000

 Dipole moment (field-independent basis, Debye):
    X=             -1.6481    Y=             -1.0154    Z=              0.1789  Tot=              1.9441

 Test job not archived.
 1\1\GINC-SE088\SP\RHF\Aug-CC-pVDZ\C8H14N4O5\OHZDE\08-Apr-2025\0\\#t hf
  aug-cc-pvdz iop(5/13=1,5/36=2,99/5=2) pseudo=read geom=check guess=(r
 ead,tcheck) scf=(maxcycle=1)\\title\\0,1\C,0,-1.56352,-1.13187,-0.5419
 69\C,0,-0.712627,-0.869994,0.644665\C,0,-3.05682,-0.711718,-0.178557\C
 ,0,-3.20709,0.789458,0.0163049\C,0,1.43741,0.73445,0.998912\C,0,1.8914
 7,1.88116,0.00664857\C,0,2.28483,-0.521046,0.999461\C,0,2.65479,-0.878
 206,-0.392514\H,0,1.31432,2.65682,-1.67342\H,0,4.3665,-1.56002,0.56854
 7\H,0,4.10716,-2.32183,-0.956351\H,0,1.65021,-1.3917,1.39363\H,0,3.209

 Normal termination of Gaussian 16 at Tue Apr  8 20:18:47 2025.
