 Gaussian 16, Revision C.01,

 ----------------------------------------------------------------------
 #t hf aug-cc-pvdz symm=none int=(grid=ultrafine) guess=(read,tcheck) s
 table=(opt,rrhf)
 ----------------------------------------------------------------------
 -----
 title
 -----
 Symbolic Z-matrix:
 Charge =  0 Multiplicity = 1

 SCF Done:  E(RHF) =  -464.334382419     A.U. after   16 cycles
 Normal termination of Gaussian 16 at Tue Apr  8 21:40:50 2025.
 Gaussian 16:  ES64L-G16RevC.01  3-Jul-2019

 ----------------------------------------------------------------------
 #t hf aug-cc-pvdz iop(5/13=1,5/36=2,99/5=2) pseudo=read geom=check gue
 ss=(read,tcheck) scf=(maxcycle=1)
 ----------------------------------------------------------------------
 -----
 title
 -----
 Structure from the checkpoint file:  "ANI1ccx_474_conf34_mol1.chk"
 Charge =  0 Multiplicity = 1

                         Standard orientation:
 ---------------------------------------------------------------------
 Center     Atomic      Atomic             Coordinates (Angstroms)
 Number     Number       Type             X           Y           Z
 ---------------------------------------------------------------------
      1          6           0       -0.237599    1.123636    0.132536
      2          6           0       -1.345129   -1.103336    0.046476
      3          1           0       -1.338084    1.868854   -0.950188
      4          7           0       -1.328634    0.142417   -0.094266
      5          7           0        1.831427   -0.745363   -0.543470
      6          7           0        2.804599   -1.001319   -0.009118
      7          8           0       -0.656357    2.246902   -0.377929
      8          8           0       -1.691986   -2.229340    0.121407
      9          8           0        0.808682    1.137338    0.807034
 ---------------------------------------------------------------------

 SCF Done:  E(RHF) =  -464.476780509     A.U. after    2 cycles

 The electronic state is 1-A.
 Alpha  occ. eigenvalues --  -20.69630 -20.66214 -20.58941 -15.76239 -15.75983
 Alpha  occ. eigenvalues --  -15.71984 -11.49615 -11.48685  -1.48516  -1.48037
 Alpha  occ. eigenvalues --   -1.39145  -1.34485  -1.26546  -0.93377  -0.85275
 Alpha  occ. eigenvalues --   -0.79559  -0.76844  -0.72393  -0.71619  -0.68760
 Alpha  occ. eigenvalues --   -0.68547  -0.64664  -0.62003  -0.59272  -0.58728
 Alpha  occ. eigenvalues --   -0.55691  -0.52362  -0.49268  -0.48680
 Alpha virt. eigenvalues --    0.02772   0.05581   0.06956   0.07754   0.08498
 Alpha virt. eigenvalues --    0.09400   0.10113   0.10547   0.11682   0.12058
 Alpha virt. eigenvalues --    0.12691   0.13458   0.14767   0.15712   0.16376

 Mulliken charges:
               1
     1  C    0.961792
     2  C    0.069510
     3  H    0.228305
     4  N   -0.338608
     5  N    0.033068
     6  N   -0.060104
     7  O   -0.327905
     8  O   -0.157096
     9  O   -0.408963
 Sum of Mulliken charges =  -0.00000

 Dipole moment (field-independent basis, Debye):
    X=             -2.3994    Y=             -0.4741    Z=             -2.0900  Tot=              3.2171

 Test job not archived.
 1\1\GINC-SE328\SP\RHF\Aug-CC-pVDZ\C2H1N3O3\OHZDE\08-Apr-2025\0\\#t hf
 aug-cc-pvdz iop(5/13=1,5/36=2,99/5=2) pseudo=read geom=check guess=(re
 ad,tcheck) scf=(maxcycle=1)\\title\\0,1\C,0,-0.237584,1.12364,0.132536
 \C,0,-1.34514,-1.10332,0.0464761\H,0,-1.33806,1.86887,-0.950188\N,0,-1
 .32863,0.142433,-0.0942663\N,0,1.83142,-0.745383,-0.54347\N,0,2.80459,
 -1.00135,-0.00911804\O,0,-0.656329,2.24691,-0.377929\O,0,-1.69201,-2.2
 2932,0.121407\O,0,0.808697,1.13733,0.807034\\Version=ES64L-G16RevC.01\
 State=1-A\HF=-464.4767805\RMSD=2.553e-03\Dipole=-0.9439863,-0.1865166,

 Normal termination of Gaussian 16 at Tue Apr  8 21:40:54 2025.
