 Gaussian 16, Revision C.01,

 ----------------------------------------------------------------------
 #t hf aug-cc-pvdz symm=none int=(grid=ultrafine) guess=(read,tcheck) s
 table=(opt,rrhf)
 ----------------------------------------------------------------------
 -----
 title
 -----
 Symbolic Z-matrix:
 Charge =  0 Multiplicity = 1

 SCF Done:  E(RHF) =  -542.585069567     A.U. after   16 cycles
 Normal termination of Gaussian 16 at Tue Apr  8 19:44:49 2025.
 Gaussian 16:  ES64L-G16RevC.01  3-Jul-2019

 ----------------------------------------------------------------------
 #t hf aug-cc-pvdz iop(5/13=1,5/36=2,99/5=2) pseudo=read geom=check gue
 ss=(read,tcheck) scf=(maxcycle=1)
 ----------------------------------------------------------------------
 -----
 title
 -----
 Structure from the checkpoint file:  "ANI1ccx_1538_conf1_mol1.chk"
 Charge =  0 Multiplicity = 1

                         Standard orientation:
 ---------------------------------------------------------------------
 Center     Atomic      Atomic             Coordinates (Angstroms)
 Number     Number       Type             X           Y           Z
 ---------------------------------------------------------------------
      1          6           0       -2.792148    0.860021    0.670691
      2          6           0       -2.395079    0.082178   -0.521682
      3          6           0       -1.035721   -1.930338   -0.089662
      4          6           0        0.925161   -1.198900    0.085504
      5          6           0        2.683601    0.177138   -0.005906
      6          6           0        0.672677    1.263540   -0.048437
      7          6           0        0.205561    0.015130   -0.149553
      8          1           0       -0.637113    2.686471   -0.778458
      9          1           0        0.684823    3.162360    0.049080
     10          1           0        3.778361    0.268187    0.005090
     11          1           0       -1.921302   -2.574087   -0.138586
     12          1           0       -3.099370   -0.761991   -0.550330
     13          1           0       -3.741058    1.337405    0.444948
     14          1           0       -2.966469    0.042221    1.485900
     15          1           0       -2.050197    1.510843    1.030420
     16          1           0       -2.382478    0.647759   -1.501260
     17          7           0        2.018742    1.348888   -0.078343
     18          7           0       -1.070230   -0.593656   -0.360026
     19          7           0        0.140761   -2.401919    0.197568
     20          7           0        2.204990   -1.108082    0.226958
     21          7           0       -0.044194    2.478801    0.057766
 ---------------------------------------------------------------------

 SCF Done:  E(RHF) =  -542.740007475     A.U. after    2 cycles

 The electronic state is 1-A.
 Alpha  occ. eigenvalues --  -15.68648 -15.65707 -15.63926 -15.62817 -15.62617
 Alpha  occ. eigenvalues --  -11.34581 -11.34536 -11.32740 -11.32501 -11.30784
 Alpha  occ. eigenvalues --  -11.28803 -11.24714  -1.33140  -1.27420  -1.21789
 Alpha  occ. eigenvalues --   -1.16269  -1.13035  -1.06092  -1.01704  -0.90038
 Alpha  occ. eigenvalues --   -0.88342  -0.86053  -0.79207  -0.74754  -0.72132
 Alpha  occ. eigenvalues --   -0.68740  -0.67634  -0.64706  -0.63939  -0.63063
 Alpha  occ. eigenvalues --   -0.61216  -0.58751  -0.56476  -0.55595  -0.52915
 Alpha  occ. eigenvalues --   -0.51401  -0.48610  -0.47191  -0.44853  -0.42826
 Alpha  occ. eigenvalues --   -0.40863  -0.36927  -0.32075
 Alpha virt. eigenvalues --    0.01959   0.02952   0.03776   0.04397   0.05209
 Alpha virt. eigenvalues --    0.06097   0.06833   0.06874   0.08385   0.08659
 Alpha virt. eigenvalues --    0.09499   0.10275   0.10894   0.11112   0.12129

 Mulliken charges:
               1
     1  C    0.371356
     2  C    0.345454
     3  C    0.533139
     4  C    0.229530
     5  C    0.722406
     6  C    0.647752
     7  C    0.749582
     8  H    0.099959
     9  H    0.005939
    10  H   -0.283627
    11  H   -0.286739
    12  H   -0.128071
    13  H   -0.038626
    14  H    0.176742
    15  H   -0.234615
    16  H   -0.142824
    17  N   -0.664850
    18  N   -0.648224
    19  N   -0.668907
    20  N   -0.537472
    21  N   -0.247902
 Sum of Mulliken charges =   0.00000

 Dipole moment (field-independent basis, Debye):
    X=             -5.3074    Y=              3.1868    Z=             -1.9668  Tot=              6.4955

 Test job not archived.
 1\1\GINC-SE038\SP\RHF\Aug-CC-pVDZ\C7H9N5\OHZDE\08-Apr-2025\0\\#t hf au
 g-cc-pvdz iop(5/13=1,5/36=2,99/5=2) pseudo=read geom=check guess=(read
 ,tcheck) scf=(maxcycle=1)\\title\\0,1\C,0,-2.79215,0.860017,0.670691\C
 ,0,-2.39508,0.0821748,-0.521682\C,0,-1.03572,-1.93034,-0.0896621\C,0,0
 .925161,-1.1989,0.0855038\C,0,2.6836,0.17714,-0.00590595\C,0,0.672675,
 1.26354,-0.0484368\C,0,0.20556,0.0151296,-0.149553\H,0,-0.637117,2.686
 47,-0.778458\H,0,0.684819,3.16236,0.0490799\H,0,3.77836,0.26819,0.0050
 9035\H,0,-1.9213,-2.57409,-0.138586\H,0,-3.09937,-0.761995,-0.55033\H,

 Normal termination of Gaussian 16 at Tue Apr  8 19:45:10 2025.
