 Gaussian 16, Revision C.01,

 ----------------------------------------------------------------------
 #t hf aug-cc-pvdz symm=none int=(grid=ultrafine) guess=(read,tcheck) s
 table=(opt,rrhf)
 ----------------------------------------------------------------------
 -----
 title
 -----
 Symbolic Z-matrix:
 Charge =  0 Multiplicity = 1

 SCF Done:  E(RHF) =  -256.786631370     A.U. after   15 cycles
 Normal termination of Gaussian 16 at Tue Apr  8 21:23:28 2025.
 Gaussian 16:  ES64L-G16RevC.01  3-Jul-2019

 ----------------------------------------------------------------------
 #t hf aug-cc-pvdz iop(5/13=1,5/36=2,99/5=2) pseudo=read geom=check gue
 ss=(read,tcheck) scf=(maxcycle=1)
 ----------------------------------------------------------------------
 -----
 title
 -----
 Structure from the checkpoint file:  "ANI1ccx_377_conf49_mol1.chk"
 Charge =  0 Multiplicity = 1

                         Standard orientation:
 ---------------------------------------------------------------------
 Center     Atomic      Atomic             Coordinates (Angstroms)
 Number     Number       Type             X           Y           Z
 ---------------------------------------------------------------------
      1          6           0        0.981209   -0.448094   -0.005979
      2          1           0        1.994548   -0.908124    0.058143
      3          1           0       -2.050261   -0.360383    0.194250
      4          7           0        0.812463    0.892500    0.005987
      5          7           0       -0.510977    1.032112    0.002675
      6          7           0       -1.031301   -0.206847   -0.040700
      7          7           0       -0.103263   -1.152469    0.001107
 ---------------------------------------------------------------------

 SCF Done:  E(RHF) =  -256.857864636     A.U. after    2 cycles

 The electronic state is 1-A.
 Alpha  occ. eigenvalues --  -15.77859 -15.74951 -15.69991 -15.69105 -11.32203
 Alpha  occ. eigenvalues --   -1.45957  -1.22777  -1.15920  -0.90623  -0.86655
 Alpha  occ. eigenvalues --   -0.77191  -0.68224  -0.64422  -0.55906  -0.49984
 Alpha  occ. eigenvalues --   -0.48109  -0.44541  -0.41671
 Alpha virt. eigenvalues --    0.02757   0.03915   0.08425   0.08621   0.10402
 Alpha virt. eigenvalues --    0.11501   0.12389   0.14804   0.16217   0.16857
 Alpha virt. eigenvalues --    0.17424   0.19172   0.19945   0.20230   0.21839

 Mulliken charges:
               1
     1  C    0.809924
     2  H   -0.120002
     3  H    0.129390
     4  N   -0.361114
     5  N   -0.160923
     6  N    0.016182
     7  N   -0.313457
 Sum of Mulliken charges =  -0.00000

 Dipole moment (field-independent basis, Debye):
    X=             -1.5824    Y=             -1.6459    Z=              0.3695  Tot=              2.3129

 Test job not archived.
 1\1\GINC-SE250\SP\RHF\Aug-CC-pVDZ\C1H2N4\OHZDE\08-Apr-2025\0\\#t hf au
 g-cc-pvdz iop(5/13=1,5/36=2,99/5=2) pseudo=read geom=check guess=(read
 ,tcheck) scf=(maxcycle=1)\\title\\0,1\C,0,0.98121,-0.448094,-0.0059787
 7\H,0,1.99455,-0.908122,0.0581426\H,0,-2.05026,-0.360387,0.19425\N,0,0
 .812462,0.8925,0.00598662\N,0,-0.510978,1.03211,0.00267495\N,0,-1.0313
 ,-0.206849,-0.0406996\N,0,-0.103261,-1.15247,0.00110651\\Version=ES64L
 -G16RevC.01\State=1-A\HF=-256.8578646\RMSD=3.072e-03\Dipole=-0.6225584
 ,-0.6475382,0.1453565\Quadrupole=5.524231,-4.9384286,-0.5858024,-0.917

 Normal termination of Gaussian 16 at Tue Apr  8 21:23:30 2025.
