 Gaussian 16, Revision C.01,

 ----------------------------------------------------------------------
 #t hf aug-cc-pvdz symm=none int=(grid=ultrafine) guess=(read,tcheck) s
 table=(opt,rrhf)
 ----------------------------------------------------------------------
 -----
 title
 -----
 Symbolic Z-matrix:
 Charge =  0 Multiplicity = 1

 SCF Done:  E(RHF) =  -393.474594730     A.U. after   17 cycles
 Normal termination of Gaussian 16 at Tue Apr  8 21:31:36 2025.
 Gaussian 16:  ES64L-G16RevC.01  3-Jul-2019

 ----------------------------------------------------------------------
 #t hf aug-cc-pvdz iop(5/13=1,5/36=2,99/5=2) pseudo=read geom=check gue
 ss=(read,tcheck) scf=(maxcycle=1)
 ----------------------------------------------------------------------
 -----
 title
 -----
 Structure from the checkpoint file:  "ANI1ccx_388_conf2_mol2.chk"
 Charge =  0 Multiplicity = 1

                         Standard orientation:
 ---------------------------------------------------------------------
 Center     Atomic      Atomic             Coordinates (Angstroms)
 Number     Number       Type             X           Y           Z
 ---------------------------------------------------------------------
      1          6           0        2.232920   -0.196644   -0.367047
      2          1           0       -0.460210   -0.250678    0.643341
      3          1           0        2.581889    1.676971   -0.445843
      4          1           0        2.781590   -0.244470   -1.340510
      5          7           0       -1.982430   -0.198949   -0.378629
      6          8           0       -1.359940    0.086540    0.828783
      7          8           0       -3.084550    0.195534   -0.376079
      8          8           0        2.148600    1.042831    0.134924
      9          8           0        1.742920   -1.151069    0.161834
 ---------------------------------------------------------------------

 SCF Done:  E(RHF) =  -393.601588569     A.U. after    2 cycles

 The electronic state is 1-A.
 Alpha  occ. eigenvalues --  -20.66444 -20.65615 -20.64212 -20.60246 -15.84465
 Alpha  occ. eigenvalues --  -11.43675  -1.54598  -1.45969  -1.37274  -1.36071
 Alpha  occ. eigenvalues --   -0.92104  -0.90234  -0.82792  -0.78729  -0.73000
 Alpha  occ. eigenvalues --   -0.71347  -0.68697  -0.67815  -0.63798  -0.62229
 Alpha  occ. eigenvalues --   -0.53787  -0.53051  -0.50983  -0.45863
 Alpha virt. eigenvalues --    0.01540   0.04186   0.06934   0.07172   0.09643
 Alpha virt. eigenvalues --    0.10465   0.11753   0.12581   0.13102   0.14500
 Alpha virt. eigenvalues --    0.14970   0.17421   0.18578   0.19512   0.20071

 Mulliken charges:
               1
     1  C    0.734017
     2  H    0.234570
     3  H    0.199189
     4  H   -0.124801
     5  N    0.522181
     6  O   -0.432877
     7  O   -0.333005
     8  O   -0.417508
     9  O   -0.381765
 Sum of Mulliken charges =  -0.00000

 Dipole moment (field-independent basis, Debye):
    X=              5.2471    Y=              2.0168    Z=             -3.0740  Tot=              6.4070

 Test job not archived.
 1\1\GINC-SE365\SP\RHF\Aug-CC-pVDZ\C1H3N1O4\OHZDE\08-Apr-2025\0\\#t hf
 aug-cc-pvdz iop(5/13=1,5/36=2,99/5=2) pseudo=read geom=check guess=(re
 ad,tcheck) scf=(maxcycle=1)\\title\\0,1\C,0,2.23292,-0.196645,-0.36704
 7\H,0,-0.46021,-0.250678,0.643341\H,0,2.58189,1.67697,-0.445843\H,0,2.
 78159,-0.244471,-1.34051\N,0,-1.98243,-0.198949,-0.378629\O,0,-1.35994
 ,0.0865399,0.828783\O,0,-3.08455,0.195534,-0.376079\O,0,2.1486,1.04283
 ,0.134924\O,0,1.74292,-1.15107,0.161834\\Version=ES64L-G16RevC.01\Stat
 e=1-A\HF=-393.6015886\RMSD=2.492e-03\Dipole=2.0643628,0.7934659,-1.209

 Normal termination of Gaussian 16 at Tue Apr  8 21:31:39 2025.
