 Gaussian 16, Revision C.01,

 ----------------------------------------------------------------------
 #t hf aug-cc-pvdz symm=none int=(grid=ultrafine) guess=(read,tcheck) s
 table=(opt,rrhf)
 ----------------------------------------------------------------------
 -----
 title
 -----
 Symbolic Z-matrix:
 Charge =  0 Multiplicity = 1

 SCF Done:  E(RHF) =  -396.766117683     A.U. after   14 cycles
 Normal termination of Gaussian 16 at Tue Apr  8 21:50:57 2025.
 Gaussian 16:  ES64L-G16RevC.01  3-Jul-2019

 ----------------------------------------------------------------------
 #t hf aug-cc-pvdz iop(5/13=1,5/36=2,99/5=2) pseudo=read geom=check gue
 ss=(read,tcheck) scf=(maxcycle=1)
 ----------------------------------------------------------------------
 -----
 title
 -----
 Structure from the checkpoint file:  "ANI1ccx_744_conf18_mol1.chk"
 Charge =  0 Multiplicity = 1

                         Standard orientation:
 ---------------------------------------------------------------------
 Center     Atomic      Atomic             Coordinates (Angstroms)
 Number     Number       Type             X           Y           Z
 ---------------------------------------------------------------------
      1          6           0        0.198754    0.750881   -0.393408
      2          6           0       -1.141980   -0.078237   -0.071207
      3          6           0        1.250190   -0.184079   -0.923978
      4          1           0        0.961454    0.830398    1.505300
      5          1           0        0.159707    2.200180    1.137780
      6          1           0       -0.084452    1.508130   -1.197070
      7          1           0        0.862746   -0.796899   -1.732160
      8          1           0        2.220060    0.316388   -1.154390
      9          1           0        2.144220   -1.708119   -0.073768
     10          1           0       -0.100148   -0.938920    1.170040
     11          7           0        0.762901    1.495990    0.737617
     12          8           0       -2.172690    0.078474   -0.680768
     13          8           0        1.561650   -0.977044    0.153388
     14          8           0       -1.057170   -0.953240    0.966443
 ---------------------------------------------------------------------

 SCF Done:  E(RHF) =  -396.889914222     A.U. after    2 cycles

 The electronic state is 1-A.
 Alpha  occ. eigenvalues --  -20.61867 -20.60804 -20.56030 -15.63619 -11.39712
 Alpha  occ. eigenvalues --  -11.31604 -11.31111  -1.41363  -1.38203  -1.32343
 Alpha  occ. eigenvalues --   -1.17613  -1.01370  -0.88019  -0.81886  -0.77879
 Alpha  occ. eigenvalues --   -0.74350  -0.68316  -0.67983  -0.66482  -0.63592
 Alpha  occ. eigenvalues --   -0.61506  -0.60566  -0.54034  -0.53476  -0.50365
 Alpha  occ. eigenvalues --   -0.49264  -0.47883  -0.40273
 Alpha virt. eigenvalues --    0.02345   0.03967   0.04051   0.05148   0.06376
 Alpha virt. eigenvalues --    0.06861   0.08019   0.10364   0.11239   0.12130
 Alpha virt. eigenvalues --    0.13823   0.13952   0.14532   0.15589   0.15871

 Mulliken charges:
               1
     1  C    0.168459
     2  C    0.643738
     3  C    0.949440
     4  H    0.087461
     5  H   -0.012088
     6  H   -0.059563
     7  H   -0.176675
     8  H   -0.093655
     9  H    0.169910
    10  H    0.267769
    11  N   -0.357869
    12  O   -0.453462
    13  O   -0.661752
    14  O   -0.471714
 Sum of Mulliken charges =  -0.00000

 Dipole moment (field-independent basis, Debye):
    X=              4.9905    Y=             -0.3931    Z=              0.0292  Tot=              5.0060

 Test job not archived.
 1\1\GINC-SE229\SP\RHF\Aug-CC-pVDZ\C3H7N1O3\OHZDE\08-Apr-2025\0\\#t hf
 aug-cc-pvdz iop(5/13=1,5/36=2,99/5=2) pseudo=read geom=check guess=(re
 ad,tcheck) scf=(maxcycle=1)\\title\\0,1\C,0,0.198754,0.750881,-0.39340
 8\C,0,-1.14198,-0.0782362,-0.0712073\C,0,1.25019,-0.184079,-0.923978\H
 ,0,0.961454,0.830398,1.5053\H,0,0.159708,2.20018,1.13778\H,0,-0.084451
 6,1.50813,-1.19707\H,0,0.862746,-0.796899,-1.73216\H,0,2.22006,0.31638
 7,-1.15439\H,0,2.14422,-1.70812,-0.0737679\H,0,-0.100148,-0.93892,1.17
 004\N,0,0.762902,1.49599,0.737617\O,0,-2.17269,0.0784743,-0.680768\O,0

 Normal termination of Gaussian 16 at Tue Apr  8 21:51:03 2025.
