 Gaussian 16, Revision C.01,

 ----------------------------------------------------------------------
 #t hf aug-cc-pvdz symm=none int=(grid=ultrafine) guess=(read,tcheck) s
 table=(opt,rrhf)
 ----------------------------------------------------------------------
 -----
 title
 -----
 Symbolic Z-matrix:
 Charge =  0 Multiplicity = 1

 SCF Done:  E(RHF) =  -943.030614313     A.U. after   15 cycles
 Normal termination of Gaussian 16 at Tue Apr  8 20:03:12 2025.
 Gaussian 16:  ES64L-G16RevC.01  3-Jul-2019

 ----------------------------------------------------------------------
 #t hf aug-cc-pvdz iop(5/13=1,5/36=2,99/5=2) pseudo=read geom=check gue
 ss=(read,tcheck) scf=(maxcycle=1)
 ----------------------------------------------------------------------
 -----
 title
 -----
 Structure from the checkpoint file:  "ANI1ccx_1569_conf31_mol1.chk"
 Charge =  0 Multiplicity = 1

                         Standard orientation:
 ---------------------------------------------------------------------
 Center     Atomic      Atomic             Coordinates (Angstroms)
 Number     Number       Type             X           Y           Z
 ---------------------------------------------------------------------
      1          6           0        2.054759    1.319519   -0.405872
      2          6           0        0.675693    0.716638   -0.265723
      3          6           0        3.119049    0.403414    0.414392
      4          6           0        3.541729   -0.922014   -0.241191
      5          6           0       -1.577501    0.705932    0.463801
      6          6           0       -1.086701   -0.683309    0.920734
      7          6           0       -2.468961    0.633719   -0.798259
      8          6           0       -3.783171    0.028129   -0.416914
      9          1           0       -1.618611   -2.458611    1.033490
     10          1           0       -5.146501   -1.208700   -1.014000
     11          1           0       -2.023761    0.145333   -1.664250
     12          1           0       -2.692841    1.705689   -1.071190
     13          1           0       -2.094531    1.181149    1.235820
     14          1           0       -0.124954    2.335449    0.731046
     15          1           0        2.967149    0.305518    1.449420
     16          1           0        4.010209    0.988975    0.386912
     17          1           0        2.244379    1.239939   -1.523700
     18          1           0        1.948980    3.436839   -0.682751
     19          1           0        2.919330    2.939219    0.575548
     20          1           0        4.391109   -2.396281   -0.218833
     21          7           0        2.100590    2.730269    0.082985
     22          7           0       -0.344099    1.487959    0.180451
     23          8           0       -4.209321   -0.998444   -1.197560
     24          8           0        0.499740   -0.453501   -0.639166
     25          8           0        3.407829   -1.149351   -1.453440
     26          8           0        4.165239   -1.742751    0.514165
     27          8           0       -0.395864   -0.656437    1.890360
     28          8           0       -4.324631    0.407301    0.623856
     29          8           0       -1.633591   -1.776101    0.373365
 ---------------------------------------------------------------------

 SCF Done:  E(RHF) =  -943.320054511     A.U. after    2 cycles

 The electronic state is 1-A.
 Alpha  occ. eigenvalues --  -20.64404 -20.63451 -20.61645 -20.56591 -20.55013
 Alpha  occ. eigenvalues --  -20.54338 -20.54147 -15.66420 -15.64057 -11.40977
 Alpha  occ. eigenvalues --  -11.40527 -11.39583 -11.36982 -11.31664 -11.30573
 Alpha  occ. eigenvalues --  -11.27751 -11.26364  -1.46098  -1.42738  -1.41616
 Alpha  occ. eigenvalues --   -1.35576  -1.32799  -1.32280  -1.30586  -1.21033
 Alpha  occ. eigenvalues --   -1.17331  -1.06485  -1.03963  -0.96432  -0.91993
 Alpha  occ. eigenvalues --   -0.85944  -0.83672  -0.82253  -0.78748  -0.74122
 Alpha  occ. eigenvalues --   -0.73262  -0.71885  -0.71196  -0.70841  -0.70385
 Alpha  occ. eigenvalues --   -0.68596  -0.68087  -0.67260  -0.66053  -0.65391
 Alpha  occ. eigenvalues --   -0.64325  -0.61886  -0.61027  -0.60572  -0.58389
 Alpha  occ. eigenvalues --   -0.57763  -0.57315  -0.55991  -0.55169  -0.54521
 Alpha  occ. eigenvalues --   -0.51857  -0.49755  -0.49076  -0.48461  -0.47305
 Alpha  occ. eigenvalues --   -0.46920  -0.45942  -0.44292  -0.41716  -0.41086
 Alpha virt. eigenvalues --    0.02300   0.03320   0.03641   0.04032   0.04658
 Alpha virt. eigenvalues --    0.05432   0.06100   0.06648   0.06877   0.07589
 Alpha virt. eigenvalues --    0.08150   0.08769   0.10983   0.11200   0.11276

 Mulliken charges:
               1
     1  C    0.106048
     2  C    0.762841
     3  C    0.448566
     4  C    0.665269
     5  C    0.444380
     6  C    0.884728
     7  C    0.332994
     8  C    0.905118
     9  H    0.154364
    10  H    0.200047
    11  H   -0.156848
    12  H    0.183844
    13  H   -0.405006
    14  H    0.022713
    15  H   -0.179729
    16  H   -0.030094
    17  H    0.162907
    18  H    0.089363
    19  H   -0.024905
    20  H    0.258069
    21  N   -0.308413
    22  N   -0.553643
    23  O   -0.538064
    24  O   -0.664646
    25  O   -0.576085
    26  O   -0.452175
    27  O   -0.601214
    28  O   -0.593220
    29  O   -0.537209
 Sum of Mulliken charges =  -0.00000

 Dipole moment (field-independent basis, Debye):
    X=              1.1634    Y=              3.6241    Z=             -0.2971  Tot=              3.8178

 Test job not archived.
 1\1\GINC-SE343\SP\RHF\Aug-CC-pVDZ\C8H12N2O7\OHZDE\08-Apr-2025\0\\#t hf
  aug-cc-pvdz iop(5/13=1,5/36=2,99/5=2) pseudo=read geom=check guess=(r
 ead,tcheck) scf=(maxcycle=1)\\title\\0,1\C,0,2.05476,1.31952,-0.405872
 \C,0,0.675694,0.716639,-0.265723\C,0,3.11905,0.403415,0.414392\C,0,3.5
 4173,-0.922013,-0.241191\C,0,-1.5775,0.705933,0.463801\C,0,-1.0867,-0.
 683308,0.920734\C,0,-2.46896,0.63372,-0.798259\C,0,-3.78317,0.0281291,
 -0.416914\H,0,-1.61861,-2.45861,1.03349\H,0,-5.1465,-1.2087,-1.014\H,0
 ,-2.02376,0.145334,-1.66425\H,0,-2.69284,1.70569,-1.07119\H,0,-2.09453

 Normal termination of Gaussian 16 at Tue Apr  8 20:03:49 2025.
