 Gaussian 16, Revision C.01,

 ----------------------------------------------------------------------
 #t hf aug-cc-pvdz symm=none int=(grid=ultrafine) guess=(read,tcheck) s
 table=(opt,rrhf)
 ----------------------------------------------------------------------
 -----
 title
 -----
 Symbolic Z-matrix:
 Charge =  0 Multiplicity = 1

 SCF Done:  E(RHF) =  -541.300383249     A.U. after   14 cycles
 Normal termination of Gaussian 16 at Tue Apr  8 21:45:25 2025.
 Gaussian 16:  ES64L-G16RevC.01  3-Jul-2019

 ----------------------------------------------------------------------
 #t hf aug-cc-pvdz iop(5/13=1,5/36=2,99/5=2) pseudo=read geom=check gue
 ss=(read,tcheck) scf=(maxcycle=1)
 ----------------------------------------------------------------------
 -----
 title
 -----
 Structure from the checkpoint file:  "ANI1ccx_541_conf1_mol2.chk"
 Charge =  0 Multiplicity = 1

                         Standard orientation:
 ---------------------------------------------------------------------
 Center     Atomic      Atomic             Coordinates (Angstroms)
 Number     Number       Type             X           Y           Z
 ---------------------------------------------------------------------
      1          6           0       -0.443193    0.571054   -0.022934
      2          6           0        1.195543   -1.340177   -0.314397
      3          1           0        2.302718    0.929841    0.448605
      4          1           0        0.226526    2.344561   -0.338277
      5          1           0       -3.401310    0.229680    0.274003
      6          1           0       -1.655726   -1.583263    0.303778
      7          1           0        1.045255   -2.405278   -0.186836
      8          7           0        0.644631    1.446331   -0.300425
      9          7           0       -1.628942    1.020897   -0.189361
     10          7           0        0.004983   -0.731619    0.098080
     11          8           0        1.568897    1.519293    0.738651
     12          8           0       -2.528190    0.013208   -0.416899
     13          8           0       -0.831063   -1.583912    0.785509
     14          8           0        2.268322   -0.829848   -0.574179
 ---------------------------------------------------------------------

 SCF Done:  E(RHF) =  -541.463774012     A.U. after    2 cycles

 The electronic state is 1-A.
 Alpha  occ. eigenvalues --  -20.65407 -20.65283 -20.61508 -20.59320 -15.75171
 Alpha  occ. eigenvalues --  -15.70279 -15.69471 -11.41138 -11.39007  -1.45782
 Alpha  occ. eigenvalues --   -1.40004  -1.39494  -1.37657  -1.22464  -1.13509
 Alpha  occ. eigenvalues --   -1.06123  -0.95062  -0.82497  -0.77441  -0.76706
 Alpha  occ. eigenvalues --   -0.74082  -0.71646  -0.69165  -0.68166  -0.66686
 Alpha  occ. eigenvalues --   -0.65238  -0.63082  -0.60240  -0.58008  -0.53151
 Alpha  occ. eigenvalues --   -0.51137  -0.49651  -0.45394  -0.43315  -0.38146
 Alpha virt. eigenvalues --    0.02309   0.03850   0.04720   0.06557   0.06800
 Alpha virt. eigenvalues --    0.07500   0.09798   0.11357   0.11789   0.12437
 Alpha virt. eigenvalues --    0.13681   0.14124   0.14984   0.16065   0.16805

 Mulliken charges:
               1
     1  C    0.929046
     2  C    0.912838
     3  H    0.251157
     4  H    0.048165
     5  H    0.385842
     6  H    0.206634
     7  H   -0.174921
     8  N   -0.033512
     9  N   -0.124526
    10  N   -0.093396
    11  O   -0.548135
    12  O   -0.777219
    13  O   -0.551100
    14  O   -0.430872
 Sum of Mulliken charges =  -0.00000

 Dipole moment (field-independent basis, Debye):
    X=             -3.3052    Y=             -1.7429    Z=              0.5495  Tot=              3.7768

 Test job not archived.
 1\1\GINC-SE454\SP\RHF\Aug-CC-pVDZ\C2H5N3O4\OHZDE\08-Apr-2025\0\\#t hf
 aug-cc-pvdz iop(5/13=1,5/36=2,99/5=2) pseudo=read geom=check guess=(re
 ad,tcheck) scf=(maxcycle=1)\\title\\0,1\C,0,-0.443192,0.571055,-0.0229
 341\C,0,1.19554,-1.34018,-0.314397\H,0,2.30272,0.929836,0.448605\H,0,0
 .226531,2.34456,-0.338277\H,0,-3.40131,0.229687,0.274003\H,0,-1.65573,
 -1.58326,0.303778\H,0,1.04525,-2.40528,-0.186836\N,0,0.644634,1.44633,
 -0.300425\N,0,-1.62894,1.0209,-0.189361\N,0,0.0049813,-0.731619,0.0980
 805\O,0,1.5689,1.51929,0.738651\O,0,-2.52819,0.0132133,-0.416899\O,0,-

 Normal termination of Gaussian 16 at Tue Apr  8 21:45:30 2025.
