 Gaussian 16, Revision C.01,

 ----------------------------------------------------------------------
 #t hf aug-cc-pvdz symm=none int=(grid=ultrafine) guess=(read,tcheck) s
 table=(opt,rrhf)
 ----------------------------------------------------------------------
 -----
 title
 -----
 Symbolic Z-matrix:
 Charge =  0 Multiplicity = 1

 SCF Done:  E(RHF) =  -537.860863019     A.U. after   16 cycles
 Normal termination of Gaussian 16 at Tue Apr  8 22:16:38 2025.
 Gaussian 16:  ES64L-G16RevC.01  3-Jul-2019

 ----------------------------------------------------------------------
 #t hf aug-cc-pvdz iop(5/13=1,5/36=2,99/5=2) pseudo=read geom=check gue
 ss=(read,tcheck) scf=(maxcycle=1)
 ----------------------------------------------------------------------
 -----
 title
 -----
 Structure from the checkpoint file:  "ANI1ccx_988_conf6_mol1.chk"
 Charge =  0 Multiplicity = 1

                         Standard orientation:
 ---------------------------------------------------------------------
 Center     Atomic      Atomic             Coordinates (Angstroms)
 Number     Number       Type             X           Y           Z
 ---------------------------------------------------------------------
      1          6           0        2.067101   -0.397509   -0.021101
      2          6           0        0.757068    1.708320    0.518533
      3          6           0       -0.713834    1.809211    0.138327
      4          6           0       -1.400629    0.505581   -0.082281
      5          1           0       -0.097909   -1.126579    0.688106
      6          1           0       -0.787959    2.441651   -0.764952
      7          1           0       -1.308729    2.341251    0.943657
      8          1           0        1.202781    2.660890    0.568096
      9          1           0        0.766899    1.407930    1.609640
     10          1           0        2.036550   -2.124280    0.716761
     11          1           0        3.736131   -1.566130   -0.565280
     12          1           0        3.756031   -0.034090   -1.161790
     13          1           0        1.902261    1.365790   -1.103380
     14          7           0       -2.036989   -1.535899    0.193870
     15          7           0        3.153991   -0.761052   -0.797141
     16          7           0        1.620161   -1.217590    0.884482
     17          7           0        1.607731    0.862530   -0.255803
     18          7           0       -2.588749    0.397142   -0.598073
     19          7           0       -2.933489   -0.899716   -0.437727
     20          7           0       -1.031839   -0.719708    0.403001
 ---------------------------------------------------------------------

 SCF Done:  E(RHF) =  -538.014774927     A.U. after    2 cycles

 The electronic state is 1-A.
 Alpha  occ. eigenvalues --  -15.68897 -15.68523 -15.68372 -15.67315 -15.66943
 Alpha  occ. eigenvalues --  -15.63160 -15.60474 -11.40763 -11.31528 -11.30575
 Alpha  occ. eigenvalues --  -11.27547  -1.42552  -1.30808  -1.20191  -1.18113
 Alpha  occ. eigenvalues --   -1.14474  -1.13143  -1.04091  -0.92777  -0.84542
 Alpha  occ. eigenvalues --   -0.83122  -0.81689  -0.77560  -0.72384  -0.71925
 Alpha  occ. eigenvalues --   -0.67095  -0.66363  -0.65449  -0.63041  -0.61363
 Alpha  occ. eigenvalues --   -0.58523  -0.56356  -0.52785  -0.51225  -0.45963
 Alpha  occ. eigenvalues --   -0.43911  -0.42962  -0.42137  -0.40891  -0.38119
 Alpha  occ. eigenvalues --   -0.36917
 Alpha virt. eigenvalues --    0.00929   0.02205   0.03410   0.04503   0.05558
 Alpha virt. eigenvalues --    0.05847   0.07518   0.07992   0.08797   0.09684
 Alpha virt. eigenvalues --    0.10113   0.11464   0.13013   0.13194   0.14235

 Mulliken charges:
               1
     1  C    1.030039
     2  C    0.787721
     3  C   -0.247355
     4  C    0.796814
     5  H    0.202205
     6  H    0.024603
     7  H    0.140748
     8  H   -0.249844
     9  H   -0.062082
    10  H   -0.040755
    11  H    0.002158
    12  H   -0.052515
    13  H   -0.025947
    14  N   -0.124359
    15  N   -0.248523
    16  N   -0.455241
    17  N   -0.441973
    18  N   -0.521921
    19  N   -0.275394
    20  N   -0.238380
 Sum of Mulliken charges =  -0.00000

 Dipole moment (field-independent basis, Debye):
    X=              9.6758    Y=              3.6081    Z=             -0.4332  Tot=             10.3357

 Test job not archived.
 1\1\GINC-SE029\SP\RHF\Aug-CC-pVDZ\C4H9N7\OHZDE\08-Apr-2025\0\\#t hf au
 g-cc-pvdz iop(5/13=1,5/36=2,99/5=2) pseudo=read geom=check guess=(read
 ,tcheck) scf=(maxcycle=1)\\title\\0,1\C,0,2.0671,-0.397509,-0.0211015\
 C,0,0.757067,1.70832,0.518533\C,0,-0.713835,1.80921,0.138327\C,0,-1.40
 063,0.50558,-0.0822808\H,0,-0.0979099,-1.12658,0.688106\H,0,-0.78796,2
 .44165,-0.764952\H,0,-1.30873,2.34125,0.943657\H,0,1.20278,2.66089,0.5
 68096\H,0,0.766898,1.40793,1.60964\H,0,2.03655,-2.12428,0.716761\H,0,3
 .73613,-1.56613,-0.56528\H,0,3.75603,-0.0340902,-1.16179\H,0,1.90226,1

 Normal termination of Gaussian 16 at Tue Apr  8 22:16:51 2025.
