 Gaussian 16, Revision C.01,

 ----------------------------------------------------------------------
 #t hf aug-cc-pvdz symm=none int=(grid=ultrafine) guess=(read,tcheck) s
 table=(opt,rrhf)
 ----------------------------------------------------------------------
 -----
 title
 -----
 Symbolic Z-matrix:
 Charge =  0 Multiplicity = 1

 SCF Done:  E(RHF) =  -585.373983241     A.U. after   15 cycles
 Normal termination of Gaussian 16 at Tue Apr  8 22:13:38 2025.
 Gaussian 16:  ES64L-G16RevC.01  3-Jul-2019

 ----------------------------------------------------------------------
 #t hf aug-cc-pvdz iop(5/13=1,5/36=2,99/5=2) pseudo=read geom=check gue
 ss=(read,tcheck) scf=(maxcycle=1)
 ----------------------------------------------------------------------
 -----
 title
 -----
 Structure from the checkpoint file:  "ANI1ccx_978_conf10_mol1.chk"
 Charge =  0 Multiplicity = 1

                         Standard orientation:
 ---------------------------------------------------------------------
 Center     Atomic      Atomic             Coordinates (Angstroms)
 Number     Number       Type             X           Y           Z
 ---------------------------------------------------------------------
      1          6           0        0.367294   -1.452290   -0.284407
      2          6           0       -0.181474   -0.156117    0.407326
      3          6           0       -1.566819   -0.489941    0.966101
      4          6           0        0.875840    0.425950    1.445710
      5          1           0        2.397641   -0.227312    0.404219
      6          1           0        0.827449   -0.255646    2.373820
      7          1           0        0.523941    1.456920    1.756750
      8          1           0       -1.885619    0.384811    1.640570
      9          1           0       -3.276249   -0.160821   -0.002524
     10          1           0        0.558829   -2.137190    0.611427
     11          1           0       -0.359137   -1.858740   -0.930847
     12          1           0        1.548351   -0.821122   -1.673180
     13          1           0       -1.406448   -1.396871    1.595120
     14          7           0       -0.267636    0.879703   -0.643181
     15          8           0        0.313406    0.756929   -1.705580
     16          8           0        1.670002   -1.240179   -0.816694
     17          8           0       -2.402789   -0.811985   -0.126660
     18          8           0        2.157730    0.635540    0.879688
     19          8           0       -0.991393    1.771249   -0.290936
 ---------------------------------------------------------------------

 SCF Done:  E(RHF) =  -585.550253097     A.U. after    2 cycles

 The electronic state is 1-A.
 Alpha  occ. eigenvalues --  -20.62696 -20.62575 -20.62231 -20.59495 -20.57502
 Alpha  occ. eigenvalues --  -15.91730 -11.33725 -11.32880 -11.32396 -11.32128
 Alpha  occ. eigenvalues --   -1.57119  -1.39306  -1.35627  -1.34240  -1.31376
 Alpha  occ. eigenvalues --   -1.13136  -0.95894  -0.94100  -0.92137  -0.83241
 Alpha  occ. eigenvalues --   -0.77349  -0.75558  -0.74853  -0.74061  -0.70952
 Alpha  occ. eigenvalues --   -0.67042  -0.66210  -0.64822  -0.62094  -0.61050
 Alpha  occ. eigenvalues --   -0.59678  -0.57824  -0.55997  -0.53371  -0.52420
 Alpha  occ. eigenvalues --   -0.49820  -0.49378  -0.48792  -0.45808  -0.45371
 Alpha virt. eigenvalues --    0.02510   0.03655   0.04163   0.04983   0.06146
 Alpha virt. eigenvalues --    0.06578   0.06924   0.07167   0.08456   0.08782
 Alpha virt. eigenvalues --    0.11047   0.12103   0.12808   0.13553   0.13702

 Mulliken charges:
               1
     1  C    1.082763
     2  C   -1.502465
     3  C    1.129432
     4  C    0.901796
     5  H    0.315670
     6  H    0.096694
     7  H   -0.004523
     8  H    0.209757
     9  H    0.342740
    10  H    0.098956
    11  H   -0.099131
    12  H    0.254867
    13  H    0.064214
    14  N    0.251685
    15  O   -0.604631
    16  O   -0.678074
    17  O   -0.672433
    18  O   -0.611657
    19  O   -0.575660
 Sum of Mulliken charges =  -0.00000

 Dipole moment (field-independent basis, Debye):
    X=             -3.0627    Y=             -2.6428    Z=              2.6426  Tot=              4.8319

 Test job not archived.
 1\1\GINC-SE082\SP\RHF\Aug-CC-pVDZ\C4H9N1O5\OHZDE\08-Apr-2025\0\\#t hf
 aug-cc-pvdz iop(5/13=1,5/36=2,99/5=2) pseudo=read geom=check guess=(re
 ad,tcheck) scf=(maxcycle=1)\\title\\0,1\C,0,0.367292,-1.45229,-0.28440
 7\C,0,-0.181475,-0.156117,0.407326\C,0,-1.56682,-0.48994,0.966101\C,0,
 0.875839,0.425949,1.44571\H,0,2.39764,-0.227314,0.404219\H,0,0.827448,
 -0.255647,2.37382\H,0,0.523941,1.45692,1.75675\H,0,-1.88562,0.384812,1
 .64057\H,0,-3.27625,-0.160819,-0.00252368\H,0,0.558827,-2.13719,0.6114
 27\H,0,-0.359139,-1.85874,-0.930847\H,0,1.54835,-0.821123,-1.67318\H,0

 Normal termination of Gaussian 16 at Tue Apr  8 22:13:49 2025.
