 Gaussian 16, Revision C.01,

 ----------------------------------------------------------------------
 #t hf aug-cc-pvdz symm=none int=(grid=ultrafine) guess=(read,tcheck) s
 table=(opt,rrhf)
 ----------------------------------------------------------------------
 -----
 title
 -----
 Symbolic Z-matrix:
 Charge =  0 Multiplicity = 1

 SCF Done:  E(RHF) =  -833.410707901     A.U. after   14 cycles
 Normal termination of Gaussian 16 at Tue Apr  8 20:47:48 2025.
 Gaussian 16:  ES64L-G16RevC.01  3-Jul-2019

 ----------------------------------------------------------------------
 #t hf aug-cc-pvdz iop(5/13=1,5/36=2,99/5=2) pseudo=read geom=check gue
 ss=(read,tcheck) scf=(maxcycle=1)
 ----------------------------------------------------------------------
 -----
 title
 -----
 Structure from the checkpoint file:  "ANI1ccx_1760_conf52_mol1.chk"
 Charge =  0 Multiplicity = 1

                         Standard orientation:
 ---------------------------------------------------------------------
 Center     Atomic      Atomic             Coordinates (Angstroms)
 Number     Number       Type             X           Y           Z
 ---------------------------------------------------------------------
      1          6           0        1.756989    0.962858   -0.860793
      2          6           0       -1.905818   -1.956142    0.662803
      3          6           0       -2.045979   -1.156162   -0.649103
      4          6           0       -2.165801    1.010458    0.773641
      5          6           0       -3.476438   -1.547243   -1.129480
      6          6           0        3.164631   -0.973104    0.364137
      7          6           0        2.921260    0.545492    0.088114
      8          6           0        0.470058    0.321352   -0.429591
      9          6           0       -1.829390    0.400220   -0.631074
     10          1           0       -0.902984   -2.097951    1.020130
     11          1           0       -1.397112    2.224718    2.033620
     12          1           0       -3.839069   -1.075094   -2.114620
     13          1           0       -4.021669   -0.957941   -0.388643
     14          1           0       -3.696348   -2.575274   -1.058430
     15          1           0       -2.318699   -1.380912    1.519590
     16          1           0       -2.552817   -2.935423    0.674231
     17          1           0       -1.327908   -1.641991   -1.349910
     18          1           0       -0.593615    1.609469   -1.599200
     19          1           0        2.323201   -1.349108   -1.241900
     20          1           0        3.904119    1.045793   -0.153519
     21          1           0        2.786989    1.092412    1.049820
     22          1           0        1.953410    0.757612   -1.962180
     23          1           0        1.518408    2.864371   -0.004983
     24          1           0        2.261738    2.791402   -1.429980
     25          1           0       -2.688471    0.843938   -1.192900
     26          7           0        1.456438    2.399181   -0.925710
     27          7           0       -0.648391    0.712757   -1.129090
     28          8           0       -3.004540    0.623622    1.548540
     29          8           0        0.420988   -0.537421    0.482339
     30          8           0        3.880221   -1.152927    1.352380
     31          8           0        2.794922   -1.837098   -0.533349
     32          8           0       -1.391912    2.073078    1.081410
 ---------------------------------------------------------------------

 SCF Done:  E(RHF) =  -833.662716936     A.U. after    2 cycles

 The electronic state is 1-A.
 Alpha  occ. eigenvalues --  -20.65038 -20.63219 -20.57390 -20.56979 -20.55010
 Alpha  occ. eigenvalues --  -15.67077 -15.66357 -11.41083 -11.40769 -11.39780
 Alpha  occ. eigenvalues --  -11.33150 -11.31244 -11.28402 -11.24937 -11.22244
 Alpha  occ. eigenvalues --  -11.20178  -1.44363  -1.43612  -1.37395  -1.33325
 Alpha  occ. eigenvalues --   -1.32028  -1.26361  -1.21151  -1.06985  -1.03784
 Alpha  occ. eigenvalues --   -0.99266  -0.92600  -0.90244  -0.87137  -0.85964
 Alpha  occ. eigenvalues --   -0.82899  -0.77847  -0.76536  -0.75307  -0.73731
 Alpha  occ. eigenvalues --   -0.72253  -0.69130  -0.68304  -0.67171  -0.66791
 Alpha  occ. eigenvalues --   -0.65537  -0.64065  -0.61609  -0.61179  -0.60304
 Alpha  occ. eigenvalues --   -0.59288  -0.57985  -0.56952  -0.56214  -0.53908
 Alpha  occ. eigenvalues --   -0.53669  -0.52549  -0.50910  -0.49442  -0.48674
 Alpha  occ. eigenvalues --   -0.48112  -0.47392  -0.46210  -0.45820  -0.43706
 Alpha  occ. eigenvalues --   -0.42934  -0.40826
 Alpha virt. eigenvalues --    0.01335   0.02331   0.02870   0.03849   0.04703
 Alpha virt. eigenvalues --    0.05366   0.05797   0.06204   0.06971   0.07304
 Alpha virt. eigenvalues --    0.07679   0.08183   0.08371   0.08670   0.09770

 Mulliken charges:
               1
     1  C    0.569940
     2  C    0.669248
     3  C   -0.317985
     4  C    0.701023
     5  C    0.821281
     6  C    0.747545
     7  C    0.294567
     8  C    0.177546
     9  C   -0.114098
    10  H   -0.225652
    11  H    0.200756
    12  H   -0.012593
    13  H    0.051112
    14  H   -0.249566
    15  H   -0.193779
    16  H    0.088186
    17  H   -0.262854
    18  H    0.055723
    19  H    0.232367
    20  H    0.041344
    21  H   -0.010451
    22  H   -0.072963
    23  H    0.102677
    24  H    0.037331
    25  H   -0.038916
    26  N   -0.481461
    27  N   -0.184107
    28  O   -0.534131
    29  O   -0.531545
    30  O   -0.535875
    31  O   -0.394414
    32  O   -0.630258
 Sum of Mulliken charges =   0.00000

 Dipole moment (field-independent basis, Debye):
    X=              0.3290    Y=              6.3618    Z=             -5.8720  Tot=              8.6637

 Test job not archived.
 1\1\GINC-SE081\SP\RHF\Aug-CC-pVDZ\C9H16N2O5\OHZDE\08-Apr-2025\0\\#t hf
  aug-cc-pvdz iop(5/13=1,5/36=2,99/5=2) pseudo=read geom=check guess=(r
 ead,tcheck) scf=(maxcycle=1)\\title\\0,1\C,0,1.75699,0.962857,-0.86079
 3\C,0,-1.90582,-1.95614,0.662803\C,0,-2.04598,-1.15616,-0.649103\C,0,-
 2.1658,1.01046,0.773641\C,0,-3.47644,-1.54724,-1.12948\C,0,3.16463,-0.
 973107,0.364137\C,0,2.92126,0.54549,0.0881137\C,0,0.470058,0.321352,-0
 .429591\C,0,-1.82939,0.400222,-0.631074\H,0,-0.902986,-2.09795,1.02013
 \H,0,-1.39711,2.22472,2.03362\H,0,-3.83907,-1.07509,-2.11462\H,0,-4.02

 Normal termination of Gaussian 16 at Tue Apr  8 20:48:33 2025.
