 Gaussian 16, Revision C.01,

 ----------------------------------------------------------------------
 #t hf aug-cc-pvdz symm=none int=(grid=ultrafine) guess=(read,tcheck) s
 table=(opt,rrhf)
 ----------------------------------------------------------------------
 -----
 title
 -----
 Symbolic Z-matrix:
 Charge =  0 Multiplicity = 1

 SCF Done:  E(RHF) =  -923.182209509     A.U. after   15 cycles
 Normal termination of Gaussian 16 at Tue Apr  8 20:09:13 2025.
 Gaussian 16:  ES64L-G16RevC.01  3-Jul-2019

 ----------------------------------------------------------------------
 #t hf aug-cc-pvdz iop(5/13=1,5/36=2,99/5=2) pseudo=read geom=check gue
 ss=(read,tcheck) scf=(maxcycle=1)
 ----------------------------------------------------------------------
 -----
 title
 -----
 Structure from the checkpoint file:  "ANI1ccx_1584_conf24_mol1.chk"
 Charge =  0 Multiplicity = 1

                         Standard orientation:
 ---------------------------------------------------------------------
 Center     Atomic      Atomic             Coordinates (Angstroms)
 Number     Number       Type             X           Y           Z
 ---------------------------------------------------------------------
      1          6           0        1.403080   -0.344199    0.979638
      2          6           0        1.158360   -1.021400   -0.437406
      3          6           0        2.903460   -0.114573    1.050540
      4          6           0        3.334370    0.846298   -0.150013
      5          6           0       -1.210970   -0.368374   -0.344844
      6          6           0       -2.397571   -1.308769   -0.113615
      7          6           0       -1.657770    1.010281   -0.978898
      8          6           0       -2.312810    1.771461    0.163806
      9          1           0       -3.324331   -2.677819   -0.965642
     10          1           0       -3.322049    2.913571   -1.123500
     11          1           0       -3.433029    3.434121    0.614571
     12          1           0       -2.438640    1.011001   -1.682750
     13          1           0       -0.727441    1.517781   -1.361870
     14          1           0       -1.028800   -0.051518    0.640089
     15          1           0       -0.091971   -1.496320   -1.858850
     16          1           0        2.895581    2.154479   -1.220310
     17          1           0        3.225560    0.330250    1.967300
     18          1           0        3.416560   -1.068881    0.838843
     19          1           0        0.905338    0.603232    1.076190
     20          1           0        1.325009   -2.213310    1.864140
     21          1           0       -0.164621   -1.410980    1.848140
     22          7           0        0.862706   -1.325980    1.907370
     23          7           0       -0.071358   -1.024690   -0.953231
     24          7           0       -2.989059    2.903241   -0.172071
     25          8           0        2.078889   -1.691820   -0.860543
     26          8           0        4.489310    0.952812   -0.559097
     27          8           0        2.380110    1.678700   -0.534577
     28          8           0       -3.183230   -1.196789    0.774561
     29          8           0       -2.022850    1.366841    1.315480
     30          8           0       -2.388991   -2.326989   -1.026590
 ---------------------------------------------------------------------

 SCF Done:  E(RHF) =  -923.463801000     A.U. after    2 cycles

 The electronic state is 1-A.
 Alpha  occ. eigenvalues --  -20.64747 -20.64186 -20.59026 -20.55871 -20.55802
 Alpha  occ. eigenvalues --  -20.53641 -15.68977 -15.66656 -15.61778 -11.42017
 Alpha  occ. eigenvalues --  -11.40399 -11.39513 -11.36126 -11.31641 -11.28973
 Alpha  occ. eigenvalues --  -11.28791 -11.25539  -1.44468  -1.44374  -1.36001
 Alpha  occ. eigenvalues --   -1.35655  -1.35061  -1.31396  -1.22830  -1.21193
 Alpha  occ. eigenvalues --   -1.16687  -1.07435  -1.02882  -0.97050  -0.89504
 Alpha  occ. eigenvalues --   -0.84925  -0.83720  -0.80379  -0.79047  -0.75906
 Alpha  occ. eigenvalues --   -0.74507  -0.74022  -0.73588  -0.72096  -0.70166
 Alpha  occ. eigenvalues --   -0.68612  -0.68217  -0.66524  -0.66107  -0.65168
 Alpha  occ. eigenvalues --   -0.64598  -0.63208  -0.62038  -0.60595  -0.60236
 Alpha  occ. eigenvalues --   -0.57332  -0.56779  -0.55696  -0.55556  -0.54265
 Alpha  occ. eigenvalues --   -0.52398  -0.51269  -0.49409  -0.49096  -0.46763
 Alpha  occ. eigenvalues --   -0.45974  -0.45448  -0.44833  -0.41039  -0.37288
 Alpha virt. eigenvalues --    0.01200   0.02746   0.03402   0.04005   0.05048
 Alpha virt. eigenvalues --    0.05423   0.05776   0.06628   0.06914   0.07878
 Alpha virt. eigenvalues --    0.08931   0.09183   0.09904   0.10854   0.11067

 Mulliken charges:
               1
     1  C    0.624704
     2  C    0.527345
     3  C    0.342310
     4  C    0.822938
     5  C    0.130497
     6  C    0.633615
     7  C    0.853054
     8  C    0.485146
     9  H    0.242211
    10  H    0.028319
    11  H    0.057612
    12  H   -0.320329
    13  H    0.047870
    14  H   -0.123461
    15  H   -0.071633
    16  H    0.231654
    17  H    0.019386
    18  H    0.141576
    19  H   -0.319373
    20  H   -0.015196
    21  H    0.044543
    22  N   -0.450722
    23  N   -0.363405
    24  N   -0.225333
    25  O   -0.556730
    26  O   -0.582746
    27  O   -0.570263
    28  O   -0.445886
    29  O   -0.553626
    30  O   -0.634078
 Sum of Mulliken charges =  -0.00000

 Dipole moment (field-independent basis, Debye):
    X=             -7.4087    Y=              3.4757    Z=             -3.9878  Tot=              9.1034

 Test job not archived.
 1\1\GINC-SE364\SP\RHF\Aug-CC-pVDZ\C8H13N3O6\OHZDE\08-Apr-2025\0\\#t hf
  aug-cc-pvdz iop(5/13=1,5/36=2,99/5=2) pseudo=read geom=check guess=(r
 ead,tcheck) scf=(maxcycle=1)\\title\\0,1\C,0,1.40308,-0.344199,0.97963
 8\C,0,1.15836,-1.0214,-0.437406\C,0,2.90346,-0.114572,1.05054\C,0,3.33
 437,0.846299,-0.150013\C,0,-1.21097,-0.368375,-0.344844\C,0,-2.39757,-
 1.30877,-0.113615\C,0,-1.65777,1.01028,-0.978898\C,0,-2.31281,1.77146,
 0.163806\H,0,-3.32433,-2.67782,-0.965642\H,0,-3.32205,2.91357,-1.1235\
 H,0,-3.43303,3.43412,0.614571\H,0,-2.43864,1.011,-1.68275\H,0,-0.72744

 Normal termination of Gaussian 16 at Tue Apr  8 20:09:55 2025.
