 Gaussian 16, Revision C.01,

 ----------------------------------------------------------------------
 #t hf aug-cc-pvdz symm=none int=(grid=ultrafine) guess=(read,tcheck) s
 table=(opt,rrhf)
 ----------------------------------------------------------------------
 -----
 title
 -----
 Symbolic Z-matrix:
 Charge =  0 Multiplicity = 1

 SCF Done:  E(RHF) =  -548.555164375     A.U. after   14 cycles
 Normal termination of Gaussian 16 at Tue Apr  8 19:15:20 2025.
 Gaussian 16:  ES64L-G16RevC.01  3-Jul-2019

 ----------------------------------------------------------------------
 #t hf aug-cc-pvdz iop(5/13=1,5/36=2,99/5=2) pseudo=read geom=check gue
 ss=(read,tcheck) scf=(maxcycle=1)
 ----------------------------------------------------------------------
 -----
 title
 -----
 Structure from the checkpoint file:  "ANI1ccx_1168_conf70_mol1.chk"
 Charge =  0 Multiplicity = 1

                         Standard orientation:
 ---------------------------------------------------------------------
 Center     Atomic      Atomic             Coordinates (Angstroms)
 Number     Number       Type             X           Y           Z
 ---------------------------------------------------------------------
      1          6           0       -1.271842    0.677939   -0.191860
      2          6           0       -1.204081   -0.807467   -0.006130
      3          6           0       -0.072102    1.486130    0.285825
      4          6           0        1.121288    1.085401   -0.509778
      5          6           0        2.096359    0.023448   -0.071089
      6          1           0       -1.935180   -2.408061   -0.762550
      7          1           0        1.073859   -0.284835    1.394980
      8          1           0        0.984971    0.874762   -1.581320
      9          1           0        1.798198    1.988171   -0.565766
     10          1           0       -0.382004    2.494850    0.138188
     11          1           0        0.246242    1.342680    1.361310
     12          1           0       -1.258262    0.688946   -1.289710
     13          1           0       -2.698022    0.723736    1.215190
     14          1           0       -3.207502    1.169169   -0.429902
     15          7           0       -2.510612    1.296859    0.314023
     16          8           0       -0.444627   -1.468480    0.703266
     17          8           0        2.986909   -0.305677   -0.821174
     18          8           0        1.934909   -0.576929    1.077430
     19          8           0       -2.110411   -1.456431   -0.799570
 ---------------------------------------------------------------------

 SCF Done:  E(RHF) =  -548.725601876     A.U. after    2 cycles

 The electronic state is 1-A.
 Alpha  occ. eigenvalues --  -20.64909 -20.61245 -20.59911 -20.53346 -15.66046
 Alpha  occ. eigenvalues --  -11.43273 -11.38436 -11.31823 -11.27367 -11.26444
 Alpha  occ. eigenvalues --   -1.44565  -1.42561  -1.34474  -1.31292  -1.20251
 Alpha  occ. eigenvalues --   -1.09132  -0.99076  -0.92506  -0.83534  -0.82257
 Alpha  occ. eigenvalues --   -0.76032  -0.74480  -0.71881  -0.70586  -0.67494
 Alpha  occ. eigenvalues --   -0.66178  -0.65455  -0.64060  -0.61489  -0.59710
 Alpha  occ. eigenvalues --   -0.57638  -0.56136  -0.54026  -0.52705  -0.51072
 Alpha  occ. eigenvalues --   -0.50418  -0.46742  -0.44934  -0.43430
 Alpha virt. eigenvalues --    0.02330   0.03411   0.03499   0.04095   0.05934
 Alpha virt. eigenvalues --    0.06412   0.06761   0.08120   0.08533   0.10133
 Alpha virt. eigenvalues --    0.10564   0.11310   0.12617   0.12648   0.12766

 Mulliken charges:
               1
     1  C    0.058424
     2  C    0.526813
     3  C    0.836507
     4  C   -0.042309
     5  C    0.376425
     6  H    0.191466
     7  H    0.265398
     8  H   -0.071305
     9  H    0.132761
    10  H   -0.152324
    11  H    0.143231
    12  H    0.029362
    13  H    0.174369
    14  H    0.102107
    15  N   -0.538652
    16  O   -0.507252
    17  O   -0.537793
    18  O   -0.425979
    19  O   -0.561248
 Sum of Mulliken charges =  -0.00000

 Dipole moment (field-independent basis, Debye):
    X=             -6.2841    Y=              2.2542    Z=             -0.0366  Tot=              6.6763

 Test job not archived.
 1\1\GINC-SE222\SP\RHF\Aug-CC-pVDZ\C5H9N1O4\OHZDE\08-Apr-2025\0\\#t hf
 aug-cc-pvdz iop(5/13=1,5/36=2,99/5=2) pseudo=read geom=check guess=(re
 ad,tcheck) scf=(maxcycle=1)\\title\\0,1\C,0,-1.27184,0.677939,-0.19186
 \C,0,-1.20408,-0.807467,-0.00613013\C,0,-0.0720998,1.48613,0.285825\C,
 0,1.12129,1.0854,-0.509778\C,0,2.09636,0.023447,-0.0710891\H,0,-1.9351
 8,-2.40806,-0.76255\H,0,1.07386,-0.284836,1.39498\H,0,0.984973,0.87476
 1,-1.58132\H,0,1.7982,1.98817,-0.565766\H,0,-0.382002,2.49485,0.138188
 \H,0,0.246244,1.34268,1.36131\H,0,-1.25826,0.688946,-1.28971\H,0,-2.69

 Normal termination of Gaussian 16 at Tue Apr  8 19:15:31 2025.
