 Gaussian 16, Revision C.01,

 ----------------------------------------------------------------------
 #t hf aug-cc-pvdz symm=none int=(grid=ultrafine) guess=(read,tcheck) s
 table=(opt,rrhf)
 ----------------------------------------------------------------------
 -----
 title
 -----
 Symbolic Z-matrix:
 Charge =  0 Multiplicity = 1

 SCF Done:  E(RHF) =  -636.063606140     A.U. after   16 cycles
 Normal termination of Gaussian 16 at Tue Apr  8 19:37:09 2025.
 Gaussian 16:  ES64L-G16RevC.01  3-Jul-2019

 ----------------------------------------------------------------------
 #t hf aug-cc-pvdz iop(5/13=1,5/36=2,99/5=2) pseudo=read geom=check gue
 ss=(read,tcheck) scf=(maxcycle=1)
 ----------------------------------------------------------------------
 -----
 title
 -----
 Structure from the checkpoint file:  "ANI1ccx_1499_conf7_mol1.chk"
 Charge =  0 Multiplicity = 1

                         Standard orientation:
 ---------------------------------------------------------------------
 Center     Atomic      Atomic             Coordinates (Angstroms)
 Number     Number       Type             X           Y           Z
 ---------------------------------------------------------------------
      1          6           0        0.637006    1.538870   -0.006422
      2          6           0       -1.899651   -0.079040    1.063880
      3          6           0       -2.053361   -0.077145   -1.058250
      4          6           0        1.246599    0.182307    0.028786
      5          6           0        2.669379    0.013046   -0.033171
      6          6           0        2.904119   -1.367010   -0.050077
      7          6           0        0.696940   -1.062270    0.029100
      8          1           0       -0.279083   -1.469170    0.060160
      9          1           0        3.789269   -1.969190   -0.048370
     10          1           0        3.372599    0.841954   -0.111118
     11          1           0       -1.863461    0.157217   -2.065370
     12          1           0       -1.691121    0.127831    2.110330
     13          1           0       -1.077061    2.644170   -0.275901
     14          7           0       -0.716336    1.711230    0.021276
     15          7           0       -1.566841    0.620467   -0.022504
     16          7           0       -2.584521   -1.120240    0.710353
     17          7           0       -2.615481   -1.132600   -0.681405
     18          8           0        1.400909    2.522360    0.035605
     19          8           0        1.714709   -1.994530    0.001039
 ---------------------------------------------------------------------

 SCF Done:  E(RHF) =  -636.250216843     A.U. after    2 cycles

 The electronic state is 1-A.
 Alpha  occ. eigenvalues --  -20.66296 -20.56755 -15.76187 -15.74175 -15.66721
 Alpha  occ. eigenvalues --  -15.66616 -11.41148 -11.33987 -11.33689 -11.33457
 Alpha  occ. eigenvalues --  -11.32439 -11.27744 -11.26253  -1.44286  -1.43496
 Alpha  occ. eigenvalues --   -1.36995  -1.29616  -1.14048  -1.12410  -1.10746
 Alpha  occ. eigenvalues --   -1.03235  -0.91961  -0.89016  -0.86583  -0.82943
 Alpha  occ. eigenvalues --   -0.82480  -0.80336  -0.76521  -0.70144  -0.67820
 Alpha  occ. eigenvalues --   -0.67457  -0.67006  -0.66813  -0.63129  -0.62468
 Alpha  occ. eigenvalues --   -0.61087  -0.58753  -0.56598  -0.49994  -0.48652
 Alpha  occ. eigenvalues --   -0.47991  -0.45395  -0.42975  -0.42807  -0.40351
 Alpha  occ. eigenvalues --   -0.34104
 Alpha virt. eigenvalues --    0.02223   0.03035   0.03278   0.04906   0.05320
 Alpha virt. eigenvalues --    0.06570   0.07628   0.08273   0.09326   0.09743
 Alpha virt. eigenvalues --    0.10316   0.10665   0.11632   0.11791   0.12052

 Mulliken charges:
               1
     1  C    0.724728
     2  C    0.855520
     3  C    0.858780
     4  C   -0.179905
     5  C    0.785202
     6  C    0.658173
     7  C    0.605084
     8  H   -0.558489
     9  H   -0.346562
    10  H   -0.457718
    11  H   -0.452873
    12  H   -0.318523
    13  H    0.052306
    14  N   -0.383895
    15  N    0.116854
    16  N   -0.525081
    17  N   -0.409397
    18  O   -0.568777
    19  O   -0.455426
 Sum of Mulliken charges =  -0.00000

 Dipole moment (field-independent basis, Debye):
    X=              0.4234    Y=              1.8438    Z=             -0.6570  Tot=              2.0026

 Test job not archived.
 1\1\GINC-SE079\SP\RHF\Aug-CC-pVDZ\C7H6N4O2\OHZDE\08-Apr-2025\0\\#t hf
 aug-cc-pvdz iop(5/13=1,5/36=2,99/5=2) pseudo=read geom=check guess=(re
 ad,tcheck) scf=(maxcycle=1)\\title\\0,1\C,0,0.637007,1.53887,-0.006422
 09\C,0,-1.89965,-0.0790399,1.06388\C,0,-2.05336,-0.0771446,-1.05825\C,
 0,1.2466,0.182307,0.0287856\C,0,2.66938,0.0130453,-0.0331715\C,0,2.904
 12,-1.36701,-0.0500767\C,0,0.696941,-1.06227,0.0290995\H,0,-0.279082,-
 1.46917,0.06016\H,0,3.78927,-1.96919,-0.0483703\H,0,3.3726,0.841954,-0
 .111118\H,0,-1.86346,0.157217,-2.06537\H,0,-1.69112,0.127831,2.11033\H

 Normal termination of Gaussian 16 at Tue Apr  8 19:37:24 2025.
