 Gaussian 16, Revision C.01,

 ----------------------------------------------------------------------
 #t hf aug-cc-pvdz symm=none int=(grid=ultrafine) guess=(read,tcheck) s
 table=(opt,rrhf)
 ----------------------------------------------------------------------
 -----
 title
 -----
 Symbolic Z-matrix:
 Charge =  0 Multiplicity = 1

 SCF Done:  E(RHF) =  -447.704743667     A.U. after   14 cycles
 Normal termination of Gaussian 16 at Tue Apr  8 22:05:25 2025.
 Gaussian 16:  ES64L-G16RevC.01  3-Jul-2019

 ----------------------------------------------------------------------
 #t hf aug-cc-pvdz iop(5/13=1,5/36=2,99/5=2) pseudo=read geom=check gue
 ss=(read,tcheck) scf=(maxcycle=1)
 ----------------------------------------------------------------------
 -----
 title
 -----
 Structure from the checkpoint file:  "ANI1ccx_921_conf2_mol1.chk"
 Charge =  0 Multiplicity = 1

                         Standard orientation:
 ---------------------------------------------------------------------
 Center     Atomic      Atomic             Coordinates (Angstroms)
 Number     Number       Type             X           Y           Z
 ---------------------------------------------------------------------
      1          6           0       -1.353529   -0.135053    0.009745
      2          6           0       -0.929944    1.105466    0.070387
      3          6           0        0.523836    1.416711   -0.026175
      4          6           0        0.982601   -0.877277   -0.013290
      5          1           0       -2.853455   -1.335351    0.581934
      6          1           0       -3.351690    0.148745   -0.020370
      7          1           0       -1.606077    1.963634    0.072553
      8          1           0        1.519940   -2.714705    0.587771
      9          1           0        2.754166   -1.693061    0.045641
     10          1           0       -0.693349   -1.995023   -0.502251
     11          7           0       -2.654218   -0.596413   -0.093203
     12          7           0        1.421529    0.338017    0.027774
     13          7           0        1.788047   -1.990674   -0.069789
     14          7           0       -0.409573   -1.168242    0.010132
     15          8           0        0.984022    2.560983   -0.016710
 ---------------------------------------------------------------------

 SCF Done:  E(RHF) =  -447.838025013     A.U. after    2 cycles

 The electronic state is 1-A.
 Alpha  occ. eigenvalues --  -20.51737 -15.69279 -15.67332 -15.67185 -15.61235
 Alpha  occ. eigenvalues --  -11.40198 -11.35747 -11.35158 -11.23322  -1.33125
 Alpha  occ. eigenvalues --   -1.30116  -1.24882  -1.16987  -1.14548  -1.03740
 Alpha  occ. eigenvalues --   -0.88002  -0.85827  -0.76608  -0.75596  -0.71996
 Alpha  occ. eigenvalues --   -0.70000  -0.67526  -0.64407  -0.63471  -0.59910
 Alpha  occ. eigenvalues --   -0.58379  -0.54127  -0.52588  -0.45930  -0.44725
 Alpha  occ. eigenvalues --   -0.40916  -0.38511  -0.34684
 Alpha virt. eigenvalues --    0.01344   0.02486   0.04166   0.04439   0.05849
 Alpha virt. eigenvalues --    0.06569   0.10254   0.10818   0.11310   0.11720
 Alpha virt. eigenvalues --    0.11870   0.12781   0.13729   0.14051   0.14575

 Mulliken charges:
               1
     1  C    0.346350
     2  C    1.048371
     3  C    0.383630
     4  C    0.801713
     5  H    0.011674
     6  H    0.076645
     7  H   -0.460425
     8  H    0.007920
     9  H    0.075040
    10  H   -0.056967
    11  N   -0.311769
    12  N   -0.516882
    13  N   -0.269072
    14  N   -0.597803
    15  O   -0.538425
 Sum of Mulliken charges =  -0.00000

 Dipole moment (field-independent basis, Debye):
    X=             -4.4166    Y=             -7.6980    Z=              1.3614  Tot=              8.9788

 Test job not archived.
 1\1\GINC-SE092\SP\RHF\Aug-CC-pVDZ\C4H6N4O1\OHZDE\08-Apr-2025\0\\#t hf
 aug-cc-pvdz iop(5/13=1,5/36=2,99/5=2) pseudo=read geom=check guess=(re
 ad,tcheck) scf=(maxcycle=1)\\title\\0,1\C,0,-1.35353,-0.135048,0.00974
 496\C,0,-0.92994,1.10547,0.0703872\C,0,0.523841,1.41671,-0.0261748\C,0
 ,0.982598,-0.87728,-0.0132897\H,0,-2.85346,-1.33534,0.581934\H,0,-3.35
 169,0.148758,-0.0203705\H,0,-1.60607,1.96364,0.0725533\H,0,1.51993,-2.
 71471,0.587771\H,0,2.75416,-1.69307,0.0456412\H,0,-0.693356,-1.99502,-
 0.502251\N,0,-2.65422,-0.596403,-0.0932035\N,0,1.42153,0.338013,0.0277

 Normal termination of Gaussian 16 at Tue Apr  8 22:05:32 2025.
