 Gaussian 16, Revision C.01,

 ----------------------------------------------------------------------
 #t hf aug-cc-pvdz symm=none int=(grid=ultrafine) guess=(read,tcheck) s
 table=(opt,rrhf)
 ----------------------------------------------------------------------
 -----
 title
 -----
 Symbolic Z-matrix:
 Charge =  0 Multiplicity = 1

 SCF Done:  E(RHF) =  -810.434390242     A.U. after   14 cycles
 Normal termination of Gaussian 16 at Tue Apr  8 19:37:38 2025.
 Gaussian 16:  ES64L-G16RevC.01  3-Jul-2019

 ----------------------------------------------------------------------
 #t hf aug-cc-pvdz iop(5/13=1,5/36=2,99/5=2) pseudo=read geom=check gue
 ss=(read,tcheck) scf=(maxcycle=1)
 ----------------------------------------------------------------------
 -----
 title
 -----
 Structure from the checkpoint file:  "ANI1ccx_1427_conf4_mol1.chk"
 Charge =  0 Multiplicity = 1

                         Standard orientation:
 ---------------------------------------------------------------------
 Center     Atomic      Atomic             Coordinates (Angstroms)
 Number     Number       Type             X           Y           Z
 ---------------------------------------------------------------------
      1          6           0       -2.083109   -0.850881   -0.570988
      2          6           0       -1.207310    0.274409    0.000513
      3          6           0       -3.472720   -0.729624    0.153668
      4          6           0        1.214610    0.790152    0.396178
      5          6           0        1.420469    2.199960   -0.081733
      6          6           0        2.453580   -0.047853    0.014302
      7          6           0        2.294781   -1.601979    0.094041
      8          1           0       -0.374387    2.369180    0.444827
      9          1           0        4.373341   -1.972118    0.357037
     10          1           0        3.293452   -3.301459    0.314788
     11          1           0        2.853940    0.268807   -1.012200
     12          1           0        3.298310    0.143076    0.692714
     13          1           0        0.967899    0.759790    1.464170
     14          1           0        0.244954   -0.627090   -0.866664
     15          1           0       -3.909640    1.163178   -0.102961
     16          1           0       -3.349629   -0.855228    1.320030
     17          1           0       -4.031069   -1.674512   -0.052268
     18          1           0       -2.269520   -0.622540   -1.628350
     19          1           0       -1.918029   -2.602601    0.495988
     20          1           0       -0.483684   -2.245200   -0.158850
     21          7           0       -1.535639   -2.173931   -0.326412
     22          7           0        0.065750    0.201162   -0.342945
     23          7           0        3.444661   -2.331789    0.106591
     24          8           0       -1.623010    1.181279    0.722679
     25          8           0       -4.381760    0.301918   -0.076401
     26          8           0        2.454259    2.606801   -0.525178
     27          8           0        1.177801   -2.137160    0.127561
     28          8           0        0.342566    2.937600    0.080741
 ---------------------------------------------------------------------

 SCF Done:  E(RHF) =  -810.680752510     A.U. after    2 cycles

 The electronic state is 1-A.
 Alpha  occ. eigenvalues --  -20.61271 -20.58770 -20.57255 -20.56794 -20.56789
 Alpha  occ. eigenvalues --  -15.69744 -15.67191 -15.60919 -11.42656 -11.40253
 Alpha  occ. eigenvalues --  -11.38248 -11.33878 -11.30526 -11.29894 -11.29848
 Alpha  occ. eigenvalues --   -1.43353  -1.39474  -1.38315  -1.34043  -1.32014
 Alpha  occ. eigenvalues --   -1.24511  -1.22354  -1.16307  -1.08337  -0.98512
 Alpha  occ. eigenvalues --   -0.96279  -0.87970  -0.85189  -0.83740  -0.81865
 Alpha  occ. eigenvalues --   -0.77067  -0.75817  -0.74024  -0.71934  -0.71918
 Alpha  occ. eigenvalues --   -0.69424  -0.68694  -0.65971  -0.65169  -0.65030
 Alpha  occ. eigenvalues --   -0.63653  -0.61616  -0.61078  -0.60028  -0.59676
 Alpha  occ. eigenvalues --   -0.57766  -0.56954  -0.56043  -0.54924  -0.51130
 Alpha  occ. eigenvalues --   -0.50056  -0.49671  -0.48610  -0.47008  -0.46565
 Alpha  occ. eigenvalues --   -0.43974  -0.42334  -0.38821
 Alpha virt. eigenvalues --    0.01175   0.03212   0.03393   0.03990   0.05115
 Alpha virt. eigenvalues --    0.05445   0.05789   0.07073   0.07397   0.08036
 Alpha virt. eigenvalues --    0.08312   0.09022   0.09506   0.10810   0.11429

 Mulliken charges:
               1
     1  C    0.249566
     2  C    0.167243
     3  C    0.876740
     4  C    0.354345
     5  C    0.721010
     6  C    0.303326
     7  C    0.695018
     8  H    0.264750
     9  H    0.002702
    10  H    0.018242
    11  H    0.153698
    12  H   -0.120290
    13  H   -0.186798
    14  H    0.060158
    15  H    0.183023
    16  H    0.013365
    17  H   -0.123713
    18  H   -0.113210
    19  H    0.050078
    20  H    0.092094
    21  N   -0.295985
    22  N   -0.357798
    23  N   -0.212960
    24  O   -0.688818
    25  O   -0.574843
    26  O   -0.439821
    27  O   -0.633830
    28  O   -0.457294
 Sum of Mulliken charges =   0.00000

 Dipole moment (field-independent basis, Debye):
    X=              6.4587    Y=             -5.3381    Z=              1.7251  Tot=              8.5549

 Test job not archived.
 1\1\GINC-SE458\SP\RHF\Aug-CC-pVDZ\C7H13N3O5\OHZDE\08-Apr-2025\0\\#t hf
  aug-cc-pvdz iop(5/13=1,5/36=2,99/5=2) pseudo=read geom=check guess=(r
 ead,tcheck) scf=(maxcycle=1)\\title\\0,1\C,0,-2.08311,-0.85088,-0.5709
 88\C,0,-1.20731,0.27441,0.0005133\C,0,-3.47272,-0.729622,0.153668\C,0,
 1.21461,0.790152,0.396178\C,0,1.42047,2.19996,-0.0817331\C,0,2.45358,-
 0.0478543,0.0143021\C,0,2.29478,-1.60198,0.0940415\H,0,-0.374386,2.369
 18,0.444827\H,0,4.37334,-1.97212,0.357037\H,0,3.29345,-3.30146,0.31478
 8\H,0,2.85394,0.268806,-1.0122\H,0,3.29831,0.143075,0.692714\H,0,0.967

 Normal termination of Gaussian 16 at Tue Apr  8 19:38:08 2025.
