 Gaussian 16, Revision C.01,

 ----------------------------------------------------------------------
 #t hf aug-cc-pvdz symm=none int=(grid=ultrafine) guess=(read,tcheck) s
 table=(opt,rrhf)
 ----------------------------------------------------------------------
 -----
 title
 -----
 Symbolic Z-matrix:
 Charge =  0 Multiplicity = 1

 SCF Done:  E(RHF) =  -488.003656346     A.U. after   14 cycles
 Normal termination of Gaussian 16 at Tue Apr  8 21:52:56 2025.
 Gaussian 16:  ES64L-G16RevC.01  3-Jul-2019

 ----------------------------------------------------------------------
 #t hf aug-cc-pvdz iop(5/13=1,5/36=2,99/5=2) pseudo=read geom=check gue
 ss=(read,tcheck) scf=(maxcycle=1)
 ----------------------------------------------------------------------
 -----
 title
 -----
 Structure from the checkpoint file:  "ANI1ccx_796_conf1_mol2.chk"
 Charge =  0 Multiplicity = 1

                         Standard orientation:
 ---------------------------------------------------------------------
 Center     Atomic      Atomic             Coordinates (Angstroms)
 Number     Number       Type             X           Y           Z
 ---------------------------------------------------------------------
      1          6           0        1.328860   -0.008507    0.009383
      2          6           0       -0.807771   -0.749965    0.021021
      3          6           0       -0.764705    0.771599    0.010081
      4          8           0        2.496800   -0.019894   -0.027134
      5          8           0        0.514477   -1.138261   -0.004448
      6          8           0       -1.712221   -1.504740   -0.004541
      7          8           0       -1.671930    1.534670   -0.030640
      8          8           0        0.555586    1.118379    0.036399
 ---------------------------------------------------------------------

 SCF Done:  E(RHF) =  -488.160017712     A.U. after    2 cycles

 The electronic state is 1-A.
 Alpha  occ. eigenvalues --  -20.73015 -20.72243 -20.65934 -20.65880 -20.64220
 Alpha  occ. eigenvalues --  -11.52810 -11.48803 -11.48532  -1.58247  -1.48851
 Alpha  occ. eigenvalues --   -1.47424  -1.43177  -1.41646  -1.03910  -0.96186
 Alpha  occ. eigenvalues --   -0.94369  -0.80707  -0.79559  -0.76314  -0.75169
 Alpha  occ. eigenvalues --   -0.72907  -0.69887  -0.68866  -0.66040  -0.62548
 Alpha  occ. eigenvalues --   -0.57468  -0.56519  -0.56409  -0.53441
 Alpha virt. eigenvalues --    0.00267   0.04946   0.06419   0.06865   0.07475
 Alpha virt. eigenvalues --    0.10428   0.10670   0.10874   0.11008   0.11408
 Alpha virt. eigenvalues --    0.13668   0.14021   0.17368   0.17823   0.20408

 Mulliken charges:
               1
     1  C    0.769522
     2  C    0.564989
     3  C    0.588256
     4  O   -0.272660
     5  O   -0.535234
     6  O   -0.303477
     7  O   -0.317647
     8  O   -0.493750
 Sum of Mulliken charges =  -0.00000

 Dipole moment (field-independent basis, Debye):
    X=              0.2274    Y=              0.1040    Z=              0.2007  Tot=              0.3207

 Test job not archived.
 1\1\GINC-SE393\SP\RHF\Aug-CC-pVDZ\C3O5\OHZDE\08-Apr-2025\0\\#t hf aug-
 cc-pvdz iop(5/13=1,5/36=2,99/5=2) pseudo=read geom=check guess=(read,t
 check) scf=(maxcycle=1)\\title\\0,1\C,0,1.32886,-0.00850596,0.00938314
 \C,0,-0.807771,-0.749965,0.0210214\C,0,-0.764705,0.771599,0.0100806\O,
 0,2.4968,-0.0198928,-0.0271339\O,0,0.514478,-1.13826,-0.00444846\O,0,-
 1.71222,-1.50474,-0.00454076\O,0,-1.67193,1.53467,-0.0306401\O,0,0.555
 586,1.11838,0.0363992\\Version=ES64L-G16RevC.01\State=1-A\HF=-488.1600
 177\RMSD=3.977e-03\Dipole=0.089482,0.0409186,0.0789646\Quadrupole=-5.9

 Normal termination of Gaussian 16 at Tue Apr  8 21:52:59 2025.
