 Gaussian 16, Revision C.01,

 ----------------------------------------------------------------------
 #t hf aug-cc-pvdz symm=none int=(grid=ultrafine) guess=(read,tcheck) s
 table=(opt,rrhf)
 ----------------------------------------------------------------------
 -----
 title
 -----
 Symbolic Z-matrix:
 Charge =  0 Multiplicity = 1

 SCF Done:  E(RHF) =  -908.304820491     A.U. after   14 cycles
 Normal termination of Gaussian 16 at Tue Apr  8 20:57:37 2025.
 Gaussian 16:  ES64L-G16RevC.01  3-Jul-2019

 ----------------------------------------------------------------------
 #t hf aug-cc-pvdz iop(5/13=1,5/36=2,99/5=2) pseudo=read geom=check gue
 ss=(read,tcheck) scf=(maxcycle=1)
 ----------------------------------------------------------------------
 -----
 title
 -----
 Structure from the checkpoint file:  "ANI1ccx_1761_conf44_mol1.chk"
 Charge =  0 Multiplicity = 1

                         Standard orientation:
 ---------------------------------------------------------------------
 Center     Atomic      Atomic             Coordinates (Angstroms)
 Number     Number       Type             X           Y           Z
 ---------------------------------------------------------------------
      1          6           0        2.392700    0.399906    0.823120
      2          6           0       -3.065960    0.455971   -0.831067
      3          6           0       -1.745780    1.254740   -0.704538
      4          6           0       -0.528409   -0.705305   -0.760284
      5          6           0       -3.622770   -0.054522    0.468319
      6          6           0        4.053130   -1.396949    0.631919
      7          6           0        2.979460   -0.630267   -0.180954
      8          6           0        1.905740    1.562090   -0.040871
      9          6           0       -0.489723    0.631416   -0.036819
     10          1           0       -0.714014    0.645804    1.037000
     11          1           0       -1.133020   -2.368270   -0.878374
     12          1           0       -3.550970    0.000516    2.251650
     13          1           0       -3.126410   -0.456010   -1.422540
     14          1           0       -3.932740    0.975506   -1.222440
     15          1           0       -1.543230    1.416540   -1.780930
     16          1           0       -1.904440    2.278050   -0.297911
     17          1           0        0.328031    2.367390   -0.968549
     18          1           0        3.684160   -1.775320    1.608400
     19          1           0        4.267640   -2.290579   -0.002398
     20          1           0        5.041100   -0.835161    0.874633
     21          1           0        1.671970   -1.420220   -1.511700
     22          1           0        3.299480   -0.175280   -1.105280
     23          1           0        3.270620    0.753091    1.326890
     24          1           0        1.754730   -0.783557    2.375450
     25          1           0        0.849232   -0.805638    1.148540
     26          7           0        1.435960   -0.162055    1.704630
     27          7           0        0.599540    1.533470   -0.519436
     28          8           0        2.652740    2.538200   -0.212529
     29          8           0        1.987660   -1.605140   -0.616857
     30          8           0       -0.096020   -0.844330   -1.863480
     31          8           0       -4.256250   -1.087350    0.582630
     32          8           0       -3.275720    0.636033    1.552890
     33          8           0       -1.235030   -1.666070   -0.185376
 ---------------------------------------------------------------------

 SCF Done:  E(RHF) =  -908.581034002     A.U. after    2 cycles

 The electronic state is 1-A.
 Alpha  occ. eigenvalues --  -20.65549 -20.64189 -20.58030 -20.57255 -20.56672
 Alpha  occ. eigenvalues --  -20.54397 -15.66507 -15.61946 -11.42488 -11.40697
 Alpha  occ. eigenvalues --  -11.37314 -11.33064 -11.30692 -11.28728 -11.28277
 Alpha  occ. eigenvalues --  -11.27953 -11.24787  -1.47217  -1.44761  -1.35998
 Alpha  occ. eigenvalues --   -1.34079  -1.32866  -1.31981  -1.21884  -1.18681
 Alpha  occ. eigenvalues --   -1.10203  -1.03443  -1.02099  -0.94716  -0.91843
 Alpha  occ. eigenvalues --   -0.85176  -0.83316  -0.82494  -0.79597  -0.75825
 Alpha  occ. eigenvalues --   -0.75340  -0.73429  -0.72937  -0.72035  -0.69094
 Alpha  occ. eigenvalues --   -0.68524  -0.68254  -0.66960  -0.66464  -0.66365
 Alpha  occ. eigenvalues --   -0.64098  -0.61165  -0.60704  -0.59577  -0.59314
 Alpha  occ. eigenvalues --   -0.57500  -0.56459  -0.55558  -0.54884  -0.54299
 Alpha  occ. eigenvalues --   -0.53304  -0.52094  -0.51141  -0.50607  -0.50159
 Alpha  occ. eigenvalues --   -0.48728  -0.47481  -0.46855  -0.45513  -0.41708
 Alpha  occ. eigenvalues --   -0.38810
 Alpha virt. eigenvalues --    0.02629   0.03202   0.03738   0.04106   0.04833
 Alpha virt. eigenvalues --    0.05496   0.05578   0.05844   0.06646   0.07247
 Alpha virt. eigenvalues --    0.07667   0.07975   0.08230   0.09600   0.09667

 Mulliken charges:
               1
     1  C    1.291785
     2  C    0.282859
     3  C    0.560992
     4  C    0.807863
     5  C    0.507517
     6  C    0.234511
     7  C    0.537151
     8  C    0.297379
     9  C    0.701141
    10  H   -0.380570
    11  H    0.220497
    12  H    0.225554
    13  H    0.017672
    14  H   -0.058367
    15  H    0.094024
    16  H   -0.070529
    17  H   -0.164090
    18  H   -0.054630
    19  H   -0.005286
    20  H    0.072936
    21  H    0.210618
    22  H   -0.495468
    23  H   -0.341492
    24  H   -0.121088
    25  H    0.198358
    26  N   -0.379375
    27  N   -0.495957
    28  O   -0.618154
    29  O   -0.690243
    30  O   -0.676381
    31  O   -0.566853
    32  O   -0.599457
    33  O   -0.542917
 Sum of Mulliken charges =  -0.00000

 Dipole moment (field-independent basis, Debye):
    X=             -1.5345    Y=             -1.0739    Z=              0.4059  Tot=              1.9165

 Test job not archived.
 1\1\GINC-SE087\SP\RHF\Aug-CC-pVDZ\C9H16N2O6\OHZDE\08-Apr-2025\0\\#t hf
  aug-cc-pvdz iop(5/13=1,5/36=2,99/5=2) pseudo=read geom=check guess=(r
 ead,tcheck) scf=(maxcycle=1)\\title\\0,1\C,0,2.3927,0.399906,0.82312\C
 ,0,-3.06596,0.455971,-0.831067\C,0,-1.74578,1.25474,-0.704538\C,0,-0.5
 28409,-0.705305,-0.760284\C,0,-3.62277,-0.0545214,0.468319\C,0,4.05313
 ,-1.39695,0.631919\C,0,2.97946,-0.630267,-0.180954\C,0,1.90574,1.56209
 ,-0.0408712\C,0,-0.489723,0.631416,-0.0368191\H,0,-0.714014,0.645804,1
 .037\H,0,-1.13302,-2.36827,-0.878374\H,0,-3.55097,0.00051618,2.25165\H

 Normal termination of Gaussian 16 at Tue Apr  8 20:58:30 2025.
