 Gaussian 16, Revision C.01,

 ----------------------------------------------------------------------
 #t hf aug-cc-pvdz symm=none int=(grid=ultrafine) guess=(read,tcheck) s
 table=(opt,rrhf)
 ----------------------------------------------------------------------
 -----
 title
 -----
 Symbolic Z-matrix:
 Charge =  0 Multiplicity = 1

 SCF Done:  E(RHF) =  -463.362015119     A.U. after   16 cycles
 Normal termination of Gaussian 16 at Tue Apr  8 19:12:29 2025.
 Gaussian 16:  ES64L-G16RevC.01  3-Jul-2019

 ----------------------------------------------------------------------
 #t hf aug-cc-pvdz iop(5/13=1,5/36=2,99/5=2) pseudo=read geom=check gue
 ss=(read,tcheck) scf=(maxcycle=1)
 ----------------------------------------------------------------------
 -----
 title
 -----
 Structure from the checkpoint file:  "ANI1ccx_1081_conf2_mol1.chk"
 Charge =  0 Multiplicity = 1

                         Standard orientation:
 ---------------------------------------------------------------------
 Center     Atomic      Atomic             Coordinates (Angstroms)
 Number     Number       Type             X           Y           Z
 ---------------------------------------------------------------------
      1          6           0       -0.622025    0.915179    0.013192
      2          6           0        1.266899   -0.202149    0.004503
      3          6           0       -0.855070   -0.395330   -0.004705
      4          6           0       -2.162521   -1.065329   -0.017532
      5          6           0        2.684409   -0.348565    0.002188
      6          1           0       -1.354380    2.813541    0.549292
      7          1           0       -2.481060    1.741251   -0.087030
      8          1           0        1.271760    1.918151   -0.132651
      9          7           0       -1.499860    2.006801   -0.071142
     10          7           0        0.731491    1.072511   -0.009377
     11          7           0        0.310466   -1.101339   -0.036510
     12          7           0       -3.262481   -1.429458    0.042737
     13          7           0        3.819459   -0.533626    0.029222
 ---------------------------------------------------------------------

 SCF Done:  E(RHF) =  -463.495040298     A.U. after    2 cycles

 The electronic state is 1-A.
 Alpha  occ. eigenvalues --  -15.74142 -15.69013 -15.68361 -15.67974 -15.65873
 Alpha  occ. eigenvalues --  -11.38584 -11.38432 -11.32483 -11.32406 -11.31111
 Alpha  occ. eigenvalues --   -1.38929  -1.23931  -1.22474  -1.20909  -1.18452
 Alpha  occ. eigenvalues --   -1.07179  -0.93377  -0.90477  -0.82889  -0.75523
 Alpha  occ. eigenvalues --   -0.72107  -0.69837  -0.68634  -0.67321  -0.58274
 Alpha  occ. eigenvalues --   -0.56319  -0.54836  -0.52023  -0.50897  -0.50072
 Alpha  occ. eigenvalues --   -0.48928  -0.48307  -0.44297  -0.34762
 Alpha virt. eigenvalues --    0.00950   0.03067   0.04869   0.06620   0.07208
 Alpha virt. eigenvalues --    0.07864   0.08238   0.09088   0.10727   0.11036
 Alpha virt. eigenvalues --    0.11373   0.11719   0.11952   0.12711   0.13270

 Mulliken charges:
               1
     1  C    0.304715
     2  C    1.170021
     3  C    1.571790
     4  C   -0.711790
     5  C   -0.687374
     6  H   -0.000005
     7  H    0.045159
     8  H   -0.085188
     9  N   -0.366315
    10  N   -0.393591
    11  N   -0.685798
    12  N   -0.114672
    13  N   -0.046953
 Sum of Mulliken charges =  -0.00000

 Dipole moment (field-independent basis, Debye):
    X=             -0.2091    Y=              6.7985    Z=              0.6577  Tot=              6.8335

 Test job not archived.
 1\1\GINC-SE332\SP\RHF\Aug-CC-pVDZ\C5H3N5\OHZDE\08-Apr-2025\0\\#t hf au
 g-cc-pvdz iop(5/13=1,5/36=2,99/5=2) pseudo=read geom=check guess=(read
 ,tcheck) scf=(maxcycle=1)\\title\\0,1\C,0,-0.622025,0.915178,0.0131919
 \C,0,1.2669,-0.20215,0.00450334\C,0,-0.855069,-0.395331,-0.00470475\C,
 0,-2.16252,-1.06533,-0.0175324\C,0,2.68441,-0.348565,0.00218797\H,0,-1
 .35438,2.81354,0.549292\H,0,-2.48106,1.74125,-0.08703\H,0,1.27176,1.91
 815,-0.132651\N,0,-1.49986,2.0068,-0.0711422\N,0,0.731491,1.07251,-0.0
 093769\N,0,0.310467,-1.10134,-0.0365101\N,0,-3.26248,-1.42946,0.042737

 Normal termination of Gaussian 16 at Tue Apr  8 19:12:34 2025.
