 Gaussian 16, Revision C.01,

 ----------------------------------------------------------------------
 #t hf aug-cc-pvdz symm=none int=(grid=ultrafine) guess=(read,tcheck) s
 table=(opt,rrhf)
 ----------------------------------------------------------------------
 -----
 title
 -----
 Symbolic Z-matrix:
 Charge =  0 Multiplicity = 1

 SCF Done:  E(RHF) =  -532.260765041     A.U. after   11 cycles
 Normal termination of Gaussian 16 at Tue Apr  8 21:09:02 2025.
 Gaussian 16:  ES64L-G16RevC.01  3-Jul-2019

 ----------------------------------------------------------------------
 #t hf aug-cc-pvdz iop(5/13=1,5/36=2,99/5=2) pseudo=read geom=check gue
 ss=(read,tcheck) scf=(maxcycle=1)
 ----------------------------------------------------------------------
 -----
 title
 -----
 Structure from the checkpoint file:  "ANI1ccx_1845_conf420_mol1.chk"
 Charge =  0 Multiplicity = 1

                         Standard orientation:
 ---------------------------------------------------------------------
 Center     Atomic      Atomic             Coordinates (Angstroms)
 Number     Number       Type             X           Y           Z
 ---------------------------------------------------------------------
      1          1           0       -1.345425   -2.770683    0.928118
      2          1           0        1.124514   -2.207099   -1.441750
      3          1           0        0.178108   -1.973310   -0.182348
      4          1           0       -2.548440    0.154030    0.237375
      5          1           0       -3.707498   -0.669572   -0.609110
      6          1           0       -2.068436   -1.919984   -0.137032
      7          1           0       -1.230333    2.140817    0.019035
      8          1           0        2.762399    0.696453   -0.554414
      9          1           0       -2.305953    2.190455    1.128430
     10          1           0        2.311102   -1.082846    0.786375
     11          1           0        3.045171   -0.144522    1.821150
     12          1           0        0.303921    3.596800   -0.454859
     13          1           0        1.055616    2.289071   -0.150677
     14          1           0        1.458351   -0.080871   -0.864311
     15          8           0       -1.194395   -2.460223    0.039307
     16          8           0        1.826719    0.850361   -1.031360
     17          8           0       -3.017938   -0.754257    0.075937
     18          8           0        3.212131   -0.528191    0.931106
     19          8           0        1.159164   -1.822458   -0.402360
     20          8           0       -2.143403    1.845706    0.222637
     21          8           0        0.278585    2.841720    0.098986
 ---------------------------------------------------------------------

 SCF Done:  E(RHF) =  -532.435319378     A.U. after    2 cycles

 The electronic state is 1-A.
 Alpha  occ. eigenvalues --  -20.59088 -20.57681 -20.57575 -20.57517 -20.57164
 Alpha  occ. eigenvalues --  -20.57072 -20.55250  -1.32871  -1.32420  -1.30639
 Alpha  occ. eigenvalues --   -1.29656  -1.28081  -1.26340  -1.24919  -0.74840
 Alpha  occ. eigenvalues --   -0.74373  -0.74015  -0.73012  -0.71889  -0.68744
 Alpha  occ. eigenvalues --   -0.65945  -0.64694  -0.63164  -0.60623  -0.59837
 Alpha  occ. eigenvalues --   -0.57768  -0.57047  -0.55605  -0.53172  -0.53034
 Alpha  occ. eigenvalues --   -0.52344  -0.51971  -0.50759  -0.50580  -0.48830
 Alpha virt. eigenvalues --    0.02743   0.04289   0.04561   0.05140   0.05827
 Alpha virt. eigenvalues --    0.06149   0.07926   0.08233   0.09274   0.09524
 Alpha virt. eigenvalues --    0.10225   0.10561   0.11488   0.12030   0.17151

 Mulliken charges:
               1
     1  H    0.158763
     2  H    0.319071
     3  H    0.407475
     4  H    0.362117
     5  H    0.181606
     6  H    0.370357
     7  H    0.283620
     8  H    0.338573
     9  H    0.177839
    10  H    0.323280
    11  H    0.193495
    12  H    0.142689
    13  H    0.253052
    14  H    0.269997
    15  O   -0.550170
    16  O   -0.610127
    17  O   -0.501324
    18  O   -0.489742
    19  O   -0.773508
    20  O   -0.461830
    21  O   -0.395233
 Sum of Mulliken charges =  -0.00000

 Dipole moment (field-independent basis, Debye):
    X=             -3.1461    Y=              0.6919    Z=              1.1571  Tot=              3.4228

 Test job not archived.
 1\1\GINC-SE393\SP\RHF\Aug-CC-pVDZ\H14O7\OHZDE\08-Apr-2025\0\\#t hf aug
 -cc-pvdz iop(5/13=1,5/36=2,99/5=2) pseudo=read geom=check guess=(read,
 tcheck) scf=(maxcycle=1)\\title\\0,1\H,0,-1.34543,-2.77068,0.928118\H,
 0,1.12451,-2.2071,-1.44175\H,0,0.178104,-1.97331,-0.182348\H,0,-2.5484
 4,0.154035,0.237375\H,0,-3.7075,-0.669565,-0.60911\H,0,-2.06844,-1.919
 98,-0.137032\H,0,-1.23033,2.14082,0.0190349\H,0,2.7624,0.696449,-0.554
 414\H,0,-2.30595,2.19046,1.12843\H,0,2.3111,-1.08285,0.786375\H,0,3.04
 517,-0.144527,1.82115\H,0,0.303927,3.5968,-0.454859\H,0,1.05562,2.2890

 Normal termination of Gaussian 16 at Tue Apr  8 21:09:09 2025.
