 Gaussian 16, Revision C.01,

 ----------------------------------------------------------------------
 #t hf aug-cc-pvdz symm=none int=(grid=ultrafine) guess=(read,tcheck) s
 table=(opt,rrhf)
 ----------------------------------------------------------------------
 -----
 title
 -----
 Symbolic Z-matrix:
 Charge =  0 Multiplicity = 1

 SCF Done:  E(RHF) =  -380.232323517     A.U. after   11 cycles
 Normal termination of Gaussian 16 at Tue Apr  8 20:55:21 2025.
 Gaussian 16:  ES64L-G16RevC.01  3-Jul-2019

 ----------------------------------------------------------------------
 #t hf aug-cc-pvdz iop(5/13=1,5/36=2,99/5=2) pseudo=read geom=check gue
 ss=(read,tcheck) scf=(maxcycle=1)
 ----------------------------------------------------------------------
 -----
 title
 -----
 Structure from the checkpoint file:  "ANI1ccx_1843_conf11_mol1.chk"
 Charge =  0 Multiplicity = 1

                         Standard orientation:
 ---------------------------------------------------------------------
 Center     Atomic      Atomic             Coordinates (Angstroms)
 Number     Number       Type             X           Y           Z
 ---------------------------------------------------------------------
      1          1           0        1.124000    1.199460   -0.010884
      2          1           0        0.532849    2.643620    0.071796
      3          1           0        1.703341   -0.785715   -0.262549
      4          1           0        2.813501   -0.176201    0.622856
      5          1           0        0.125232   -2.654150   -0.014331
      6          1           0       -0.315925   -1.268341    0.574032
      7          1           0       -1.844650   -0.047902    0.608438
      8          1           0       -0.748151    0.616817    1.390181
      9          1           0       -1.109609   -0.574783   -1.352729
     10          1           0       -1.022840    0.913038   -1.057439
     11          8           0        0.291001    1.711610    0.133164
     12          8           0        2.328980   -0.027350   -0.198528
     13          8           0        0.204819   -1.704420   -0.156077
     14          8           0       -1.311739   -0.178040    1.423971
     15          8           0       -1.670280    0.214970   -1.273699
 ---------------------------------------------------------------------

 SCF Done:  E(RHF) =  -380.357403515     A.U. after    2 cycles

 The electronic state is 1-A.
 Alpha  occ. eigenvalues --  -20.59173 -20.58896 -20.58819 -20.56729 -20.55934
 Alpha  occ. eigenvalues --   -1.33894  -1.32450  -1.31704  -1.29956  -1.28879
 Alpha  occ. eigenvalues --   -0.76342  -0.75103  -0.74136  -0.71602  -0.70971
 Alpha  occ. eigenvalues --   -0.65115  -0.62667  -0.61240  -0.60338  -0.57480
 Alpha  occ. eigenvalues --   -0.54303  -0.54123  -0.53345  -0.52058  -0.50255
 Alpha virt. eigenvalues --    0.02670   0.04111   0.04984   0.06940   0.07446
 Alpha virt. eigenvalues --    0.07685   0.08273   0.08855   0.09536   0.10646
 Alpha virt. eigenvalues --    0.16267   0.18039   0.19164   0.20943   0.21510

 Mulliken charges:
               1
     1  H    0.308864
     2  H    0.229770
     3  H    0.266974
     4  H    0.189009
     5  H    0.239463
     6  H    0.301541
     7  H    0.267548
     8  H    0.222368
     9  H    0.230914
    10  H    0.234809
    11  O   -0.560785
    12  O   -0.428558
    13  O   -0.592863
    14  O   -0.488308
    15  O   -0.420745
 Sum of Mulliken charges =  -0.00000

 Dipole moment (field-independent basis, Debye):
    X=              2.9841    Y=             -0.3522    Z=              1.3215  Tot=              3.2826

 Test job not archived.
 1\1\GINC-SE049\SP\RHF\Aug-CC-pVDZ\H10O5\OHZDE\08-Apr-2025\0\\#t hf aug
 -cc-pvdz iop(5/13=1,5/36=2,99/5=2) pseudo=read geom=check guess=(read,
 tcheck) scf=(maxcycle=1)\\title\\0,1\H,0,1.124,1.19946,-0.0108841\H,0,
 0.53285,2.64362,0.0717958\H,0,1.70334,-0.785715,-0.26255\H,0,2.8135,-0
 .176202,0.622855\H,0,0.125231,-2.65415,-0.0143317\H,0,-0.315926,-1.268
 34,0.574031\H,0,-1.84465,-0.0479004,0.608437\H,0,-0.748151,0.616818,1.
 39018\H,0,-1.10961,-0.574782,-1.35273\H,0,-1.02284,0.913039,-1.05744\O
 ,0,0.291001,1.71161,0.133163\O,0,2.32898,-0.0273499,-0.198529\O,0,0.20

 Normal termination of Gaussian 16 at Tue Apr  8 20:55:25 2025.
