 Gaussian 16, Revision C.01,

 ----------------------------------------------------------------------
 #t hf aug-cc-pvdz symm=none int=(grid=ultrafine) guess=(read,tcheck) s
 table=(opt,rrhf)
 ----------------------------------------------------------------------
 -----
 title
 -----
 Symbolic Z-matrix:
 Charge =  0 Multiplicity = 1

 SCF Done:  E(RHF) =  -318.056157407     A.U. after   13 cycles
 Normal termination of Gaussian 16 at Tue Apr  8 21:46:01 2025.
 Gaussian 16:  ES64L-G16RevC.01  3-Jul-2019

 ----------------------------------------------------------------------
 #t hf aug-cc-pvdz iop(5/13=1,5/36=2,99/5=2) pseudo=read geom=check gue
 ss=(read,tcheck) scf=(maxcycle=1)
 ----------------------------------------------------------------------
 -----
 title
 -----
 Structure from the checkpoint file:  "ANI1ccx_569_conf1_mol1.chk"
 Charge =  0 Multiplicity = 1

                         Standard orientation:
 ---------------------------------------------------------------------
 Center     Atomic      Atomic             Coordinates (Angstroms)
 Number     Number       Type             X           Y           Z
 ---------------------------------------------------------------------
      1          6           0        2.191851   -0.253350    0.102872
      2          6           0       -2.358719   -0.493818   -0.126754
      3          1           0        2.014401    1.715510   -0.362949
      4          1           0        0.684086    1.024500    0.480414
      5          1           0        1.563741   -1.022230    0.583997
      6          1           0       -1.349769    0.784295    1.022680
      7          1           0       -0.683739   -0.743415    0.949940
      8          1           0       -2.259259   -1.493170   -0.544016
      9          1           0       -3.429899    1.076290   -0.015864
     10          7           0        1.470391    0.878901   -0.138944
     11          7           0       -1.189629   -0.022873    0.441677
     12          7           0       -3.464149    0.106020   -0.333062
     13          8           0        3.343171   -0.449139   -0.219827
 ---------------------------------------------------------------------

 SCF Done:  E(RHF) =  -318.155998808     A.U. after    2 cycles

 The electronic state is 1-A.
 Alpha  occ. eigenvalues --  -20.55501 -15.67129 -15.65957 -15.61514 -11.37648
 Alpha  occ. eigenvalues --  -11.34209  -1.35856  -1.25102  -1.19068  -1.13343
 Alpha  occ. eigenvalues --   -0.85129  -0.84804  -0.75303  -0.72822  -0.70228
 Alpha  occ. eigenvalues --   -0.67958  -0.62438  -0.59097  -0.58494  -0.54846
 Alpha  occ. eigenvalues --   -0.45998  -0.43870  -0.43376  -0.39217
 Alpha virt. eigenvalues --    0.01762   0.02703   0.04322   0.04695   0.06616
 Alpha virt. eigenvalues --    0.07233   0.08534   0.09639   0.10920   0.12370
 Alpha virt. eigenvalues --    0.12889   0.13415   0.14014   0.15030   0.15959

 Mulliken charges:
               1
     1  C    0.812130
     2  C    0.773084
     3  H    0.023295
     4  H    0.063631
     5  H   -0.233237
     6  H   -0.044654
     7  H    0.075393
     8  H   -0.279442
     9  H   -0.032234
    10  N   -0.169740
    11  N   -0.188648
    12  N   -0.322509
    13  O   -0.477069
 Sum of Mulliken charges =  -0.00000

 Dipole moment (field-independent basis, Debye):
    X=             -1.4495    Y=              1.7991    Z=              3.4790  Tot=              4.1763

 Test job not archived.
 1\1\GINC-SE461\SP\RHF\Aug-CC-pVDZ\C2H7N3O1\OHZDE\08-Apr-2025\0\\#t hf
 aug-cc-pvdz iop(5/13=1,5/36=2,99/5=2) pseudo=read geom=check guess=(re
 ad,tcheck) scf=(maxcycle=1)\\title\\0,1\C,0,2.19185,-0.25335,0.102872\
 C,0,-2.35872,-0.493818,-0.126754\H,0,2.0144,1.71551,-0.362949\H,0,0.68
 4085,1.0245,0.480414\H,0,1.56374,-1.02223,0.583997\H,0,-1.34977,0.7842
 95,1.02268\H,0,-0.68374,-0.743415,0.94994\H,0,-2.25926,-1.49317,-0.544
 016\H,0,-3.4299,1.07629,-0.0158643\N,0,1.47039,0.878901,-0.138944\N,0,
 -1.18963,-0.0228735,0.441677\N,0,-3.46415,0.10602,-0.333062\O,0,3.3431

 Normal termination of Gaussian 16 at Tue Apr  8 21:46:04 2025.
