 Gaussian 16, Revision C.01,

 ----------------------------------------------------------------------
 #t hf aug-cc-pvdz symm=none int=(grid=ultrafine) guess=(read,tcheck) s
 table=(opt,rrhf)
 ----------------------------------------------------------------------
 -----
 title
 -----
 Symbolic Z-matrix:
 Charge =  0 Multiplicity = 1

 SCF Done:  E(RHF) =  -410.992071416     A.U. after   14 cycles
 Normal termination of Gaussian 16 at Tue Apr  8 21:52:27 2025.
 Gaussian 16:  ES64L-G16RevC.01  3-Jul-2019

 ----------------------------------------------------------------------
 #t hf aug-cc-pvdz iop(5/13=1,5/36=2,99/5=2) pseudo=read geom=check gue
 ss=(read,tcheck) scf=(maxcycle=1)
 ----------------------------------------------------------------------
 -----
 title
 -----
 Structure from the checkpoint file:  "ANI1ccx_767_conf1_mol2.chk"
 Charge =  0 Multiplicity = 1

                         Standard orientation:
 ---------------------------------------------------------------------
 Center     Atomic      Atomic             Coordinates (Angstroms)
 Number     Number       Type             X           Y           Z
 ---------------------------------------------------------------------
      1          6           0        0.168896    1.726480    0.497681
      2          6           0       -1.241809   -0.228608    0.035199
      3          6           0        1.176291   -0.374671   -0.124694
      4          1           0        0.689333    1.645140    1.400380
      5          1           0       -0.839057    2.135171    0.692985
      6          1           0        0.732245    2.369700   -0.170243
      7          1           0       -3.162679    0.138382   -0.436322
      8          1           0       -2.068939    1.015831   -1.370430
      9          1           0       -0.769391   -1.876209    0.908100
     10          1           0        2.411011    1.297619   -0.291562
     11          1           0        3.123391   -0.259870   -0.310189
     12          7           0        0.036105    0.423397   -0.141719
     13          7           0       -2.228579    0.524992   -0.512224
     14          7           0       -1.561410   -1.324409    0.555873
     15          7           0        2.338601    0.313939   -0.100668
     16          8           0        1.146350   -1.596300   -0.185083
 ---------------------------------------------------------------------

 SCF Done:  E(RHF) =  -411.119961651     A.U. after    2 cycles

 The electronic state is 1-A.
 Alpha  occ. eigenvalues --  -20.53503 -15.66911 -15.65854 -15.62788 -15.57925
 Alpha  occ. eigenvalues --  -11.40206 -11.35557 -11.28805  -1.37110  -1.27379
 Alpha  occ. eigenvalues --   -1.21543  -1.16120  -1.10615  -0.96479  -0.87654
 Alpha  occ. eigenvalues --   -0.78926  -0.75498  -0.70453  -0.69676  -0.67212
 Alpha  occ. eigenvalues --   -0.63369  -0.62596  -0.61456  -0.59201  -0.57938
 Alpha  occ. eigenvalues --   -0.52592  -0.47400  -0.44055  -0.41755  -0.40401
 Alpha  occ. eigenvalues --   -0.35419
 Alpha virt. eigenvalues --    0.02044   0.03184   0.04021   0.04783   0.06544
 Alpha virt. eigenvalues --    0.06722   0.07326   0.08881   0.10815   0.11034
 Alpha virt. eigenvalues --    0.12825   0.13747   0.14352   0.14820   0.15009

 Mulliken charges:
               1
     1  C    0.935929
     2  C    0.711138
     3  C    0.648197
     4  H   -0.165418
     5  H   -0.161546
     6  H   -0.165853
     7  H   -0.000794
     8  H   -0.050104
     9  H    0.075913
    10  H    0.022262
    11  H   -0.035546
    12  N   -0.690190
    13  N   -0.189631
    14  N   -0.342579
    15  N   -0.067211
    16  O   -0.524568
 Sum of Mulliken charges =  -0.00000

 Dipole moment (field-independent basis, Debye):
    X=              1.9621    Y=              5.8852    Z=             -1.0706  Tot=              6.2954

 Test job not archived.
 1\1\GINC-SE368\SP\RHF\Aug-CC-pVDZ\C3H8N4O1\OHZDE\08-Apr-2025\0\\#t hf
 aug-cc-pvdz iop(5/13=1,5/36=2,99/5=2) pseudo=read geom=check guess=(re
 ad,tcheck) scf=(maxcycle=1)\\title\\0,1\C,0,0.168895,1.72648,0.497681\
 C,0,-1.24181,-0.228609,0.0351987\C,0,1.17629,-0.374671,-0.124694\H,0,0
 .689332,1.64514,1.40038\H,0,-0.839059,2.13517,0.692985\H,0,0.732243,2.
 3697,-0.170243\H,0,-3.16268,0.13838,-0.436322\H,0,-2.06894,1.01583,-1.
 37043\H,0,-0.769391,-1.87621,0.9081\H,0,2.41101,1.29762,-0.291562\H,0,
 3.12339,-0.259869,-0.310189\N,0,0.0361045,0.423397,-0.141719\N,0,-2.22

 Normal termination of Gaussian 16 at Tue Apr  8 21:52:32 2025.
