 Gaussian 16, Revision C.01,

 ----------------------------------------------------------------------
 #t hf aug-cc-pvdz symm=none int=(grid=ultrafine) guess=(read,tcheck) s
 table=(opt,rrhf)
 ----------------------------------------------------------------------
 -----
 title
 -----
 Symbolic Z-matrix:
 Charge =  0 Multiplicity = 1

 SCF Done:  E(RHF) =  -353.830404255     A.U. after   13 cycles
 Normal termination of Gaussian 16 at Tue Apr  8 21:36:45 2025.
 Gaussian 16:  ES64L-G16RevC.01  3-Jul-2019

 ----------------------------------------------------------------------
 #t hf aug-cc-pvdz iop(5/13=1,5/36=2,99/5=2) pseudo=read geom=check gue
 ss=(read,tcheck) scf=(maxcycle=1)
 ----------------------------------------------------------------------
 -----
 title
 -----
 Structure from the checkpoint file:  "ANI1ccx_418_conf1_mol1.chk"
 Charge =  0 Multiplicity = 1

                         Standard orientation:
 ---------------------------------------------------------------------
 Center     Atomic      Atomic             Coordinates (Angstroms)
 Number     Number       Type             X           Y           Z
 ---------------------------------------------------------------------
      1          6           0        0.037709    0.529286   -0.044321
      2          1           0        2.473329   -0.405827   -0.780245
      3          1           0        2.242510   -0.222639    0.833677
      4          1           0        0.037526   -1.453850    0.214594
      5          1           0       -1.813050    1.193351    0.462452
      6          1           0       -2.473311   -0.976476   -0.575138
      7          7           0        2.024829   -0.838279    0.032140
      8          7           0        0.608272   -0.697036   -0.084772
      9          7           0       -1.378320    0.467943   -0.155829
     10          8           0        0.680630    1.573289    0.039681
     11          8           0       -1.865221   -0.803123    0.156545
 ---------------------------------------------------------------------

 SCF Done:  E(RHF) =  -353.939095610     A.U. after    2 cycles

 The electronic state is 1-A.
 Alpha  occ. eigenvalues --  -20.64941 -20.54526 -15.71780 -15.67314 -15.66326
 Alpha  occ. eigenvalues --  -11.40139  -1.42542  -1.35730  -1.25078  -1.12925
 Alpha  occ. eigenvalues --   -1.04193  -0.81972  -0.76401  -0.75839  -0.71074
 Alpha  occ. eigenvalues --   -0.68131  -0.65592  -0.62104  -0.57677  -0.56431
 Alpha  occ. eigenvalues --   -0.47394  -0.44637  -0.43385  -0.41323
 Alpha virt. eigenvalues --    0.02755   0.04387   0.04537   0.05463   0.07286
 Alpha virt. eigenvalues --    0.10885   0.12167   0.12382   0.14670   0.15291
 Alpha virt. eigenvalues --    0.17053   0.17408   0.17667   0.18076   0.18893

 Mulliken charges:
               1
     1  C    0.862874
     2  H    0.094767
     3  H    0.100748
     4  H    0.032675
     5  H    0.137845
     6  H    0.242854
     7  N   -0.146623
     8  N   -0.140993
     9  N   -0.154631
    10  O   -0.488215
    11  O   -0.541301
 Sum of Mulliken charges =  -0.00000

 Dipole moment (field-independent basis, Debye):
    X=             -2.5932    Y=             -1.8144    Z=             -0.1362  Tot=              3.1678

 Test job not archived.
 1\1\GINC-SE094\SP\RHF\Aug-CC-pVDZ\C1H5N3O2\OHZDE\08-Apr-2025\0\\#t hf
 aug-cc-pvdz iop(5/13=1,5/36=2,99/5=2) pseudo=read geom=check guess=(re
 ad,tcheck) scf=(maxcycle=1)\\title\\0,1\C,0,0.0377092,0.529286,-0.0443
 207\H,0,2.47333,-0.405825,-0.780245\H,0,2.24251,-0.222637,0.833677\H,0
 ,0.0375271,-1.45385,0.214594\H,0,-1.81305,1.19335,0.462452\H,0,-2.4733
 1,-0.976477,-0.575138\N,0,2.02483,-0.838277,0.0321404\N,0,0.608273,-0.
 697035,-0.0847719\N,0,-1.37832,0.467943,-0.155829\O,0,0.680629,1.57329
 ,0.0396807\O,0,-1.86522,-0.803124,0.156545\\Version=ES64L-G16RevC.01\S

 Normal termination of Gaussian 16 at Tue Apr  8 21:36:49 2025.
