 Gaussian 16, Revision C.01,

 ----------------------------------------------------------------------
 #t hf aug-cc-pvdz symm=none int=(grid=ultrafine) guess=(read,tcheck) s
 table=(opt,rrhf)
 ----------------------------------------------------------------------
 -----
 title
 -----
 Symbolic Z-matrix:
 Charge =  0 Multiplicity = 1

 SCF Done:  E(RHF) =  -504.964370929     A.U. after   16 cycles
 Normal termination of Gaussian 16 at Tue Apr  8 21:39:52 2025.
 Gaussian 16:  ES64L-G16RevC.01  3-Jul-2019

 ----------------------------------------------------------------------
 #t hf aug-cc-pvdz iop(5/13=1,5/36=2,99/5=2) pseudo=read geom=check gue
 ss=(read,tcheck) scf=(maxcycle=1)
 ----------------------------------------------------------------------
 -----
 title
 -----
 Structure from the checkpoint file:  "ANI1ccx_471_conf48_mol1.chk"
 Charge =  0 Multiplicity = 1

                         Standard orientation:
 ---------------------------------------------------------------------
 Center     Atomic      Atomic             Coordinates (Angstroms)
 Number     Number       Type             X           Y           Z
 ---------------------------------------------------------------------
      1          6           0        1.395980   -0.172904   -0.062465
      2          6           0       -0.659526    0.777614   -0.006294
      3          1           0       -2.262390   -1.873808    0.136256
      4          7           0       -0.872725   -0.562819    0.306622
      5          8           0       -1.891210   -1.211588   -0.268968
      6          8           0        0.543432   -1.154548    0.195445
      7          8           0        2.588820   -0.118318   -0.296614
      8          8           0        0.785131    1.067322    0.300753
      9          8           0       -1.532080    1.690292   -0.164372
 ---------------------------------------------------------------------

 SCF Done:  E(RHF) =  -505.118808582     A.U. after    2 cycles

 The electronic state is 1-A.
 Alpha  occ. eigenvalues --  -20.73659 -20.71138 -20.70072 -20.63327 -20.61779
 Alpha  occ. eigenvalues --  -15.86992 -11.51443 -11.51216  -1.56012  -1.50029
 Alpha  occ. eigenvalues --   -1.40992  -1.39627  -1.34995  -1.19991  -0.94305
 Alpha  occ. eigenvalues --   -0.92132  -0.86107  -0.79911  -0.76120  -0.74903
 Alpha  occ. eigenvalues --   -0.71282  -0.70511  -0.67418  -0.63362  -0.63038
 Alpha  occ. eigenvalues --   -0.59228  -0.56250  -0.53223  -0.52684  -0.48558
 Alpha virt. eigenvalues --    0.01637   0.04713   0.07258   0.07644   0.07929
 Alpha virt. eigenvalues --    0.10091   0.11212   0.11661   0.11909   0.13312
 Alpha virt. eigenvalues --    0.14544   0.14637   0.15130   0.17534   0.19438

 Mulliken charges:
               1
     1  C    0.791639
     2  C    1.069703
     3  H    0.064170
     4  N    0.237499
     5  O   -0.262967
     6  O   -0.474460
     7  O   -0.366335
     8  O   -0.627890
     9  O   -0.431359
 Sum of Mulliken charges =  -0.00000

 Dipole moment (field-independent basis, Debye):
    X=             -3.1430    Y=             -4.0929    Z=              0.8123  Tot=              5.2240

 Test job not archived.
 1\1\GINC-SE074\SP\RHF\Aug-CC-pVDZ\C2H1N1O5\OHZDE\08-Apr-2025\0\\#t hf
 aug-cc-pvdz iop(5/13=1,5/36=2,99/5=2) pseudo=read geom=check guess=(re
 ad,tcheck) scf=(maxcycle=1)\\title\\0,1\C,0,1.39598,-0.172905,-0.06246
 48\C,0,-0.659526,0.777612,-0.00629381\H,0,-2.26239,-1.87381,0.136256\N
 ,0,-0.872725,-0.562821,0.306622\O,0,-1.89121,-1.21159,-0.268968\O,0,0.
 543432,-1.15455,0.195445\O,0,2.58882,-0.118319,-0.296614\O,0,0.785131,
 1.06732,0.300753\O,0,-1.53208,1.69029,-0.164372\\Version=ES64L-G16RevC
 .01\State=1-A\HF=-505.1188086\RMSD=2.711e-03\Dipole=-1.236556,-1.61026

 Normal termination of Gaussian 16 at Tue Apr  8 21:39:55 2025.
