 Gaussian 16, Revision C.01,

 ----------------------------------------------------------------------
 #t hf aug-cc-pvdz symm=none int=(grid=ultrafine) guess=(read,tcheck) s
 table=(opt,rrhf)
 ----------------------------------------------------------------------
 -----
 title
 -----
 Symbolic Z-matrix:
 Charge =  0 Multiplicity = 1

 SCF Done:  E(RHF) =  -373.429342674     A.U. after   15 cycles
 Normal termination of Gaussian 16 at Tue Apr  8 21:47:52 2025.
 Gaussian 16:  ES64L-G16RevC.01  3-Jul-2019

 ----------------------------------------------------------------------
 #t hf aug-cc-pvdz iop(5/13=1,5/36=2,99/5=2) pseudo=read geom=check gue
 ss=(read,tcheck) scf=(maxcycle=1)
 ----------------------------------------------------------------------
 -----
 title
 -----
 Structure from the checkpoint file:  "ANI1ccx_655_conf6_mol1.chk"
 Charge =  0 Multiplicity = 1

                         Standard orientation:
 ---------------------------------------------------------------------
 Center     Atomic      Atomic             Coordinates (Angstroms)
 Number     Number       Type             X           Y           Z
 ---------------------------------------------------------------------
      1          6           0        1.809641   -0.691616   -0.034744
      2          6           0       -0.420470    0.321339    0.019157
      3          6           0       -1.850689   -0.082399   -0.014769
      4          1           0        2.261871   -1.693399   -0.114926
      5          1           0       -0.034417   -1.677259    0.127489
      6          7           0        0.416506   -0.786278    0.072762
      7          7           0       -2.960779   -0.411934   -0.038725
      8          8           0        2.429671    0.336065   -0.024272
      9          8           0       -0.135724    1.473211    0.015686
 ---------------------------------------------------------------------

 SCF Done:  E(RHF) =  -373.544235617     A.U. after    2 cycles

 The electronic state is 1-A.
 Alpha  occ. eigenvalues --  -20.61864 -20.60134 -15.72977 -15.69677 -11.45911
 Alpha  occ. eigenvalues --  -11.42006 -11.33055  -1.44272  -1.40246  -1.27210
 Alpha  occ. eigenvalues --   -1.23177  -1.00006  -0.87221  -0.83651  -0.74539
 Alpha  occ. eigenvalues --   -0.71836  -0.68462  -0.67521  -0.60266  -0.59533
 Alpha  occ. eigenvalues --   -0.55403  -0.51078  -0.50824  -0.48514  -0.47866
 Alpha virt. eigenvalues --    0.01548   0.04323   0.04382   0.06507   0.07657
 Alpha virt. eigenvalues --    0.09024   0.10063   0.11391   0.11687   0.13120
 Alpha virt. eigenvalues --    0.13599   0.13767   0.14289   0.14682   0.15517

 Mulliken charges:
               1
     1  C    0.765040
     2  C    0.763386
     3  C   -0.264420
     4  H   -0.170688
     5  H   -0.033595
     6  N   -0.262972
     7  N   -0.104995
     8  O   -0.369094
     9  O   -0.322662
 Sum of Mulliken charges =  -0.00000

 Dipole moment (field-independent basis, Debye):
    X=              0.7549    Y=             -5.3368    Z=              0.0644  Tot=              5.3903

 Test job not archived.
 1\1\GINC-SE343\SP\RHF\Aug-CC-pVDZ\C3H2N2O2\OHZDE\08-Apr-2025\0\\#t hf
 aug-cc-pvdz iop(5/13=1,5/36=2,99/5=2) pseudo=read geom=check guess=(re
 ad,tcheck) scf=(maxcycle=1)\\title\\0,1\C,0,1.80964,-0.691617,-0.03474
 35\C,0,-0.420471,0.321338,0.0191572\C,0,-1.85069,-0.0823995,-0.0147685
 \H,0,2.26187,-1.6934,-0.114926\H,0,-0.0344177,-1.67726,0.127489\N,0,0.
 416505,-0.786279,0.0727617\N,0,-2.96078,-0.411935,-0.0387251\O,0,2.429
 67,0.336064,-0.0242722\O,0,-0.135725,1.47321,0.015686\\Version=ES64L-G
 16RevC.01\State=1-A\HF=-373.5442356\RMSD=3.680e-03\Dipole=0.2970053,-2

 Normal termination of Gaussian 16 at Tue Apr  8 21:47:55 2025.
