 Gaussian 16, Revision C.01,

 ----------------------------------------------------------------------
 #t hf aug-cc-pvdz symm=none int=(grid=ultrafine) guess=(read,tcheck) s
 table=(opt,rrhf)
 ----------------------------------------------------------------------
 -----
 title
 -----
 Symbolic Z-matrix:
 Charge =  0 Multiplicity = 1

 SCF Done:  E(RHF) =  -239.964487391     A.U. after   14 cycles
 Normal termination of Gaussian 16 at Tue Apr  8 21:10:18 2025.
 Gaussian 16:  ES64L-G16RevC.01  3-Jul-2019

 ----------------------------------------------------------------------
 #t hf aug-cc-pvdz iop(5/13=1,5/36=2,99/5=2) pseudo=read geom=check gue
 ss=(read,tcheck) scf=(maxcycle=1)
 ----------------------------------------------------------------------
 -----
 title
 -----
 Structure from the checkpoint file:  "ANI1ccx_1874_conf7_mol1.chk"
 Charge =  0 Multiplicity = 1

                         Standard orientation:
 ---------------------------------------------------------------------
 Center     Atomic      Atomic             Coordinates (Angstroms)
 Number     Number       Type             X           Y           Z
 ---------------------------------------------------------------------
      1          1           0       -2.932701   -0.024398   -0.142388
      2          1           0       -1.311491    1.315680   -0.482581
      3          1           0       -1.187591    0.776194    1.071950
      4          7           0        1.959939   -0.611112    0.125186
      5          7           0        2.305089    0.397816   -0.160784
      6          7           0       -1.103331    0.485082    0.099648
      7          8           0       -2.087511   -0.496247   -0.111916
 ---------------------------------------------------------------------

 SCF Done:  E(RHF) =  -240.038809062     A.U. after    2 cycles

 The electronic state is 1-A.
 Alpha  occ. eigenvalues --  -20.60944 -15.74019 -15.73648 -15.67541  -1.40406
 Alpha  occ. eigenvalues --   -1.36773  -1.05170  -0.73892  -0.73581  -0.69485
 Alpha  occ. eigenvalues --   -0.60747  -0.60018  -0.58855  -0.58630  -0.50626
 Alpha  occ. eigenvalues --   -0.42331
 Alpha virt. eigenvalues --    0.03053   0.05155   0.05209   0.10809   0.12964
 Alpha virt. eigenvalues --    0.13905   0.14436   0.15877   0.16308   0.17429
 Alpha virt. eigenvalues --    0.18884   0.20799   0.21437   0.22687   0.23561

 Mulliken charges:
               1
     1  H    0.145671
     2  H    0.085242
     3  H    0.087050
     4  N    0.024862
     5  N   -0.026258
     6  N    0.113547
     7  O   -0.430114
 Sum of Mulliken charges =  -0.00000

 Dipole moment (field-independent basis, Debye):
    X=             -1.8984    Y=              2.6390    Z=              0.5618  Tot=              3.2991

 Test job not archived.
 1\1\GINC-SE074\SP\RHF\Aug-CC-pVDZ\H3N3O1\OHZDE\08-Apr-2025\0\\#t hf au
 g-cc-pvdz iop(5/13=1,5/36=2,99/5=2) pseudo=read geom=check guess=(read
 ,tcheck) scf=(maxcycle=1)\\title\\0,1\H,0,-2.9327,-0.0243973,-0.142388
 \H,0,-1.31149,1.31568,-0.482581\H,0,-1.18759,0.776194,1.07195\N,0,1.95
 994,-0.611112,0.125186\N,0,2.30509,0.397816,-0.160784\N,0,-1.10333,0.4
 85082,0.0996481\O,0,-2.08751,-0.496247,-0.111916\\Version=ES64L-G16Rev
 C.01\State=1-A\HF=-240.0388091\RMSD=1.995e-03\Dipole=-0.7469062,1.0382
 541,0.2210332\Quadrupole=2.5832125,-1.7488441,-0.8343683,-3.901211,-0.

 Normal termination of Gaussian 16 at Tue Apr  8 21:10:19 2025.
