 Gaussian 16, Revision C.01,

 ----------------------------------------------------------------------
 #t hf aug-cc-pvdz symm=none int=(grid=ultrafine) guess=(read,tcheck) s
 table=(opt,rrhf)
 ----------------------------------------------------------------------
 -----
 title
 -----
 Symbolic Z-matrix:
 Charge =  0 Multiplicity = 1

 SCF Done:  E(RHF) =  -259.755520131     A.U. after   14 cycles
 Normal termination of Gaussian 16 at Tue Apr  8 21:09:16 2025.
 Gaussian 16:  ES64L-G16RevC.01  3-Jul-2019

 ----------------------------------------------------------------------
 #t hf aug-cc-pvdz iop(5/13=1,5/36=2,99/5=2) pseudo=read geom=check gue
 ss=(read,tcheck) scf=(maxcycle=1)
 ----------------------------------------------------------------------
 -----
 title
 -----
 Structure from the checkpoint file:  "ANI1ccx_1858_conf10_mol1.chk"
 Charge =  0 Multiplicity = 1

                         Standard orientation:
 ---------------------------------------------------------------------
 Center     Atomic      Atomic             Coordinates (Angstroms)
 Number     Number       Type             X           Y           Z
 ---------------------------------------------------------------------
      1          1           0        0.465025   -0.738361    0.592075
      2          1           0        1.613418    1.077620   -0.537849
      3          7           0       -1.856902    0.630067   -0.071432
      4          7           0       -1.689533   -0.455325    0.101307
      5          8           0        1.006637   -0.644429   -0.202663
      6          8           0        1.836688    0.449122    0.169745
 ---------------------------------------------------------------------

 SCF Done:  E(RHF) =  -259.837459642     A.U. after    2 cycles

 The electronic state is 1-A.
 Alpha  occ. eigenvalues --  -20.64457 -20.64131 -15.77012 -15.76705  -1.44108
 Alpha  occ. eigenvalues --   -1.42683  -1.18888  -0.77300  -0.73625  -0.73410
 Alpha  occ. eigenvalues --   -0.64116  -0.63367  -0.61338  -0.61298  -0.54204
 Alpha  occ. eigenvalues --   -0.49625
 Alpha virt. eigenvalues --    0.04365   0.05655   0.10013   0.11557   0.11935
 Alpha virt. eigenvalues --    0.12556   0.13572   0.16114   0.18266   0.19071
 Alpha virt. eigenvalues --    0.20751   0.22325   0.23967   0.24733   0.25259

 Mulliken charges:
               1
     1  H    0.252635
     2  H    0.218048
     3  N   -0.030456
     4  N   -0.000947
     5  O   -0.195744
     6  O   -0.243535
 Sum of Mulliken charges =  -0.00000

 Dipole moment (field-independent basis, Debye):
    X=             -1.4922    Y=              1.0123    Z=              0.0694  Tot=              1.8045

 Test job not archived.
 1\1\GINC-SE184\SP\RHF\Aug-CC-pVDZ\H2N2O2\OHZDE\08-Apr-2025\0\\#t hf au
 g-cc-pvdz iop(5/13=1,5/36=2,99/5=2) pseudo=read geom=check guess=(read
 ,tcheck) scf=(maxcycle=1)\\title\\0,1\H,0,0.465028,-0.738361,0.592075\
 H,0,1.61342,1.07762,-0.537849\N,0,-1.8569,0.630067,-0.0714323\N,0,-1.6
 8953,-0.455325,0.101307\O,0,1.00664,-0.644429,-0.202663\O,0,1.83669,0.
 449122,0.169745\\Version=ES64L-G16RevC.01\State=1-A\HF=-259.8374596\RM
 SD=2.336e-03\Dipole=-0.5870761,0.3982627,0.0272933\Quadrupole=-2.05713
 74,0.8808871,1.1762503,1.9337142,-1.1047217,-1.9369617\PG=C01 [X(H2N2O

 Normal termination of Gaussian 16 at Tue Apr  8 21:09:18 2025.
