 Gaussian 16, Revision C.01,

 ----------------------------------------------------------------------
 #t hf aug-cc-pvdz symm=none int=(grid=ultrafine) guess=(read,tcheck) s
 table=(opt,rrhf)
 ----------------------------------------------------------------------
 -----
 title
 -----
 Symbolic Z-matrix:
 Charge =  0 Multiplicity = 1

 SCF Done:  E(RHF) =  -396.772056922     A.U. after   14 cycles
 Normal termination of Gaussian 16 at Tue Apr  8 21:50:57 2025.
 Gaussian 16:  ES64L-G16RevC.01  3-Jul-2019

 ----------------------------------------------------------------------
 #t hf aug-cc-pvdz iop(5/13=1,5/36=2,99/5=2) pseudo=read geom=check gue
 ss=(read,tcheck) scf=(maxcycle=1)
 ----------------------------------------------------------------------
 -----
 title
 -----
 Structure from the checkpoint file:  "ANI1ccx_744_conf12_mol2.chk"
 Charge =  0 Multiplicity = 1

                         Standard orientation:
 ---------------------------------------------------------------------
 Center     Atomic      Atomic             Coordinates (Angstroms)
 Number     Number       Type             X           Y           Z
 ---------------------------------------------------------------------
      1          6           0       -0.009862    0.612247    0.384516
      2          6           0        0.655931   -0.693897    0.057504
      3          6           0       -1.344637    0.700164   -0.305190
      4          1           0        0.852881    2.427738    0.674804
      5          1           0        0.548111    2.098918   -0.816063
      6          1           0       -0.126556    0.622337    1.513990
      7          1           0       -1.068397    0.803885   -1.363420
      8          1           0       -1.828865    1.637145    0.020660
      9          1           0       -1.640002   -1.145996   -0.121054
     10          1           0        2.194402    0.345700   -0.072360
     11          7           0        0.954636    1.664317    0.009858
     12          8           0        0.070114   -1.774280    0.056467
     13          8           0       -2.193180   -0.357623    0.056379
     14          8           0        1.945239   -0.636975   -0.203664
 ---------------------------------------------------------------------

 SCF Done:  E(RHF) =  -396.895497508     A.U. after    2 cycles

 The electronic state is 1-A.
 Alpha  occ. eigenvalues --  -20.62573 -20.57226 -20.56322 -15.67139 -11.40399
 Alpha  occ. eigenvalues --  -11.31421 -11.31355  -1.42947  -1.33969  -1.31731
 Alpha  occ. eigenvalues --   -1.21797  -1.02125  -0.91141  -0.83217  -0.76263
 Alpha  occ. eigenvalues --   -0.73318  -0.70202  -0.67319  -0.64883  -0.64571
 Alpha  occ. eigenvalues --   -0.61953  -0.58738  -0.55839  -0.54708  -0.50733
 Alpha  occ. eigenvalues --   -0.49357  -0.46879  -0.44325
 Alpha virt. eigenvalues --    0.01901   0.03445   0.04255   0.04908   0.06844
 Alpha virt. eigenvalues --    0.07308   0.08041   0.10503   0.10650   0.12215
 Alpha virt. eigenvalues --    0.13359   0.13572   0.14561   0.15036   0.15231

 Mulliken charges:
               1
     1  C   -0.349490
     2  C    0.627212
     3  C    0.999116
     4  H    0.101826
     5  H    0.114604
     6  H    0.148808
     7  H    0.000167
     8  H   -0.065910
     9  H    0.230364
    10  H    0.322127
    11  N   -0.490224
    12  O   -0.571900
    13  O   -0.557783
    14  O   -0.508917
 Sum of Mulliken charges =  -0.00000

 Dipole moment (field-independent basis, Debye):
    X=              1.3380    Y=              6.1149    Z=              0.1841  Tot=              6.2622

 Test job not archived.
 1\1\GINC-SE009\SP\RHF\Aug-CC-pVDZ\C3H7N1O3\OHZDE\08-Apr-2025\0\\#t hf
 aug-cc-pvdz iop(5/13=1,5/36=2,99/5=2) pseudo=read geom=check guess=(re
 ad,tcheck) scf=(maxcycle=1)\\title\\0,1\C,0,-0.00986445,0.612247,0.384
 516\C,0,0.655932,-0.693895,0.0575038\C,0,-1.34464,0.70016,-0.30519\H,0
 ,0.852874,2.42774,0.674804\H,0,0.548105,2.09892,-0.816063\H,0,-0.12655
 8,0.622337,1.51399\H,0,-1.0684,0.803882,-1.36342\H,0,-1.82887,1.63714,
 0.0206603\H,0,-1.64,-1.146,-0.121054\H,0,2.1944,0.345706,-0.07236\N,0,
 0.954631,1.66432,0.00985818\O,0,0.0701184,-1.77428,0.0564668\O,0,-2.19

 Normal termination of Gaussian 16 at Tue Apr  8 21:51:02 2025.
