 Gaussian 16, Revision C.01,

 ----------------------------------------------------------------------
 #t hf aug-cc-pvdz symm=none int=(grid=ultrafine) guess=(read,tcheck) s
 table=(opt,rrhf)
 ----------------------------------------------------------------------
 -----
 title
 -----
 Symbolic Z-matrix:
 Charge =  0 Multiplicity = 1

 SCF Done:  E(RHF) =  -791.382104840     A.U. after   15 cycles
 Normal termination of Gaussian 16 at Tue Apr  8 20:39:02 2025.
 Gaussian 16:  ES64L-G16RevC.01  3-Jul-2019

 ----------------------------------------------------------------------
 #t hf aug-cc-pvdz iop(5/13=1,5/36=2,99/5=2) pseudo=read geom=check gue
 ss=(read,tcheck) scf=(maxcycle=1)
 ----------------------------------------------------------------------
 -----
 title
 -----
 Structure from the checkpoint file:  "ANI1ccx_1745_conf16_mol1.chk"
 Charge =  0 Multiplicity = 1

                         Standard orientation:
 ---------------------------------------------------------------------
 Center     Atomic      Atomic             Coordinates (Angstroms)
 Number     Number       Type             X           Y           Z
 ---------------------------------------------------------------------
      1          6           0        2.177088   -1.844912   -0.645681
      2          6           0        1.408299   -0.582075   -0.152869
      3          6           0        1.744937   -3.156041    0.015259
      4          6           0       -0.074046    1.253560   -0.397766
      5          6           0        0.936047    2.436139   -0.147052
      6          6           0       -0.897670    0.945420    0.833709
      7          6           0       -2.060930    0.051540    0.272959
      8          6           0       -3.176170    0.439753   -0.388168
      9          6           0       -3.515522   -1.535847    0.261284
     10          1           0        1.624571    1.498749    1.278140
     11          1           0       -5.191571   -0.476738   -0.518249
     12          1           0       -4.037393   -2.579127    0.314620
     13          1           0       -3.282109    1.367123   -0.891299
     14          1           0       -0.283458    0.394712    1.572700
     15          1           0       -1.193579    1.806431    1.371390
     16          1           0       -0.692053    1.753890   -1.038380
     17          1           0        2.312617   -3.261842    0.921614
     18          1           0        1.824916   -4.123072   -0.579347
     19          1           0        0.676251   -2.988181    0.341379
     20          1           0        2.073038   -1.795682   -1.704600
     21          1           0        3.861828   -1.654123    0.756151
     22          1           0        3.697939   -0.583195   -0.327784
     23          1           0        0.491572   -0.068767   -1.896180
     24          7           0        3.552658   -1.550853   -0.212873
     25          7           0        0.568016    0.053945   -0.897027
     26          7           0       -2.288072   -1.365628    0.575540
     27          7           0       -4.153331   -0.499190   -0.362367
     28          8           0        0.941181    3.443899   -0.845120
     29          8           0        1.897499   -0.065322    0.873203
     30          8           0        1.550111    2.396009    1.067780
 ---------------------------------------------------------------------

 SCF Done:  E(RHF) =  -791.618908541     A.U. after    2 cycles

 The electronic state is 1-A.
 Alpha  occ. eigenvalues --  -20.58529 -20.55879 -20.55082 -15.70082 -15.69058
 Alpha  occ. eigenvalues --  -15.63086 -15.59799 -11.39320 -11.38136 -11.32815
 Alpha  occ. eigenvalues --  -11.31046 -11.29818 -11.28620 -11.28246 -11.26700
 Alpha  occ. eigenvalues --  -11.24800  -1.40337  -1.37301  -1.32601  -1.31288
 Alpha  occ. eigenvalues --   -1.25005  -1.16251  -1.14971  -1.08592  -1.01614
 Alpha  occ. eigenvalues --   -0.99483  -0.92887  -0.88455  -0.84458  -0.81484
 Alpha  occ. eigenvalues --   -0.81147  -0.78850  -0.76633  -0.75395  -0.74303
 Alpha  occ. eigenvalues --   -0.68544  -0.66721  -0.66250  -0.65776  -0.63009
 Alpha  occ. eigenvalues --   -0.62616  -0.61295  -0.60717  -0.60218  -0.59194
 Alpha  occ. eigenvalues --   -0.57606  -0.56262  -0.54975  -0.54646  -0.53609
 Alpha  occ. eigenvalues --   -0.52839  -0.50726  -0.48410  -0.47430  -0.45556
 Alpha  occ. eigenvalues --   -0.44504  -0.41946  -0.40718  -0.38528  -0.33840
 Alpha virt. eigenvalues --    0.01563   0.02683   0.03031   0.04236   0.04949
 Alpha virt. eigenvalues --    0.05208   0.05585   0.06604   0.07593   0.07729
 Alpha virt. eigenvalues --    0.08094   0.08612   0.08796   0.09608   0.10035

 Mulliken charges:
               1
     1  C    0.386328
     2  C    0.291846
     3  C    0.586289
     4  C    0.406796
     5  C    0.762696
     6  C    0.981081
     7  C    0.255470
     8  C    1.050064
     9  C    0.528983
    10  H    0.306437
    11  H    0.009070
    12  H   -0.134474
    13  H   -0.435527
    14  H   -0.109790
    15  H   -0.361155
    16  H   -0.435553
    17  H   -0.093032
    18  H    0.031323
    19  H   -0.008762
    20  H   -0.294579
    21  H    0.032141
    22  H   -0.023816
    23  H   -0.086298
    24  N   -0.278757
    25  N   -0.240811
    26  N   -0.693119
    27  N   -0.632411
    28  O   -0.545044
    29  O   -0.793896
    30  O   -0.461499
 Sum of Mulliken charges =  -0.00000

 Dipole moment (field-independent basis, Debye):
    X=             -6.9081    Y=             -4.2394    Z=             -2.4717  Tot=              8.4737

 Test job not archived.
 1\1\GINC-SE367\SP\RHF\Aug-CC-pVDZ\C9H14N4O3\OHZDE\08-Apr-2025\0\\#t hf
  aug-cc-pvdz iop(5/13=1,5/36=2,99/5=2) pseudo=read geom=check guess=(r
 ead,tcheck) scf=(maxcycle=1)\\title\\0,1\C,0,2.17709,-1.84491,-0.64568
 1\C,0,1.4083,-0.582074,-0.152869\C,0,1.74494,-3.15604,0.015259\C,0,-0.
 0740469,1.25356,-0.397766\C,0,0.936046,2.43614,-0.147052\C,0,-0.89767,
 0.945419,0.833709\C,0,-2.06093,0.0515387,0.272959\C,0,-3.17617,0.43975
 1,-0.388168\C,0,-3.51552,-1.53585,0.261284\H,0,1.62457,1.49875,1.27814
 \H,0,-5.19157,-0.476742,-0.518249\H,0,-4.03739,-2.57913,0.31462\H,0,-3

 Normal termination of Gaussian 16 at Tue Apr  8 20:39:34 2025.
