 Gaussian 16, Revision C.01,

 ----------------------------------------------------------------------
 #t hf aug-cc-pvdz symm=none int=(grid=ultrafine) guess=(read,tcheck) s
 table=(opt,rrhf)
 ----------------------------------------------------------------------
 -----
 title
 -----
 Symbolic Z-matrix:
 Charge =  0 Multiplicity = 1

 SCF Done:  E(RHF) =  -1021.12853639     A.U. after   15 cycles
 Normal termination of Gaussian 16 at Tue Apr  8 22:13:14 2025.
 Gaussian 16:  ES64L-G16RevC.01  3-Jul-2019

 ----------------------------------------------------------------------
 #t hf aug-cc-pvdz iop(5/13=1,5/36=2,99/5=2) pseudo=read geom=check gue
 ss=(read,tcheck) scf=(maxcycle=1)
 ----------------------------------------------------------------------
 -----
 title
 -----
 Structure from the checkpoint file:  "ANI1ccx_54_conf2_mol1.chk"
 Charge =  0 Multiplicity = 1

                         Standard orientation:
 ---------------------------------------------------------------------
 Center     Atomic      Atomic             Coordinates (Angstroms)
 Number     Number       Type             X           Y           Z
 ---------------------------------------------------------------------
      1          6           0       -2.094299    1.209731    0.197942
      2          6           0        4.268920   -0.461945   -0.406174
      3          6           0        1.889150   -0.317082   -1.208730
      4          6           0        1.026150   -0.231056    1.174120
      5          6           0        0.757216    0.075136   -0.293797
      6          6           0        3.180930    0.444585   -0.965550
      7          6           0       -3.748860   -0.539768   -0.601517
      8          6           0       -2.733630    0.477671   -0.992523
      9          6           0       -0.862706    2.050391   -0.197938
     10          6           0       -3.246760   -1.940259   -0.258129
     11          1           0       -0.167391   -0.451439   -0.588255
     12          1           0       -0.554548   -1.360489    1.262040
     13          1           0        3.676830   -0.009156    1.424830
     14          1           0        3.604901    0.784057   -1.905190
     15          1           0        3.088911    1.291710   -0.270337
     16          1           0        2.029280   -1.404970   -1.226790
     17          1           0        1.666300   -0.048468   -2.241640
     18          1           0        1.092931    2.129810   -0.572420
     19          1           0       -1.930160   -2.951209    0.522583
     20          1           0       -4.378170   -0.165630    0.218648
     21          1           0       -4.504060   -0.749304   -1.362690
     22          1           0       -3.158709    1.327381   -1.566970
     23          1           0       -1.967670    0.071384   -1.655190
     24          1           0       -1.806550    0.477670    0.959346
     25          1           0       -2.768469    2.482361    1.682350
     26          1           0       -3.376749    2.780641    0.224496
     27          7           0       -3.105039    2.041321    0.851048
     28          7           0        0.354156    1.451780   -0.483099
     29          8           0       -0.914055    3.272051   -0.252040
     30          8           0       -3.794520   -2.971569   -0.487675
     31          8           0       -2.033670   -1.968289    0.383368
     32          8           0        1.978520    0.231425    1.749820
     33          8           0        5.008260   -1.102671   -1.126280
     34          8           0        4.308500   -0.546618    0.918912
     35          8           0        0.208568   -1.071890    1.793060
 ---------------------------------------------------------------------

 SCF Done:  E(RHF) =  -1021.44227219     A.U. after    2 cycles

 The electronic state is 1-A.
 Alpha  occ. eigenvalues --  -20.67910 -20.65720 -20.60943 -20.60249 -20.59630
 Alpha  occ. eigenvalues --  -20.56691 -20.54833 -15.68008 -15.63233 -11.44365
 Alpha  occ. eigenvalues --  -11.43745 -11.39559 -11.39134 -11.34097 -11.32050
 Alpha  occ. eigenvalues --  -11.29301 -11.29080 -11.28606 -11.26856  -1.47844
 Alpha  occ. eigenvalues --   -1.46372  -1.40724  -1.37770  -1.37609  -1.36874
 Alpha  occ. eigenvalues --   -1.31361  -1.24181  -1.19883  -1.10742  -1.10292
 Alpha  occ. eigenvalues --   -1.01881  -0.99901  -0.92356  -0.91090  -0.88788
 Alpha  occ. eigenvalues --   -0.85620  -0.84569  -0.81447  -0.79191  -0.77588
 Alpha  occ. eigenvalues --   -0.75013  -0.73604  -0.72995  -0.71571  -0.71274
 Alpha  occ. eigenvalues --   -0.70091  -0.69318  -0.67905  -0.67332  -0.65681
 Alpha  occ. eigenvalues --   -0.65464  -0.64324  -0.63262  -0.62951  -0.62137
 Alpha  occ. eigenvalues --   -0.61125  -0.59917  -0.58610  -0.58150  -0.57247
 Alpha  occ. eigenvalues --   -0.56283  -0.54476  -0.54329  -0.54044  -0.52684
 Alpha  occ. eigenvalues --   -0.51556  -0.50759  -0.50276  -0.47930  -0.47429
 Alpha  occ. eigenvalues --   -0.44949  -0.42937  -0.42072
 Alpha virt. eigenvalues --    0.01741   0.02747   0.02950   0.03579   0.04772
 Alpha virt. eigenvalues --    0.05005   0.05439   0.05751   0.06461   0.06923
 Alpha virt. eigenvalues --    0.07563   0.07899   0.08461   0.08939   0.08984

 Mulliken charges:
               1
     1  C    0.176247
     2  C    0.741202
     3  C    0.513920
     4  C    0.549287
     5  C    0.528349
     6  C    0.724320
     7  C    0.508413
     8  C    0.638011
     9  C    0.638732
    10  C    0.483104
    11  H   -0.426383
    12  H    0.250542
    13  H    0.258818
    14  H   -0.179701
    15  H   -0.205161
    16  H   -0.150824
    17  H   -0.088333
    18  H   -0.104287
    19  H    0.249080
    20  H    0.082501
    21  H   -0.004106
    22  H   -0.026929
    23  H   -0.398439
    24  H   -0.372963
    25  H   -0.054338
    26  H    0.049025
    27  N   -0.196403
    28  N   -0.366542
    29  O   -0.589007
    30  O   -0.444883
    31  O   -0.736168
    32  O   -0.592170
    33  O   -0.547465
    34  O   -0.483708
    35  O   -0.423741
 Sum of Mulliken charges =  -0.00000

 Dipole moment (field-independent basis, Debye):
    X=             -6.6034    Y=              0.6395    Z=             -1.5732  Tot=              6.8183

 Test job not archived.
 1\1\GINC-SE177\SP\RHF\Aug-CC-pVDZ\C10H16N2O7\OHZDE\08-Apr-2025\0\\#t h
 f aug-cc-pvdz iop(5/13=1,5/36=2,99/5=2) pseudo=read geom=check guess=(
 read,tcheck) scf=(maxcycle=1)\\title\\0,1\C,0,-2.0943,1.20973,0.197942
 \C,0,4.26892,-0.461944,-0.406174\C,0,1.88915,-0.317082,-1.20873\C,0,1.
 02615,-0.231056,1.17412\C,0,0.757216,0.0751359,-0.293797\C,0,3.18093,0
 .444585,-0.96555\C,0,-3.74886,-0.539769,-0.601517\C,0,-2.73363,0.47767
 ,-0.992523\C,0,-0.862707,2.05039,-0.197938\C,0,-3.24676,-1.94026,-0.25
 8129\H,0,-0.167391,-0.451439,-0.588255\H,0,-0.554548,-1.36049,1.26204\

 Normal termination of Gaussian 16 at Tue Apr  8 22:14:19 2025.
