 Gaussian 16, Revision C.01,

 ----------------------------------------------------------------------
 #t hf aug-cc-pvdz symm=none int=(grid=ultrafine) guess=(read,tcheck) s
 table=(opt,rrhf)
 ----------------------------------------------------------------------
 -----
 title
 -----
 Symbolic Z-matrix:
 Charge =  0 Multiplicity = 1

 SCF Done:  E(RHF) =  -403.496197771     A.U. after   16 cycles
 Normal termination of Gaussian 16 at Tue Apr  8 21:42:14 2025.
 Gaussian 16:  ES64L-G16RevC.01  3-Jul-2019

 ----------------------------------------------------------------------
 #t hf aug-cc-pvdz iop(5/13=1,5/36=2,99/5=2) pseudo=read geom=check gue
 ss=(read,tcheck) scf=(maxcycle=1)
 ----------------------------------------------------------------------
 -----
 title
 -----
 Structure from the checkpoint file:  "ANI1ccx_490_conf1_mol1.chk"
 Charge =  0 Multiplicity = 1

                         Standard orientation:
 ---------------------------------------------------------------------
 Center     Atomic      Atomic             Coordinates (Angstroms)
 Number     Number       Type             X           Y           Z
 ---------------------------------------------------------------------
      1          6           0       -0.003308   -0.712358    0.095750
      2          6           0        0.012112    0.687104    0.080576
      3          1           0        1.933149   -1.761660    0.056460
      4          1           0       -1.783622    1.863259    0.034646
      5          7           0       -2.075421   -0.141911   -0.092483
      6          7           0       -1.290641   -1.185641    0.052622
      7          7           0        1.335539   -0.971196   -0.078094
      8          7           0        2.039619    0.142461   -0.038966
      9          7           0        1.261128    1.150050    0.016805
     10          7           0       -1.299131    1.013369   -0.024035
 ---------------------------------------------------------------------

 SCF Done:  E(RHF) =  -403.606536174     A.U. after    2 cycles

 The electronic state is 1-A.
 Alpha  occ. eigenvalues --  -15.75378 -15.74751 -15.74422 -15.73972 -15.70861
 Alpha  occ. eigenvalues --  -15.68905 -11.33330 -11.33161  -1.45220  -1.39651
 Alpha  occ. eigenvalues --   -1.22312  -1.17760  -1.10603  -0.92777  -0.88639
 Alpha  occ. eigenvalues --   -0.88317  -0.80006  -0.73801  -0.70330  -0.63838
 Alpha  occ. eigenvalues --   -0.61366  -0.56928  -0.55397  -0.49347  -0.46594
 Alpha  occ. eigenvalues --   -0.44993  -0.39863  -0.35721
 Alpha virt. eigenvalues --    0.02542   0.03408   0.07449   0.07765   0.08082
 Alpha virt. eigenvalues --    0.09069   0.11115   0.12401   0.12630   0.13363
 Alpha virt. eigenvalues --    0.15428   0.15526   0.16042   0.16796   0.17473

 Mulliken charges:
               1
     1  C    0.768566
     2  C    0.710598
     3  H   -0.029562
     4  H   -0.081783
     5  N   -0.266544
     6  N   -0.415028
     7  N   -0.040001
     8  N   -0.237421
     9  N   -0.389306
    10  N   -0.019519
 Sum of Mulliken charges =  -0.00000

 Dipole moment (field-independent basis, Debye):
    X=              0.2725    Y=             -0.0257    Z=              0.3143  Tot=              0.4168

 Test job not archived.
 1\1\GINC-SE454\SP\RHF\Aug-CC-pVDZ\C2H2N6\OHZDE\08-Apr-2025\0\\#t hf au
 g-cc-pvdz iop(5/13=1,5/36=2,99/5=2) pseudo=read geom=check guess=(read
 ,tcheck) scf=(maxcycle=1)\\title\\0,1\C,0,-0.00330682,-0.712358,0.0957
 501\C,0,0.0121129,0.687104,0.0805757\H,0,1.93315,-1.76166,0.0564598\H,
 0,-1.78362,1.86326,0.0346463\N,0,-2.07542,-0.14191,-0.0924829\N,0,-1.2
 9064,-1.18564,0.0526216\N,0,1.33554,-0.971196,-0.0780936\N,0,2.03962,0
 .142461,-0.0389663\N,0,1.26113,1.15005,0.0168051\N,0,-1.29913,1.01337,
 -0.0240355\\Version=ES64L-G16RevC.01\State=1-A\HF=-403.6065362\RMSD=3.

 Normal termination of Gaussian 16 at Tue Apr  8 21:42:18 2025.
