 Gaussian 16, Revision C.01,

 ----------------------------------------------------------------------
 #t hf aug-cc-pvdz symm=none int=(grid=ultrafine) guess=(read,tcheck) s
 table=(opt,rrhf)
 ----------------------------------------------------------------------
 -----
 title
 -----
 Symbolic Z-matrix:
 Charge =  0 Multiplicity = 1

 SCF Done:  E(RHF) =  -355.482262333     A.U. after   16 cycles
 Normal termination of Gaussian 16 at Tue Apr  8 21:10:19 2025.
 Gaussian 16:  ES64L-G16RevC.01  3-Jul-2019

 ----------------------------------------------------------------------
 #t hf aug-cc-pvdz iop(5/13=1,5/36=2,99/5=2) pseudo=read geom=check gue
 ss=(read,tcheck) scf=(maxcycle=1)
 ----------------------------------------------------------------------
 -----
 title
 -----
 Structure from the checkpoint file:  "ANI1ccx_1871_conf1_mol1.chk"
 Charge =  0 Multiplicity = 1

                         Standard orientation:
 ---------------------------------------------------------------------
 Center     Atomic      Atomic             Coordinates (Angstroms)
 Number     Number       Type             X           Y           Z
 ---------------------------------------------------------------------
      1          1           0       -1.705999    0.097538    1.175080
      2          1           0       -2.072949   -0.332885   -1.133750
      3          1           0        2.892820    1.183831   -0.019993
      4          7           0        1.933361   -0.350017    0.380463
      5          8           0       -1.993940    0.669920    0.436379
      6          8           0       -2.671889   -0.284876   -0.391780
      7          8           0        2.128950    0.734750   -0.420151
      8          8           0        0.955954   -0.932091    0.039979
 ---------------------------------------------------------------------

 SCF Done:  E(RHF) =  -355.596853282     A.U. after    2 cycles

 The electronic state is 1-A.
 Alpha  occ. eigenvalues --  -20.67351 -20.67187 -20.63652 -20.63393 -15.86684
 Alpha  occ. eigenvalues --   -1.56008  -1.42610  -1.39004  -1.18184  -0.95236
 Alpha  occ. eigenvalues --   -0.81358  -0.75157  -0.73020  -0.71885  -0.70931
 Alpha  occ. eigenvalues --   -0.63830  -0.62565  -0.55133  -0.52679  -0.49864
 Alpha  occ. eigenvalues --   -0.48477
 Alpha virt. eigenvalues --    0.02866   0.05401   0.05699   0.07372   0.11228
 Alpha virt. eigenvalues --    0.12436   0.14276   0.15974   0.17235   0.19148
 Alpha virt. eigenvalues --    0.19719   0.20195   0.21108   0.21735   0.23418

 Mulliken charges:
               1
     1  H    0.230737
     2  H    0.209187
     3  H    0.240947
     4  N    0.522441
     5  O   -0.224195
     6  O   -0.215476
     7  O   -0.434183
     8  O   -0.329458
 Sum of Mulliken charges =  -0.00000

 Dipole moment (field-independent basis, Debye):
    X=              4.0651    Y=              0.4796    Z=              0.7690  Tot=              4.1649

 Test job not archived.
 1\1\GINC-SE030\SP\RHF\Aug-CC-pVDZ\H3N1O4\OHZDE\08-Apr-2025\0\\#t hf au
 g-cc-pvdz iop(5/13=1,5/36=2,99/5=2) pseudo=read geom=check guess=(read
 ,tcheck) scf=(maxcycle=1)\\title\\0,1\H,0,-1.706,0.0975383,1.17508\H,0
 ,-2.07295,-0.332884,-1.13375\H,0,2.89282,1.18383,-0.0199929\N,0,1.9333
 6,-0.350017,0.380463\O,0,-1.99394,0.669921,0.436379\O,0,-2.67189,-0.28
 4875,-0.39178\O,0,2.12895,0.73475,-0.420151\O,0,0.955953,-0.932091,0.0
 399783\\Version=ES64L-G16RevC.01\State=1-A\HF=-355.5968533\RMSD=2.483e
 -03\Dipole=1.5993463,0.1886729,0.3025399\Quadrupole=0.0036341,-1.74337

 Normal termination of Gaussian 16 at Tue Apr  8 21:10:21 2025.
