 Gaussian 16, Revision C.01,

 ----------------------------------------------------------------------
 #t hf aug-cc-pvdz symm=none int=(grid=ultrafine) guess=(read,tcheck) s
 table=(opt,rrhf)
 ----------------------------------------------------------------------
 -----
 title
 -----
 Symbolic Z-matrix:
 Charge =  0 Multiplicity = 1

 SCF Done:  E(RHF) =  -369.546574503     A.U. after   16 cycles
 Normal termination of Gaussian 16 at Tue Apr  8 21:42:10 2025.
 Gaussian 16:  ES64L-G16RevC.01  3-Jul-2019

 ----------------------------------------------------------------------
 #t hf aug-cc-pvdz iop(5/13=1,5/36=2,99/5=2) pseudo=read geom=check gue
 ss=(read,tcheck) scf=(maxcycle=1)
 ----------------------------------------------------------------------
 -----
 title
 -----
 Structure from the checkpoint file:  "ANI1ccx_487_conf5_mol2.chk"
 Charge =  0 Multiplicity = 1

                         Standard orientation:
 ---------------------------------------------------------------------
 Center     Atomic      Atomic             Coordinates (Angstroms)
 Number     Number       Type             X           Y           Z
 ---------------------------------------------------------------------
      1          6           0        1.013719    0.088906    0.003214
      2          6           0       -1.027922    1.110969    0.002387
      3          1           0       -1.671573    1.986109    0.040082
      4          1           0        0.693865   -1.977300   -0.008290
      5          7           0        0.249539    1.250890    0.013606
      6          7           0       -1.757861   -0.075997   -0.029946
      7          7           0       -1.107261   -1.160341   -0.001469
      8          7           0        0.228894   -1.084610    0.033512
      9          8           0        2.221219    0.035293   -0.021914
 ---------------------------------------------------------------------

 SCF Done:  E(RHF) =  -369.653340043     A.U. after    2 cycles

 The electronic state is 1-A.
 Alpha  occ. eigenvalues --  -20.57495 -15.81049 -15.75451 -15.71784 -15.68013
 Alpha  occ. eigenvalues --  -11.43670 -11.38488  -1.44913  -1.38369  -1.25855
 Alpha  occ. eigenvalues --   -1.22677  -1.00450  -0.95358  -0.82497  -0.79548
 Alpha  occ. eigenvalues --   -0.73090  -0.69367  -0.66507  -0.59618  -0.58089
 Alpha  occ. eigenvalues --   -0.53211  -0.51281  -0.50532  -0.43497  -0.42205
 Alpha virt. eigenvalues --    0.02950   0.02978   0.03346   0.06527   0.07776
 Alpha virt. eigenvalues --    0.09892   0.10423   0.11370   0.11959   0.13330
 Alpha virt. eigenvalues --    0.14077   0.15682   0.15729   0.17127   0.17685

 Mulliken charges:
               1
     1  C    0.750485
     2  C    0.781325
     3  H   -0.213399
     4  H    0.001988
     5  N   -0.393470
     6  N   -0.376584
     7  N   -0.017776
     8  N   -0.123279
     9  O   -0.409290
 Sum of Mulliken charges =  -0.00000

 Dipole moment (field-independent basis, Debye):
    X=             -2.6303    Y=             -1.2370    Z=              0.0434  Tot=              2.9070

 Test job not archived.
 1\1\GINC-SE338\SP\RHF\Aug-CC-pVDZ\C2H2N4O1\OHZDE\08-Apr-2025\0\\#t hf
 aug-cc-pvdz iop(5/13=1,5/36=2,99/5=2) pseudo=read geom=check guess=(re
 ad,tcheck) scf=(maxcycle=1)\\title\\0,1\C,0,1.01372,0.088906,0.0032138
 4\C,0,-1.02792,1.11097,0.00238678\H,0,-1.67157,1.98611,0.0400816\H,0,0
 .693865,-1.9773,-0.00828978\N,0,0.249541,1.25089,0.0136058\N,0,-1.7578
 6,-0.075996,-0.029946\N,0,-1.10726,-1.16034,-0.00146934\N,0,0.228895,-
 1.08461,0.0335123\O,0,2.22122,0.0352917,-0.0219144\\Version=ES64L-G16R
 evC.01\State=1-A\HF=-369.65334\RMSD=3.132e-03\Dipole=-1.0348221,-0.486

 Normal termination of Gaussian 16 at Tue Apr  8 21:42:13 2025.
