 Gaussian 16, Revision C.01,

 ----------------------------------------------------------------------
 #t hf aug-cc-pvdz symm=none int=(grid=ultrafine) guess=(read,tcheck) s
 table=(opt,rrhf)
 ----------------------------------------------------------------------
 -----
 title
 -----
 Symbolic Z-matrix:
 Charge =  0 Multiplicity = 1

 SCF Done:  E(RHF) =  -444.054484719     A.U. after   18 cycles
 Normal termination of Gaussian 16 at Tue Apr  8 22:14:25 2025.
 Gaussian 16:  ES64L-G16RevC.01  3-Jul-2019

 ----------------------------------------------------------------------
 #t hf aug-cc-pvdz iop(5/13=1,5/36=2,99/5=2) pseudo=read geom=check gue
 ss=(read,tcheck) scf=(maxcycle=1)
 ----------------------------------------------------------------------
 -----
 title
 -----
 Structure from the checkpoint file:  "ANI1ccx_993_conf2_mol2.chk"
 Charge =  0 Multiplicity = 1

                         Standard orientation:
 ---------------------------------------------------------------------
 Center     Atomic      Atomic             Coordinates (Angstroms)
 Number     Number       Type             X           Y           Z
 ---------------------------------------------------------------------
      1          6           0        1.761581   -0.874009   -0.021133
      2          6           0        0.748835    0.110848    0.038445
      3          6           0       -0.630648   -0.007297    0.065863
      4          6           0       -1.624068   -1.008652    0.033474
      5          7           0        2.588233   -1.681936   -0.009322
      6          7           0        1.019598    1.435032   -0.019142
      7          7           0       -0.044021    2.093351    0.002451
      8          7           0       -2.523437   -1.736683   -0.036346
      9          8           0       -1.102101    1.238289   -0.032924
 ---------------------------------------------------------------------

 SCF Done:  E(RHF) =  -444.180868925     A.U. after    2 cycles

 The electronic state is 1-A.
 Alpha  occ. eigenvalues --  -20.76042 -15.82511 -15.76444 -15.72121 -15.69805
 Alpha  occ. eigenvalues --  -11.44548 -11.39451 -11.35974 -11.34163  -1.58966
 Alpha  occ. eigenvalues --   -1.35813  -1.26219  -1.24426  -1.18574  -1.01783
 Alpha  occ. eigenvalues --   -0.95664  -0.90167  -0.81587  -0.78416  -0.71777
 Alpha  occ. eigenvalues --   -0.62195  -0.61056  -0.59521  -0.58974  -0.57176
 Alpha  occ. eigenvalues --   -0.55920  -0.52718  -0.52168  -0.50675  -0.42605
 Alpha virt. eigenvalues --   -0.00692   0.05067   0.06412   0.07102   0.07265
 Alpha virt. eigenvalues --    0.08777   0.09409   0.09962   0.10179   0.11107
 Alpha virt. eigenvalues --    0.11494   0.12648   0.12871   0.13843   0.14153

 Mulliken charges:
               1
     1  C   -0.573531
     2  C    1.307609
     3  C    1.276866
     4  C   -0.868904
     5  N   -0.081173
     6  N   -0.443802
     7  N    0.039830
     8  N   -0.047772
     9  O   -0.609123
 Sum of Mulliken charges =   0.00000

 Dipole moment (field-independent basis, Debye):
    X=             -0.6527    Y=              1.3015    Z=              0.2061  Tot=              1.4704

 Test job not archived.
 1\1\GINC-SE143\SP\RHF\Aug-CC-pVDZ\C4N4O1\OHZDE\08-Apr-2025\0\\#t hf au
 g-cc-pvdz iop(5/13=1,5/36=2,99/5=2) pseudo=read geom=check guess=(read
 ,tcheck) scf=(maxcycle=1)\\title\\0,1\C,0,1.76158,-0.874012,-0.0211327
 \C,0,0.748835,0.110846,0.0384455\C,0,-0.630648,-0.00729662,0.0658634\C
 ,0,-1.62407,-1.00865,0.0334737\N,0,2.58823,-1.68194,-0.00932193\N,0,1.
 0196,1.43503,-0.0191416\N,0,-0.044018,2.09335,0.00245053\N,0,-2.52344,
 -1.73668,-0.0363456\O,0,-1.1021,1.23829,-0.0329236\\Version=ES64L-G16R
 evC.01\State=1-A\HF=-444.1808689\RMSD=8.945e-03\Dipole=-0.2567721,0.51

 Normal termination of Gaussian 16 at Tue Apr  8 22:14:30 2025.
