 Gaussian 16, Revision C.01,

 ----------------------------------------------------------------------
 #t hf aug-cc-pvdz symm=none int=(grid=ultrafine) guess=(read,tcheck) s
 table=(opt,rrhf)
 ----------------------------------------------------------------------
 -----
 title
 -----
 Symbolic Z-matrix:
 Charge =  0 Multiplicity = 1

 SCF Done:  E(RHF) =  -413.901142114     A.U. after   13 cycles
 Normal termination of Gaussian 16 at Tue Apr  8 21:47:13 2025.
 Gaussian 16:  ES64L-G16RevC.01  3-Jul-2019

 ----------------------------------------------------------------------
 #t hf aug-cc-pvdz iop(5/13=1,5/36=2,99/5=2) pseudo=read geom=check gue
 ss=(read,tcheck) scf=(maxcycle=1)
 ----------------------------------------------------------------------
 -----
 title
 -----
 Structure from the checkpoint file:  "ANI1ccx_583_conf2_mol2.chk"
 Charge =  0 Multiplicity = 1

                         Standard orientation:
 ---------------------------------------------------------------------
 Center     Atomic      Atomic             Coordinates (Angstroms)
 Number     Number       Type             X           Y           Z
 ---------------------------------------------------------------------
      1          6           0       -0.371139    2.048410    0.072542
      2          6           0        0.401688   -0.085654   -0.299236
      3          1           0       -0.900273    2.013180   -0.921293
      4          1           0       -0.042337    3.092820    0.271270
      5          1           0       -0.962622    1.712490    0.921865
      6          1           0        1.122480   -1.934171   -0.326621
      7          1           0        3.519610   -1.195773   -0.031466
      8          1           0        2.674030   -0.846233    1.386270
      9          1           0       -4.126199   -0.391068   -0.017567
     10          1           0       -2.579219   -0.567241    0.056951
     11          7           0        1.440620   -0.935600   -0.225638
     12          7           0        2.671471   -0.739117    0.331700
     13          8           0        0.769947    1.167919    0.032693
     14          8           0       -0.790502   -0.415494   -0.458474
     15          8           0       -3.438620   -0.994615    0.335572
 ---------------------------------------------------------------------

 SCF Done:  E(RHF) =  -414.035191788     A.U. after    2 cycles

 The electronic state is 1-A.
 Alpha  occ. eigenvalues --  -20.62501 -20.55636 -20.54089 -15.70287 -15.67723
 Alpha  occ. eigenvalues --  -11.43842 -11.30687  -1.43332  -1.31827  -1.28204
 Alpha  occ. eigenvalues --   -1.25766  -1.07435  -0.96209  -0.81239  -0.75873
 Alpha  occ. eigenvalues --   -0.74394  -0.71478  -0.69234  -0.67322  -0.64998
 Alpha  occ. eigenvalues --   -0.61601  -0.57474  -0.55401  -0.53336  -0.49823
 Alpha  occ. eigenvalues --   -0.49212  -0.48319  -0.45539  -0.40208
 Alpha virt. eigenvalues --    0.02572   0.03613   0.04267   0.04784   0.05877
 Alpha virt. eigenvalues --    0.06796   0.07892   0.08780   0.11481   0.12671
 Alpha virt. eigenvalues --    0.13645   0.14450   0.15347   0.15638   0.16195

 Mulliken charges:
               1
     1  C    0.614434
     2  C    0.835002
     3  H    0.069395
     4  H   -0.201703
     5  H   -0.072374
     6  H    0.029702
     7  H    0.049129
     8  H    0.103500
     9  H    0.152300
    10  H    0.224709
    11  N   -0.235024
    12  N   -0.100247
    13  O   -0.574096
    14  O   -0.564770
    15  O   -0.329956
 Sum of Mulliken charges =  -0.00000

 Dipole moment (field-independent basis, Debye):
    X=              4.0397    Y=              1.1870    Z=              0.1025  Tot=              4.2117

 Test job not archived.
 1\1\GINC-SE150\SP\RHF\Aug-CC-pVDZ\C2H8N2O3\OHZDE\08-Apr-2025\0\\#t hf
 aug-cc-pvdz iop(5/13=1,5/36=2,99/5=2) pseudo=read geom=check guess=(re
 ad,tcheck) scf=(maxcycle=1)\\title\\0,1\C,0,-0.371142,2.04841,0.072541
 8\C,0,0.401687,-0.0856532,-0.299236\H,0,-0.900276,2.01318,-0.921293\H,
 0,-0.0423411,3.09282,0.27127\H,0,-0.962624,1.71249,0.921865\H,0,1.1224
 8,-1.93417,-0.326621\H,0,3.51961,-1.19577,-0.0314661\H,0,2.67403,-0.84
 6231,1.38627\H,0,-4.1262,-0.391071,-0.0175668\H,0,-2.57922,-0.567243,0
 .0569513\N,0,1.44062,-0.935599,-0.225638\N,0,2.67147,-0.739115,0.3317\

 Normal termination of Gaussian 16 at Tue Apr  8 21:47:19 2025.
