 Gaussian 16, Revision C.01,

 ----------------------------------------------------------------------
 #t hf aug-cc-pvdz symm=none int=(grid=ultrafine) guess=(read,tcheck) s
 table=(opt,rrhf)
 ----------------------------------------------------------------------
 -----
 title
 -----
 Symbolic Z-matrix:
 Charge =  0 Multiplicity = 1

 SCF Done:  E(RHF) =  -794.463662255     A.U. after   15 cycles
 Normal termination of Gaussian 16 at Tue Apr  8 20:00:47 2025.
 Gaussian 16:  ES64L-G16RevC.01  3-Jul-2019

 ----------------------------------------------------------------------
 #t hf aug-cc-pvdz iop(5/13=1,5/36=2,99/5=2) pseudo=read geom=check gue
 ss=(read,tcheck) scf=(maxcycle=1)
 ----------------------------------------------------------------------
 -----
 title
 -----
 Structure from the checkpoint file:  "ANI1ccx_1592_conf11_mol2.chk"
 Charge =  0 Multiplicity = 1

                         Standard orientation:
 ---------------------------------------------------------------------
 Center     Atomic      Atomic             Coordinates (Angstroms)
 Number     Number       Type             X           Y           Z
 ---------------------------------------------------------------------
      1          6           0        0.513180    1.351130   -0.330194
      2          6           0       -0.888175    1.757279    0.040301
      3          6           0        1.400280    1.089251    0.938929
      4          6           0        2.731690    0.437520    0.494689
      5          6           0        2.514432   -1.024688    0.150765
      6          6           0       -1.630129   -0.604722    0.642711
      7          6           0       -1.876908   -1.308912   -0.700893
      8          6           0       -2.601628   -1.146023    1.736630
      9          1           0       -0.085732   -1.942270   -0.624226
     10          1           0       -3.633048   -0.942898    1.396180
     11          1           0       -2.406169   -0.600026    2.687690
     12          1           0       -2.471857   -2.225852    1.883060
     13          1           0       -0.575857   -0.860297    0.898831
     14          1           0       -2.691240    1.212657    0.464520
     15          1           0        3.559403   -2.549807   -0.229885
     16          1           0        3.053770    0.966449   -0.404840
     17          1           0        3.508000    0.572953    1.262210
     18          1           0        1.583029    2.042491    1.456610
     19          1           0        0.823023    0.470938    1.661770
     20          1           0        0.352120    0.356236   -0.756552
     21          1           0        0.547561    2.363580   -2.066080
     22          1           0        0.963690    3.238011   -0.766477
     23          7           0        1.122979    2.338921   -1.211110
     24          7           0       -1.787310    0.839801    0.552941
     25          8           0       -1.243132    2.961339   -0.057247
     26          8           0        1.478732   -1.526129    0.046063
     27          8           0        3.706182   -1.648687   -0.024978
     28          8           0       -2.932898   -1.211003   -1.292930
     29          8           0       -0.865488   -2.032801   -1.182560
 ---------------------------------------------------------------------

 SCF Done:  E(RHF) =  -794.706931898     A.U. after    2 cycles

 The electronic state is 1-A.
 Alpha  occ. eigenvalues --  -20.65277 -20.62147 -20.61746 -20.55720 -20.54408
 Alpha  occ. eigenvalues --  -15.66058 -15.62405 -11.43910 -11.39709 -11.37414
 Alpha  occ. eigenvalues --  -11.31992 -11.29738 -11.27832 -11.27526 -11.26244
 Alpha  occ. eigenvalues --   -1.48892  -1.42294  -1.39377  -1.33833  -1.32529
 Alpha  occ. eigenvalues --   -1.21452  -1.17916  -1.08191  -1.04210  -0.98757
 Alpha  occ. eigenvalues --   -0.91342  -0.90980  -0.86052  -0.83766  -0.79058
 Alpha  occ. eigenvalues --   -0.77616  -0.75626  -0.74764  -0.71773  -0.70493
 Alpha  occ. eigenvalues --   -0.68673  -0.67009  -0.66202  -0.65539  -0.64207
 Alpha  occ. eigenvalues --   -0.62125  -0.61474  -0.59876  -0.58557  -0.58230
 Alpha  occ. eigenvalues --   -0.56885  -0.56366  -0.55327  -0.54758  -0.54093
 Alpha  occ. eigenvalues --   -0.52829  -0.50949  -0.49323  -0.48789  -0.47022
 Alpha  occ. eigenvalues --   -0.45196  -0.42068  -0.40004
 Alpha virt. eigenvalues --    0.01997   0.03126   0.03559   0.04393   0.05182
 Alpha virt. eigenvalues --    0.05631   0.06053   0.06347   0.06963   0.07905
 Alpha virt. eigenvalues --    0.08286   0.08764   0.09416   0.10256   0.10721

 Mulliken charges:
               1
     1  C    0.134226
     2  C    0.663895
     3  C    0.528100
     4  C    0.588421
     5  C    0.282079
     6  C   -0.067821
     7  C    0.666824
     8  C    0.837254
     9  H    0.286654
    10  H    0.021471
    11  H    0.061654
    12  H   -0.021202
    13  H   -0.305101
    14  H   -0.148434
    15  H    0.137868
    16  H    0.056639
    17  H   -0.047449
    18  H   -0.169223
    19  H   -0.280443
    20  H   -0.149434
    21  H    0.072611
    22  H    0.101468
    23  N   -0.380163
    24  N   -0.311275
    25  O   -0.665746
    26  O   -0.422503
    27  O   -0.473216
    28  O   -0.527312
    29  O   -0.469843
 Sum of Mulliken charges =  -0.00000

 Dipole moment (field-independent basis, Debye):
    X=              5.1775    Y=             -2.5182    Z=              4.1402  Tot=              7.0915

 Test job not archived.
 1\1\GINC-SE338\SP\RHF\Aug-CC-pVDZ\C8H14N2O5\OHZDE\08-Apr-2025\0\\#t hf
  aug-cc-pvdz iop(5/13=1,5/36=2,99/5=2) pseudo=read geom=check guess=(r
 ead,tcheck) scf=(maxcycle=1)\\title\\0,1\C,0,0.51318,1.35113,-0.330194
 \C,0,-0.888174,1.75728,0.0403014\C,0,1.40028,1.08925,0.938929\C,0,2.73
 169,0.437518,0.494689\C,0,2.51443,-1.02469,0.150765\C,0,-1.63013,-0.60
 472,0.642711\C,0,-1.87691,-1.30891,-0.700893\C,0,-2.60163,-1.14602,1.7
 3663\H,0,-0.0857349,-1.94227,-0.624226\H,0,-3.63305,-0.942895,1.39618\
 H,0,-2.40617,-0.600024,2.68769\H,0,-2.47186,-2.22585,1.88306\H,0,-0.57

 Normal termination of Gaussian 16 at Tue Apr  8 20:01:16 2025.
