 Gaussian 16, Revision C.01,

 ----------------------------------------------------------------------
 #t hf aug-cc-pvdz symm=none int=(grid=ultrafine) guess=(read,tcheck) s
 table=(opt,rrhf)
 ----------------------------------------------------------------------
 -----
 title
 -----
 Symbolic Z-matrix:
 Charge =  0 Multiplicity = 1

 SCF Done:  E(RHF) =  -751.224001624     A.U. after   16 cycles
 Normal termination of Gaussian 16 at Tue Apr  8 19:51:55 2025.
 Gaussian 16:  ES64L-G16RevC.01  3-Jul-2019

 ----------------------------------------------------------------------
 #t hf aug-cc-pvdz iop(5/13=1,5/36=2,99/5=2) pseudo=read geom=check gue
 ss=(read,tcheck) scf=(maxcycle=1)
 ----------------------------------------------------------------------
 -----
 title
 -----
 Structure from the checkpoint file:  "ANI1ccx_1547_conf10_mol2.chk"
 Charge =  0 Multiplicity = 1

                         Standard orientation:
 ---------------------------------------------------------------------
 Center     Atomic      Atomic             Coordinates (Angstroms)
 Number     Number       Type             X           Y           Z
 ---------------------------------------------------------------------
      1          6           0        4.095570   -0.941951    0.194031
      2          6           0        3.389500    0.095575   -0.659489
      3          6           0        1.324730    1.256681   -0.762485
      4          6           0       -0.836983    2.260261    0.146551
      5          6           0       -2.089790    0.514451    0.126396
      6          6           0       -0.855941    0.094505   -0.285069
      7          6           0       -1.593480   -2.082019   -0.448362
      8          6           0       -3.172380   -0.450829    0.276455
      9          1           0       -1.386500   -3.110069   -0.706941
     10          1           0        0.404836   -1.491879   -0.800003
     11          1           0       -0.411950    3.257441    0.249219
     12          1           0        1.752500    2.244051   -0.487979
     13          1           0        1.345160    1.215891   -1.857350
     14          1           0        3.890830    1.073321   -0.587346
     15          1           0        3.387870   -0.181132   -1.723020
     16          1           0        5.134750   -1.076379   -0.167869
     17          1           0        3.587470   -1.911309    0.038954
     18          1           0        3.277890   -0.362284    1.855770
     19          7           0       -0.026589    1.189361   -0.285248
     20          7           0       -2.049870    1.880161    0.400822
     21          7           0       -0.540743   -1.202039   -0.588127
     22          7           0       -2.800140   -1.786009   -0.080561
     23          8           0        4.153480   -0.583869    1.546140
     24          8           0        2.044110    0.197245   -0.189663
     25          8           0       -4.276190   -0.201878    0.709796
 ---------------------------------------------------------------------

 SCF Done:  E(RHF) =  -751.448529122     A.U. after    2 cycles

 The electronic state is 1-A.
 Alpha  occ. eigenvalues --  -20.63710 -20.59778 -20.52259 -15.71626 -15.71615
 Alpha  occ. eigenvalues --  -15.64057 -15.62844 -11.39002 -11.36762 -11.35540
 Alpha  occ. eigenvalues --  -11.35314 -11.33850 -11.33587 -11.32476 -11.26935
 Alpha  occ. eigenvalues --   -1.41387  -1.35929  -1.35136  -1.32523  -1.29034
 Alpha  occ. eigenvalues --   -1.19126  -1.16162  -1.05883  -1.04443  -0.97050
 Alpha  occ. eigenvalues --   -0.90167  -0.89398  -0.87514  -0.84585  -0.78590
 Alpha  occ. eigenvalues --   -0.75492  -0.75218  -0.74774  -0.72972  -0.71107
 Alpha  occ. eigenvalues --   -0.68189  -0.66456  -0.65526  -0.64425  -0.63544
 Alpha  occ. eigenvalues --   -0.62667  -0.60348  -0.59779  -0.57936  -0.56220
 Alpha  occ. eigenvalues --   -0.53881  -0.53506  -0.50253  -0.48749  -0.46060
 Alpha  occ. eigenvalues --   -0.45156  -0.42137  -0.40880  -0.40221  -0.32535
 Alpha virt. eigenvalues --    0.00984   0.01840   0.02907   0.03247   0.04624
 Alpha virt. eigenvalues --    0.04993   0.05379   0.05832   0.06755   0.07598
 Alpha virt. eigenvalues --    0.08688   0.09408   0.09606   0.10611   0.10748

 Mulliken charges:
               1
     1  C    0.815481
     2  C    0.520697
     3  C    1.102737
     4  C    0.718456
     5  C    0.517300
     6  C    0.323557
     7  C    0.767614
     8  C    0.530314
     9  H   -0.388112
    10  H   -0.059765
    11  H   -0.314590
    12  H   -0.332531
    13  H   -0.180850
    14  H   -0.127600
    15  H   -0.158786
    16  H   -0.083123
    17  H   -0.093089
    18  H    0.155235
    19  N   -0.303800
    20  N   -0.809415
    21  N   -0.262902
    22  N   -0.557882
    23  O   -0.538120
    24  O   -0.736482
    25  O   -0.504344
 Sum of Mulliken charges =   0.00000

 Dipole moment (field-independent basis, Debye):
    X=             11.3739    Y=              0.1166    Z=             -5.3389  Tot=             12.5652

 Test job not archived.
 1\1\GINC-SE109\SP\RHF\Aug-CC-pVDZ\C8H10N4O3\OHZDE\08-Apr-2025\0\\#t hf
  aug-cc-pvdz iop(5/13=1,5/36=2,99/5=2) pseudo=read geom=check guess=(r
 ead,tcheck) scf=(maxcycle=1)\\title\\0,1\C,0,4.09557,-0.941952,0.19403
 1\C,0,3.3895,0.095574,-0.659489\C,0,1.32473,1.25668,-0.762485\C,0,-0.8
 36983,2.26026,0.146551\C,0,-2.08979,0.51445,0.126396\C,0,-0.855941,0.0
 945039,-0.285069\C,0,-1.59348,-2.08202,-0.448362\C,0,-3.17238,-0.45083
 ,0.276455\H,0,-1.3865,-3.11007,-0.706941\H,0,0.404836,-1.49188,-0.8000
 03\H,0,-0.41195,3.25744,0.249219\H,0,1.7525,2.24405,-0.487979\H,0,1.34

 Normal termination of Gaussian 16 at Tue Apr  8 19:52:21 2025.
