 Gaussian 16, Revision C.01,

 ----------------------------------------------------------------------
 #t hf aug-cc-pvdz symm=none int=(grid=ultrafine) guess=(read,tcheck) s
 table=(opt,rrhf)
 ----------------------------------------------------------------------
 -----
 title
 -----
 Symbolic Z-matrix:
 Charge =  0 Multiplicity = 1

 SCF Done:  E(RHF) =  -509.533097661     A.U. after   14 cycles
 Normal termination of Gaussian 16 at Tue Apr  8 22:09:55 2025.
 Gaussian 16:  ES64L-G16RevC.01  3-Jul-2019

 ----------------------------------------------------------------------
 #t hf aug-cc-pvdz iop(5/13=1,5/36=2,99/5=2) pseudo=read geom=check gue
 ss=(read,tcheck) scf=(maxcycle=1)
 ----------------------------------------------------------------------
 -----
 title
 -----
 Structure from the checkpoint file:  "ANI1ccx_939_conf55_mol1.chk"
 Charge =  0 Multiplicity = 1

                         Standard orientation:
 ---------------------------------------------------------------------
 Center     Atomic      Atomic             Coordinates (Angstroms)
 Number     Number       Type             X           Y           Z
 ---------------------------------------------------------------------
      1          6           0       -0.716314    0.721858   -0.758021
      2          6           0       -1.332820   -0.289942    0.278693
      3          6           0        0.587037    0.060972   -1.222410
      4          6           0        1.500850   -0.369760   -0.115950
      5          1           0       -1.201560    1.936041    0.733843
      6          1           0        0.341660    2.113951    0.228707
      7          1           0       -1.435980    0.882632   -1.633820
      8          1           0        0.487095   -0.818954   -1.877660
      9          1           0        1.224100    0.850844   -1.732320
     10          1           0        2.282650    0.577707    1.501830
     11          1           0       -2.269669   -1.850479    0.184214
     12          7           0       -0.608140    1.949061   -0.100103
     13          8           0       -1.254930   -0.247431    1.499200
     14          8           0        1.858020   -1.504188    0.082903
     15          8           0        1.822610    0.723467    0.648386
     16          8           0       -1.851180   -1.231089   -0.455236
 ---------------------------------------------------------------------

 SCF Done:  E(RHF) =  -509.690374504     A.U. after    2 cycles

 The electronic state is 1-A.
 Alpha  occ. eigenvalues --  -20.65118 -20.63398 -20.58238 -20.57969 -15.60389
 Alpha  occ. eigenvalues --  -11.41529 -11.41029 -11.30854 -11.28026  -1.45772
 Alpha  occ. eigenvalues --   -1.42352  -1.34293  -1.33919  -1.19223  -1.05147
 Alpha  occ. eigenvalues --   -0.94780  -0.86182  -0.81611  -0.74565  -0.73767
 Alpha  occ. eigenvalues --   -0.72504  -0.70337  -0.67924  -0.65295  -0.65226
 Alpha  occ. eigenvalues --   -0.62163  -0.61695  -0.57878  -0.55712  -0.53928
 Alpha  occ. eigenvalues --   -0.51774  -0.51296  -0.48284  -0.47044  -0.39147
 Alpha virt. eigenvalues --    0.03160   0.03689   0.04284   0.05113   0.06173
 Alpha virt. eigenvalues --    0.06665   0.07760   0.09770   0.11220   0.11484
 Alpha virt. eigenvalues --    0.12189   0.12988   0.13904   0.14056   0.14125

 Mulliken charges:
               1
     1  C    0.287933
     2  C    0.708363
     3  C    0.064033
     4  C    0.723937
     5  H    0.081524
     6  H    0.091759
     7  H   -0.075866
     8  H   -0.077150
     9  H    0.197239
    10  H    0.200369
    11  H    0.206878
    12  N   -0.324841
    13  O   -0.543132
    14  O   -0.485643
    15  O   -0.586814
    16  O   -0.468589
 Sum of Mulliken charges =  -0.00000

 Dipole moment (field-independent basis, Debye):
    X=             -0.5325    Y=              0.6627    Z=             -0.9002  Tot=              1.2382

 Test job not archived.
 1\1\GINC-SE343\SP\RHF\Aug-CC-pVDZ\C4H7N1O4\OHZDE\08-Apr-2025\0\\#t hf
 aug-cc-pvdz iop(5/13=1,5/36=2,99/5=2) pseudo=read geom=check guess=(re
 ad,tcheck) scf=(maxcycle=1)\\title\\0,1\C,0,-0.716314,0.721857,-0.7580
 21\C,0,-1.33282,-0.289943,0.278693\C,0,0.587037,0.0609702,-1.22241\C,0
 ,1.50085,-0.369762,-0.11595\H,0,-1.20156,1.93604,0.733843\H,0,0.34166,
 2.11395,0.228707\H,0,-1.43598,0.882631,-1.63382\H,0,0.487095,-0.818955
 ,-1.87766\H,0,1.2241,0.850842,-1.73232\H,0,2.28265,0.577705,1.50183\H,
 0,-2.26967,-1.85048,0.184214\N,0,-0.60814,1.94906,-0.100103\O,0,-1.254

 Normal termination of Gaussian 16 at Tue Apr  8 22:10:02 2025.
