 Gaussian 16, Revision C.01,

 ----------------------------------------------------------------------
 #t hf aug-cc-pvdz symm=none int=(grid=ultrafine) guess=(read,tcheck) s
 table=(opt,rrhf)
 ----------------------------------------------------------------------
 -----
 title
 -----
 Symbolic Z-matrix:
 Charge =  0 Multiplicity = 1

 SCF Done:  E(RHF) =  -756.529137651     A.U. after   15 cycles
 Normal termination of Gaussian 16 at Tue Apr  8 19:37:51 2025.
 Gaussian 16:  ES64L-G16RevC.01  3-Jul-2019

 ----------------------------------------------------------------------
 #t hf aug-cc-pvdz iop(5/13=1,5/36=2,99/5=2) pseudo=read geom=check gue
 ss=(read,tcheck) scf=(maxcycle=1)
 ----------------------------------------------------------------------
 -----
 title
 -----
 Structure from the checkpoint file:  "ANI1ccx_1435_conf21_mol1.chk"
 Charge =  0 Multiplicity = 1

                         Standard orientation:
 ---------------------------------------------------------------------
 Center     Atomic      Atomic             Coordinates (Angstroms)
 Number     Number       Type             X           Y           Z
 ---------------------------------------------------------------------
      1          6           0        1.564850   -0.800783    0.148515
      2          6           0        0.469569   -0.894985    1.210350
      3          6           0        2.167759    0.623590   -0.015436
      4          6           0        3.715889    0.363392   -0.301350
      5          6           0       -1.403871    0.040289   -0.274712
      6          6           0       -1.720072    1.486518    0.104117
      7          6           0       -2.635170   -0.819481   -0.657526
      8          1           0        0.094936    1.921390   -0.366998
      9          1           0       -2.802289   -2.714322   -1.211610
     10          1           0       -3.200511   -0.228290   -1.405840
     11          1           0       -3.211860   -0.908198    0.292683
     12          1           0       -0.677713   -0.112813   -1.022370
     13          1           0       -1.364620   -0.573459    1.746140
     14          1           0        3.863689   -0.176792   -1.256570
     15          1           0        4.250159   -0.229042    0.411196
     16          1           0        4.348169    1.280462   -0.511802
     17          1           0        1.301259    0.672725   -1.697390
     18          1           0        2.071509    1.156821    0.933269
     19          1           0        2.344670   -1.348209    0.687691
     20          1           0        0.419862   -1.924530   -1.038510
     21          1           0        1.896840   -1.657559   -1.676670
     22          7           0        1.140790   -1.252480   -1.133000
     23          7           0       -0.785613   -0.555558    0.928989
     24          8           0        0.745611   -1.297100    2.314690
     25          8           0        1.618459    1.354180   -1.068940
     26          8           0       -2.804312    1.906298    0.447356
     27          8           0       -2.073630   -2.109062   -1.076830
     28          8           0       -0.582886    2.334039    0.166367
 ---------------------------------------------------------------------

 SCF Done:  E(RHF) =  -756.758845318     A.U. after    2 cycles

 The electronic state is 1-A.
 Alpha  occ. eigenvalues --  -20.61231 -20.60569 -20.60490 -20.58161 -20.54301
 Alpha  occ. eigenvalues --  -15.66524 -15.64998 -11.41532 -11.37174 -11.33247
 Alpha  occ. eigenvalues --  -11.32317 -11.32253 -11.29866 -11.24742  -1.40365
 Alpha  occ. eigenvalues --   -1.37552  -1.36808  -1.34712  -1.32216  -1.23276
 Alpha  occ. eigenvalues --   -1.20523  -1.05446  -1.03590  -0.95362  -0.91414
 Alpha  occ. eigenvalues --   -0.86146  -0.82755  -0.81869  -0.77911  -0.75804
 Alpha  occ. eigenvalues --   -0.72194  -0.70399  -0.69478  -0.68305  -0.67623
 Alpha  occ. eigenvalues --   -0.67239  -0.65077  -0.64770  -0.63025  -0.61889
 Alpha  occ. eigenvalues --   -0.60301  -0.59685  -0.58538  -0.57619  -0.54854
 Alpha  occ. eigenvalues --   -0.54137  -0.53662  -0.51128  -0.50246  -0.50159
 Alpha  occ. eigenvalues --   -0.48891  -0.48124  -0.44488  -0.42920  -0.41135
 Alpha virt. eigenvalues --    0.02067   0.02843   0.03896   0.04215   0.05565
 Alpha virt. eigenvalues --    0.05607   0.05961   0.07026   0.07352   0.07795
 Alpha virt. eigenvalues --    0.07845   0.08491   0.10105   0.10137   0.11209

 Mulliken charges:
               1
     1  C    0.818261
     2  C    0.073601
     3  C    0.574226
     4  C    0.618162
     5  C    0.145320
     6  C    0.850620
     7  C    1.240431
     8  H    0.230102
     9  H    0.168925
    10  H    0.006641
    11  H    0.037463
    12  H   -0.514909
    13  H   -0.146005
    14  H   -0.155038
    15  H   -0.191220
    16  H   -0.012801
    17  H    0.312925
    18  H   -0.394564
    19  H   -0.170728
    20  H    0.050809
    21  H   -0.021795
    22  N   -0.389068
    23  N   -0.274293
    24  O   -0.522065
    25  O   -0.694785
    26  O   -0.503029
    27  O   -0.620406
    28  O   -0.516782
 Sum of Mulliken charges =  -0.00000

 Dipole moment (field-independent basis, Debye):
    X=              0.6781    Y=             -4.6617    Z=             -4.9122  Tot=              6.8059

 Test job not archived.
 1\1\GINC-SE081\SP\RHF\Aug-CC-pVDZ\C7H14N2O5\OHZDE\08-Apr-2025\0\\#t hf
  aug-cc-pvdz iop(5/13=1,5/36=2,99/5=2) pseudo=read geom=check guess=(r
 ead,tcheck) scf=(maxcycle=1)\\title\\0,1\C,0,1.56485,-0.800783,0.14851
 5\C,0,0.469569,-0.894985,1.21035\C,0,2.16776,0.623589,-0.0154354\C,0,3
 .71589,0.36339,-0.30135\C,0,-1.40387,0.0402904,-0.274712\C,0,-1.72007,
 1.48652,0.104117\C,0,-2.63517,-0.819479,-0.657526\H,0,0.094938,1.92139
 ,-0.366998\H,0,-2.80229,-2.71432,-1.21161\H,0,-3.20051,-0.228288,-1.40
 584\H,0,-3.21186,-0.908196,0.292683\H,0,-0.677712,-0.112812,-1.02237\H

 Normal termination of Gaussian 16 at Tue Apr  8 19:38:22 2025.
