 Gaussian 16, Revision C.01,

 ----------------------------------------------------------------------
 #t hf aug-cc-pvdz symm=none int=(grid=ultrafine) guess=(read,tcheck) s
 table=(opt,rrhf)
 ----------------------------------------------------------------------
 -----
 title
 -----
 Symbolic Z-matrix:
 Charge =  0 Multiplicity = 1

 SCF Done:  E(RHF) =  -908.378201653     A.U. after   14 cycles
 Normal termination of Gaussian 16 at Tue Apr  8 20:56:28 2025.
 Gaussian 16:  ES64L-G16RevC.01  3-Jul-2019

 ----------------------------------------------------------------------
 #t hf aug-cc-pvdz iop(5/13=1,5/36=2,99/5=2) pseudo=read geom=check gue
 ss=(read,tcheck) scf=(maxcycle=1)
 ----------------------------------------------------------------------
 -----
 title
 -----
 Structure from the checkpoint file:  "ANI1ccx_1761_conf10_mol1.chk"
 Charge =  0 Multiplicity = 1

                         Standard orientation:
 ---------------------------------------------------------------------
 Center     Atomic      Atomic             Coordinates (Angstroms)
 Number     Number       Type             X           Y           Z
 ---------------------------------------------------------------------
      1          6           0       -2.250041   -0.095835    0.702244
      2          6           0        2.955519    0.886162   -0.892051
      3          6           0        2.112949   -0.163360   -1.604960
      4          6           0        1.872399   -1.549100    0.575623
      5          6           0        2.247319    1.958290   -0.099492
      6          6           0       -3.984401   -0.702635   -1.091300
      7          6           0       -3.224031    0.415982   -0.402577
      8          6           0       -1.186831   -1.006870    0.094912
      9          6           0        1.188619   -1.011980   -0.714508
     10          1           0        0.850998   -1.920830   -1.244770
     11          1           0        3.150349   -2.820620    1.101020
     12          1           0        0.627634    2.941710   -0.036480
     13          1           0        3.706839    0.485822   -0.207971
     14          1           0        3.530809    1.380720   -1.698160
     15          1           0        2.784359   -0.796098   -2.239630
     16          1           0        1.492009    0.334753   -2.372140
     17          1           0       -0.046821    0.570757    0.022960
     18          1           0       -4.735891   -0.253631   -1.772210
     19          1           0       -4.443261   -1.358751   -0.308735
     20          1           0       -3.318351   -1.364591   -1.667010
     21          1           0       -4.617431    0.731771    0.739097
     22          1           0       -2.559451    0.959970   -1.097460
     23          1           0       -2.808621   -0.658792    1.482120
     24          1           0       -2.275461    1.742020    1.625580
     25          1           0       -1.257721    0.712023    2.250420
     26          7           0       -1.585781    1.061490    1.346910
     27          7           0       -0.039268   -0.370770   -0.341069
     28          8           0       -1.296481   -2.222770    0.007841
     29          8           0       -4.119451    1.315409    0.155437
     30          8           0        1.745599   -1.144610    1.686140
     31          8           0        2.662599    2.562650    0.838617
     32          8           0        1.013059    2.219500   -0.572667
     33          8           0        2.857969   -2.468330    0.256525
 ---------------------------------------------------------------------

 SCF Done:  E(RHF) =  -908.655991439     A.U. after    2 cycles

 The electronic state is 1-A.
 Alpha  occ. eigenvalues --  -20.62840 -20.62468 -20.59317 -20.58083 -20.56922
 Alpha  occ. eigenvalues --  -20.54103 -15.63752 -15.63030 -11.40683 -11.40485
 Alpha  occ. eigenvalues --  -11.36716 -11.31297 -11.30945 -11.29513 -11.27659
 Alpha  occ. eigenvalues --  -11.27328 -11.24014  -1.43953  -1.43103  -1.36504
 Alpha  occ. eigenvalues --   -1.34949  -1.33672  -1.33520  -1.21146  -1.17408
 Alpha  occ. eigenvalues --   -1.09052  -1.03470  -1.00610  -0.93580  -0.90614
 Alpha  occ. eigenvalues --   -0.85762  -0.84236  -0.81612  -0.77781  -0.73666
 Alpha  occ. eigenvalues --   -0.72633  -0.72384  -0.71380  -0.69788  -0.68739
 Alpha  occ. eigenvalues --   -0.67966  -0.67319  -0.66794  -0.65314  -0.63739
 Alpha  occ. eigenvalues --   -0.62582  -0.61653  -0.61252  -0.59993  -0.59812
 Alpha  occ. eigenvalues --   -0.58754  -0.56843  -0.56179  -0.55249  -0.53640
 Alpha  occ. eigenvalues --   -0.53094  -0.51712  -0.51489  -0.50073  -0.49729
 Alpha  occ. eigenvalues --   -0.47826  -0.47255  -0.46991  -0.43906  -0.42054
 Alpha  occ. eigenvalues --   -0.39617
 Alpha virt. eigenvalues --    0.02777   0.02999   0.03757   0.03965   0.04792
 Alpha virt. eigenvalues --    0.05248   0.05927   0.06302   0.06522   0.07178
 Alpha virt. eigenvalues --    0.07382   0.07854   0.08303   0.09341   0.10102

 Mulliken charges:
               1
     1  C    0.496369
     2  C    0.141429
     3  C    0.523752
     4  C    0.737955
     5  C    0.623560
     6  C    0.559053
     7  C    0.080697
     8  C    0.535453
     9  C   -0.043576
    10  H   -0.116171
    11  H    0.184615
    12  H    0.256921
    13  H   -0.013491
    14  H    0.098421
    15  H   -0.068117
    16  H   -0.009662
    17  H    0.031479
    18  H    0.040615
    19  H    0.011880
    20  H   -0.022490
    21  H    0.196862
    22  H   -0.187988
    23  H   -0.119456
    24  H    0.028414
    25  H    0.107237
    26  N   -0.379093
    27  N   -0.227601
    28  O   -0.612334
    29  O   -0.597610
    30  O   -0.476239
    31  O   -0.480787
    32  O   -0.685928
    33  O   -0.614171
 Sum of Mulliken charges =  -0.00000

 Dipole moment (field-independent basis, Debye):
    X=             -0.7511    Y=              0.4911    Z=             -1.6882  Tot=              1.9119

 Test job not archived.
 1\1\GINC-SE109\SP\RHF\Aug-CC-pVDZ\C9H16N2O6\OHZDE\08-Apr-2025\0\\#t hf
  aug-cc-pvdz iop(5/13=1,5/36=2,99/5=2) pseudo=read geom=check guess=(r
 ead,tcheck) scf=(maxcycle=1)\\title\\0,1\C,0,-2.25004,-0.0958344,0.702
 244\C,0,2.95552,0.886162,-0.892051\C,0,2.11295,-0.16336,-1.60496\C,0,1
 .8724,-1.5491,0.575623\C,0,2.24732,1.95829,-0.0994921\C,0,-3.9844,-0.7
 02634,-1.0913\C,0,-3.22403,0.415983,-0.402577\C,0,-1.18683,-1.00687,0.
 094912\C,0,1.18862,-1.01198,-0.714508\H,0,0.850999,-1.92083,-1.24477\H
 ,0,3.15035,-2.82062,1.10102\H,0,0.627635,2.94171,-0.0364797\H,0,3.7068

 Normal termination of Gaussian 16 at Tue Apr  8 20:57:19 2025.
