 Gaussian 16, Revision C.01,

 ----------------------------------------------------------------------
 #t hf aug-cc-pvdz symm=none int=(grid=ultrafine) guess=(read,tcheck) s
 table=(opt,rrhf)
 ----------------------------------------------------------------------
 -----
 title
 -----
 Symbolic Z-matrix:
 Charge =  0 Multiplicity = 1

 SCF Done:  E(RHF) =  -256.797810749     A.U. after   15 cycles
 Normal termination of Gaussian 16 at Tue Apr  8 21:22:29 2025.
 Gaussian 16:  ES64L-G16RevC.01  3-Jul-2019

 ----------------------------------------------------------------------
 #t hf aug-cc-pvdz iop(5/13=1,5/36=2,99/5=2) pseudo=read geom=check gue
 ss=(read,tcheck) scf=(maxcycle=1)
 ----------------------------------------------------------------------
 -----
 title
 -----
 Structure from the checkpoint file:  "ANI1ccx_377_conf35_mol2.chk"
 Charge =  0 Multiplicity = 1

                         Standard orientation:
 ---------------------------------------------------------------------
 Center     Atomic      Atomic             Coordinates (Angstroms)
 Number     Number       Type             X           Y           Z
 ---------------------------------------------------------------------
      1          6           0       -1.057661   -0.301953    0.000274
      2          1           0       -2.100002   -0.587747    0.022400
      3          1           0        1.929078   -0.663160    0.026097
      4          7           0       -0.638392    0.989906   -0.002078
      5          7           0        0.660468    0.947502    0.001345
      6          7           0        0.969170   -0.341490   -0.002745
      7          7           0       -0.060262   -1.158400   -0.003685
 ---------------------------------------------------------------------

 SCF Done:  E(RHF) =  -256.868717139     A.U. after    2 cycles

 The electronic state is 1-A.
 Alpha  occ. eigenvalues --  -15.77482 -15.74468 -15.70309 -15.68440 -11.32069
 Alpha  occ. eigenvalues --   -1.47119  -1.23670  -1.16164  -0.90953  -0.87885
 Alpha  occ. eigenvalues --   -0.78187  -0.68751  -0.65512  -0.56940  -0.50515
 Alpha  occ. eigenvalues --   -0.46990  -0.44819  -0.41322
 Alpha virt. eigenvalues --    0.02853   0.03862   0.08471   0.08570   0.11462
 Alpha virt. eigenvalues --    0.11578   0.12344   0.14996   0.16540   0.16721
 Alpha virt. eigenvalues --    0.17353   0.19015   0.19870   0.20245   0.21803

 Mulliken charges:
               1
     1  C    0.901110
     2  H   -0.178308
     3  H    0.046292
     4  N   -0.362060
     5  N   -0.151007
     6  N    0.116685
     7  N   -0.372712
 Sum of Mulliken charges =  -0.00000

 Dipole moment (field-independent basis, Debye):
    X=              1.2265    Y=             -1.9004    Z=              0.0658  Tot=              2.2628

 Test job not archived.
 1\1\GINC-SE212\SP\RHF\Aug-CC-pVDZ\C1H2N4\OHZDE\08-Apr-2025\0\\#t hf au
 g-cc-pvdz iop(5/13=1,5/36=2,99/5=2) pseudo=read geom=check guess=(read
 ,tcheck) scf=(maxcycle=1)\\title\\0,1\C,0,-1.05766,-0.301957,0.0002736
 5\H,0,-2.1,-0.587754,0.0223999\H,0,1.92908,-0.663153,0.0260971\N,0,-0.
 638396,0.989904,-0.00207764\N,0,0.660464,0.947504,0.00134516\N,0,0.969
 171,-0.341487,-0.00274532\N,0,-0.0602578,-1.1584,-0.00368491\\Version=
 ES64L-G16RevC.01\State=1-A\HF=-256.8687171\RMSD=3.323e-03\Dipole=0.482
 5414,-0.7476661,0.0258995\Quadrupole=5.5318707,-4.9422081,-0.5896626,-

 Normal termination of Gaussian 16 at Tue Apr  8 21:22:31 2025.
