 Gaussian 16, Revision C.01,

 ----------------------------------------------------------------------
 #t hf aug-cc-pvdz symm=none int=(grid=ultrafine) guess=(read,tcheck) s
 table=(opt,rrhf)
 ----------------------------------------------------------------------
 -----
 title
 -----
 Symbolic Z-matrix:
 Charge =  0 Multiplicity = 1

 SCF Done:  E(RHF) =  -456.270917405     A.U. after   11 cycles
 Normal termination of Gaussian 16 at Tue Apr  8 21:08:51 2025.
 Gaussian 16:  ES64L-G16RevC.01  3-Jul-2019

 ----------------------------------------------------------------------
 #t hf aug-cc-pvdz iop(5/13=1,5/36=2,99/5=2) pseudo=read geom=check gue
 ss=(read,tcheck) scf=(maxcycle=1)
 ----------------------------------------------------------------------
 -----
 title
 -----
 Structure from the checkpoint file:  "ANI1ccx_1844_conf77_mol1.chk"
 Charge =  0 Multiplicity = 1

                         Standard orientation:
 ---------------------------------------------------------------------
 Center     Atomic      Atomic             Coordinates (Angstroms)
 Number     Number       Type             X           Y           Z
 ---------------------------------------------------------------------
      1          1           0        1.035728   -1.435982   -0.835715
      2          1           0       -2.167747    1.734893   -1.290470
      3          1           0       -0.764929    1.364261   -0.866974
      4          1           0       -1.118861   -0.780984   -1.175730
      5          1           0       -1.143363   -1.775538   -0.008896
      6          1           0       -2.034521   -0.597921    2.204880
      7          1           0        2.579908   -1.588205   -0.962797
      8          1           0       -1.787489    0.293312    0.861385
      9          1           0        0.400578   -0.037761    1.808950
     10          1           0        1.773360   -0.167657    1.094710
     11          1           0        1.016093    1.709328    0.268652
     12          1           0        1.349542    0.861768   -0.946120
     13          8           0       -0.778105   -1.676389   -0.924664
     14          8           0        1.297331    0.448019    1.688520
     15          8           0       -1.691068    1.042082   -0.823458
     16          8           0       -1.470310   -0.507935    1.409030
     17          8           0        1.888169   -0.962544   -0.668179
     18          8           0        0.861696    1.709328   -0.700232
 ---------------------------------------------------------------------

 SCF Done:  E(RHF) =  -456.419604314     A.U. after    2 cycles

 The electronic state is 1-A.
 Alpha  occ. eigenvalues --  -20.60017 -20.59047 -20.58691 -20.56575 -20.56396
 Alpha  occ. eigenvalues --  -20.55508  -1.33418  -1.32100  -1.31587  -1.29218
 Alpha  occ. eigenvalues --   -1.28614  -1.26900  -0.76062  -0.74225  -0.73960
 Alpha  occ. eigenvalues --   -0.70812  -0.70228  -0.69348  -0.64380  -0.63378
 Alpha  occ. eigenvalues --   -0.62052  -0.59646  -0.59076  -0.56125  -0.54138
 Alpha  occ. eigenvalues --   -0.53789  -0.53532  -0.51617  -0.51319  -0.49416
 Alpha virt. eigenvalues --    0.02783   0.04069   0.04396   0.06820   0.07338
 Alpha virt. eigenvalues --    0.07639   0.08020   0.08168   0.08651   0.10231
 Alpha virt. eigenvalues --    0.10755   0.11252   0.16534   0.17688   0.18127

 Mulliken charges:
               1
     1  H    0.279887
     2  H    0.216821
     3  H    0.290646
     4  H    0.247075
     5  H    0.287065
     6  H    0.221262
     7  H    0.229019
     8  H    0.353980
     9  H    0.317617
    10  H    0.239983
    11  H    0.272306
    12  H    0.282347
    13  O   -0.507956
    14  O   -0.505239
    15  O   -0.516981
    16  O   -0.611899
    17  O   -0.528518
    18  O   -0.567417
 Sum of Mulliken charges =  -0.00000

 Dipole moment (field-independent basis, Debye):
    X=             -2.1022    Y=             -0.9221    Z=              0.2392  Tot=              2.3080

 Test job not archived.
 1\1\GINC-SE143\SP\RHF\Aug-CC-pVDZ\H12O6\OHZDE\08-Apr-2025\0\\#t hf aug
 -cc-pvdz iop(5/13=1,5/36=2,99/5=2) pseudo=read geom=check guess=(read,
 tcheck) scf=(maxcycle=1)\\title\\0,1\H,0,1.03573,-1.43598,-0.835715\H,
 0,-2.16775,1.73489,-1.29047\H,0,-0.764932,1.36426,-0.866974\H,0,-1.118
 86,-0.780985,-1.17573\H,0,-1.14336,-1.77554,-0.00889626\H,0,-2.03452,-
 0.597924,2.20488\H,0,2.57991,-1.5882,-0.962797\H,0,-1.78749,0.293309,0
 .861385\H,0,0.400578,-0.0377595,1.80895\H,0,1.77336,-0.167654,1.09471\
 H,0,1.01609,1.70933,0.268652\H,0,1.34954,0.861771,-0.94612\O,0,-0.7781

 Normal termination of Gaussian 16 at Tue Apr  8 21:08:56 2025.
