 Gaussian 16, Revision C.01,

 ----------------------------------------------------------------------
 #t hf aug-cc-pvdz symm=none int=(grid=ultrafine) guess=(read,tcheck) s
 table=(opt,rrhf)
 ----------------------------------------------------------------------
 -----
 title
 -----
 Symbolic Z-matrix:
 Charge =  0 Multiplicity = 1

 SCF Done:  E(RHF) =  -830.283765999     A.U. after   14 cycles
 Normal termination of Gaussian 16 at Tue Apr  8 19:36:53 2025.
 Gaussian 16:  ES64L-G16RevC.01  3-Jul-2019

 ----------------------------------------------------------------------
 #t hf aug-cc-pvdz iop(5/13=1,5/36=2,99/5=2) pseudo=read geom=check gue
 ss=(read,tcheck) scf=(maxcycle=1)
 ----------------------------------------------------------------------
 -----
 title
 -----
 Structure from the checkpoint file:  "ANI1ccx_1406_conf6_mol1.chk"
 Charge =  0 Multiplicity = 1

                         Standard orientation:
 ---------------------------------------------------------------------
 Center     Atomic      Atomic             Coordinates (Angstroms)
 Number     Number       Type             X           Y           Z
 ---------------------------------------------------------------------
      1          6           0        2.732460   -0.347383    0.214140
      2          6           0        1.426840   -0.713317   -0.454196
      3          6           0        2.813770    1.129268    0.531082
      4          6           0       -0.773515    0.169543   -1.063381
      5          6           0       -1.642460    1.353388   -0.738197
      6          6           0       -1.591150   -1.121002   -0.662714
      7          6           0       -2.080200   -1.000002    0.800199
      8          1           0       -3.243890    2.152948   -1.181841
      9          1           0       -3.195600   -1.904432    2.062579
     10          1           0       -0.967066   -2.018412   -0.703886
     11          1           0       -2.498440   -1.219862   -1.264491
     12          1           0       -0.607717    0.097297   -2.134951
     13          1           0        0.524455    0.827168    0.516258
     14          1           0        3.852580    1.386878    0.765662
     15          1           0        2.674720    1.698578   -0.479021
     16          1           0        2.735140   -0.849524    1.178479
     17          1           0        3.964150   -0.339180   -1.392051
     18          1           0        3.625690   -1.876462   -0.856812
     19          1           0        2.232150    1.993008    2.230809
     20          7           0        3.888950   -0.899366   -0.558667
     21          7           0        0.450525    0.259969   -0.356729
     22          8           0       -2.910310   -2.017672    1.154199
     23          8           0        1.278650   -1.781922   -1.025501
     24          8           0        1.920270    1.390588    1.572289
     25          8           0       -1.339790    2.329508   -0.073780
     26          8           0       -1.653030   -0.201614    1.618889
     27          8           0       -2.894160    1.244208   -1.257921
 ---------------------------------------------------------------------

 SCF Done:  E(RHF) =  -830.537790165     A.U. after    2 cycles

 The electronic state is 1-A.
 Alpha  occ. eigenvalues --  -20.63753 -20.62875 -20.60018 -20.57369 -20.57059
 Alpha  occ. eigenvalues --  -20.54696 -15.64150 -15.61996 -11.41364 -11.41023
 Alpha  occ. eigenvalues --  -11.36508 -11.31646 -11.31245 -11.27964 -11.26996
 Alpha  occ. eigenvalues --   -1.43556  -1.42324  -1.36589  -1.35532  -1.32943
 Alpha  occ. eigenvalues --   -1.32577  -1.21284  -1.15676  -1.06805  -0.99989
 Alpha  occ. eigenvalues --   -0.96246  -0.88539  -0.84785  -0.82156  -0.79037
 Alpha  occ. eigenvalues --   -0.75673  -0.73727  -0.72551  -0.72151  -0.70465
 Alpha  occ. eigenvalues --   -0.67887  -0.67534  -0.66813  -0.65888  -0.64418
 Alpha  occ. eigenvalues --   -0.63617  -0.62515  -0.60946  -0.59845  -0.58927
 Alpha  occ. eigenvalues --   -0.57465  -0.56705  -0.55977  -0.52773  -0.51547
 Alpha  occ. eigenvalues --   -0.51112  -0.49991  -0.48331  -0.47054  -0.46769
 Alpha  occ. eigenvalues --   -0.45206  -0.40487  -0.39091
 Alpha virt. eigenvalues --    0.03004   0.03351   0.03577   0.04316   0.05184
 Alpha virt. eigenvalues --    0.05435   0.06099   0.06781   0.07392   0.07948
 Alpha virt. eigenvalues --    0.08523   0.10358   0.10619   0.11577   0.12308

 Mulliken charges:
               1
     1  C    0.231858
     2  C    0.111488
     3  C    0.967192
     4  C    0.374055
     5  C    0.940729
     6  C    0.247186
     7  C    0.594683
     8  H    0.229799
     9  H    0.166218
    10  H    0.014978
    11  H   -0.006902
    12  H   -0.171920
    13  H    0.225247
    14  H   -0.132346
    15  H    0.143092
    16  H   -0.067151
    17  H    0.022236
    18  H    0.123473
    19  H    0.161308
    20  N   -0.439807
    21  N   -0.396474
    22  O   -0.530065
    23  O   -0.577217
    24  O   -0.564588
    25  O   -0.552381
    26  O   -0.494330
    27  O   -0.620362
 Sum of Mulliken charges =  -0.00000

 Dipole moment (field-independent basis, Debye):
    X=             -0.5428    Y=              1.7442    Z=             -0.5771  Tot=              1.9157

 Test job not archived.
 1\1\GINC-SE098\SP\RHF\Aug-CC-pVDZ\C7H12N2O6\OHZDE\08-Apr-2025\0\\#t hf
  aug-cc-pvdz iop(5/13=1,5/36=2,99/5=2) pseudo=read geom=check guess=(r
 ead,tcheck) scf=(maxcycle=1)\\title\\0,1\C,0,2.73246,-0.347381,0.21414
 1\C,0,1.42684,-0.713315,-0.454195\C,0,2.81377,1.12927,0.531083\C,0,-0.
 773515,0.169545,-1.06338\C,0,-1.64246,1.35339,-0.738196\C,0,-1.59115,-
 1.121,-0.662713\C,0,-2.0802,-1.,0.8002\H,0,-3.24389,2.15295,-1.18184\H
 ,0,-3.1956,-1.90443,2.06258\H,0,-0.967066,-2.01841,-0.703885\H,0,-2.49
 844,-1.21986,-1.26449\H,0,-0.607717,0.0972986,-2.13495\H,0,0.524455,0.

 Normal termination of Gaussian 16 at Tue Apr  8 19:37:23 2025.
