 Gaussian 16, Revision C.01,

 ----------------------------------------------------------------------
 #t hf aug-cc-pvdz symm=none int=(grid=ultrafine) guess=(read,tcheck) s
 table=(opt,rrhf)
 ----------------------------------------------------------------------
 -----
 title
 -----
 Symbolic Z-matrix:
 Charge =  0 Multiplicity = 1

 SCF Done:  E(RHF) =  -504.796322485     A.U. after   14 cycles
 Normal termination of Gaussian 16 at Tue Apr  8 19:26:00 2025.
 Gaussian 16:  ES64L-G16RevC.01  3-Jul-2019

 ----------------------------------------------------------------------
 #t hf aug-cc-pvdz iop(5/13=1,5/36=2,99/5=2) pseudo=read geom=check gue
 ss=(read,tcheck) scf=(maxcycle=1)
 ----------------------------------------------------------------------
 -----
 title
 -----
 Structure from the checkpoint file:  "ANI1ccx_1369_conf2_mol2.chk"
 Charge =  0 Multiplicity = 1

                         Standard orientation:
 ---------------------------------------------------------------------
 Center     Atomic      Atomic             Coordinates (Angstroms)
 Number     Number       Type             X           Y           Z
 ---------------------------------------------------------------------
      1          6           0        2.845330    1.110089   -0.071206
      2          6           0        2.107150   -0.214693   -0.009639
      3          6           0        2.759820   -1.353731    0.033845
      4          6           0        0.616803   -0.116270    0.033015
      5          6           0       -1.377860   -1.073980    0.027399
      6          6           0       -1.198010    1.182630   -0.039497
      7          1           0       -2.760999    2.449010    0.276592
      8          1           0       -1.226649    3.188110    0.073836
      9          1           0       -3.129370   -2.078540   -0.297389
     10          1           0       -1.701211   -3.050020   -0.209986
     11          1           0        3.834280   -1.315461    0.058745
     12          1           0        3.897740    0.993757   -0.400833
     13          1           0        2.850910    1.539479    0.948485
     14          1           0        2.325300    1.836999   -0.687340
     15          1           0        2.282740   -2.325351    0.045291
     16          7           0       -1.798769    2.402070   -0.022098
     17          7           0       -0.028099   -1.254320    0.040122
     18          7           0       -2.168080   -2.182510    0.006357
     19          7           0       -2.009720    0.100565   -0.005842
     20          7           0        0.162934    1.156730    0.031332
 ---------------------------------------------------------------------

 SCF Done:  E(RHF) =  -504.944555979     A.U. after    2 cycles

 The electronic state is 1-A.
 Alpha  occ. eigenvalues --  -15.64953 -15.64764 -15.61437 -15.61418 -15.61277
 Alpha  occ. eigenvalues --  -11.37853 -11.37706 -11.33533 -11.24112 -11.22890
 Alpha  occ. eigenvalues --  -11.21991  -1.32419  -1.24014  -1.20518  -1.13226
 Alpha  occ. eigenvalues --   -1.11615  -1.06408  -0.92496  -0.89729  -0.87812
 Alpha  occ. eigenvalues --   -0.77619  -0.77036  -0.71536  -0.68089  -0.66199
 Alpha  occ. eigenvalues --   -0.63341  -0.62849  -0.62270  -0.57510  -0.55787
 Alpha  occ. eigenvalues --   -0.55451  -0.52687  -0.52061  -0.49262  -0.47655
 Alpha  occ. eigenvalues --   -0.42341  -0.41258  -0.38705  -0.36054  -0.34904
 Alpha virt. eigenvalues --    0.03060   0.03112   0.03685   0.05271   0.05733
 Alpha virt. eigenvalues --    0.06034   0.07054   0.07583   0.08575   0.09280
 Alpha virt. eigenvalues --    0.10040   0.10337   0.11562   0.12779   0.13169

 Mulliken charges:
               1
     1  C    0.353684
     2  C   -0.355347
     3  C    1.446415
     4  C    0.247779
     5  C    0.794577
     6  C    0.783533
     7  H   -0.043846
     8  H   -0.055368
     9  H   -0.025322
    10  H    0.000986
    11  H   -0.466173
    12  H   -0.111667
    13  H    0.119116
    14  H    0.001030
    15  H   -0.446087
    16  N   -0.183158
    17  N   -0.526634
    18  N   -0.274156
    19  N   -0.625763
    20  N   -0.633599
 Sum of Mulliken charges =  -0.00000

 Dipole moment (field-independent basis, Debye):
    X=             -1.5892    Y=              0.1926    Z=             -0.2405  Tot=              1.6188

 Test job not archived.
 1\1\GINC-SE220\SP\RHF\Aug-CC-pVDZ\C6H9N5\OHZDE\08-Apr-2025\0\\#t hf au
 g-cc-pvdz iop(5/13=1,5/36=2,99/5=2) pseudo=read geom=check guess=(read
 ,tcheck) scf=(maxcycle=1)\\title\\0,1\C,0,2.84533,1.11009,-0.0712061\C
 ,0,2.10715,-0.214692,-0.00963903\C,0,2.75982,-1.35373,0.0338448\C,0,0.
 616803,-0.11627,0.0330151\C,0,-1.37786,-1.07398,0.0273993\C,0,-1.19801
 ,1.18263,-0.0394966\H,0,-2.761,2.44901,0.276592\H,0,-1.22665,3.18811,0
 .0738361\H,0,-3.12937,-2.07854,-0.297389\H,0,-1.70121,-3.05002,-0.2099
 86\H,0,3.83428,-1.31546,0.0587452\H,0,3.89774,0.993758,-0.400833\H,0,2

 Normal termination of Gaussian 16 at Tue Apr  8 19:26:12 2025.
