 Gaussian 16, Revision C.01,

 ----------------------------------------------------------------------
 #t hf aug-cc-pvdz symm=none int=(grid=ultrafine) guess=(read,tcheck) s
 table=(opt,rrhf)
 ----------------------------------------------------------------------
 -----
 title
 -----
 Symbolic Z-matrix:
 Charge =  0 Multiplicity = 1

 SCF Done:  E(RHF) =  -434.644629703     A.U. after   14 cycles
 Normal termination of Gaussian 16 at Tue Apr  8 22:07:36 2025.
 Gaussian 16:  ES64L-G16RevC.01  3-Jul-2019

 ----------------------------------------------------------------------
 #t hf aug-cc-pvdz iop(5/13=1,5/36=2,99/5=2) pseudo=read geom=check gue
 ss=(read,tcheck) scf=(maxcycle=1)
 ----------------------------------------------------------------------
 -----
 title
 -----
 Structure from the checkpoint file:  "ANI1ccx_938_conf1_mol1.chk"
 Charge =  0 Multiplicity = 1

                         Standard orientation:
 ---------------------------------------------------------------------
 Center     Atomic      Atomic             Coordinates (Angstroms)
 Number     Number       Type             X           Y           Z
 ---------------------------------------------------------------------
      1          6           0        0.974817    1.564150    0.102310
      2          6           0       -0.507482   -0.302303   -0.834363
      3          6           0       -1.751669   -0.133876   -0.004768
      4          6           0        1.767351   -0.761688   -0.058219
      5          1           0        0.758271    1.799530    1.138650
      6          1           0        2.024731    1.795840   -0.083518
      7          1           0        0.319220    2.181670   -0.537319
      8          1           0       -0.578262    0.152249   -1.791790
      9          1           0       -0.328923   -1.387330   -0.927093
     10          1           0       -0.578468   -0.397466    1.348880
     11          1           0        1.446771   -1.814330   -0.274939
     12          7           0        0.762854    0.141443   -0.204383
     13          8           0       -1.539889   -0.346203    1.271990
     14          8           0       -2.838239    0.084850   -0.472740
     15          8           0        2.965451   -0.428392    0.116753
 ---------------------------------------------------------------------

 SCF Done:  E(RHF) =  -434.782520758     A.U. after    2 cycles

 The electronic state is 1-A.
 Alpha  occ. eigenvalues --  -20.65116 -20.57892 -20.56640 -15.70014 -11.41871
 Alpha  occ. eigenvalues --  -11.39866 -11.33155 -11.30194  -1.46248  -1.35659
 Alpha  occ. eigenvalues --   -1.35227  -1.24918  -1.04204  -0.98965  -0.87097
 Alpha  occ. eigenvalues --   -0.81754  -0.78726  -0.74151  -0.71674  -0.68361
 Alpha  occ. eigenvalues --   -0.67233  -0.64761  -0.62262  -0.60537  -0.60175
 Alpha  occ. eigenvalues --   -0.57127  -0.55943  -0.51474  -0.49677  -0.47173
 Alpha  occ. eigenvalues --   -0.41714
 Alpha virt. eigenvalues --    0.02669   0.03372   0.03793   0.05472   0.06345
 Alpha virt. eigenvalues --    0.06663   0.07228   0.09399   0.09689   0.11687
 Alpha virt. eigenvalues --    0.11934   0.12313   0.13112   0.13599   0.14005

 Mulliken charges:
               1
     1  C    0.823241
     2  C    0.641767
     3  C    0.480904
     4  C    0.559686
     5  H   -0.139285
     6  H   -0.176235
     7  H   -0.111814
     8  H   -0.275085
     9  H   -0.013522
    10  H    0.271046
    11  H   -0.207645
    12  N   -0.478935
    13  O   -0.387674
    14  O   -0.429521
    15  O   -0.556929
 Sum of Mulliken charges =  -0.00000

 Dipole moment (field-independent basis, Debye):
    X=              0.7259    Y=             -0.1952    Z=             -0.7680  Tot=              1.0746

 Test job not archived.
 1\1\GINC-SE457\SP\RHF\Aug-CC-pVDZ\C4H7N1O3\OHZDE\08-Apr-2025\0\\#t hf
 aug-cc-pvdz iop(5/13=1,5/36=2,99/5=2) pseudo=read geom=check guess=(re
 ad,tcheck) scf=(maxcycle=1)\\title\\0,1\C,0,0.974816,1.56415,0.10231\C
 ,0,-0.507483,-0.302303,-0.834363\C,0,-1.75167,-0.133876,-0.0047683\C,0
 ,1.76735,-0.761688,-0.0582194\H,0,0.75827,1.79953,1.13865\H,0,2.02473,
 1.79584,-0.0835183\H,0,0.319219,2.18167,-0.537319\H,0,-0.578263,0.1522
 49,-1.79179\H,0,-0.328924,-1.38733,-0.927093\H,0,-0.578469,-0.397466,1
 .34888\H,0,1.44677,-1.81433,-0.274939\N,0,0.762853,0.141443,-0.204383\

 Normal termination of Gaussian 16 at Tue Apr  8 22:07:42 2025.
