 Gaussian 16, Revision C.01,

 ----------------------------------------------------------------------
 #t hf aug-cc-pvdz symm=none int=(grid=ultrafine) guess=(read,tcheck) s
 table=(opt,rrhf)
 ----------------------------------------------------------------------
 -----
 title
 -----
 Symbolic Z-matrix:
 Charge =  0 Multiplicity = 1

 SCF Done:  E(RHF) =  -368.292343365     A.U. after   16 cycles
 Normal termination of Gaussian 16 at Tue Apr  8 21:46:50 2025.
 Gaussian 16:  ES64L-G16RevC.01  3-Jul-2019

 ----------------------------------------------------------------------
 #t hf aug-cc-pvdz iop(5/13=1,5/36=2,99/5=2) pseudo=read geom=check gue
 ss=(read,tcheck) scf=(maxcycle=1)
 ----------------------------------------------------------------------
 -----
 title
 -----
 Structure from the checkpoint file:  "ANI1ccx_608_conf6_mol1.chk"
 Charge =  0 Multiplicity = 1

                         Standard orientation:
 ---------------------------------------------------------------------
 Center     Atomic      Atomic             Coordinates (Angstroms)
 Number     Number       Type             X           Y           Z
 ---------------------------------------------------------------------
      1          6           0        1.667480    0.117975   -0.065728
      2          6           0        0.260962    0.127360    0.131499
      3          7           0        2.832180   -0.068128   -0.013820
      4          7           0       -0.502388    1.178100    0.005540
      5          7           0       -1.782620    0.576196   -0.031589
      6          7           0       -1.739330   -0.636318   -0.032546
      7          8           0       -0.403195   -1.102620    0.014034
 ---------------------------------------------------------------------

 SCF Done:  E(RHF) =  -368.394365144     A.U. after    2 cycles

 The electronic state is 1-A.
 Alpha  occ. eigenvalues --  -20.74863 -15.81937 -15.78580 -15.75467 -15.72549
 Alpha  occ. eigenvalues --  -11.46495 -11.36161  -1.56325  -1.36413  -1.27172
 Alpha  occ. eigenvalues --   -1.23260  -1.00412  -0.93796  -0.83436  -0.76314
 Alpha  occ. eigenvalues --   -0.74178  -0.63416  -0.61079  -0.57280  -0.56450
 Alpha  occ. eigenvalues --   -0.55759  -0.54754  -0.50201  -0.46825
 Alpha virt. eigenvalues --    0.01001   0.05779   0.06598   0.07754   0.08524
 Alpha virt. eigenvalues --    0.10460   0.10527   0.11037   0.11237   0.12278
 Alpha virt. eigenvalues --    0.15117   0.16019   0.17144   0.18395   0.19528

 Mulliken charges:
               1
     1  C   -0.384635
     2  C    1.397027
     3  N   -0.114838
     4  N   -0.402357
     5  N   -0.015907
     6  N    0.145153
     7  O   -0.624443
 Sum of Mulliken charges =  -0.00000

 Dipole moment (field-independent basis, Debye):
    X=             -0.5536    Y=             -0.0605    Z=              0.2250  Tot=              0.6007

 Test job not archived.
 1\1\GINC-SE339\SP\RHF\Aug-CC-pVDZ\C2N4O1\OHZDE\08-Apr-2025\0\\#t hf au
 g-cc-pvdz iop(5/13=1,5/36=2,99/5=2) pseudo=read geom=check guess=(read
 ,tcheck) scf=(maxcycle=1)\\title\\0,1\C,0,1.66748,0.117975,-0.0657278\
 C,0,0.260962,0.12736,0.131499\N,0,2.83218,-0.0681285,-0.0138196\N,0,-0
 .502388,1.1781,0.00553989\N,0,-1.78262,0.576196,-0.0315886\N,0,-1.7393
 3,-0.636318,-0.032546\O,0,-0.403195,-1.10262,0.0140343\\Version=ES64L-
 G16RevC.01\State=1-A\HF=-368.3943651\RMSD=4.172e-03\Dipole=-0.2178193,
 -0.0237911,0.0885182\Quadrupole=-4.3303412,0.244081,4.0862602,0.415668

 Normal termination of Gaussian 16 at Tue Apr  8 21:46:52 2025.
