 Gaussian 16, Revision C.01,

 ----------------------------------------------------------------------
 #t hf aug-cc-pvdz symm=none int=(grid=ultrafine) guess=(read,tcheck) s
 table=(opt,rrhf)
 ----------------------------------------------------------------------
 -----
 title
 -----
 Symbolic Z-matrix:
 Charge =  0 Multiplicity = 1

 SCF Done:  E(RHF) =  -433.495041340     A.U. after   15 cycles
 Normal termination of Gaussian 16 at Tue Apr  8 22:00:21 2025.
 Gaussian 16:  ES64L-G16RevC.01  3-Jul-2019

 ----------------------------------------------------------------------
 #t hf aug-cc-pvdz iop(5/13=1,5/36=2,99/5=2) pseudo=read geom=check gue
 ss=(read,tcheck) scf=(maxcycle=1)
 ----------------------------------------------------------------------
 -----
 title
 -----
 Structure from the checkpoint file:  "ANI1ccx_898_conf1_mol2.chk"
 Charge =  0 Multiplicity = 1

                         Standard orientation:
 ---------------------------------------------------------------------
 Center     Atomic      Atomic             Coordinates (Angstroms)
 Number     Number       Type             X           Y           Z
 ---------------------------------------------------------------------
      1          6           0        1.106830   -0.523467    0.000294
      2          6           0        1.348487    0.962477   -0.303282
      3          6           0        0.215439    1.593952    0.337647
      4          6           0       -1.288130   -0.281403    0.042176
      5          1           0        2.384137    1.218176    0.082864
      6          1           0        1.377487    1.203464   -1.431940
      7          1           0        0.198441    1.428572    1.377650
      8          1           0        0.184263    2.659602    0.262509
      9          1           0       -0.345470   -1.928429    0.534518
     10          7           0       -0.145322   -0.942170    0.394874
     11          8           0        2.022512   -1.322325   -0.097000
     12          8           0       -1.091893    1.094459   -0.166704
     13          8           0       -2.315289   -0.834078   -0.242637
 ---------------------------------------------------------------------

 SCF Done:  E(RHF) =  -433.629464099     A.U. after    2 cycles

 The electronic state is 1-A.
 Alpha  occ. eigenvalues --  -20.64106 -20.57830 -20.57605 -15.70527 -11.45241
 Alpha  occ. eigenvalues --  -11.40910 -11.32910 -11.29834  -1.43929  -1.38354
 Alpha  occ. eigenvalues --   -1.34952  -1.24435  -1.10304  -0.93870  -0.90088
 Alpha  occ. eigenvalues --   -0.81987  -0.76129  -0.73317  -0.70809  -0.66822
 Alpha  occ. eigenvalues --   -0.66284  -0.64244  -0.62469  -0.60746  -0.57415
 Alpha  occ. eigenvalues --   -0.53392  -0.51349  -0.50506  -0.47150  -0.45328
 Alpha virt. eigenvalues --    0.02463   0.03823   0.04484   0.04932   0.06191
 Alpha virt. eigenvalues --    0.08785   0.08921   0.10385   0.11048   0.11287
 Alpha virt. eigenvalues --    0.13108   0.13668   0.13867   0.13976   0.14490

 Mulliken charges:
               1
     1  C    0.547423
     2  C   -0.170199
     3  C    1.030462
     4  C    0.719626
     5  H    0.098817
     6  H    0.126667
     7  H   -0.189255
     8  H   -0.233665
     9  H   -0.031863
    10  N   -0.309594
    11  O   -0.512657
    12  O   -0.664336
    13  O   -0.411427
 Sum of Mulliken charges =  -0.00000

 Dipole moment (field-independent basis, Debye):
    X=              2.3154    Y=              3.0810    Z=              1.5767  Tot=              4.1641

 Test job not archived.
 1\1\GINC-SE366\SP\RHF\Aug-CC-pVDZ\C4H5N1O3\OHZDE\08-Apr-2025\0\\#t hf
 aug-cc-pvdz iop(5/13=1,5/36=2,99/5=2) pseudo=read geom=check guess=(re
 ad,tcheck) scf=(maxcycle=1)\\title\\0,1\C,0,1.10683,-0.523471,0.000293
 86\C,0,1.34849,0.962473,-0.303282\C,0,0.215443,1.59395,0.337647\C,0,-1
 .28813,-0.281402,0.0421761\H,0,2.38414,1.21817,0.0828639\H,0,1.37749,1
 .20346,-1.43194\H,0,0.198445,1.42857,1.37765\H,0,0.184269,2.6596,0.262
 509\H,0,-0.345473,-1.92843,0.534518\N,0,-0.145323,-0.942171,0.394874\O
 ,0,2.02251,-1.32233,-0.0970002\O,0,-1.09189,1.09446,-0.166704\O,0,-2.3

 Normal termination of Gaussian 16 at Tue Apr  8 22:00:25 2025.
