 Gaussian 16, Revision C.01,

 ----------------------------------------------------------------------
 #t hf aug-cc-pvdz symm=none int=(grid=ultrafine) guess=(read,tcheck) s
 table=(opt,rrhf)
 ----------------------------------------------------------------------
 -----
 title
 -----
 Symbolic Z-matrix:
 Charge =  0 Multiplicity = 1

 SCF Done:  E(RHF) =  -752.376357067     A.U. after   15 cycles
 Normal termination of Gaussian 16 at Tue Apr  8 19:55:46 2025.
 Gaussian 16:  ES64L-G16RevC.01  3-Jul-2019

 ----------------------------------------------------------------------
 #t hf aug-cc-pvdz iop(5/13=1,5/36=2,99/5=2) pseudo=read geom=check gue
 ss=(read,tcheck) scf=(maxcycle=1)
 ----------------------------------------------------------------------
 -----
 title
 -----
 Structure from the checkpoint file:  "ANI1ccx_1572_conf12_mol1.chk"
 Charge =  0 Multiplicity = 1

                         Standard orientation:
 ---------------------------------------------------------------------
 Center     Atomic      Atomic             Coordinates (Angstroms)
 Number     Number       Type             X           Y           Z
 ---------------------------------------------------------------------
      1          6           0        3.646500   -1.141080    0.117243
      2          6           0        2.166010   -0.974872   -0.243337
      3          6           0        0.248467    0.459885    0.021512
      4          6           0       -0.095257    1.806440   -0.239533
      5          6           0       -0.494594   -0.042018    1.244420
      6          6           0       -1.814940   -0.447129    0.766666
      7          6           0       -2.998770    0.321448    0.491282
      8          6           0       -3.014090   -1.693510   -0.450461
      9          1           0       -0.903270    2.969020   -1.423230
     10          1           0       -4.720250   -0.337486   -0.567460
     11          1           0       -3.529420   -2.589540   -0.852917
     12          1           0       -3.249390    1.279800    0.973356
     13          1           0       -0.556580    0.696019    2.062170
     14          1           0        0.024595   -0.943782    1.478620
     15          1           0       -0.179790   -0.181850   -0.799151
     16          1           0        2.296300    1.031490    0.202101
     17          1           0        3.604060   -1.457470    1.079460
     18          1           0        3.938140   -2.041060   -0.554842
     19          1           0        4.295790    0.485794   -0.872689
     20          1           0        5.277570    0.171844    0.263575
     21          7           0        4.338830    0.220962    0.107182
     22          7           0        1.660910    0.260458    0.048829
     23          7           0       -1.826730   -1.652300    0.073132
     24          7           0       -3.772700   -0.567965   -0.202052
     25          8           0        1.435580   -1.830180   -0.626774
     26          8           0        0.078997    2.765990    0.494362
     27          8           0       -0.884566    1.983460   -1.295760
 ---------------------------------------------------------------------

 SCF Done:  E(RHF) =  -752.602434618     A.U. after    2 cycles

 The electronic state is 1-A.
 Alpha  occ. eigenvalues --  -20.62386 -20.55829 -20.53314 -15.68901 -15.63719
 Alpha  occ. eigenvalues --  -15.63569 -15.60803 -11.39116 -11.35495 -11.30850
 Alpha  occ. eigenvalues --  -11.28688 -11.27624 -11.27443 -11.25714 -11.22864
 Alpha  occ. eigenvalues --   -1.43348  -1.36815  -1.31355  -1.30173  -1.21118
 Alpha  occ. eigenvalues --   -1.16970  -1.14111  -1.06941  -0.99710  -0.95778
 Alpha  occ. eigenvalues --   -0.92333  -0.82304  -0.81154  -0.78314  -0.76457
 Alpha  occ. eigenvalues --   -0.73756  -0.72955  -0.71501  -0.69143  -0.67955
 Alpha  occ. eigenvalues --   -0.65551  -0.64091  -0.62835  -0.62320  -0.60964
 Alpha  occ. eigenvalues --   -0.60026  -0.59592  -0.57743  -0.56605  -0.55890
 Alpha  occ. eigenvalues --   -0.52768  -0.52579  -0.50356  -0.49094  -0.47155
 Alpha  occ. eigenvalues --   -0.44346  -0.43263  -0.42392  -0.39353  -0.38713
 Alpha  occ. eigenvalues --   -0.30116
 Alpha virt. eigenvalues --    0.02600   0.02965   0.03804   0.04265   0.05037
 Alpha virt. eigenvalues --    0.05432   0.05660   0.06625   0.07952   0.08264
 Alpha virt. eigenvalues --    0.08474   0.09391   0.10012   0.11269   0.12027

 Mulliken charges:
               1
     1  C    0.847732
     2  C    0.078573
     3  C   -0.371787
     4  C    0.686638
     5  C    0.593561
     6  C   -0.264008
     7  C    1.046071
     8  C    0.797360
     9  H    0.246895
    10  H   -0.038079
    11  H   -0.293207
    12  H   -0.201358
    13  H    0.022270
    14  H    0.039085
    15  H    0.071102
    16  H   -0.009592
    17  H   -0.161760
    18  H    0.176456
    19  H    0.086506
    20  H   -0.154786
    21  N   -0.206146
    22  N   -0.308679
    23  N   -0.532718
    24  N   -0.541757
    25  O   -0.472290
    26  O   -0.588960
    27  O   -0.547124
 Sum of Mulliken charges =   0.00000

 Dipole moment (field-independent basis, Debye):
    X=             -0.3509    Y=              1.7859    Z=             -1.6015  Tot=              2.4243

 Test job not archived.
 1\1\GINC-SE462\SP\RHF\Aug-CC-pVDZ\C8H12N4O3\OHZDE\08-Apr-2025\0\\#t hf
  aug-cc-pvdz iop(5/13=1,5/36=2,99/5=2) pseudo=read geom=check guess=(r
 ead,tcheck) scf=(maxcycle=1)\\title\\0,1\C,0,3.6465,-1.14108,0.117243\
 C,0,2.16601,-0.974872,-0.243337\C,0,0.248467,0.459885,0.0215121\C,0,-0
 .0952569,1.80644,-0.239533\C,0,-0.494594,-0.042018,1.24442\C,0,-1.8149
 4,-0.447129,0.766666\C,0,-2.99877,0.321448,0.491282\C,0,-3.01409,-1.69
 351,-0.450461\H,0,-0.90327,2.96902,-1.42323\H,0,-4.72025,-0.337486,-0.
 56746\H,0,-3.52942,-2.58954,-0.852917\H,0,-3.24939,1.2798,0.973356\H,0

 Normal termination of Gaussian 16 at Tue Apr  8 19:56:14 2025.
