 Gaussian 16, Revision C.01,

 ----------------------------------------------------------------------
 #t hf aug-cc-pvdz symm=none int=(grid=ultrafine) guess=(read,tcheck) s
 table=(opt,rrhf)
 ----------------------------------------------------------------------
 -----
 title
 -----
 Symbolic Z-matrix:
 Charge =  0 Multiplicity = 1

 SCF Done:  E(RHF) =  -774.558901240     A.U. after   15 cycles
 Normal termination of Gaussian 16 at Tue Apr  8 20:11:17 2025.
 Gaussian 16:  ES64L-G16RevC.01  3-Jul-2019

 ----------------------------------------------------------------------
 #t hf aug-cc-pvdz iop(5/13=1,5/36=2,99/5=2) pseudo=read geom=check gue
 ss=(read,tcheck) scf=(maxcycle=1)
 ----------------------------------------------------------------------
 -----
 title
 -----
 Structure from the checkpoint file:  "ANI1ccx_1610_conf23_mol1.chk"
 Charge =  0 Multiplicity = 1

                         Standard orientation:
 ---------------------------------------------------------------------
 Center     Atomic      Atomic             Coordinates (Angstroms)
 Number     Number       Type             X           Y           Z
 ---------------------------------------------------------------------
      1          6           0       -1.969279   -1.487010    0.347521
      2          6           0       -2.434409   -0.412439   -0.686611
      3          6           0       -2.248519   -1.127770    1.845640
      4          6           0       -0.203683    0.679324   -0.204317
      5          6           0       -0.067490    1.995450    0.520385
      6          6           0        0.827918    0.303375   -1.291410
      7          6           0        2.330741    0.452119   -0.799895
      8          6           0        3.004531   -0.689635   -0.148737
      9          1           0       -1.844459    2.500900    0.213061
     10          1           0        2.748311   -2.325340    1.004140
     11          1           0        1.318831   -1.687210    0.374862
     12          1           0        2.347321    1.230670   -0.043278
     13          1           0        2.972531    0.989767   -1.514850
     14          1           0        0.617481    0.911407   -2.149330
     15          1           0        0.616553   -0.737832   -1.594050
     16          1           0       -1.684609    1.261580   -1.604630
     17          1           0       -3.042329   -0.452071    2.036650
     18          1           0       -1.351089   -0.530627    2.109260
     19          1           0       -2.294019   -2.067470    2.502100
     20          1           0       -2.697769   -2.277260    0.191600
     21          1           0       -0.526076   -2.310240   -0.738172
     22          1           0       -0.591710   -2.980970    0.744493
     23          1           0       -0.186217   -0.089071    0.611023
     24          7           0       -0.612888   -2.055040    0.214165
     25          7           0       -1.533509    0.736168   -0.815022
     26          7           0        2.329241   -1.711570    0.387587
     27          8           0        4.238161   -0.591703   -0.035427
     28          8           0       -3.356199   -0.533821   -1.444200
     29          8           0        0.990389    2.159480    1.134480
     30          8           0       -1.012539    2.903090    0.576964
 ---------------------------------------------------------------------

 SCF Done:  E(RHF) =  -774.793496990     A.U. after    2 cycles

 The electronic state is 1-A.
 Alpha  occ. eigenvalues --  -20.64932 -20.59521 -20.55694 -20.50759 -15.67626
 Alpha  occ. eigenvalues --  -15.67474 -15.63682 -11.41668 -11.40791 -11.35207
 Alpha  occ. eigenvalues --  -11.32968 -11.32294 -11.27983 -11.27641 -11.23984
 Alpha  occ. eigenvalues --   -1.44424  -1.40429  -1.32604  -1.31820  -1.24162
 Alpha  occ. eigenvalues --   -1.21204  -1.17855  -1.07114  -1.03910  -0.99035
 Alpha  occ. eigenvalues --   -0.92009  -0.90556  -0.85690  -0.82448  -0.80271
 Alpha  occ. eigenvalues --   -0.76384  -0.73720  -0.73058  -0.70771  -0.70220
 Alpha  occ. eigenvalues --   -0.68069  -0.67689  -0.66197  -0.65595  -0.64411
 Alpha  occ. eigenvalues --   -0.62393  -0.61535  -0.60012  -0.59076  -0.58512
 Alpha  occ. eigenvalues --   -0.56935  -0.56769  -0.55222  -0.54773  -0.53318
 Alpha  occ. eigenvalues --   -0.49991  -0.49331  -0.47438  -0.46454  -0.44607
 Alpha  occ. eigenvalues --   -0.43134  -0.41395  -0.40363
 Alpha virt. eigenvalues --    0.01304   0.02590   0.02782   0.03776   0.04828
 Alpha virt. eigenvalues --    0.05089   0.06063   0.06504   0.06888   0.07370
 Alpha virt. eigenvalues --    0.08290   0.08474   0.09244   0.09895   0.10020

 Mulliken charges:
               1
     1  C    0.339047
     2  C    0.579122
     3  C    0.665535
     4  C   -0.236584
     5  C    0.509906
     6  C    0.839144
     7  C    0.793258
     8  C    0.343284
     9  H    0.247337
    10  H   -0.131027
    11  H    0.063737
    12  H   -0.143686
    13  H   -0.063440
    14  H   -0.256578
    15  H   -0.086964
    16  H   -0.290797
    17  H   -0.248088
    18  H   -0.173027
    19  H    0.039416
    20  H   -0.200087
    21  H    0.062941
    22  H    0.107682
    23  H   -0.013070
    24  N   -0.460995
    25  N   -0.227915
    26  N    0.038146
    27  O   -0.613322
    28  O   -0.458716
    29  O   -0.587348
    30  O   -0.436913
 Sum of Mulliken charges =  -0.00000

 Dipole moment (field-independent basis, Debye):
    X=             -6.8284    Y=             -4.1402    Z=             -0.4577  Tot=              7.9986

 Test job not archived.
 1\1\GINC-SE458\SP\RHF\Aug-CC-pVDZ\C8H15N3O4\OHZDE\08-Apr-2025\0\\#t hf
  aug-cc-pvdz iop(5/13=1,5/36=2,99/5=2) pseudo=read geom=check guess=(r
 ead,tcheck) scf=(maxcycle=1)\\title\\0,1\C,0,-1.96928,-1.48701,0.34752
 1\C,0,-2.43441,-0.412439,-0.686611\C,0,-2.24852,-1.12777,1.84564\C,0,-
 0.203684,0.679324,-0.204317\C,0,-0.0674913,1.99545,0.520385\C,0,0.8279
 17,0.303375,-1.29141\C,0,2.33074,0.452119,-0.799895\C,0,3.00453,-0.689
 635,-0.148737\H,0,-1.84446,2.5009,0.213061\H,0,2.74831,-2.32534,1.0041
 4\H,0,1.31883,-1.68721,0.374862\H,0,2.34732,1.23067,-0.043278\H,0,2.97

 Normal termination of Gaussian 16 at Tue Apr  8 20:11:53 2025.
