 Gaussian 16, Revision C.01,

 ----------------------------------------------------------------------
 #t hf aug-cc-pvdz symm=none int=(grid=ultrafine) guess=(read,tcheck) s
 table=(opt,rrhf)
 ----------------------------------------------------------------------
 -----
 title
 -----
 Symbolic Z-matrix:
 Charge =  0 Multiplicity = 1

 SCF Done:  E(RHF) =  -963.587892760     A.U. after   15 cycles
 Normal termination of Gaussian 16 at Tue Apr  8 21:44:08 2025.
 Gaussian 16:  ES64L-G16RevC.01  3-Jul-2019

 ----------------------------------------------------------------------
 #t hf aug-cc-pvdz iop(5/13=1,5/36=2,99/5=2) pseudo=read geom=check gue
 ss=(read,tcheck) scf=(maxcycle=1)
 ----------------------------------------------------------------------
 -----
 title
 -----
 Structure from the checkpoint file:  "ANI1ccx_272_conf2_mol1.chk"
 Charge =  0 Multiplicity = 1

                         Standard orientation:
 ---------------------------------------------------------------------
 Center     Atomic      Atomic             Coordinates (Angstroms)
 Number     Number       Type             X           Y           Z
 ---------------------------------------------------------------------
      1          6           0        1.398384   -1.858107   -0.220065
      2          6           0       -2.470956    3.260215   -0.338326
      3          6           0       -1.685362    1.202486    1.012330
      4          6           0       -1.497100    0.169828   -0.050845
      5          6           0       -1.983895   -2.291484   -0.548368
      6          6           0       -1.646297   -1.268474    0.489465
      7          6           0       -1.491835    2.687647    0.686097
      8          6           0        3.313408    1.142257    0.552335
      9          6           0        2.686750    0.347972   -0.326102
     10          6           0        2.727313   -1.162334   -0.312511
     11          6           0        0.796524   -1.512699    1.206190
     12          6           0        2.587835    2.329775   -1.182660
     13          1           0       -1.034612    1.025878    1.858480
     14          1           0       -0.817546   -3.387892    0.434878
     15          1           0       -4.106384    2.059311   -0.004640
     16          1           0       -4.096327    3.536601    0.749065
     17          1           0       -2.265379    4.339115   -0.412524
     18          1           0       -2.230536    2.845085   -1.330320
     19          1           0       -1.596976    3.245076    1.627210
     20          1           0       -0.474883    2.857699    0.330583
     21          1           0       -2.689092    1.143984    1.417120
     22          1           0       -0.583439    0.289700   -0.682301
     23          1           0       -0.757737   -1.437822    2.367190
     24          1           0       -2.507047   -1.267975    1.123730
     25          1           0        0.903276   -0.878883   -1.935020
     26          1           0       -2.328820    0.298433   -0.780434
     27          1           0        1.691357   -2.908527   -0.101650
     28          1           0        3.297093   -1.458213    0.561692
     29          1           0        0.099371   -2.362860   -1.794200
     30          1           0        3.817868    0.929500    1.456380
     31          1           0        2.352614    3.218895   -1.735740
     32          1           0        3.720114    3.256738    0.242577
     33          1           0        3.280014   -1.513563   -1.210180
     34          7           0        0.490432   -1.564889   -1.287000
     35          7           0        2.178488    1.073664   -1.381860
     36          7           0        3.260875    2.422977   -0.005285
     37          7           0       -0.565654   -1.693621    1.425980
     38          7           0       -3.897236    3.029802   -0.116917
     39          8           0       -2.767965   -2.160556   -1.484340
     40          8           0        1.563633   -1.247737    2.087360
     41          8           0       -1.339402   -3.465243   -0.406970
 ---------------------------------------------------------------------

 SCF Done:  E(RHF) =  -963.874741386     A.U. after    2 cycles

 The electronic state is 1-A.
 Alpha  occ. eigenvalues --  -20.61901 -20.55917 -20.55197 -15.69185 -15.66735
 Alpha  occ. eigenvalues --  -15.62208 -15.60918 -15.60360 -11.39849 -11.37273
 Alpha  occ. eigenvalues --  -11.32369 -11.31112 -11.29205 -11.27134 -11.26400
 Alpha  occ. eigenvalues --  -11.25501 -11.24582 -11.23822 -11.23050 -11.22984
 Alpha  occ. eigenvalues --   -1.41446  -1.38064  -1.31670  -1.30968  -1.22141
 Alpha  occ. eigenvalues --   -1.17565  -1.15217  -1.13963  -1.07596  -1.04884
 Alpha  occ. eigenvalues --   -1.01813  -0.98939  -0.94278  -0.89594  -0.86313
 Alpha  occ. eigenvalues --   -0.83757  -0.82884  -0.80371  -0.77662  -0.76957
 Alpha  occ. eigenvalues --   -0.75211  -0.72135  -0.71931  -0.70392  -0.68745
 Alpha  occ. eigenvalues --   -0.67761  -0.66148  -0.65124  -0.64126  -0.63197
 Alpha  occ. eigenvalues --   -0.62300  -0.61754  -0.61336  -0.60529  -0.59891
 Alpha  occ. eigenvalues --   -0.59606  -0.58164  -0.57138  -0.55383  -0.54597
 Alpha  occ. eigenvalues --   -0.53639  -0.52951  -0.52547  -0.51288  -0.48845
 Alpha  occ. eigenvalues --   -0.48395  -0.47464  -0.47341  -0.46584  -0.45650
 Alpha  occ. eigenvalues --   -0.43960  -0.42242  -0.39892  -0.38263  -0.37927
 Alpha  occ. eigenvalues --   -0.33066
 Alpha virt. eigenvalues --    0.01881   0.02759   0.03160   0.03673   0.04361
 Alpha virt. eigenvalues --    0.04789   0.05396   0.05695   0.06077   0.06640
 Alpha virt. eigenvalues --    0.07092   0.07387   0.07904   0.08320   0.08716

 Mulliken charges:
               1
     1  C   -0.019314
     2  C    0.916342
     3  C    0.195613
     4  C    0.277810
     5  C    0.905049
     6  C    0.791557
     7  C    0.414119
     8  C    1.493026
     9  C   -0.031903
    10  C    0.201974
    11  C    0.430904
    12  C    0.816066
    13  H   -0.285608
    14  H    0.349347
    15  H   -0.020691
    16  H    0.075646
    17  H   -0.105347
    18  H   -0.153744
    19  H   -0.090146
    20  H   -0.162980
    21  H   -0.162622
    22  H   -0.272980
    23  H   -0.067254
    24  H   -0.244285
    25  H    0.163995
    26  H   -0.140771
    27  H   -0.086634
    28  H   -0.037557
    29  H    0.212796
    30  H   -0.415295
    31  H   -0.344701
    32  H   -0.153889
    33  H    0.076504
    34  N   -0.573933
    35  N   -0.727237
    36  N   -0.527964
    37  N   -0.532774
    38  N   -0.426621
    39  O   -0.604338
    40  O   -0.537466
    41  O   -0.594692
 Sum of Mulliken charges =  -0.00000

 Dipole moment (field-independent basis, Debye):
    X=              4.6496    Y=              3.4997    Z=              3.8246  Tot=              6.9638

 Test job not archived.
 1\1\GINC-SE028\SP\RHF\Aug-CC-pVDZ\C12H21N5O3\OHZDE\08-Apr-2025\0\\#t h
 f aug-cc-pvdz iop(5/13=1,5/36=2,99/5=2) pseudo=read geom=check guess=(
 read,tcheck) scf=(maxcycle=1)\\title\\0,1\C,0,1.39838,-1.85811,-0.2200
 65\C,0,-2.47095,3.26022,-0.338326\C,0,-1.68536,1.20249,1.01233\C,0,-1.
 4971,0.169831,-0.0508449\C,0,-1.9839,-2.29148,-0.548368\C,0,-1.6463,-1
 .26847,0.489465\C,0,-1.49183,2.68765,0.686097\C,0,3.31341,1.14225,0.55
 2335\C,0,2.68675,0.347967,-0.326102\C,0,2.72731,-1.16234,-0.312511\C,0
 ,0.79652,-1.5127,1.20619\C,0,2.58784,2.32977,-1.18266\H,0,-1.03461,1.0

 Normal termination of Gaussian 16 at Tue Apr  8 21:45:41 2025.
