 Gaussian 16, Revision C.01,

 ----------------------------------------------------------------------
 #t hf aug-cc-pvdz symm=none int=(grid=ultrafine) guess=(read,tcheck) s
 table=(opt,rrhf)
 ----------------------------------------------------------------------
 -----
 title
 -----
 Symbolic Z-matrix:
 Charge =  0 Multiplicity = 1

 SCF Done:  E(RHF) =  -380.192281346     A.U. after   11 cycles
 Normal termination of Gaussian 16 at Tue Apr  8 21:01:26 2025.
 Gaussian 16:  ES64L-G16RevC.01  3-Jul-2019

 ----------------------------------------------------------------------
 #t hf aug-cc-pvdz iop(5/13=1,5/36=2,99/5=2) pseudo=read geom=check gue
 ss=(read,tcheck) scf=(maxcycle=1)
 ----------------------------------------------------------------------
 -----
 title
 -----
 Structure from the checkpoint file:  "ANI1ccx_1843_conf336_mol1.chk"
 Charge =  0 Multiplicity = 1

                         Standard orientation:
 ---------------------------------------------------------------------
 Center     Atomic      Atomic             Coordinates (Angstroms)
 Number     Number       Type             X           Y           Z
 ---------------------------------------------------------------------
      1          1           0       -1.136243    1.306227    0.210794
      2          1           0       -1.791521    0.389656   -0.871029
      3          1           0        1.394458    0.960385    0.142632
      4          1           0        0.564279    1.602050   -0.817813
      5          1           0        2.539180   -0.213755    1.314640
      6          1           0        1.980091   -0.823312   -0.004016
      7          1           0       -0.426804   -1.454802   -0.217573
      8          1           0        0.409693   -2.295880   -1.281940
      9          1           0       -2.112850   -0.115879    0.791015
     10          1           0       -1.602808   -1.167694    1.656100
     11          8           0       -1.922943    1.195006   -0.388748
     12          8           0        0.758389    1.684601    0.091855
     13          8           0        2.656260   -0.174216    0.329765
     14          8           0        0.359368   -1.375600   -0.876724
     15          8           0       -1.828258   -1.103164    0.728501
 ---------------------------------------------------------------------

 SCF Done:  E(RHF) =  -380.317653950     A.U. after    2 cycles

 The electronic state is 1-A.
 Alpha  occ. eigenvalues --  -20.61168 -20.59776 -20.59058 -20.57708 -20.55599
 Alpha  occ. eigenvalues --   -1.35044  -1.32496  -1.31295  -1.30140  -1.29776
 Alpha  occ. eigenvalues --   -0.75134  -0.73314  -0.73114  -0.72760  -0.71383
 Alpha  occ. eigenvalues --   -0.65606  -0.62017  -0.61797  -0.60330  -0.59767
 Alpha  occ. eigenvalues --   -0.55274  -0.53859  -0.52800  -0.52461  -0.50836
 Alpha virt. eigenvalues --    0.01994   0.04143   0.05096   0.06154   0.07363
 Alpha virt. eigenvalues --    0.07598   0.08206   0.09190   0.09856   0.10756
 Alpha virt. eigenvalues --    0.15294   0.18109   0.18550   0.18840   0.21014

 Mulliken charges:
               1
     1  H    0.256387
     2  H    0.182257
     3  H    0.213165
     4  H    0.186348
     5  H    0.206442
     6  H    0.278855
     7  H    0.323531
     8  H    0.232582
     9  H    0.287242
    10  H    0.171717
    11  O   -0.437740
    12  O   -0.392171
    13  O   -0.489143
    14  O   -0.540157
    15  O   -0.479314
 Sum of Mulliken charges =  -0.00000

 Dipole moment (field-independent basis, Debye):
    X=             -0.4896    Y=             -4.0968    Z=              1.9830  Tot=              4.5777

 Test job not archived.
 1\1\GINC-SE143\SP\RHF\Aug-CC-pVDZ\H10O5\OHZDE\08-Apr-2025\0\\#t hf aug
 -cc-pvdz iop(5/13=1,5/36=2,99/5=2) pseudo=read geom=check guess=(read,
 tcheck) scf=(maxcycle=1)\\title\\0,1\H,0,-1.13624,1.30623,0.210794\H,0
 ,-1.79152,0.38966,-0.871029\H,0,1.39446,0.960383,0.142632\H,0,0.564282
 ,1.60205,-0.817813\H,0,2.53918,-0.213759,1.31464\H,0,1.98009,-0.823315
 ,-0.00401623\H,0,-0.426806,-1.4548,-0.217573\H,0,0.409689,-2.29588,-1.
 28194\H,0,-2.11285,-0.115874,0.791015\H,0,-1.60281,-1.16769,1.6561\O,0
 ,-1.92294,1.19501,-0.388748\O,0,0.758392,1.6846,0.0918555\O,0,2.65626,

 Normal termination of Gaussian 16 at Tue Apr  8 21:01:30 2025.
