 Gaussian 16, Revision C.01,

 ----------------------------------------------------------------------
 #t hf aug-cc-pvdz symm=none int=(grid=ultrafine) guess=(read,tcheck) s
 table=(opt,rrhf)
 ----------------------------------------------------------------------
 -----
 title
 -----
 Symbolic Z-matrix:
 Charge =  0 Multiplicity = 1

 SCF Done:  E(RHF) =  -424.679327977     A.U. after   15 cycles
 Normal termination of Gaussian 16 at Tue Apr  8 21:43:57 2025.
 Gaussian 16:  ES64L-G16RevC.01  3-Jul-2019

 ----------------------------------------------------------------------
 #t hf aug-cc-pvdz iop(5/13=1,5/36=2,99/5=2) pseudo=read geom=check gue
 ss=(read,tcheck) scf=(maxcycle=1)
 ----------------------------------------------------------------------
 -----
 title
 -----
 Structure from the checkpoint file:  "ANI1ccx_507_conf6_mol1.chk"
 Charge =  0 Multiplicity = 1

                         Standard orientation:
 ---------------------------------------------------------------------
 Center     Atomic      Atomic             Coordinates (Angstroms)
 Number     Number       Type             X           Y           Z
 ---------------------------------------------------------------------
      1          6           0       -1.228298   -0.467369   -0.086680
      2          6           0       -0.278418    1.543120   -0.011373
      3          1           0       -2.261787   -2.017311    0.592522
      4          1           0       -3.136687   -0.653856    0.728686
      5          1           0        1.432101    2.207571    0.468165
      6          7           0       -2.441857   -1.155321    0.188563
      7          7           0       -1.335758    0.909476    0.019133
      8          7           0        0.566473    2.402161    0.006886
      9          7           0        2.441222   -0.467543   -0.195149
     10          7           0        2.933793   -1.257828    0.385968
     11          8           0       -0.267555   -1.125940   -0.504858
 ---------------------------------------------------------------------

 SCF Done:  E(RHF) =  -424.807557831     A.U. after    2 cycles

 The electronic state is 1-A.
 Alpha  occ. eigenvalues --  -20.55561 -15.74659 -15.74326 -15.67839 -15.67081
 Alpha  occ. eigenvalues --  -15.65160 -11.42799 -11.42763  -1.41760  -1.37486
 Alpha  occ. eigenvalues --   -1.29382  -1.22456  -1.17545  -0.90657  -0.79634
 Alpha  occ. eigenvalues --   -0.75008  -0.74089  -0.69805  -0.65596  -0.64586
 Alpha  occ. eigenvalues --   -0.62041  -0.60417  -0.60003  -0.59279  -0.56690
 Alpha  occ. eigenvalues --   -0.50371  -0.45960  -0.43888  -0.41851
 Alpha virt. eigenvalues --    0.02973   0.03677   0.05335   0.07949   0.08055
 Alpha virt. eigenvalues --    0.10078   0.10209   0.11010   0.12257   0.12956
 Alpha virt. eigenvalues --    0.13490   0.13766   0.14317   0.14721   0.15694

 Mulliken charges:
               1
     1  C    0.924394
     2  C   -0.057991
     3  H   -0.050814
     4  H    0.031059
     5  H    0.102869
     6  N   -0.204318
     7  N   -0.237417
     8  N   -0.008831
     9  N    0.042548
    10  N   -0.048065
    11  O   -0.493435
 Sum of Mulliken charges =  -0.00000

 Dipole moment (field-independent basis, Debye):
    X=             -0.6104    Y=              0.9932    Z=              2.9611  Tot=              3.1823

 Test job not archived.
 1\1\GINC-SE016\SP\RHF\Aug-CC-pVDZ\C2H3N5O1\OHZDE\08-Apr-2025\0\\#t hf
 aug-cc-pvdz iop(5/13=1,5/36=2,99/5=2) pseudo=read geom=check guess=(re
 ad,tcheck) scf=(maxcycle=1)\\title\\0,1\C,0,-1.2283,-0.467369,-0.08668
 02\C,0,-0.278419,1.54312,-0.0113727\H,0,-2.26179,-2.01731,0.592522\H,0
 ,-3.13669,-0.653854,0.728686\H,0,1.4321,2.20757,0.468165\N,0,-2.44186,
 -1.15532,0.188563\N,0,-1.33576,0.909477,0.0191332\N,0,0.566472,2.40216
 ,0.00688556\N,0,2.44122,-0.467545,-0.195149\N,0,2.93379,-1.25783,0.385
 968\O,0,-0.267558,-1.12594,-0.504858\\Version=ES64L-G16RevC.01\State=1

 Normal termination of Gaussian 16 at Tue Apr  8 21:44:02 2025.
