 Gaussian 16, Revision C.01,

 ----------------------------------------------------------------------
 #t hf aug-cc-pvdz symm=none int=(grid=ultrafine) guess=(read,tcheck) s
 table=(opt,rrhf)
 ----------------------------------------------------------------------
 -----
 title
 -----
 Symbolic Z-matrix:
 Charge =  0 Multiplicity = 1

 SCF Done:  E(RHF) =  -373.432458463     A.U. after   16 cycles
 Normal termination of Gaussian 16 at Tue Apr  8 21:47:56 2025.
 Gaussian 16:  ES64L-G16RevC.01  3-Jul-2019

 ----------------------------------------------------------------------
 #t hf aug-cc-pvdz iop(5/13=1,5/36=2,99/5=2) pseudo=read geom=check gue
 ss=(read,tcheck) scf=(maxcycle=1)
 ----------------------------------------------------------------------
 -----
 title
 -----
 Structure from the checkpoint file:  "ANI1ccx_655_conf12_mol2.chk"
 Charge =  0 Multiplicity = 1

                         Standard orientation:
 ---------------------------------------------------------------------
 Center     Atomic      Atomic             Coordinates (Angstroms)
 Number     Number       Type             X           Y           Z
 ---------------------------------------------------------------------
      1          6           0        1.475690    0.386294    0.080919
      2          6           0       -0.793911   -0.649517    0.019558
      3          6           0       -1.313519    0.760801    0.023652
      4          1           0        0.911928    1.333309    0.249580
      5          1           0        1.012979   -1.629031    0.167336
      6          7           0        0.609390   -0.697818    0.082877
      7          7           0       -1.692199    1.853720   -0.039081
      8          8           0        2.660260    0.268697   -0.115430
      9          8           0       -1.479611   -1.616330   -0.068103
 ---------------------------------------------------------------------

 SCF Done:  E(RHF) =  -373.546532898     A.U. after    2 cycles

 The electronic state is 1-A.
 Alpha  occ. eigenvalues --  -20.63476 -20.60402 -15.72890 -15.71211 -11.47842
 Alpha  occ. eigenvalues --  -11.42247 -11.34721  -1.45355  -1.40705  -1.26932
 Alpha  occ. eigenvalues --   -1.24431  -0.97916  -0.92523  -0.81349  -0.74823
 Alpha  occ. eigenvalues --   -0.71744  -0.69373  -0.67505  -0.61684  -0.60593
 Alpha  occ. eigenvalues --   -0.55996  -0.52818  -0.52443  -0.49491  -0.47572
 Alpha virt. eigenvalues --    0.03346   0.03996   0.04338   0.06630   0.06954
 Alpha virt. eigenvalues --    0.09204   0.10145   0.10525   0.11262   0.12282
 Alpha virt. eigenvalues --    0.13077   0.13362   0.14135   0.14758   0.15743

 Mulliken charges:
               1
     1  C    0.786356
     2  C    0.792121
     3  C   -0.160583
     4  H   -0.127670
     5  H   -0.040796
     6  N   -0.315267
     7  N   -0.150722
     8  O   -0.426413
     9  O   -0.357027
 Sum of Mulliken charges =  -0.00000

 Dipole moment (field-independent basis, Debye):
    X=              0.0428    Y=             -0.6998    Z=              0.8921  Tot=              1.1346

 Test job not archived.
 1\1\GINC-SE187\SP\RHF\Aug-CC-pVDZ\C3H2N2O2\OHZDE\08-Apr-2025\0\\#t hf
 aug-cc-pvdz iop(5/13=1,5/36=2,99/5=2) pseudo=read geom=check guess=(re
 ad,tcheck) scf=(maxcycle=1)\\title\\0,1\C,0,1.47569,0.386295,0.0809187
 \C,0,-0.793911,-0.649517,0.0195585\C,0,-1.31352,0.760801,0.0236516\H,0
 ,0.911927,1.33331,0.24958\H,0,1.01298,-1.62903,0.167336\N,0,0.60939,-0
 .697817,0.0828772\N,0,-1.6922,1.85372,-0.0390811\O,0,2.66026,0.268699,
 -0.11543\O,0,-1.47961,-1.61633,-0.0681026\\Version=ES64L-G16RevC.01\St
 ate=1-A\HF=-373.5465329\RMSD=3.257e-03\Dipole=0.0168403,-0.2753263,0.3

 Normal termination of Gaussian 16 at Tue Apr  8 21:48:00 2025.
