 Gaussian 16, Revision C.01,

 ----------------------------------------------------------------------
 #t hf aug-cc-pvdz symm=none int=(grid=ultrafine) guess=(read,tcheck) s
 table=(opt,rrhf)
 ----------------------------------------------------------------------
 -----
 title
 -----
 Symbolic Z-matrix:
 Charge =  0 Multiplicity = 1

 SCF Done:  E(RHF) =  -555.305299479     A.U. after   16 cycles
 Normal termination of Gaussian 16 at Tue Apr  8 21:58:42 2025.
 Gaussian 16:  ES64L-G16RevC.01  3-Jul-2019

 ----------------------------------------------------------------------
 #t hf aug-cc-pvdz iop(5/13=1,5/36=2,99/5=2) pseudo=read geom=check gue
 ss=(read,tcheck) scf=(maxcycle=1)
 ----------------------------------------------------------------------
 -----
 title
 -----
 Structure from the checkpoint file:  "ANI1ccx_886_conf18_mol1.chk"
 Charge =  0 Multiplicity = 1

                         Standard orientation:
 ---------------------------------------------------------------------
 Center     Atomic      Atomic             Coordinates (Angstroms)
 Number     Number       Type             X           Y           Z
 ---------------------------------------------------------------------
      1          6           0        1.314821   -0.703076   -0.061687
      2          6           0       -0.925582   -0.680124    0.005957
      3          6           0       -0.966052    0.714953   -0.101993
      4          6           0        1.295891    0.698394    0.038784
      5          1           0        3.050671   -1.046992    0.728292
      6          1           0        2.379920   -2.343932    0.014062
      7          1           0        3.083572    1.013438   -0.690718
      8          1           0        2.480512    2.354658    0.132718
      9          7           0        2.533450   -1.327722   -0.107688
     10          7           0        0.230931   -1.425771    0.038113
     11          7           0       -2.143580   -1.132029   -0.010050
     12          7           0       -2.192288    1.119741   -0.057131
     13          7           0        0.176761    1.444129   -0.014259
     14          7           0        2.519292    1.342378    0.121509
     15          8           0       -2.897639   -0.037891    0.091978
 ---------------------------------------------------------------------

 SCF Done:  E(RHF) =  -555.462566510     A.U. after    2 cycles

 The electronic state is 1-A.
 Alpha  occ. eigenvalues --  -20.70197 -15.71699 -15.71148 -15.68183 -15.68016
 Alpha  occ. eigenvalues --  -15.67824 -15.67409 -11.38750 -11.37992 -11.32762
 Alpha  occ. eigenvalues --  -11.32604  -1.51824  -1.34142  -1.26105  -1.23823
 Alpha  occ. eigenvalues --   -1.20644  -1.14369  -1.12349  -0.96584  -0.88970
 Alpha  occ. eigenvalues --   -0.86579  -0.80050  -0.77461  -0.72099  -0.71951
 Alpha  occ. eigenvalues --   -0.69992  -0.68227  -0.67546  -0.62700  -0.60023
 Alpha  occ. eigenvalues --   -0.55371  -0.53822  -0.52278  -0.49902  -0.48930
 Alpha  occ. eigenvalues --   -0.47377  -0.43704  -0.37972  -0.36753
 Alpha virt. eigenvalues --    0.01290   0.01756   0.03052   0.04403   0.05941
 Alpha virt. eigenvalues --    0.07944   0.08238   0.09646   0.10007   0.10637
 Alpha virt. eigenvalues --    0.12460   0.12889   0.12955   0.13228   0.13365

 Mulliken charges:
               1
     1  C    0.580582
     2  C    0.831110
     3  C    0.858133
     4  C    0.641275
     5  H    0.115292
     6  H    0.080436
     7  H    0.148646
     8  H    0.020703
     9  N   -0.430091
    10  N   -0.555344
    11  N   -0.317002
    12  N   -0.341840
    13  N   -0.578922
    14  N   -0.458831
    15  O   -0.594146
 Sum of Mulliken charges =   0.00000

 Dipole moment (field-independent basis, Debye):
    X=              7.0787    Y=             -0.0075    Z=              0.0249  Tot=              7.0787

 Test job not archived.
 1\1\GINC-SE331\SP\RHF\Aug-CC-pVDZ\C4H4N6O1\OHZDE\08-Apr-2025\0\\#t hf
 aug-cc-pvdz iop(5/13=1,5/36=2,99/5=2) pseudo=read geom=check guess=(re
 ad,tcheck) scf=(maxcycle=1)\\title\\0,1\C,0,1.31482,-0.703075,-0.06168
 68\C,0,-0.925583,-0.680124,0.00595655\C,0,-0.966053,0.714953,-0.101993
 \C,0,1.29589,0.698395,0.0387836\H,0,3.05067,-1.04699,0.728292\H,0,2.37
 992,-2.34393,0.0140619\H,0,3.08357,1.01344,-0.690718\H,0,2.48051,2.354
 66,0.132718\N,0,2.53345,-1.32772,-0.107688\N,0,0.230931,-1.42577,0.038
 1132\N,0,-2.14358,-1.13203,-0.0100502\N,0,-2.19229,1.11974,-0.0571311\

 Normal termination of Gaussian 16 at Tue Apr  8 21:58:50 2025.
