 Gaussian 16, Revision C.01,

 ----------------------------------------------------------------------
 #t hf aug-cc-pvdz symm=none int=(grid=ultrafine) guess=(read,tcheck) s
 table=(opt,rrhf)
 ----------------------------------------------------------------------
 -----
 title
 -----
 Symbolic Z-matrix:
 Charge =  0 Multiplicity = 1

 SCF Done:  E(RHF) =  -557.491364379     A.U. after   16 cycles
 Normal termination of Gaussian 16 at Tue Apr  8 19:23:01 2025.
 Gaussian 16:  ES64L-G16RevC.01  3-Jul-2019

 ----------------------------------------------------------------------
 #t hf aug-cc-pvdz iop(5/13=1,5/36=2,99/5=2) pseudo=read geom=check gue
 ss=(read,tcheck) scf=(maxcycle=1)
 ----------------------------------------------------------------------
 -----
 title
 -----
 Structure from the checkpoint file:  "ANI1ccx_1322_conf4_mol1.chk"
 Charge =  0 Multiplicity = 1

                         Standard orientation:
 ---------------------------------------------------------------------
 Center     Atomic      Atomic             Coordinates (Angstroms)
 Number     Number       Type             X           Y           Z
 ---------------------------------------------------------------------
      1          6           0       -1.836630   -0.582285   -0.013220
      2          6           0       -0.650489    1.313329   -0.018030
      3          6           0        0.467240    0.449347   -0.023542
      4          6           0        2.746410    0.263662   -0.001748
      5          6           0        2.625211   -1.121568    0.021473
      6          6           0        0.337472   -0.946956    0.023496
      7          1           0        3.495241   -1.739038    0.078923
      8          1           0        3.744129    0.704820   -0.013786
      9          1           0        0.554110    2.737710    0.067072
     10          1           0       -1.141832    3.247059    0.326473
     11          1           0       -3.102779   -2.076332   -0.117607
     12          1           0       -3.876990   -0.516384   -0.238254
     13          7           0       -3.116909   -1.102312    0.063467
     14          7           0       -1.848721    0.776530   -0.020033
     15          7           0       -0.439474    2.621490   -0.024310
     16          7           0        1.712039    1.056261   -0.016009
     17          7           0        1.457541   -1.720079   -0.029968
     18          7           0       -0.879784   -1.433461    0.022082
 ---------------------------------------------------------------------

 SCF Done:  E(RHF) =  -557.651365420     A.U. after    2 cycles

 The electronic state is 1-A.
 Alpha  occ. eigenvalues --  -15.67669 -15.65419 -15.65110 -15.62677 -15.61995
 Alpha  occ. eigenvalues --  -15.60085 -11.36198 -11.35431 -11.33591 -11.31038
 Alpha  occ. eigenvalues --  -11.29456 -11.28494  -1.33169  -1.27569  -1.25801
 Alpha  occ. eigenvalues --   -1.19190  -1.15989  -1.14305  -1.04147  -0.93862
 Alpha  occ. eigenvalues --   -0.90642  -0.85869  -0.79657  -0.78174  -0.74034
 Alpha  occ. eigenvalues --   -0.70753  -0.69508  -0.67089  -0.64550  -0.63531
 Alpha  occ. eigenvalues --   -0.61690  -0.59703  -0.55847  -0.53785  -0.50169
 Alpha  occ. eigenvalues --   -0.48068  -0.45232  -0.43856  -0.41890  -0.39114
 Alpha  occ. eigenvalues --   -0.37875  -0.31609
 Alpha virt. eigenvalues --    0.02641   0.03162   0.03958   0.04424   0.05195
 Alpha virt. eigenvalues --    0.06249   0.07138   0.07994   0.09478   0.10237
 Alpha virt. eigenvalues --    0.10847   0.11633   0.11883   0.12180   0.13015

 Mulliken charges:
               1
     1  C    0.482515
     2  C    0.132616
     3  C    1.024942
     4  C    0.502985
     5  C    0.717246
     6  C    0.583338
     7  H   -0.389101
     8  H   -0.340756
     9  H    0.128656
    10  H   -0.052311
    11  H   -0.012062
    12  H   -0.021905
    13  N   -0.247058
    14  N   -0.627290
    15  N   -0.099839
    16  N   -0.775031
    17  N   -0.528244
    18  N   -0.478702
 Sum of Mulliken charges =  -0.00000

 Dipole moment (field-independent basis, Debye):
    X=              1.2522    Y=              2.6671    Z=              0.0241  Tot=              2.9465

 Test job not archived.
 1\1\GINC-SE089\SP\RHF\Aug-CC-pVDZ\C6H6N6\OHZDE\08-Apr-2025\0\\#t hf au
 g-cc-pvdz iop(5/13=1,5/36=2,99/5=2) pseudo=read geom=check guess=(read
 ,tcheck) scf=(maxcycle=1)\\title\\0,1\C,0,-1.83663,-0.582284,-0.013219
 7\C,0,-0.650488,1.31333,-0.0180301\C,0,0.46724,0.449347,-0.0235422\C,0
 ,2.74641,0.26366,-0.00174786\C,0,2.62521,-1.12157,0.0214734\C,0,0.3374
 72,-0.946956,0.0234961\H,0,3.49524,-1.73904,0.0789231\H,0,3.74413,0.70
 4818,-0.0137856\H,0,0.554112,2.73771,0.0670718\H,0,-1.14183,3.24706,0.
 326473\H,0,-3.10278,-2.07633,-0.117607\H,0,-3.87699,-0.516381,-0.23825

 Normal termination of Gaussian 16 at Tue Apr  8 19:23:13 2025.
