 Gaussian 16, Revision C.01,

 ----------------------------------------------------------------------
 #t hf aug-cc-pvdz symm=none int=(grid=ultrafine) guess=(read,tcheck) s
 table=(opt,rrhf)
 ----------------------------------------------------------------------
 -----
 title
 -----
 Symbolic Z-matrix:
 Charge =  0 Multiplicity = 1

 SCF Done:  E(RHF) =  -563.366386800     A.U. after   15 cycles
 Normal termination of Gaussian 16 at Tue Apr  8 22:03:59 2025.
 Gaussian 16:  ES64L-G16RevC.01  3-Jul-2019

 ----------------------------------------------------------------------
 #t hf aug-cc-pvdz iop(5/13=1,5/36=2,99/5=2) pseudo=read geom=check gue
 ss=(read,tcheck) scf=(maxcycle=1)
 ----------------------------------------------------------------------
 -----
 title
 -----
 Structure from the checkpoint file:  "ANI1ccx_918_conf14_mol1.chk"
 Charge =  0 Multiplicity = 1

                         Standard orientation:
 ---------------------------------------------------------------------
 Center     Atomic      Atomic             Coordinates (Angstroms)
 Number     Number       Type             X           Y           Z
 ---------------------------------------------------------------------
      1          6           0        1.160641   -0.038959    0.010232
      2          6           0       -0.815591    1.321739    0.067474
      3          6           0       -1.485479   -0.029948    0.528170
      4          6           0       -0.892027   -1.223791   -0.219457
      5          1           0        1.383031   -1.391021    1.563630
      6          1           0        1.751931    0.114685    1.997310
      7          1           0        2.817531   -0.827351   -0.787619
      8          1           0        2.493561    0.789810   -1.359230
      9          1           0       -1.487499   -0.107307    1.603000
     10          1           0       -2.521709   -0.025454    0.234336
     11          7           0        1.035941   -0.425749    1.430670
     12          7           0        2.431991    0.187698   -0.493666
     13          8           0        0.588479    1.285599   -0.095662
     14          8           0       -1.543459    2.307549   -0.306703
     15          8           0       -1.521799   -2.246131   -0.328255
     16          8           0        0.412077   -0.979675   -0.785502
 ---------------------------------------------------------------------

 SCF Done:  E(RHF) =  -563.535267097     A.U. after    2 cycles

 The electronic state is 1-A.
 Alpha  occ. eigenvalues --  -20.65557 -20.65162 -20.60492 -20.58855 -15.67043
 Alpha  occ. eigenvalues --  -15.66923 -11.47202 -11.44205 -11.44116 -11.29737
 Alpha  occ. eigenvalues --   -1.46204  -1.40867  -1.36330  -1.31719  -1.21445
 Alpha  occ. eigenvalues --   -1.15489  -1.05845  -0.91450  -0.87425  -0.79021
 Alpha  occ. eigenvalues --   -0.77413  -0.74835  -0.72858  -0.69121  -0.68852
 Alpha  occ. eigenvalues --   -0.66424  -0.64842  -0.62057  -0.61529  -0.60572
 Alpha  occ. eigenvalues --   -0.59031  -0.56579  -0.52954  -0.51866  -0.49507
 Alpha  occ. eigenvalues --   -0.48489  -0.46801  -0.44897
 Alpha virt. eigenvalues --    0.02244   0.03313   0.04305   0.04824   0.06325
 Alpha virt. eigenvalues --    0.06863   0.08967   0.09373   0.10361   0.10912
 Alpha virt. eigenvalues --    0.11927   0.12314   0.13219   0.13452   0.13967

 Mulliken charges:
               1
     1  C    1.678638
     2  C    0.707665
     3  C    0.328730
     4  C    0.555908
     5  H    0.080472
     6  H    0.117844
     7  H    0.213938
     8  H    0.081283
     9  H    0.086194
    10  H   -0.061199
    11  N   -0.548706
    12  N   -0.605004
    13  O   -0.769518
    14  O   -0.578656
    15  O   -0.469360
    16  O   -0.818228
 Sum of Mulliken charges =  -0.00000

 Dipole moment (field-independent basis, Debye):
    X=              3.9700    Y=             -1.8729    Z=              2.2492  Tot=              4.9323

 Test job not archived.
 1\1\GINC-SE366\SP\RHF\Aug-CC-pVDZ\C4H6N2O4\OHZDE\08-Apr-2025\0\\#t hf
 aug-cc-pvdz iop(5/13=1,5/36=2,99/5=2) pseudo=read geom=check guess=(re
 ad,tcheck) scf=(maxcycle=1)\\title\\0,1\C,0,1.16064,-0.0389586,0.01023
 21\C,0,-0.815592,1.32174,0.067474\C,0,-1.48548,-0.0299467,0.52817\C,0,
 -0.892028,-1.22379,-0.219457\H,0,1.38303,-1.39102,1.56363\H,0,1.75193,
 0.114686,1.99731\H,0,2.81753,-0.82735,-0.787619\H,0,2.49356,0.789811,-
 1.35923\H,0,-1.4875,-0.107306,1.603\H,0,-2.52171,-0.0254528,0.234336\N
 ,0,1.03594,-0.425748,1.43067\N,0,2.43199,0.187699,-0.493666\O,0,0.5884

 Normal termination of Gaussian 16 at Tue Apr  8 22:04:06 2025.
