 Gaussian 16, Revision C.01,

 ----------------------------------------------------------------------
 #t hf aug-cc-pvdz symm=none int=(grid=ultrafine) guess=(read,tcheck) s
 table=(opt,rrhf)
 ----------------------------------------------------------------------
 -----
 title
 -----
 Symbolic Z-matrix:
 Charge =  0 Multiplicity = 1

 SCF Done:  E(RHF) =  -318.600454759     A.U. after   16 cycles
 Normal termination of Gaussian 16 at Tue Apr  8 21:31:30 2025.
 Gaussian 16:  ES64L-G16RevC.01  3-Jul-2019

 ----------------------------------------------------------------------
 #t hf aug-cc-pvdz iop(5/13=1,5/36=2,99/5=2) pseudo=read geom=check gue
 ss=(read,tcheck) scf=(maxcycle=1)
 ----------------------------------------------------------------------
 -----
 title
 -----
 Structure from the checkpoint file:  "ANI1ccx_387_conf4_mol1.chk"
 Charge =  0 Multiplicity = 1

                         Standard orientation:
 ---------------------------------------------------------------------
 Center     Atomic      Atomic             Coordinates (Angstroms)
 Number     Number       Type             X           Y           Z
 ---------------------------------------------------------------------
      1          6           0        1.252989    0.134639    0.000267
      2          1           0       -2.797032    1.233899    0.014880
      3          1           0        1.335770   -1.728019    0.157832
      4          1           0        0.169845   -0.053202    0.027557
      5          7           0       -2.611191    0.274440    0.440522
      6          8           0       -2.223471   -0.479549   -0.421680
      7          8           0        1.969780   -0.996002    0.131553
      8          8           0        1.760168    1.202852   -0.120563
 ---------------------------------------------------------------------

 SCF Done:  E(RHF) =  -318.703196851     A.U. after    2 cycles

 The electronic state is 1-A.
 Alpha  occ. eigenvalues --  -20.69060 -20.63896 -20.57574 -15.80260 -11.40612
 Alpha  occ. eigenvalues --   -1.50225  -1.43454  -1.34827  -0.99439  -0.87180
 Alpha  occ. eigenvalues --   -0.80584  -0.77427  -0.69440  -0.68739  -0.65204
 Alpha  occ. eigenvalues --   -0.63263  -0.61413  -0.51195  -0.48424  -0.45523
 Alpha virt. eigenvalues --    0.03205   0.03602   0.03963   0.07443   0.08331
 Alpha virt. eigenvalues --    0.09928   0.12006   0.12810   0.14049   0.15916
 Alpha virt. eigenvalues --    0.17447   0.17909   0.19420   0.20779   0.20984

 Mulliken charges:
               1
     1  C    0.916245
     2  H    0.166828
     3  H    0.208487
     4  H   -0.258202
     5  N    0.182647
     6  O   -0.358214
     7  O   -0.440695
     8  O   -0.417097
 Sum of Mulliken charges =  -0.00000

 Dipole moment (field-independent basis, Debye):
    X=             -3.9316    Y=             -1.2361    Z=              0.2975  Tot=              4.1320

 Test job not archived.
 1\1\GINC-SE247\SP\RHF\Aug-CC-pVDZ\C1H3N1O3\OHZDE\08-Apr-2025\0\\#t hf
 aug-cc-pvdz iop(5/13=1,5/36=2,99/5=2) pseudo=read geom=check guess=(re
 ad,tcheck) scf=(maxcycle=1)\\title\\0,1\C,0,1.25299,0.134638,0.0002667
 3\H,0,-2.79703,1.2339,0.0148801\H,0,1.33577,-1.72802,0.157832\H,0,0.16
 9846,-0.0532029,0.0275576\N,0,-2.61119,0.274441,0.440522\O,0,-2.22347,
 -0.479548,-0.42168\O,0,1.96978,-0.996004,0.131553\O,0,1.76017,1.20285,
 -0.120563\\Version=ES64L-G16RevC.01\State=1-A\HF=-318.7031969\RMSD=2.5
 82e-03\Dipole=-1.5468104,-0.4863077,0.1170269\Quadrupole=-2.3884213,2.

 Normal termination of Gaussian 16 at Tue Apr  8 21:31:33 2025.
