 Gaussian 16, Revision C.01,

 ----------------------------------------------------------------------
 #t hf aug-cc-pvdz symm=none int=(grid=ultrafine) guess=(read,tcheck) s
 table=(opt,rrhf)
 ----------------------------------------------------------------------
 -----
 title
 -----
 Symbolic Z-matrix:
 Charge =  0 Multiplicity = 1

 SCF Done:  E(RHF) =  -535.512666029     A.U. after   16 cycles
 Normal termination of Gaussian 16 at Tue Apr  8 22:04:20 2025.
 Gaussian 16:  ES64L-G16RevC.01  3-Jul-2019

 ----------------------------------------------------------------------
 #t hf aug-cc-pvdz iop(5/13=1,5/36=2,99/5=2) pseudo=read geom=check gue
 ss=(read,tcheck) scf=(maxcycle=1)
 ----------------------------------------------------------------------
 -----
 title
 -----
 Structure from the checkpoint file:  "ANI1ccx_911_conf7_mol1.chk"
 Charge =  0 Multiplicity = 1

                         Standard orientation:
 ---------------------------------------------------------------------
 Center     Atomic      Atomic             Coordinates (Angstroms)
 Number     Number       Type             X           Y           Z
 ---------------------------------------------------------------------
      1          6           0        1.633459   -0.578474   -0.007510
      2          6           0        0.411267    1.345059    0.030963
      3          6           0       -0.875251    0.495509   -0.129548
      4          6           0       -2.219059    0.503721   -0.128576
      5          1           0        2.804527   -2.117264   -0.206424
      6          1           0        3.667839   -0.675123    0.268730
      7          1           0        1.154894    3.117788    0.063060
      8          1           0       -0.594726    3.153140    0.053229
      9          1           0       -2.863228    1.419093   -0.138323
     10          7           0        2.860799   -1.109614   -0.091696
     11          7           0        1.595831    0.760529    0.128250
     12          7           0        0.291145    2.692019    0.002355
     13          7           0       -2.714821   -0.741650    0.100805
     14          7           0       -1.745622   -1.561229    0.094888
     15          7           0       -0.586996   -0.839902   -0.048068
     16          7           0        0.603693   -1.413371    0.008859
 ---------------------------------------------------------------------

 SCF Done:  E(RHF) =  -535.663492624     A.U. after    2 cycles

 The electronic state is 1-A.
 Alpha  occ. eigenvalues --  -15.76104 -15.70354 -15.69074 -15.66698 -15.64886
 Alpha  occ. eigenvalues --  -15.64726 -15.64702 -11.41337 -11.37985 -11.31274
 Alpha  occ. eigenvalues --  -11.27979  -1.42488  -1.32910  -1.27415  -1.22852
 Alpha  occ. eigenvalues --   -1.16663  -1.09983  -1.05812  -0.92156  -0.88955
 Alpha  occ. eigenvalues --   -0.84108  -0.81838  -0.76391  -0.74544  -0.70580
 Alpha  occ. eigenvalues --   -0.68464  -0.66810  -0.65374  -0.62309  -0.59527
 Alpha  occ. eigenvalues --   -0.55155  -0.52234  -0.50635  -0.46734  -0.43994
 Alpha  occ. eigenvalues --   -0.42354  -0.41132  -0.38002  -0.30493
 Alpha virt. eigenvalues --    0.01612   0.02692   0.04394   0.05594   0.06188
 Alpha virt. eigenvalues --    0.07339   0.08149   0.09224   0.10735   0.11498
 Alpha virt. eigenvalues --    0.11755   0.12596   0.12985   0.13445   0.13730

 Mulliken charges:
               1
     1  C    0.742147
     2  C    0.370384
     3  C    0.412801
     4  C    0.885636
     5  H    0.049903
     6  H   -0.075472
     7  H   -0.045411
     8  H   -0.020371
     9  H   -0.183756
    10  N   -0.216335
    11  N   -0.567523
    12  N   -0.028507
    13  N   -0.482501
    14  N   -0.284895
    15  N   -0.247288
    16  N   -0.308813
 Sum of Mulliken charges =  -0.00000

 Dipole moment (field-independent basis, Debye):
    X=              3.7555    Y=              5.7952    Z=              0.1536  Tot=              6.9073

 Test job not archived.
 1\1\GINC-SE252\SP\RHF\Aug-CC-pVDZ\C4H5N7\OHZDE\08-Apr-2025\0\\#t hf au
 g-cc-pvdz iop(5/13=1,5/36=2,99/5=2) pseudo=read geom=check guess=(read
 ,tcheck) scf=(maxcycle=1)\\title\\0,1\C,0,1.63346,-0.578471,-0.0075101
 8\C,0,0.411265,1.34506,0.0309628\C,0,-0.875252,0.495509,-0.129548\C,0,
 -2.21906,0.503719,-0.128576\H,0,2.80453,-2.11726,-0.206424\H,0,3.66784
 ,-0.675118,0.26873\H,0,1.15489,3.11779,0.0630603\H,0,-0.59473,3.15314,
 0.0532294\H,0,-2.86323,1.41909,-0.138323\N,0,2.8608,-1.10961,-0.091695
 7\N,0,1.59583,0.760531,0.12825\N,0,0.291142,2.69202,0.00235536\N,0,-2.

 Normal termination of Gaussian 16 at Tue Apr  8 22:04:29 2025.
