 Gaussian 16, Revision C.01,

 ----------------------------------------------------------------------
 #t hf aug-cc-pvdz symm=none int=(grid=ultrafine) guess=(read,tcheck) s
 table=(opt,rrhf)
 ----------------------------------------------------------------------
 -----
 title
 -----
 Symbolic Z-matrix:
 Charge =  0 Multiplicity = 1

 SCF Done:  E(RHF) =  -578.469513505     A.U. after   16 cycles
 Normal termination of Gaussian 16 at Tue Apr  8 19:24:30 2025.
 Gaussian 16:  ES64L-G16RevC.01  3-Jul-2019

 ----------------------------------------------------------------------
 #t hf aug-cc-pvdz iop(5/13=1,5/36=2,99/5=2) pseudo=read geom=check gue
 ss=(read,tcheck) scf=(maxcycle=1)
 ----------------------------------------------------------------------
 -----
 title
 -----
 Structure from the checkpoint file:  "ANI1ccx_1340_conf12_mol2.chk"
 Charge =  0 Multiplicity = 1

                         Standard orientation:
 ---------------------------------------------------------------------
 Center     Atomic      Atomic             Coordinates (Angstroms)
 Number     Number       Type             X           Y           Z
 ---------------------------------------------------------------------
      1          6           0        2.739178   -1.607152   -0.020693
      2          6           0        2.349490    0.895690    0.010596
      3          6           0        0.247668    0.983504    0.002836
      4          6           0        0.564940   -0.355443    0.006267
      5          6           0       -1.673451   -0.945712   -0.022395
      6          6           0       -1.166339    1.416932    0.003358
      7          1           0       -2.395153   -2.818547   -0.447949
      8          1           0       -3.500212   -1.571666   -0.145478
      9          1           0       -0.094911   -2.285029    0.216751
     10          1           0        3.422221    1.095268   -0.050128
     11          1           0        2.723708   -2.104152    0.963102
     12          1           0        2.432437   -2.283892   -0.800330
     13          1           0        3.750688   -1.254353   -0.238067
     14          7           0        1.927049   -0.410794    0.024353
     15          7           0        1.384191    1.782139   -0.008601
     16          7           0       -0.356269   -1.343189   -0.004935
     17          7           0       -2.582992   -1.964747    0.088076
     18          7           0       -2.076030    0.301882   -0.004060
     19          8           0       -1.597418    2.542302   -0.005194
 ---------------------------------------------------------------------

 SCF Done:  E(RHF) =  -578.639030321     A.U. after    2 cycles

 The electronic state is 1-A.
 Alpha  occ. eigenvalues --  -20.51673 -15.71305 -15.71222 -15.67230 -15.63163
 Alpha  occ. eigenvalues --  -15.60812 -11.40148 -11.34738 -11.34398 -11.32567
 Alpha  occ. eigenvalues --  -11.32449 -11.25978  -1.36253  -1.32462  -1.31245
 Alpha  occ. eigenvalues --   -1.21134  -1.18118  -1.13898  -1.03380  -0.99078
 Alpha  occ. eigenvalues --   -0.88629  -0.87563  -0.84079  -0.76993  -0.75972
 Alpha  occ. eigenvalues --   -0.72506  -0.69658  -0.68019  -0.66504  -0.64895
 Alpha  occ. eigenvalues --   -0.63530  -0.60864  -0.60561  -0.59277  -0.57342
 Alpha  occ. eigenvalues --   -0.53631  -0.48924  -0.45276  -0.44839  -0.40352
 Alpha  occ. eigenvalues --   -0.40084  -0.37612  -0.31324
 Alpha virt. eigenvalues --    0.00451   0.02059   0.03040   0.03978   0.05127
 Alpha virt. eigenvalues --    0.06252   0.06877   0.08160   0.08988   0.09748
 Alpha virt. eigenvalues --    0.10016   0.11681   0.12429   0.12600   0.13270

 Mulliken charges:
               1
     1  C    0.791292
     2  C    0.733345
     3  C    0.372384
     4  C    0.346867
     5  C    0.945381
     6  C    0.620642
     7  H   -0.006779
     8  H    0.103286
     9  H   -0.089404
    10  H   -0.295197
    11  H   -0.021372
    12  H   -0.147972
    13  H   -0.236903
    14  N   -0.314861
    15  N   -0.839936
    16  N   -0.458762
    17  N   -0.315516
    18  N   -0.695975
    19  O   -0.490518
 Sum of Mulliken charges =  -0.00000

 Dipole moment (field-independent basis, Debye):
    X=              5.0489    Y=            -11.6110    Z=             -0.9025  Tot=             12.6934

 Test job not archived.
 1\1\GINC-SE132\SP\RHF\Aug-CC-pVDZ\C6H7N5O1\OHZDE\08-Apr-2025\0\\#t hf
 aug-cc-pvdz iop(5/13=1,5/36=2,99/5=2) pseudo=read geom=check guess=(re
 ad,tcheck) scf=(maxcycle=1)\\title\\0,1\C,0,2.73918,-1.60715,-0.020693
 3\C,0,2.34949,0.895691,0.0105963\C,0,0.247668,0.983504,0.00283647\C,0,
 0.564941,-0.355443,0.00626708\C,0,-1.67345,-0.945714,-0.0223946\C,0,-1
 .16634,1.41693,0.00335774\H,0,-2.39515,-2.81855,-0.447949\H,0,-3.50021
 ,-1.57167,-0.145478\H,0,-0.094908,-2.28503,0.216751\H,0,3.42222,1.0952
 7,-0.0501278\H,0,2.72371,-2.10415,0.963102\H,0,2.43244,-2.28389,-0.800

 Normal termination of Gaussian 16 at Tue Apr  8 19:24:42 2025.
