 Gaussian 16, Revision C.01,

 ----------------------------------------------------------------------
 #t hf aug-cc-pvdz symm=none int=(grid=ultrafine) guess=(read,tcheck) s
 table=(opt,rrhf)
 ----------------------------------------------------------------------
 -----
 title
 -----
 Symbolic Z-matrix:
 Charge =  0 Multiplicity = 1

 SCF Done:  E(RHF) =  -485.220291651     A.U. after   15 cycles
 Normal termination of Gaussian 16 at Tue Apr  8 21:42:17 2025.
 Gaussian 16:  ES64L-G16RevC.01  3-Jul-2019

 ----------------------------------------------------------------------
 #t hf aug-cc-pvdz iop(5/13=1,5/36=2,99/5=2) pseudo=read geom=check gue
 ss=(read,tcheck) scf=(maxcycle=1)
 ----------------------------------------------------------------------
 -----
 title
 -----
 Structure from the checkpoint file:  "ANI1ccx_484_conf5_mol1.chk"
 Charge =  0 Multiplicity = 1

                         Standard orientation:
 ---------------------------------------------------------------------
 Center     Atomic      Atomic             Coordinates (Angstroms)
 Number     Number       Type             X           Y           Z
 ---------------------------------------------------------------------
      1          6           0        1.369550   -0.036457    0.071921
      2          6           0       -0.665876    0.802255   -0.110016
      3          1           0       -1.342795   -1.643504    1.099080
      4          1           0       -2.603377   -0.920021    0.208164
      5          7           0       -1.665286   -1.288735    0.239497
      6          7           0       -0.801294   -0.573846   -0.460979
      7          8           0        0.534014   -1.098859   -0.264715
      8          8           0        2.550660   -0.086048    0.305850
      9          8           0        0.670693    1.115002   -0.200017
     10          8           0       -1.631594    1.445755    0.217845
 ---------------------------------------------------------------------

 SCF Done:  E(RHF) =  -485.371213131     A.U. after    2 cycles

 The electronic state is 1-A.
 Alpha  occ. eigenvalues --  -20.71879 -20.71575 -20.62883 -20.62758 -15.79576
 Alpha  occ. eigenvalues --  -15.68303 -11.51883 -11.48917  -1.56599  -1.44380
 Alpha  occ. eigenvalues --   -1.43657  -1.39817  -1.29654  -1.07826  -0.94993
 Alpha  occ. eigenvalues --   -0.92186  -0.81252  -0.79603  -0.75917  -0.73608
 Alpha  occ. eigenvalues --   -0.72138  -0.71319  -0.65916  -0.65201  -0.62552
 Alpha  occ. eigenvalues --   -0.57270  -0.54935  -0.54349  -0.52223  -0.40505
 Alpha virt. eigenvalues --    0.02978   0.04459   0.06504   0.07411   0.09095
 Alpha virt. eigenvalues --    0.09959   0.10983   0.11393   0.11755   0.12771
 Alpha virt. eigenvalues --    0.13311   0.15010   0.16468   0.17294   0.18355

 Mulliken charges:
               1
     1  C    0.835651
     2  C    0.938802
     3  H    0.009960
     4  H    0.056244
     5  N    0.142415
     6  N   -0.127222
     7  O   -0.612185
     8  O   -0.353360
     9  O   -0.522070
    10  O   -0.368235
 Sum of Mulliken charges =   0.00000

 Dipole moment (field-independent basis, Debye):
    X=             -2.4217    Y=             -1.2500    Z=              0.7858  Tot=              2.8363

 Test job not archived.
 1\1\GINC-SE087\SP\RHF\Aug-CC-pVDZ\C2H2N2O4\OHZDE\08-Apr-2025\0\\#t hf
 aug-cc-pvdz iop(5/13=1,5/36=2,99/5=2) pseudo=read geom=check guess=(re
 ad,tcheck) scf=(maxcycle=1)\\title\\0,1\C,0,1.36955,-0.0364606,0.07192
 11\C,0,-0.665874,0.802257,-0.110016\H,0,-1.3428,-1.6435,1.09908\H,0,-2
 .60338,-0.920013,0.208164\N,0,-1.66529,-1.28873,0.239497\N,0,-0.801296
 ,-0.573843,-0.460979\O,0,0.534011,-1.09886,-0.264715\O,0,2.55066,-0.08
 60553,0.30585\O,0,0.670696,1.115,-0.200017\O,0,-1.63159,1.44576,0.2178
 45\\Version=ES64L-G16RevC.01\State=1-A\HF=-485.3712131\RMSD=2.741e-03\

 Normal termination of Gaussian 16 at Tue Apr  8 21:42:22 2025.
