 Gaussian 16, Revision C.01,

 ----------------------------------------------------------------------
 #t hf aug-cc-pvdz symm=none int=(grid=ultrafine) guess=(read,tcheck) s
 table=(opt,rrhf)
 ----------------------------------------------------------------------
 -----
 title
 -----
 Symbolic Z-matrix:
 Charge =  0 Multiplicity = 1

 SCF Done:  E(RHF) =  -467.582075802     A.U. after   15 cycles
 Normal termination of Gaussian 16 at Tue Apr  8 22:02:14 2025.
 Gaussian 16:  ES64L-G16RevC.01  3-Jul-2019

 ----------------------------------------------------------------------
 #t hf aug-cc-pvdz iop(5/13=1,5/36=2,99/5=2) pseudo=read geom=check gue
 ss=(read,tcheck) scf=(maxcycle=1)
 ----------------------------------------------------------------------
 -----
 title
 -----
 Structure from the checkpoint file:  "ANI1ccx_903_conf1_mol2.chk"
 Charge =  0 Multiplicity = 1

                         Standard orientation:
 ---------------------------------------------------------------------
 Center     Atomic      Atomic             Coordinates (Angstroms)
 Number     Number       Type             X           Y           Z
 ---------------------------------------------------------------------
      1          6           0        2.749441   -0.062310    0.009345
      2          6           0        1.274452   -0.092981   -0.010759
      3          6           0       -0.760465   -1.268449   -0.016966
      4          6           0       -0.787537    1.256230    0.011933
      5          1           0        3.114147   -0.548227    0.936200
      6          1           0        3.155920    0.949711   -0.002117
      7          1           0        3.190127   -0.602376   -0.849886
      8          1           0       -2.403150    0.021892    0.026300
      9          1           0        1.144687    1.996053   -0.033520
     10          7           0        0.639524   -1.253273   -0.012010
     11          7           0       -1.384010   -0.000960   -0.006397
     12          7           0        0.616136    1.129506   -0.004911
     13          8           0       -1.414983   -2.284597    0.013789
     14          8           0       -1.354846    2.292234    0.001827
 ---------------------------------------------------------------------

 SCF Done:  E(RHF) =  -467.725346775     A.U. after    2 cycles

 The electronic state is 1-A.
 Alpha  occ. eigenvalues --  -20.58315 -20.55373 -15.71893 -15.69332 -15.64287
 Alpha  occ. eigenvalues --  -11.44446 -11.41505 -11.40594 -11.28868  -1.42860
 Alpha  occ. eigenvalues --   -1.37732  -1.30747  -1.21314  -1.18157  -1.04885
 Alpha  occ. eigenvalues --   -0.90707  -0.89453  -0.80705  -0.79752  -0.70377
 Alpha  occ. eigenvalues --   -0.69166  -0.68793  -0.66899  -0.63138  -0.62585
 Alpha  occ. eigenvalues --   -0.59958  -0.59266  -0.52609  -0.51763  -0.48063
 Alpha  occ. eigenvalues --   -0.45221  -0.44835  -0.40941
 Alpha virt. eigenvalues --    0.01696   0.03976   0.04444   0.04679   0.06244
 Alpha virt. eigenvalues --    0.07738   0.08686   0.09068   0.10010   0.11074
 Alpha virt. eigenvalues --    0.12109   0.12402   0.13426   0.14279   0.14463

 Mulliken charges:
               1
     1  C    0.612363
     2  C    0.358513
     3  C    0.699414
     4  C    0.660614
     5  H    0.091094
     6  H   -0.144265
     7  H    0.066561
     8  H   -0.018596
     9  H   -0.040312
    10  N   -0.612225
    11  N   -0.401343
    12  N   -0.475398
    13  O   -0.433842
    14  O   -0.362577
 Sum of Mulliken charges =  -0.00000

 Dipole moment (field-independent basis, Debye):
    X=              4.9267    Y=              3.5709    Z=             -0.0092  Tot=              6.0847

 Test job not archived.
 1\1\GINC-SE364\SP\RHF\Aug-CC-pVDZ\C4H5N3O2\OHZDE\08-Apr-2025\0\\#t hf
 aug-cc-pvdz iop(5/13=1,5/36=2,99/5=2) pseudo=read geom=check guess=(re
 ad,tcheck) scf=(maxcycle=1)\\title\\0,1\C,0,2.74944,-0.0623411,0.00934
 502\C,0,1.27445,-0.0929949,-0.0107595\C,0,-0.76048,-1.26844,-0.0169656
 \C,0,-0.787523,1.25624,0.0119333\H,0,3.11414,-0.548262,0.9362\H,0,3.15
 593,0.949675,-0.00211735\H,0,3.19012,-0.602412,-0.849886\H,0,-2.40315,
 0.0219207,0.0262997\H,0,1.14471,1.99604,-0.03352\N,0,0.639509,-1.25328
 ,-0.0120102\N,0,-1.38401,-0.00094303,-0.00639675\N,0,0.616149,1.1295,-

 Normal termination of Gaussian 16 at Tue Apr  8 22:02:20 2025.
