 Gaussian 16, Revision C.01,

 ----------------------------------------------------------------------
 #t hf aug-cc-pvdz symm=none int=(grid=ultrafine) guess=(read,tcheck) s
 table=(opt,rrhf)
 ----------------------------------------------------------------------
 -----
 title
 -----
 Symbolic Z-matrix:
 Charge =  0 Multiplicity = 1

 SCF Done:  E(RHF) =  -256.787548187     A.U. after   15 cycles
 Normal termination of Gaussian 16 at Tue Apr  8 21:23:29 2025.
 Gaussian 16:  ES64L-G16RevC.01  3-Jul-2019

 ----------------------------------------------------------------------
 #t hf aug-cc-pvdz iop(5/13=1,5/36=2,99/5=2) pseudo=read geom=check gue
 ss=(read,tcheck) scf=(maxcycle=1)
 ----------------------------------------------------------------------
 -----
 title
 -----
 Structure from the checkpoint file:  "ANI1ccx_377_conf47_mol1.chk"
 Charge =  0 Multiplicity = 1

                         Standard orientation:
 ---------------------------------------------------------------------
 Center     Atomic      Atomic             Coordinates (Angstroms)
 Number     Number       Type             X           Y           Z
 ---------------------------------------------------------------------
      1          6           0        1.071753   -0.271731    0.005678
      2          1           0        2.113636   -0.530078    0.053906
      3          1           0       -1.907061   -0.749229    0.242966
      4          7           0        0.602672    1.012639    0.005350
      5          7           0       -0.691610    0.938882    0.000318
      6          7           0       -0.942327   -0.363023   -0.044953
      7          7           0        0.083109   -1.172828   -0.007993
 ---------------------------------------------------------------------

 SCF Done:  E(RHF) =  -256.857994496     A.U. after    2 cycles

 The electronic state is 1-A.
 Alpha  occ. eigenvalues --  -15.77725 -15.74512 -15.70711 -15.68690 -11.32386
 Alpha  occ. eigenvalues --   -1.47020  -1.23997  -1.14970  -0.89208  -0.87982
 Alpha  occ. eigenvalues --   -0.77340  -0.68878  -0.64112  -0.56980  -0.51064
 Alpha  occ. eigenvalues --   -0.46950  -0.45057  -0.40795
 Alpha virt. eigenvalues --    0.02842   0.03842   0.08394   0.08625   0.10957
 Alpha virt. eigenvalues --    0.11588   0.12442   0.14851   0.16156   0.16757
 Alpha virt. eigenvalues --    0.17271   0.18576   0.19980   0.20158   0.21830

 Mulliken charges:
               1
     1  C    0.933119
     2  H   -0.185464
     3  H    0.147556
     4  N   -0.374363
     5  N   -0.147265
     6  N    0.032805
     7  N   -0.406389
 Sum of Mulliken charges =  -0.00000

 Dipole moment (field-independent basis, Debye):
    X=             -1.0793    Y=             -1.9403    Z=              0.4434  Tot=              2.2641

 Test job not archived.
 1\1\GINC-SE363\SP\RHF\Aug-CC-pVDZ\C1H2N4\OHZDE\08-Apr-2025\0\\#t hf au
 g-cc-pvdz iop(5/13=1,5/36=2,99/5=2) pseudo=read geom=check guess=(read
 ,tcheck) scf=(maxcycle=1)\\title\\0,1\C,0,1.07175,-0.271746,0.00567768
 \H,0,2.11363,-0.530107,0.053906\H,0,-1.90707,-0.749206,0.242966\N,0,0.
 602686,1.01263,0.0053503\N,0,-0.691597,0.93889,0.0003184\N,0,-0.942331
 ,-0.363012,-0.0449529\N,0,0.083095,-1.17283,-0.00799261\\Version=ES64L
 -G16RevC.01\State=1-A\HF=-256.8579945\RMSD=3.304e-03\Dipole=-0.4246306
 ,-0.7633761,0.1744462\Quadrupole=5.3017091,-4.7809424,-0.5207667,0.799

 Normal termination of Gaussian 16 at Tue Apr  8 21:23:31 2025.
