 Gaussian 16, Revision C.01,

 ----------------------------------------------------------------------
 #t hf aug-cc-pvdz symm=none int=(grid=ultrafine) guess=(read,tcheck) s
 table=(opt,rrhf)
 ----------------------------------------------------------------------
 -----
 title
 -----
 Symbolic Z-matrix:
 Charge =  0 Multiplicity = 1

 SCF Done:  E(RHF) =  -866.304555050     A.U. after   15 cycles
 Normal termination of Gaussian 16 at Tue Apr  8 20:41:25 2025.
 Gaussian 16:  ES64L-G16RevC.01  3-Jul-2019

 ----------------------------------------------------------------------
 #t hf aug-cc-pvdz iop(5/13=1,5/36=2,99/5=2) pseudo=read geom=check gue
 ss=(read,tcheck) scf=(maxcycle=1)
 ----------------------------------------------------------------------
 -----
 title
 -----
 Structure from the checkpoint file:  "ANI1ccx_1746_conf2_mol1.chk"
 Charge =  0 Multiplicity = 1

                         Standard orientation:
 ---------------------------------------------------------------------
 Center     Atomic      Atomic             Coordinates (Angstroms)
 Number     Number       Type             X           Y           Z
 ---------------------------------------------------------------------
      1          6           0       -1.586370   -1.578249    0.720718
      2          6           0       -0.442239   -1.126529   -0.231576
      3          6           0       -2.829220   -1.117429   -0.111714
      4          6           0        1.765170    0.041543   -0.131205
      5          6           0        3.101750   -0.653179   -0.089822
      6          6           0        1.702620    1.465010    0.435239
      7          6           0        0.372159    1.975801    0.202264
      8          6           0       -0.103774    2.418191   -0.965608
      9          6           0       -1.773809    2.142761    0.417160
     10          1           0        2.019800   -2.190470   -0.227149
     11          1           0       -2.115659    2.923851   -1.487450
     12          1           0       -2.670389    2.203031    0.931069
     13          1           0        0.293783    2.752001   -1.883260
     14          1           0        2.406380    2.085080   -0.051857
     15          1           0        1.822300    1.317080    1.543570
     16          1           0        1.492710    0.133166   -1.207130
     17          1           0        0.698363   -1.170410    1.451600
     18          1           0       -2.415900   -1.852119   -1.818590
     19          1           0       -3.745810   -1.132769    0.488936
     20          1           0       -2.766990   -0.096683   -0.517956
     21          1           0       -1.448750   -2.671809    0.836463
     22          1           0       -2.259100   -0.965778    2.440440
     23          1           0       -1.141040   -0.044578    1.905940
     24          7           0       -1.395880   -0.984348    2.011230
     25          7           0        0.701887   -0.862645    0.483536
     26          7           0       -0.693386    1.799741    1.113000
     27          7           0       -1.442559    2.596301   -0.820232
     28          8           0       -0.588960   -0.918269   -1.426950
     29          8           0       -3.038950   -2.058219   -1.128490
     30          8           0        4.161540   -0.094188   -0.127446
     31          8           0        3.016640   -1.996880   -0.240871
 ---------------------------------------------------------------------

 SCF Done:  E(RHF) =  -866.564216003     A.U. after    2 cycles

 The electronic state is 1-A.
 Alpha  occ. eigenvalues --  -20.62292 -20.56736 -20.56411 -20.56278 -15.70869
 Alpha  occ. eigenvalues --  -15.67381 -15.63847 -15.60968 -11.39971 -11.38777
 Alpha  occ. eigenvalues --  -11.33089 -11.32168 -11.29666 -11.29294 -11.28447
 Alpha  occ. eigenvalues --  -11.27547 -11.26090  -1.41824  -1.37885  -1.33738
 Alpha  occ. eigenvalues --   -1.32861  -1.32590  -1.23077  -1.18679  -1.16006
 Alpha  occ. eigenvalues --   -1.09157  -1.02570  -0.98534  -0.93897  -0.88170
 Alpha  occ. eigenvalues --   -0.84900  -0.81876  -0.80964  -0.80727  -0.77314
 Alpha  occ. eigenvalues --   -0.75623  -0.74157  -0.70836  -0.69883  -0.67919
 Alpha  occ. eigenvalues --   -0.67248  -0.65088  -0.64378  -0.63236  -0.63184
 Alpha  occ. eigenvalues --   -0.62967  -0.61968  -0.60836  -0.59901  -0.59044
 Alpha  occ. eigenvalues --   -0.57392  -0.55684  -0.55385  -0.53334  -0.51324
 Alpha  occ. eigenvalues --   -0.49713  -0.49395  -0.47572  -0.46483  -0.44603
 Alpha  occ. eigenvalues --   -0.42691  -0.41478  -0.40093  -0.34381
 Alpha virt. eigenvalues --    0.01603   0.02604   0.03556   0.03893   0.04921
 Alpha virt. eigenvalues --    0.05511   0.05887   0.06292   0.07033   0.07602
 Alpha virt. eigenvalues --    0.07856   0.08379   0.09045   0.09799   0.10403

 Mulliken charges:
               1
     1  C    0.477957
     2  C    0.360449
     3  C    1.193756
     4  C   -0.415488
     5  C    0.855412
     6  C    0.608743
     7  C    0.068334
     8  C    1.445204
     9  C    1.026493
    10  H    0.320156
    11  H   -0.121395
    12  H   -0.466842
    13  H   -0.472164
    14  H   -0.126237
    15  H    0.093035
    16  H    0.026044
    17  H   -0.050234
    18  H    0.187009
    19  H   -0.237906
    20  H   -0.252166
    21  H   -0.162942
    22  H   -0.102555
    23  H    0.082868
    24  N   -0.125640
    25  N   -0.567222
    26  N   -0.873093
    27  N   -0.514415
    28  O   -0.695785
    29  O   -0.563564
    30  O   -0.456997
    31  O   -0.540818
 Sum of Mulliken charges =  -0.00000

 Dipole moment (field-independent basis, Debye):
    X=             -5.5043    Y=              4.0816    Z=              0.1726  Tot=              6.8547

 Test job not archived.
 1\1\GINC-SE368\SP\RHF\Aug-CC-pVDZ\C9H14N4O4\OHZDE\08-Apr-2025\0\\#t hf
  aug-cc-pvdz iop(5/13=1,5/36=2,99/5=2) pseudo=read geom=check guess=(r
 ead,tcheck) scf=(maxcycle=1)\\title\\0,1\C,0,-1.58637,-1.57825,0.72071
 8\C,0,-0.442239,-1.12653,-0.231576\C,0,-2.82922,-1.11743,-0.111714\C,0
 ,1.76517,0.0415424,-0.131205\C,0,3.10175,-0.653179,-0.0898213\C,0,1.70
 262,1.46501,0.435239\C,0,0.372159,1.9758,0.202264\C,0,-0.103775,2.4181
 9,-0.965608\C,0,-1.77381,2.14276,0.41716\H,0,2.0198,-2.19047,-0.227149
 \H,0,-2.11566,2.92385,-1.48745\H,0,-2.67039,2.20303,0.931069\H,0,0.293

 Normal termination of Gaussian 16 at Tue Apr  8 20:42:05 2025.
