 Gaussian 16, Revision C.01,

 ----------------------------------------------------------------------
 #t hf aug-cc-pvdz symm=none int=(grid=ultrafine) guess=(read,tcheck) s
 table=(opt,rrhf)
 ----------------------------------------------------------------------
 -----
 title
 -----
 Symbolic Z-matrix:
 Charge =  0 Multiplicity = 1

 SCF Done:  E(RHF) =  -603.003838841     A.U. after   18 cycles
 Normal termination of Gaussian 16 at Tue Apr  8 20:55:04 2025.
 Gaussian 16:  ES64L-G16RevC.01  3-Jul-2019

 ----------------------------------------------------------------------
 #t hf aug-cc-pvdz iop(5/13=1,5/36=2,99/5=2) pseudo=read geom=check gue
 ss=(read,tcheck) scf=(maxcycle=1)
 ----------------------------------------------------------------------
 -----
 title
 -----
 Structure from the checkpoint file:  "ANI1ccx_1812_conf1_mol2.chk"
 Charge =  0 Multiplicity = 1

                         Standard orientation:
 ---------------------------------------------------------------------
 Center     Atomic      Atomic             Coordinates (Angstroms)
 Number     Number       Type             X           Y           Z
 ---------------------------------------------------------------------
      1          6           0        2.866540   -0.343970    0.021143
      2          6           0        1.390290    0.037043   -0.078415
      3          6           0        0.451874   -0.953861    0.041838
      4          6           0       -0.892779   -0.608461   -0.025103
      5          6           0       -1.960601   -1.516908   -0.113970
      6          6           0       -3.229401   -1.076588   -0.192375
      7          6           0       -2.609230    1.162242    0.201914
      8          6           0       -1.249950    0.787977    0.180269
      9          6           0       -0.200820    1.696511   -0.010629
     10          1           0       -0.283952    2.753761    0.117760
     11          1           0       -2.868329    2.239182    0.351848
     12          1           0       -3.993261   -1.766807   -0.366901
     13          1           0        3.199311    1.481669   -0.281599
     14          1           0        0.694285   -1.969770    0.067254
     15          1           0       -1.779542   -2.555349   -0.006326
     16          7           0       -3.600190    0.287801    0.050108
     17          7           0        1.083201    1.292650   -0.193143
     18          8           0        3.684390    0.682173   -0.137273
     19          8           0        3.222469   -1.475892    0.258670
 ---------------------------------------------------------------------

 SCF Done:  E(RHF) =  -603.180707841     A.U. after    2 cycles

 The electronic state is 1-A.
 Alpha  occ. eigenvalues --  -20.62781 -20.56776 -15.66727 -15.66681 -11.41105
 Alpha  occ. eigenvalues --  -11.33310 -11.33152 -11.32050 -11.31097 -11.30515
 Alpha  occ. eigenvalues --  -11.29220 -11.27119 -11.26797  -1.43618  -1.34007
 Alpha  occ. eigenvalues --   -1.28092  -1.23764  -1.12641  -1.09260  -1.05478
 Alpha  occ. eigenvalues --   -0.94557  -0.91828  -0.86809  -0.86564  -0.80982
 Alpha  occ. eigenvalues --   -0.74951  -0.74312  -0.70949  -0.68111  -0.67475
 Alpha  occ. eigenvalues --   -0.66080  -0.64656  -0.63992  -0.62044  -0.59982
 Alpha  occ. eigenvalues --   -0.57504  -0.55394  -0.52861  -0.50283  -0.49215
 Alpha  occ. eigenvalues --   -0.45957  -0.44221  -0.43370  -0.39079  -0.34137
 Alpha virt. eigenvalues --    0.02584   0.02862   0.03030   0.04105   0.04336
 Alpha virt. eigenvalues --    0.05088   0.06241   0.06411   0.07442   0.08747
 Alpha virt. eigenvalues --    0.09588   0.09767   0.10145   0.11135   0.11262

 Mulliken charges:
               1
     1  C    0.549984
     2  C   -0.164893
     3  C    1.770871
     4  C   -1.716884
     5  C    1.586969
     6  C    0.611176
     7  C    0.467185
     8  C    0.387223
     9  C    0.657230
    10  H   -0.424738
    11  H   -0.248364
    12  H   -0.397887
    13  H    0.171281
    14  H   -0.601038
    15  H   -0.489688
    16  N   -0.697813
    17  N   -0.591817
    18  O   -0.407959
    19  O   -0.460838
 Sum of Mulliken charges =  -0.00000

 Dipole moment (field-independent basis, Debye):
    X=             -3.7086    Y=              2.0118    Z=             -0.3627  Tot=              4.2347

 Test job not archived.
 1\1\GINC-SE187\SP\RHF\Aug-CC-pVDZ\C9H6N2O2\OHZDE\08-Apr-2025\0\\#t hf
 aug-cc-pvdz iop(5/13=1,5/36=2,99/5=2) pseudo=read geom=check guess=(re
 ad,tcheck) scf=(maxcycle=1)\\title\\0,1\C,0,2.86654,-0.343969,0.021142
 7\C,0,1.39029,0.0370438,-0.0784149\C,0,0.451875,-0.953861,0.0418385\C,
 0,-0.892778,-0.608462,-0.0251026\C,0,-1.9606,-1.51691,-0.11397\C,0,-3.
 2294,-1.07659,-0.192375\C,0,-2.60923,1.16224,0.201914\C,0,-1.24995,0.7
 87976,0.180269\C,0,-0.200821,1.69651,-0.0106291\H,0,-0.283953,2.75376,
 0.11776\H,0,-2.86833,2.23918,0.351848\H,0,-3.99326,-1.76681,-0.366901\

 Normal termination of Gaussian 16 at Tue Apr  8 20:55:19 2025.
