 Gaussian 16, Revision C.01,

 ----------------------------------------------------------------------
 #t hf aug-cc-pvdz symm=none int=(grid=ultrafine) guess=(read,tcheck) s
 table=(opt,rrhf)
 ----------------------------------------------------------------------
 -----
 title
 -----
 Symbolic Z-matrix:
 Charge =  0 Multiplicity = 1

 SCF Done:  E(RHF) =  -464.348432920     A.U. after   15 cycles
 Normal termination of Gaussian 16 at Tue Apr  8 21:40:51 2025.
 Gaussian 16:  ES64L-G16RevC.01  3-Jul-2019

 ----------------------------------------------------------------------
 #t hf aug-cc-pvdz iop(5/13=1,5/36=2,99/5=2) pseudo=read geom=check gue
 ss=(read,tcheck) scf=(maxcycle=1)
 ----------------------------------------------------------------------
 -----
 title
 -----
 Structure from the checkpoint file:  "ANI1ccx_474_conf32_mol1.chk"
 Charge =  0 Multiplicity = 1

                         Standard orientation:
 ---------------------------------------------------------------------
 Center     Atomic      Atomic             Coordinates (Angstroms)
 Number     Number       Type             X           Y           Z
 ---------------------------------------------------------------------
      1          6           0        1.223931   -0.453673    0.178207
      2          6           0        0.127734    1.424480   -0.132403
      3          1           0        2.792081   -0.875020   -0.974066
      4          7           0        1.124091    0.745910   -0.437754
      5          7           0       -2.207629   -0.493952   -0.338775
      6          7           0       -2.867018   -1.402172   -0.113932
      7          8           0        2.142042   -1.283480   -0.461864
      8          8           0       -0.655602    2.284809    0.109511
      9          8           0        0.607538   -0.613620    1.218910
 ---------------------------------------------------------------------

 SCF Done:  E(RHF) =  -464.489616522     A.U. after    2 cycles

 The electronic state is 1-A.
 Alpha  occ. eigenvalues --  -20.68892 -20.64788 -20.59139 -15.77455 -15.77125
 Alpha  occ. eigenvalues --  -15.69469 -11.48828 -11.47803  -1.46995  -1.44760
 Alpha  occ. eigenvalues --   -1.39684  -1.37175  -1.27775  -0.95364  -0.85216
 Alpha  occ. eigenvalues --   -0.78571  -0.77611  -0.72498  -0.71602  -0.68770
 Alpha  occ. eigenvalues --   -0.65703  -0.62821  -0.62378  -0.59336  -0.59271
 Alpha  occ. eigenvalues --   -0.57063  -0.55005  -0.49343  -0.47362
 Alpha virt. eigenvalues --    0.02808   0.06288   0.07551   0.08643   0.09051
 Alpha virt. eigenvalues --    0.09662   0.10415   0.10715   0.11444   0.12290
 Alpha virt. eigenvalues --    0.12569   0.12979   0.13905   0.16079   0.17315

 Mulliken charges:
               1
     1  C    0.956344
     2  C    0.132516
     3  H    0.134184
     4  N   -0.183742
     5  N    0.012313
     6  N   -0.019482
     7  O   -0.437082
     8  O   -0.174287
     9  O   -0.420764
 Sum of Mulliken charges =  -0.00000

 Dipole moment (field-independent basis, Debye):
    X=              1.8285    Y=              0.7061    Z=             -2.6917  Tot=              3.3297

 Test job not archived.
 1\1\GINC-SE221\SP\RHF\Aug-CC-pVDZ\C2H1N3O3\OHZDE\08-Apr-2025\0\\#t hf
 aug-cc-pvdz iop(5/13=1,5/36=2,99/5=2) pseudo=read geom=check guess=(re
 ad,tcheck) scf=(maxcycle=1)\\title\\0,1\C,0,1.22393,-0.453673,0.178207
 \C,0,0.127734,1.42448,-0.132403\H,0,2.79208,-0.875021,-0.974066\N,0,1.
 12409,0.74591,-0.437754\N,0,-2.20763,-0.493951,-0.338775\N,0,-2.86702,
 -1.40217,-0.113932\O,0,2.14204,-1.28348,-0.461864\O,0,-0.655602,2.2848
 1,0.109511\O,0,0.607537,-0.61362,1.21891\\Version=ES64L-G16RevC.01\Sta
 te=1-A\HF=-464.4896165\RMSD=2.460e-03\Dipole=0.7193692,0.2777862,-1.05

 Normal termination of Gaussian 16 at Tue Apr  8 21:40:54 2025.
