 Gaussian 16, Revision C.01,

 ----------------------------------------------------------------------
 #t hf aug-cc-pvdz symm=none int=(grid=ultrafine) guess=(read,tcheck) s
 table=(opt,rrhf)
 ----------------------------------------------------------------------
 -----
 title
 -----
 Symbolic Z-matrix:
 Charge =  0 Multiplicity = 1

 SCF Done:  E(RHF) =  -464.387025108     A.U. after   15 cycles
 Normal termination of Gaussian 16 at Tue Apr  8 21:40:52 2025.
 Gaussian 16:  ES64L-G16RevC.01  3-Jul-2019

 ----------------------------------------------------------------------
 #t hf aug-cc-pvdz iop(5/13=1,5/36=2,99/5=2) pseudo=read geom=check gue
 ss=(read,tcheck) scf=(maxcycle=1)
 ----------------------------------------------------------------------
 -----
 title
 -----
 Structure from the checkpoint file:  "ANI1ccx_474_conf11_mol2.chk"
 Charge =  0 Multiplicity = 1

                         Standard orientation:
 ---------------------------------------------------------------------
 Center     Atomic      Atomic             Coordinates (Angstroms)
 Number     Number       Type             X           Y           Z
 ---------------------------------------------------------------------
      1          6           0        1.210390   -0.508693    0.161506
      2          6           0        0.092656    1.573860   -0.010846
      3          1           0        2.588070   -0.406513   -1.135601
      4          7           0        0.967926    0.794014   -0.346398
      5          7           0       -2.081670   -0.621169   -0.397681
      6          7           0       -2.875921   -1.347497   -0.137112
      7          8           0        2.292389   -1.049582   -0.446712
      8          8           0       -0.699665    2.389181    0.212238
      9          8           0        0.597441   -1.059840    1.034469
 ---------------------------------------------------------------------

 SCF Done:  E(RHF) =  -464.532222288     A.U. after    2 cycles

 The electronic state is 1-A.
 Alpha  occ. eigenvalues --  -20.68412 -20.65620 -20.59118 -15.75971 -15.75638
 Alpha  occ. eigenvalues --  -15.69734 -11.47709 -11.47691  -1.48707  -1.45639
 Alpha  occ. eigenvalues --   -1.42000  -1.36497  -1.27784  -0.94355  -0.84221
 Alpha  occ. eigenvalues --   -0.79146  -0.76226  -0.72584  -0.71943  -0.69152
 Alpha  occ. eigenvalues --   -0.67199  -0.64402  -0.62570  -0.60509  -0.60493
 Alpha  occ. eigenvalues --   -0.56285  -0.53984  -0.49247  -0.48380
 Alpha virt. eigenvalues --    0.02829   0.06143   0.07247   0.08763   0.09839
 Alpha virt. eigenvalues --    0.10316   0.10735   0.10827   0.12056   0.12733
 Alpha virt. eigenvalues --    0.12828   0.13565   0.14226   0.16123   0.17058

 Mulliken charges:
               1
     1  C    0.940524
     2  C   -0.017041
     3  H    0.226640
     4  N   -0.205859
     5  N    0.021042
     6  N   -0.033499
     7  O   -0.432657
     8  O   -0.133064
     9  O   -0.366087
 Sum of Mulliken charges =  -0.00000

 Dipole moment (field-independent basis, Debye):
    X=              1.4839    Y=              1.7619    Z=             -2.5380  Tot=              3.4275

 Test job not archived.
 1\1\GINC-SE087\SP\RHF\Aug-CC-pVDZ\C2H1N3O3\OHZDE\08-Apr-2025\0\\#t hf
 aug-cc-pvdz iop(5/13=1,5/36=2,99/5=2) pseudo=read geom=check guess=(re
 ad,tcheck) scf=(maxcycle=1)\\title\\0,1\C,0,1.21039,-0.508692,0.161507
 \C,0,0.0926539,1.57386,-0.0108454\H,0,2.58807,-0.406511,-1.1356\N,0,0.
 967925,0.794015,-0.346397\N,0,-2.08167,-0.621172,-0.39768\N,0,-2.87592
 ,-1.3475,-0.137111\O,0,2.29239,-1.04958,-0.446711\O,0,-0.699668,2.3891
 8,0.212239\O,0,0.597442,-1.05984,1.03447\\Version=ES64L-G16RevC.01\Sta
 te=1-A\HF=-464.5322223\RMSD=2.631e-03\Dipole=0.5838162,0.6931661,-0.99

 Normal termination of Gaussian 16 at Tue Apr  8 21:40:56 2025.
