 Gaussian 16, Revision C.01,

 ----------------------------------------------------------------------
 #t hf aug-cc-pvdz symm=none int=(grid=ultrafine) guess=(read,tcheck) s
 table=(opt,rrhf)
 ----------------------------------------------------------------------
 -----
 title
 -----
 Symbolic Z-matrix:
 Charge =  0 Multiplicity = 1

 SCF Done:  E(RHF) =  -925.741235889     A.U. after   14 cycles
 Normal termination of Gaussian 16 at Tue Apr  8 21:38:24 2025.
 Gaussian 16:  ES64L-G16RevC.01  3-Jul-2019

 ----------------------------------------------------------------------
 #t hf aug-cc-pvdz iop(5/13=1,5/36=2,99/5=2) pseudo=read geom=check gue
 ss=(read,tcheck) scf=(maxcycle=1)
 ----------------------------------------------------------------------
 -----
 title
 -----
 Structure from the checkpoint file:  "ANI1ccx_204_conf2_mol2.chk"
 Charge =  0 Multiplicity = 1

                         Standard orientation:
 ---------------------------------------------------------------------
 Center     Atomic      Atomic             Coordinates (Angstroms)
 Number     Number       Type             X           Y           Z
 ---------------------------------------------------------------------
      1          6           0        1.379549   -1.687951    0.098494
      2          6           0       -0.939119    3.234190    0.353825
      3          6           0       -1.478179    1.968281    1.087730
      4          6           0       -2.234970    0.989582    0.173973
      5          6           0       -3.151201   -1.338898   -0.130952
      6          6           0        1.276151    2.358209   -0.505375
      7          6           0        3.611089   -1.835022   -0.347352
      8          6           0        3.552979   -1.185842    0.988858
      9          6           0        2.040599   -1.215791    1.414110
     10          6           0       -0.010827   -1.125100   -0.233566
     11          6           0       -2.242771   -0.473257    0.734568
     12          1           0       -2.006989    2.329921    1.994710
     13          1           0       -3.490702   -3.095708   -0.697406
     14          1           0        2.462920    0.909471   -1.104760
     15          1           0        1.069270    1.053459   -2.054540
     16          1           0        1.491231    3.210019    1.143280
     17          1           0       -0.329239    2.907520   -1.592840
     18          1           0       -1.734188    3.787881   -0.197564
     19          1           0       -0.604749    3.979200    1.045010
     20          1           0       -0.563946    1.418760    1.447520
     21          1           0       -3.311500    1.242952    0.098710
     22          1           0       -0.634317   -1.470390    1.689530
     23          1           0       -2.758371   -0.514328    1.722810
     24          1           0        2.143079   -1.918191   -1.806270
     25          1           0       -1.834020    1.017971   -0.863090
     26          1           0        1.769699   -1.888371    2.180440
     27          1           0        1.761149   -0.200393    1.719510
     28          1           0        1.322898   -2.757281    0.241705
     29          1           0        3.901969   -0.142213    0.934241
     30          1           0        4.505869   -1.521822   -0.878083
     31          1           0        3.605168   -2.943732   -0.193430
     32          1           0        4.244909   -1.662812    1.704690
     33          7           0        2.352069   -1.376851   -0.947199
     34          7           0       -0.882341   -1.062370    0.804340
     35          7           0        0.070697    2.999170   -0.676431
     36          7           0        1.955241    2.538129    0.567498
     37          7           0        1.728170    1.529939   -1.455980
     38          8           0       -4.227151   -0.903371   -0.507199
     39          8           0       -0.299236   -0.733326   -1.347810
     40          8           0       -2.773212   -2.646859   -0.193197
 ---------------------------------------------------------------------

 SCF Done:  E(RHF) =  -926.016978612     A.U. after    2 cycles

 The electronic state is 1-A.
 Alpha  occ. eigenvalues --  -20.64198 -20.57438 -20.54752 -15.66411 -15.62326
 Alpha  occ. eigenvalues --  -15.62079 -15.60318 -15.54133 -11.41279 -11.37588
 Alpha  occ. eigenvalues --  -11.32934 -11.32262 -11.28535 -11.27754 -11.26404
 Alpha  occ. eigenvalues --  -11.24796 -11.24520 -11.24053 -11.23333  -1.42769
 Alpha  occ. eigenvalues --   -1.36507  -1.33281  -1.25505  -1.21857  -1.21224
 Alpha  occ. eigenvalues --   -1.14347  -1.07965  -1.06615  -1.02383  -1.01318
 Alpha  occ. eigenvalues --   -0.98544  -0.91764  -0.86466  -0.83843  -0.81606
 Alpha  occ. eigenvalues --   -0.80042  -0.77830  -0.75516  -0.74304  -0.72763
 Alpha  occ. eigenvalues --   -0.72044  -0.70846  -0.70337  -0.67571  -0.66764
 Alpha  occ. eigenvalues --   -0.65662  -0.64546  -0.62748  -0.61991  -0.61367
 Alpha  occ. eigenvalues --   -0.60109  -0.58895  -0.57959  -0.57353  -0.56520
 Alpha  occ. eigenvalues --   -0.55044  -0.54947  -0.53293  -0.52585  -0.51443
 Alpha  occ. eigenvalues --   -0.50787  -0.50156  -0.49941  -0.49016  -0.48305
 Alpha  occ. eigenvalues --   -0.47161  -0.46837  -0.43953  -0.41211  -0.39428
 Alpha  occ. eigenvalues --   -0.39010  -0.37509  -0.32108
 Alpha virt. eigenvalues --    0.02073   0.02909   0.03361   0.03834   0.04715
 Alpha virt. eigenvalues --    0.05024   0.05184   0.05665   0.06487   0.07012
 Alpha virt. eigenvalues --    0.07303   0.07574   0.07845   0.08079   0.08683

 Mulliken charges:
               1
     1  C    0.449151
     2  C    0.941906
     3  C    0.532387
     4  C    0.216481
     5  C    0.936128
     6  C    0.546714
     7  C    0.845650
     8  C    0.152553
     9  C    0.829971
    10  C    0.678416
    11  C   -0.101540
    12  H   -0.178247
    13  H    0.231712
    14  H    0.095393
    15  H    0.017172
    16  H   -0.077149
    17  H   -0.092560
    18  H   -0.183758
    19  H   -0.295465
    20  H   -0.110849
    21  H   -0.135092
    22  H   -0.074381
    23  H    0.000839
    24  H    0.121223
    25  H   -0.070839
    26  H   -0.327243
    27  H   -0.200377
    28  H   -0.211072
    29  H   -0.173865
    30  H   -0.147025
    31  H    0.014525
    32  H   -0.074856
    33  N   -1.250326
    34  N   -0.386429
    35  N   -0.325244
    36  N   -0.378033
    37  N    0.013521
    38  O   -0.553230
    39  O   -0.660447
    40  O   -0.615716
 Sum of Mulliken charges =  -0.00000

 Dipole moment (field-independent basis, Debye):
    X=             -1.2051    Y=             -4.2791    Z=              2.6412  Tot=              5.1710

 Test job not archived.
 1\1\GINC-SE328\SP\RHF\Aug-CC-pVDZ\C11H21N5O3\OHZDE\08-Apr-2025\0\\#t h
 f aug-cc-pvdz iop(5/13=1,5/36=2,99/5=2) pseudo=read geom=check guess=(
 read,tcheck) scf=(maxcycle=1)\\title\\0,1\C,0,1.37955,-1.68795,0.09849
 35\C,0,-0.93912,3.23419,0.353825\C,0,-1.47818,1.96828,1.08773\C,0,-2.2
 3497,0.989581,0.173973\C,0,-3.1512,-1.3389,-0.130952\C,0,1.27615,2.358
 21,-0.505375\C,0,3.61109,-1.83502,-0.347352\C,0,3.55298,-1.18584,0.988
 858\C,0,2.0406,-1.21579,1.41411\C,0,-0.0108255,-1.1251,-0.233566\C,0,-
 2.24277,-0.473258,0.734568\H,0,-2.00699,2.32992,1.99471\H,0,-3.4907,-3

 Normal termination of Gaussian 16 at Tue Apr  8 21:39:52 2025.
