 Gaussian 16, Revision C.01,

 ----------------------------------------------------------------------
 #t hf aug-cc-pvdz symm=none int=(grid=ultrafine) guess=(read,tcheck) s
 table=(opt,rrhf)
 ----------------------------------------------------------------------
 -----
 title
 -----
 Symbolic Z-matrix:
 Charge =  0 Multiplicity = 1

 SCF Done:  E(RHF) =  -389.482272834     A.U. after   15 cycles
 Normal termination of Gaussian 16 at Tue Apr  8 21:40:46 2025.
 Gaussian 16:  ES64L-G16RevC.01  3-Jul-2019

 ----------------------------------------------------------------------
 #t hf aug-cc-pvdz iop(5/13=1,5/36=2,99/5=2) pseudo=read geom=check gue
 ss=(read,tcheck) scf=(maxcycle=1)
 ----------------------------------------------------------------------
 -----
 title
 -----
 Structure from the checkpoint file:  "ANI1ccx_473_conf6_mol1.chk"
 Charge =  0 Multiplicity = 1

                         Standard orientation:
 ---------------------------------------------------------------------
 Center     Atomic      Atomic             Coordinates (Angstroms)
 Number     Number       Type             X           Y           Z
 ---------------------------------------------------------------------
      1          6           0       -1.200770    0.945407   -0.036427
      2          6           0       -1.189981   -1.391108    0.030923
      3          1           0       -1.914952   -2.213188    0.089679
      4          7           0       -1.792861   -0.127336   -0.020663
      5          7           0        2.964429   -0.138258   -0.111933
      6          7           0        2.030520    0.444944    0.150940
      7          8           0       -0.768149    2.022422   -0.007795
      8          8           0       -0.001246   -1.568429   -0.015338
 ---------------------------------------------------------------------

 SCF Done:  E(RHF) =  -389.601818926     A.U. after    2 cycles

 The electronic state is 1-A.
 Alpha  occ. eigenvalues --  -20.67640 -20.59813 -15.75244 -15.74976 -15.68585
 Alpha  occ. eigenvalues --  -11.46871 -11.41838  -1.47752  -1.40553  -1.38832
 Alpha  occ. eigenvalues --   -1.26733  -0.95282  -0.79225  -0.76494  -0.75056
 Alpha  occ. eigenvalues --   -0.71511  -0.70406  -0.67274  -0.60897  -0.60224
 Alpha  occ. eigenvalues --   -0.58137  -0.58078  -0.52975  -0.48307  -0.46911
 Alpha virt. eigenvalues --    0.03166   0.06398   0.06621   0.07909   0.08645
 Alpha virt. eigenvalues --    0.10274   0.10714   0.11324   0.12525   0.13246
 Alpha virt. eigenvalues --    0.13592   0.14614   0.15463   0.16167   0.17000

 Mulliken charges:
               1
     1  C   -0.016016
     2  C    0.858613
     3  H   -0.174315
     4  N   -0.189403
     5  N   -0.027032
     6  N    0.012200
     7  O   -0.138500
     8  O   -0.325547
 Sum of Mulliken charges =  -0.00000

 Dipole moment (field-independent basis, Debye):
    X=             -2.5255    Y=             -0.8661    Z=              0.0831  Tot=              2.6712

 Test job not archived.
 1\1\GINC-SE226\SP\RHF\Aug-CC-pVDZ\C2H1N3O2\OHZDE\08-Apr-2025\0\\#t hf
 aug-cc-pvdz iop(5/13=1,5/36=2,99/5=2) pseudo=read geom=check guess=(re
 ad,tcheck) scf=(maxcycle=1)\\title\\0,1\C,0,-1.20077,0.945405,-0.03642
 69\C,0,-1.18998,-1.39111,0.0309232\H,0,-1.91495,-2.21319,0.089679\N,0,
 -1.79286,-0.127338,-0.0206632\N,0,2.96443,-0.138258,-0.111933\N,0,2.03
 052,0.444944,0.15094\O,0,-0.76815,2.02242,-0.00779478\O,0,-0.00124432,
 -1.56843,-0.0153385\\Version=ES64L-G16RevC.01\State=1-A\HF=-389.601818
 9\RMSD=2.503e-03\Dipole=-0.9936082,-0.3407378,0.032712\Quadrupole=0.78

 Normal termination of Gaussian 16 at Tue Apr  8 21:40:49 2025.
