 Gaussian 16, Revision C.01,

 ----------------------------------------------------------------------
 #t hf aug-cc-pvdz symm=none int=(grid=ultrafine) guess=(read,tcheck) s
 table=(opt,rrhf)
 ----------------------------------------------------------------------
 -----
 title
 -----
 Symbolic Z-matrix:
 Charge =  0 Multiplicity = 1

 SCF Done:  E(RHF) =  -567.738732105     A.U. after   14 cycles
 Normal termination of Gaussian 16 at Tue Apr  8 19:17:33 2025.
 Gaussian 16:  ES64L-G16RevC.01  3-Jul-2019

 ----------------------------------------------------------------------
 #t hf aug-cc-pvdz iop(5/13=1,5/36=2,99/5=2) pseudo=read geom=check gue
 ss=(read,tcheck) scf=(maxcycle=1)
 ----------------------------------------------------------------------
 -----
 title
 -----
 Structure from the checkpoint file:  "ANI1ccx_1213_conf1_mol1.chk"
 Charge =  0 Multiplicity = 1

                         Standard orientation:
 ---------------------------------------------------------------------
 Center     Atomic      Atomic             Coordinates (Angstroms)
 Number     Number       Type             X           Y           Z
 ---------------------------------------------------------------------
      1          6           0        1.246539    0.441189    0.462334
      2          6           0        1.070511   -0.618153   -0.637658
      3          6           0        1.636678    1.782813   -0.202377
      4          6           0       -1.424739   -0.911609   -0.085189
      5          6           0       -1.752241    0.533987    0.119608
      6          6           0       -1.337838   -1.779930    1.174460
      7          1           0       -2.230632    1.983239   -1.013780
      8          1           0       -0.282158   -1.900949    1.393720
      9          1           0       -1.888789   -1.384891    2.073040
     10          1           0       -1.586997   -2.695691    0.882658
     11          1           0       -2.288399   -1.331601   -0.662590
     12          1           0       -0.353713   -1.310769   -1.802410
     13          1           0        0.745929    2.056862   -0.937853
     14          1           0        1.646057    2.631963    0.516120
     15          1           0        2.566858    1.725534   -0.735891
     16          1           0        0.347958    0.437009    0.998328
     17          1           0        2.746629    0.614877    1.906860
     18          1           0        3.087330   -0.254636    0.616384
     19          7           0        2.315810   -0.077741    1.271420
     20          7           0       -0.268610   -0.950753   -0.898739
     21          8           0        2.037311   -1.082077   -1.243240
     22          8           0       -1.605451    1.294339    1.032600
     23          8           0       -2.116101    1.030079   -1.143160
 ---------------------------------------------------------------------

 SCF Done:  E(RHF) =  -567.913037352     A.U. after    2 cycles

 The electronic state is 1-A.
 Alpha  occ. eigenvalues --  -20.62676 -20.59454 -20.55400 -15.65742 -15.60528
 Alpha  occ. eigenvalues --  -11.41892 -11.37733 -11.32536 -11.27249 -11.24731
 Alpha  occ. eigenvalues --  -11.24162  -1.43596  -1.35147  -1.33913  -1.23348
 Alpha  occ. eigenvalues --   -1.16598  -1.05681  -0.98763  -0.95110  -0.89638
 Alpha  occ. eigenvalues --   -0.82193  -0.76563  -0.74092  -0.73257  -0.72599
 Alpha  occ. eigenvalues --   -0.68960  -0.65269  -0.64524  -0.63454  -0.61587
 Alpha  occ. eigenvalues --   -0.59552  -0.58431  -0.57500  -0.56557  -0.54157
 Alpha  occ. eigenvalues --   -0.53570  -0.53001  -0.52550  -0.50786  -0.49338
 Alpha  occ. eigenvalues --   -0.43912  -0.40734  -0.38706
 Alpha virt. eigenvalues --    0.02722   0.03465   0.04126   0.04721   0.05751
 Alpha virt. eigenvalues --    0.06007   0.06504   0.06576   0.08351   0.08927
 Alpha virt. eigenvalues --    0.09168   0.09662   0.10555   0.11337   0.12287

 Mulliken charges:
               1
     1  C    0.264878
     2  C    0.700223
     3  C    0.638832
     4  C   -0.045359
     5  C    0.495304
     6  C    1.000706
     7  H    0.157032
     8  H   -0.079438
     9  H    0.028910
    10  H   -0.258189
    11  H   -0.071748
    12  H   -0.151678
    13  H    0.131073
    14  H   -0.027945
    15  H   -0.075169
    16  H   -0.413184
    17  H   -0.011807
    18  H    0.096156
    19  N   -0.392856
    20  N   -0.339734
    21  O   -0.589039
    22  O   -0.476801
    23  O   -0.580169
 Sum of Mulliken charges =  -0.00000

 Dipole moment (field-independent basis, Debye):
    X=             -3.0728    Y=              0.8687    Z=             -0.0568  Tot=              3.1938

 Test job not archived.
 1\1\GINC-SE344\SP\RHF\Aug-CC-pVDZ\C6H12N2O3\OHZDE\08-Apr-2025\0\\#t hf
  aug-cc-pvdz iop(5/13=1,5/36=2,99/5=2) pseudo=read geom=check guess=(r
 ead,tcheck) scf=(maxcycle=1)\\title\\0,1\C,0,1.24654,0.441187,0.462334
 \C,0,1.07051,-0.618155,-0.637658\C,0,1.63668,1.78281,-0.202377\C,0,-1.
 42474,-0.911608,-0.0851885\C,0,-1.75224,0.533988,0.119608\C,0,-1.33784
 ,-1.77993,1.17446\H,0,-2.23063,1.98324,-1.01378\H,0,-0.28216,-1.90095,
 1.39372\H,0,-1.88879,-1.38489,2.07304\H,0,-1.587,-2.69569,0.882658\H,0
 ,-2.2884,-1.3316,-0.66259\H,0,-0.353714,-1.31077,-1.80241\H,0,0.745931

 Normal termination of Gaussian 16 at Tue Apr  8 19:17:49 2025.
