 Gaussian 16, Revision C.01,

 ----------------------------------------------------------------------
 #t hf aug-cc-pvdz symm=none int=(grid=ultrafine) guess=(read,tcheck) s
 table=(opt,rrhf)
 ----------------------------------------------------------------------
 -----
 title
 -----
 Symbolic Z-matrix:
 Charge =  0 Multiplicity = 1

 SCF Done:  E(RHF) =  -722.749883636     A.U. after   14 cycles
 Normal termination of Gaussian 16 at Tue Apr  8 22:01:43 2025.
 Gaussian 16:  ES64L-G16RevC.01  3-Jul-2019

 ----------------------------------------------------------------------
 #t hf aug-cc-pvdz iop(5/13=1,5/36=2,99/5=2) pseudo=read geom=check gue
 ss=(read,tcheck) scf=(maxcycle=1)
 ----------------------------------------------------------------------
 -----
 title
 -----
 Structure from the checkpoint file:  "ANI1ccx_67_conf2_mol2.chk"
 Charge =  0 Multiplicity = 1

                         Standard orientation:
 ---------------------------------------------------------------------
 Center     Atomic      Atomic             Coordinates (Angstroms)
 Number     Number       Type             X           Y           Z
 ---------------------------------------------------------------------
      1          6           0       -2.268499    0.197593   -0.892101
      2          6           0        1.905081    0.438331    2.000210
      3          6           0        2.221831    0.937270    0.579063
      4          6           0        2.263810   -1.241280   -0.436559
      5          6           0        1.550540    0.064047   -0.560667
      6          6           0        1.910132    2.473120    0.385920
      7          6           0       -3.055830    0.069555    1.375450
      8          6           0       -2.961349    1.051812    0.236310
      9          6           0       -0.749871    0.629770   -1.124400
     10          6           0       -3.206190   -1.296838    0.677322
     11          1           0        3.315841    0.768887    0.437308
     12          1           0        2.078139   -2.964750    0.075052
     13          1           0        0.861428    2.586280    0.614185
     14          1           0        2.443012    3.038119    1.113560
     15          1           0        2.204422    2.748320   -0.691872
     16          1           0        2.056480   -0.614404    2.204520
     17          1           0        0.895616    0.822141    2.152290
     18          1           0        2.551521    1.023809    2.674220
     19          1           0        1.680011    0.552825   -1.527290
     20          1           0       -4.256760   -1.479237    0.391686
     21          1           0       -2.941431   -2.091948    1.400010
     22          1           0       -2.040620    0.054352    1.876710
     23          1           0       -3.876899    0.258670    2.098020
     24          1           0       -2.414409    1.950062    0.505109
     25          1           0       -3.961109    1.345742   -0.145052
     26          1           0       -2.789239    0.298398   -1.888370
     27          1           0       -2.501080   -1.826678   -1.120800
     28          1           0       -0.183965   -0.977225    0.090417
     29          7           0       -2.323320   -1.179698   -0.417253
     30          7           0        0.095922   -0.084854   -0.312868
     31          8           0        3.450410   -1.362281   -0.528350
     32          8           0       -0.350736    1.508531   -1.839310
     33          8           0        1.501939   -2.218970    0.043645
 ---------------------------------------------------------------------

 SCF Done:  E(RHF) =  -722.969226856     A.U. after    2 cycles

 The electronic state is 1-A.
 Alpha  occ. eigenvalues --  -20.63711 -20.56483 -20.53746 -15.63515 -15.61674
 Alpha  occ. eigenvalues --  -11.39996 -11.35739 -11.29383 -11.28717 -11.26884
 Alpha  occ. eigenvalues --  -11.24954 -11.24611 -11.24495 -11.22468 -11.22340
 Alpha  occ. eigenvalues --   -1.45519  -1.35752  -1.34178  -1.23095  -1.18933
 Alpha  occ. eigenvalues --   -1.06602  -1.04012  -1.00163  -0.97089  -0.92268
 Alpha  occ. eigenvalues --   -0.85969  -0.84188  -0.80275  -0.78204  -0.76811
 Alpha  occ. eigenvalues --   -0.73743  -0.72228  -0.72083  -0.68224  -0.67643
 Alpha  occ. eigenvalues --   -0.65588  -0.63603  -0.62175  -0.60922  -0.59809
 Alpha  occ. eigenvalues --   -0.59040  -0.57752  -0.56759  -0.56519  -0.54570
 Alpha  occ. eigenvalues --   -0.53906  -0.53141  -0.51701  -0.50130  -0.49155
 Alpha  occ. eigenvalues --   -0.48950  -0.48005  -0.47577  -0.46451  -0.45605
 Alpha  occ. eigenvalues --   -0.43498  -0.38673  -0.37119
 Alpha virt. eigenvalues --    0.02432   0.03193   0.03507   0.04137   0.05197
 Alpha virt. eigenvalues --    0.05659   0.05838   0.06297   0.06408   0.07263
 Alpha virt. eigenvalues --    0.07344   0.07850   0.08295   0.08586   0.09086

 Mulliken charges:
               1
     1  C    0.250068
     2  C    0.859953
     3  C   -0.912527
     4  C    0.928010
     5  C    0.159380
     6  C    0.762608
     7  C   -0.131648
     8  C    0.338683
     9  C    0.738494
    10  C    0.996201
    11  H   -0.156775
    12  H    0.213129
    13  H   -0.080510
    14  H   -0.164924
    15  H    0.154863
    16  H   -0.165202
    17  H   -0.017212
    18  H   -0.041670
    19  H   -0.245183
    20  H   -0.224329
    21  H   -0.106768
    22  H   -0.045577
    23  H   -0.073964
    24  H   -0.200800
    25  H   -0.098773
    26  H   -0.067964
    27  H   -0.108114
    28  H    0.019678
    29  N   -0.503515
    30  N   -0.329350
    31  O   -0.551329
    32  O   -0.593628
    33  O   -0.601309
 Sum of Mulliken charges =  -0.00000

 Dipole moment (field-independent basis, Debye):
    X=             -3.7805    Y=             -2.9302    Z=              2.1745  Tot=              5.2542

 Test job not archived.
 1\1\GINC-SE250\SP\RHF\Aug-CC-pVDZ\C10H18N2O3\OHZDE\08-Apr-2025\0\\#t h
 f aug-cc-pvdz iop(5/13=1,5/36=2,99/5=2) pseudo=read geom=check guess=(
 read,tcheck) scf=(maxcycle=1)\\title\\0,1\C,0,-2.2685,0.197591,-0.8921
 01\C,0,1.90508,0.438331,2.00021\C,0,2.22183,0.93727,0.579063\C,0,2.263
 81,-1.24128,-0.436559\C,0,1.55054,0.0640474,-0.560667\C,0,1.91013,2.47
 312,0.38592\C,0,-3.05583,0.0695527,1.37545\C,0,-2.96135,1.05181,0.2363
 1\C,0,-0.749872,0.629769,-1.1244\C,0,-3.20619,-1.29684,0.677322\H,0,3.
 31584,0.768888,0.437308\H,0,2.07814,-2.96475,0.0750524\H,0,0.861426,2.

 Normal termination of Gaussian 16 at Tue Apr  8 22:02:27 2025.
