 Gaussian 16, Revision C.01,

 ----------------------------------------------------------------------
 #t hf aug-cc-pvdz symm=none int=(grid=ultrafine) guess=(read,tcheck) s
 table=(opt,rrhf)
 ----------------------------------------------------------------------
 -----
 title
 -----
 Symbolic Z-matrix:
 Charge =  0 Multiplicity = 1

 SCF Done:  E(RHF) =  -356.587636144     A.U. after   14 cycles
 Normal termination of Gaussian 16 at Tue Apr  8 21:11:22 2025.
 Gaussian 16:  ES64L-G16RevC.01  3-Jul-2019

 ----------------------------------------------------------------------
 #t hf aug-cc-pvdz iop(5/13=1,5/36=2,99/5=2) pseudo=read geom=check gue
 ss=(read,tcheck) scf=(maxcycle=1)
 ----------------------------------------------------------------------
 -----
 title
 -----
 Structure from the checkpoint file:  "ANI1ccx_1890_conf2_mol1.chk"
 Charge =  0 Multiplicity = 1

                         Standard orientation:
 ---------------------------------------------------------------------
 Center     Atomic      Atomic             Coordinates (Angstroms)
 Number     Number       Type             X           Y           Z
 ---------------------------------------------------------------------
      1          1           0       -2.422429    1.249220    0.449939
      2          1           0       -0.682550   -0.388057   -0.976035
      3          1           0        3.526411   -0.866803   -0.124373
      4          1           0        1.391911   -0.283349   -0.204652
      5          1           0        2.069391    0.174133    1.252700
      6          7           0        2.047411    0.351130    0.252370
      7          8           0       -2.754979    0.617439   -0.200856
      8          8           0       -2.123809   -0.572051    0.184064
      9          8           0       -0.752351   -0.419617   -0.013609
     10          8           0        3.354311    0.081347   -0.240120
 ---------------------------------------------------------------------

 SCF Done:  E(RHF) =  -356.704746666     A.U. after    2 cycles

 The electronic state is 1-A.
 Alpha  occ. eigenvalues --  -20.72452 -20.67322 -20.66894 -20.60479 -15.67077
 Alpha  occ. eigenvalues --   -1.53159  -1.35715  -1.35490  -1.14185  -1.05063
 Alpha  occ. eigenvalues --   -0.82677  -0.73547  -0.72325  -0.71912  -0.69738
 Alpha  occ. eigenvalues --   -0.69616  -0.58996  -0.56544  -0.55424  -0.51991
 Alpha  occ. eigenvalues --   -0.50127  -0.42197
 Alpha virt. eigenvalues --    0.03244   0.04089   0.04814   0.06515   0.09067
 Alpha virt. eigenvalues --    0.12299   0.13625   0.14854   0.17304   0.18944
 Alpha virt. eigenvalues --    0.19548   0.20084   0.20535   0.20984   0.21756

 Mulliken charges:
               1
     1  H    0.241850
     2  H    0.255206
     3  H    0.136140
     4  H    0.093946
     5  H    0.096116
     6  N    0.130101
     7  O   -0.184880
     8  O   -0.089178
     9  O   -0.235217
    10  O   -0.444084
 Sum of Mulliken charges =  -0.00000

 Dipole moment (field-independent basis, Debye):
    X=             -0.4117    Y=             -1.3724    Z=              0.5769  Tot=              1.5446

 Test job not archived.
 1\1\GINC-SE250\SP\RHF\Aug-CC-pVDZ\H5N1O4\OHZDE\08-Apr-2025\0\\#t hf au
 g-cc-pvdz iop(5/13=1,5/36=2,99/5=2) pseudo=read geom=check guess=(read
 ,tcheck) scf=(maxcycle=1)\\title\\0,1\H,0,-2.42243,1.24922,0.449939\H,
 0,-0.682551,-0.388057,-0.976035\H,0,3.52641,-0.866803,-0.124373\H,0,1.
 39191,-0.283349,-0.204652\H,0,2.06939,0.174133,1.2527\N,0,2.04741,0.35
 113,0.25237\O,0,-2.75498,0.617439,-0.200856\O,0,-2.12381,-0.572051,0.1
 84064\O,0,-0.752352,-0.419617,-0.0136091\O,0,3.35431,0.0813473,-0.2401
 2\\Version=ES64L-G16RevC.01\State=1-A\HF=-356.7047467\RMSD=2.209e-03\D

 Normal termination of Gaussian 16 at Tue Apr  8 21:11:25 2025.
