 Gaussian 16, Revision C.01,

 ----------------------------------------------------------------------
 #t hf aug-cc-pvdz symm=none int=(grid=ultrafine) guess=(read,tcheck) s
 table=(opt,rrhf)
 ----------------------------------------------------------------------
 -----
 title
 -----
 Symbolic Z-matrix:
 Charge =  0 Multiplicity = 1

 SCF Done:  E(RHF) =  -1021.06036803     A.U. after   16 cycles
 Normal termination of Gaussian 16 at Tue Apr  8 22:06:15 2025.
 Gaussian 16:  ES64L-G16RevC.01  3-Jul-2019

 ----------------------------------------------------------------------
 #t hf aug-cc-pvdz iop(5/13=1,5/36=2,99/5=2) pseudo=read geom=check gue
 ss=(read,tcheck) scf=(maxcycle=1)
 ----------------------------------------------------------------------
 -----
 title
 -----
 Structure from the checkpoint file:  "ANI1ccx_54_conf17_mol1.chk"
 Charge =  0 Multiplicity = 1

                         Standard orientation:
 ---------------------------------------------------------------------
 Center     Atomic      Atomic             Coordinates (Angstroms)
 Number     Number       Type             X           Y           Z
 ---------------------------------------------------------------------
      1          6           0        1.341310   -0.057566    0.975740
      2          6           0       -4.327360   -0.573550   -0.043035
      3          6           0       -1.882930   -0.635679    0.642619
      4          6           0       -1.128360    1.718719   -0.227160
      5          6           0       -1.303290    0.204319   -0.509213
      6          6           0       -3.083370   -1.440271    0.147724
      7          6           0        3.659840    1.070159    0.568037
      8          6           0        2.130150    1.188759    0.432637
      9          6           0        0.970152   -0.882178   -0.305610
     10          6           0        3.978710   -0.033869   -0.409981
     11          1           0       -2.085270    0.289367   -1.357230
     12          1           0       -2.955160    1.837549    0.258861
     13          1           0       -6.204980   -0.721409   -0.327697
     14          1           0       -2.919900   -1.665491   -0.977949
     15          1           0       -3.263590   -2.402601    0.684211
     16          1           0       -2.003420    0.016530    1.497430
     17          1           0       -1.093850   -1.203981    0.969175
     18          1           0       -0.195990   -0.932051   -1.861100
     19          1           0        4.352850   -1.918771   -0.269473
     20          1           0        4.265310    2.008079    0.468844
     21          1           0        3.926460    0.661263    1.548950
     22          1           0        1.793810    2.183049    1.033830
     23          1           0        1.706330    1.485869   -0.545610
     24          1           0        0.465155    0.361115    1.397370
     25          1           0        1.470830   -1.797901    1.988780
     26          1           0        2.926490   -1.113761    1.480430
     27          7           0        2.006490   -0.905569    1.951850
     28          7           0       -0.100846   -0.341921   -1.042850
     29          8           0        1.729330   -1.751081   -0.777741
     30          8           0        4.042700   -0.004903   -1.624080
     31          8           0        4.429210   -1.130581    0.238433
     32          8           0       -0.186237    2.316799   -0.694910
     33          8           0       -4.437650    0.625412    0.196877
     34          8           0       -5.436980   -1.314571   -0.287652
     35          8           0       -2.097080    2.295489    0.451284
 ---------------------------------------------------------------------

 SCF Done:  E(RHF) =  -1021.36773612     A.U. after    2 cycles

 The electronic state is 1-A.
 Alpha  occ. eigenvalues --  -20.66764 -20.62873 -20.61938 -20.60553 -20.56677
 Alpha  occ. eigenvalues --  -20.56356 -20.54519 -15.66439 -15.61782 -11.45887
 Alpha  occ. eigenvalues --  -11.40733 -11.38660 -11.38364 -11.33617 -11.32113
 Alpha  occ. eigenvalues --  -11.29260 -11.28140 -11.25643 -11.25587  -1.46679
 Alpha  occ. eigenvalues --   -1.43461  -1.41339  -1.36694  -1.35205  -1.33788
 Alpha  occ. eigenvalues --   -1.30441  -1.23115  -1.16878  -1.11623  -1.05545
 Alpha  occ. eigenvalues --   -1.01972  -0.97127  -0.93819  -0.87819  -0.85496
 Alpha  occ. eigenvalues --   -0.85165  -0.80916  -0.78119  -0.76911  -0.74609
 Alpha  occ. eigenvalues --   -0.74026  -0.73054  -0.71294  -0.70877  -0.69627
 Alpha  occ. eigenvalues --   -0.68891  -0.67444  -0.66999  -0.66815  -0.65127
 Alpha  occ. eigenvalues --   -0.63799  -0.63235  -0.61909  -0.59944  -0.59372
 Alpha  occ. eigenvalues --   -0.59120  -0.57493  -0.57121  -0.57033  -0.55783
 Alpha  occ. eigenvalues --   -0.55234  -0.54238  -0.51849  -0.51529  -0.50646
 Alpha  occ. eigenvalues --   -0.49918  -0.48885  -0.47195  -0.46556  -0.45902
 Alpha  occ. eigenvalues --   -0.44043  -0.41663  -0.39374
 Alpha virt. eigenvalues --    0.01445   0.02656   0.03229   0.04173   0.04594
 Alpha virt. eigenvalues --    0.05291   0.06019   0.06453   0.06768   0.06934
 Alpha virt. eigenvalues --    0.07529   0.07757   0.08493   0.08963   0.09936

 Mulliken charges:
               1
     1  C    0.652641
     2  C    0.558520
     3  C    1.774337
     4  C    0.790205
     5  C   -0.605762
     6  C    0.009067
     7  C    0.445039
     8  C    0.296687
     9  C    0.453622
    10  C    0.813387
    11  H   -0.148590
    12  H    0.249880
    13  H    0.202278
    14  H    0.328112
    15  H   -0.080798
    16  H   -0.310679
    17  H   -0.510145
    18  H   -0.087151
    19  H    0.167994
    20  H   -0.080896
    21  H    0.043215
    22  H    0.140241
    23  H   -0.222868
    24  H   -0.556135
    25  H    0.048839
    26  H    0.190496
    27  N   -0.519052
    28  N   -0.203889
    29  O   -0.613448
    30  O   -0.585321
    31  O   -0.566025
    32  O   -0.508253
    33  O   -0.521768
    34  O   -0.540878
    35  O   -0.502902
 Sum of Mulliken charges =  -0.00000

 Dipole moment (field-independent basis, Debye):
    X=             -7.9043    Y=             -3.9072    Z=              1.8545  Tot=              9.0102

 Test job not archived.
 1\1\GINC-SE015\SP\RHF\Aug-CC-pVDZ\C10H16N2O7\OHZDE\08-Apr-2025\0\\#t h
 f aug-cc-pvdz iop(5/13=1,5/36=2,99/5=2) pseudo=read geom=check guess=(
 read,tcheck) scf=(maxcycle=1)\\title\\0,1\C,0,1.34131,-0.0575649,0.975
 74\C,0,-4.32736,-0.573549,-0.0430347\C,0,-1.88293,-0.635678,0.642619\C
 ,0,-1.12836,1.71872,-0.22716\C,0,-1.30329,0.20432,-0.509213\C,0,-3.083
 37,-1.44027,0.147724\C,0,3.65984,1.07016,0.568037\C,0,2.13015,1.18876,
 0.432637\C,0,0.970152,-0.882177,-0.30561\C,0,3.97871,-0.033868,-0.4099
 81\H,0,-2.08527,0.289368,-1.35723\H,0,-2.95516,1.83755,0.258861\H,0,-6

 Normal termination of Gaussian 16 at Tue Apr  8 22:07:19 2025.
