 Gaussian 16, Revision C.01,

 ----------------------------------------------------------------------
 #t hf aug-cc-pvdz symm=none int=(grid=ultrafine) guess=(read,tcheck) s
 table=(opt,rrhf)
 ----------------------------------------------------------------------
 -----
 title
 -----
 Symbolic Z-matrix:
 Charge =  0 Multiplicity = 1

 SCF Done:  E(RHF) =  -430.216501915     A.U. after   14 cycles
 Normal termination of Gaussian 16 at Tue Apr  8 21:39:45 2025.
 Gaussian 16:  ES64L-G16RevC.01  3-Jul-2019

 ----------------------------------------------------------------------
 #t hf aug-cc-pvdz iop(5/13=1,5/36=2,99/5=2) pseudo=read geom=check gue
 ss=(read,tcheck) scf=(maxcycle=1)
 ----------------------------------------------------------------------
 -----
 title
 -----
 Structure from the checkpoint file:  "ANI1ccx_470_conf9_mol1.chk"
 Charge =  0 Multiplicity = 1

                         Standard orientation:
 ---------------------------------------------------------------------
 Center     Atomic      Atomic             Coordinates (Angstroms)
 Number     Number       Type             X           Y           Z
 ---------------------------------------------------------------------
      1          6           0        1.092270   -0.236715   -0.023121
      2          6           0       -1.059890   -0.144131    0.029043
      3          1           0        0.972033    1.902350   -0.328169
      4          7           0        0.564839    1.085890    0.286943
      5          8           0        2.224460   -0.510858   -0.033829
      6          8           0       -0.728109    1.171681   -0.190699
      7          8           0       -2.130370   -0.608007    0.058113
      8          8           0       -0.006004   -0.955129   -0.048079
 ---------------------------------------------------------------------

 SCF Done:  E(RHF) =  -430.356338084     A.U. after    2 cycles

 The electronic state is 1-A.
 Alpha  occ. eigenvalues --  -20.71695 -20.71415 -20.62429 -20.61246 -15.76353
 Alpha  occ. eigenvalues --  -11.50013 -11.48615  -1.60126  -1.47667  -1.45102
 Alpha  occ. eigenvalues --   -1.41831  -1.15487  -0.98731  -0.94050  -0.81827
 Alpha  occ. eigenvalues --   -0.78390  -0.74646  -0.72446  -0.71024  -0.67787
 Alpha  occ. eigenvalues --   -0.66810  -0.63783  -0.56909  -0.55353  -0.53363
 Alpha  occ. eigenvalues --   -0.46894
 Alpha virt. eigenvalues --    0.02672   0.06881   0.07122   0.07301   0.10192
 Alpha virt. eigenvalues --    0.11025   0.11256   0.11831   0.13430   0.13704
 Alpha virt. eigenvalues --    0.15185   0.16364   0.17036   0.20228   0.22802

 Mulliken charges:
               1
     1  C    0.731851
     2  C    0.740917
     3  H    0.250181
     4  N   -0.203585
     5  O   -0.285280
     6  O   -0.569378
     7  O   -0.295568
     8  O   -0.369138
 Sum of Mulliken charges =   0.00000

 Dipole moment (field-independent basis, Debye):
    X=              1.0586    Y=              2.4344    Z=             -0.8330  Tot=              2.7823

 Test job not archived.
 1\1\GINC-SE250\SP\RHF\Aug-CC-pVDZ\C2H1N1O4\OHZDE\08-Apr-2025\0\\#t hf
 aug-cc-pvdz iop(5/13=1,5/36=2,99/5=2) pseudo=read geom=check guess=(re
 ad,tcheck) scf=(maxcycle=1)\\title\\0,1\C,0,1.09227,-0.236715,-0.02312
 11\C,0,-1.05989,-0.144132,0.0290431\H,0,0.972032,1.90235,-0.328169\N,0
 ,0.564838,1.08589,0.286943\O,0,2.22446,-0.510858,-0.0338293\O,0,-0.728
 11,1.17168,-0.190699\O,0,-2.13037,-0.608008,0.0581127\O,0,-0.00600381,
 -0.95513,-0.0480794\\Version=ES64L-G16RevC.01\State=1-A\HF=-430.356338
 1\RMSD=2.900e-03\Dipole=0.416495,0.9577783,-0.3277173\Quadrupole=-6.88

 Normal termination of Gaussian 16 at Tue Apr  8 21:39:47 2025.
