 Gaussian 16, Revision C.01,

 ----------------------------------------------------------------------
 #t hf aug-cc-pvdz symm=none int=(grid=ultrafine) guess=(read,tcheck) s
 table=(opt,rrhf)
 ----------------------------------------------------------------------
 -----
 title
 -----
 Symbolic Z-matrix:
 Charge =  0 Multiplicity = 1

 SCF Done:  E(RHF) =  -451.826990891     A.U. after   13 cycles
 Normal termination of Gaussian 16 at Tue Apr  8 21:52:15 2025.
 Gaussian 16:  ES64L-G16RevC.01  3-Jul-2019

 ----------------------------------------------------------------------
 #t hf aug-cc-pvdz iop(5/13=1,5/36=2,99/5=2) pseudo=read geom=check gue
 ss=(read,tcheck) scf=(maxcycle=1)
 ----------------------------------------------------------------------
 -----
 title
 -----
 Structure from the checkpoint file:  "ANI1ccx_764_conf10_mol1.chk"
 Charge =  0 Multiplicity = 1

                         Standard orientation:
 ---------------------------------------------------------------------
 Center     Atomic      Atomic             Coordinates (Angstroms)
 Number     Number       Type             X           Y           Z
 ---------------------------------------------------------------------
      1          6           0       -1.908150   -0.742304    0.520882
      2          6           0       -0.098847    0.754187    0.085341
      3          6           0        2.337601    0.054082    0.214867
      4          1           0       -2.343119    0.369188   -0.967387
      5          1           0       -2.111090   -1.731619    0.972642
      6          1           0       -2.392340   -0.102403    1.238210
      7          1           0        0.235129   -1.240270    0.451617
      8          1           0        1.450811    1.908439   -0.391222
      9          1           0        3.281221    0.502086   -0.082195
     10          1           0        2.352130   -0.132662    1.318620
     11          1           0        2.022970   -1.192871   -1.234060
     12          7           0       -0.488847   -0.505079    0.395781
     13          7           0        1.241971    0.917397   -0.185413
     14          8           0       -2.535230   -0.581138   -0.704203
     15          8           0       -0.913581    1.646120    0.032651
     16          8           0        2.229910   -1.272721   -0.291616
 ---------------------------------------------------------------------

 SCF Done:  E(RHF) =  -451.970855113     A.U. after    2 cycles

 The electronic state is 1-A.
 Alpha  occ. eigenvalues --  -20.60870 -20.56408 -20.53669 -15.66515 -15.64519
 Alpha  occ. eigenvalues --  -11.39712 -11.36270 -11.32109  -1.38469  -1.36320
 Alpha  occ. eigenvalues --   -1.32350  -1.21562  -1.16900  -0.95993  -0.91778
 Alpha  occ. eigenvalues --   -0.80347  -0.77666  -0.73747  -0.70634  -0.68110
 Alpha  occ. eigenvalues --   -0.67283  -0.65707  -0.64311  -0.61496  -0.59837
 Alpha  occ. eigenvalues --   -0.56530  -0.52343  -0.51739  -0.47024  -0.46509
 Alpha  occ. eigenvalues --   -0.42708  -0.40757
 Alpha virt. eigenvalues --    0.02533   0.03705   0.04133   0.04850   0.06065
 Alpha virt. eigenvalues --    0.06655   0.07883   0.09316   0.10646   0.10927
 Alpha virt. eigenvalues --    0.12074   0.13333   0.13495   0.14444   0.14935

 Mulliken charges:
               1
     1  C    1.212524
     2  C    0.614113
     3  C    1.166230
     4  H    0.217670
     5  H   -0.218947
     6  H   -0.274428
     7  H   -0.008225
     8  H   -0.016743
     9  H   -0.246333
    10  H   -0.131870
    11  H    0.161663
    12  N   -0.351953
    13  N   -0.458460
    14  O   -0.588162
    15  O   -0.512403
    16  O   -0.564676
 Sum of Mulliken charges =  -0.00000

 Dipole moment (field-independent basis, Debye):
    X=              4.2727    Y=             -0.2705    Z=              0.5100  Tot=              4.3115

 Test job not archived.
 1\1\GINC-SE009\SP\RHF\Aug-CC-pVDZ\C3H8N2O3\OHZDE\08-Apr-2025\0\\#t hf
 aug-cc-pvdz iop(5/13=1,5/36=2,99/5=2) pseudo=read geom=check guess=(re
 ad,tcheck) scf=(maxcycle=1)\\title\\0,1\C,0,-1.90815,-0.742304,0.52088
 2\C,0,-0.0988478,0.754187,0.0853405\C,0,2.3376,0.0540833,0.214867\H,0,
 -2.34312,0.369187,-0.967387\H,0,-2.11109,-1.73162,0.972642\H,0,-2.3923
 4,-0.102404,1.23821\H,0,0.235129,-1.24027,0.451617\H,0,1.45081,1.90844
 ,-0.391222\H,0,3.28122,0.502087,-0.0821946\H,0,2.35213,-0.132661,1.318
 62\H,0,2.02297,-1.19287,-1.23406\N,0,-0.488847,-0.505079,0.395781\N,0,

 Normal termination of Gaussian 16 at Tue Apr  8 21:52:21 2025.
