 Gaussian 16, Revision C.01,

 ----------------------------------------------------------------------
 #t hf aug-cc-pvdz symm=none int=(grid=ultrafine) guess=(read,tcheck) s
 table=(opt,rrhf)
 ----------------------------------------------------------------------
 -----
 title
 -----
 Symbolic Z-matrix:
 Charge =  0 Multiplicity = 1

 SCF Done:  E(RHF) =  -451.127094188     A.U. after   16 cycles
 Normal termination of Gaussian 16 at Tue Apr  8 21:11:26 2025.
 Gaussian 16:  ES64L-G16RevC.01  3-Jul-2019

 ----------------------------------------------------------------------
 #t hf aug-cc-pvdz iop(5/13=1,5/36=2,99/5=2) pseudo=read geom=check gue
 ss=(read,tcheck) scf=(maxcycle=1)
 ----------------------------------------------------------------------
 -----
 title
 -----
 Structure from the checkpoint file:  "ANI1ccx_1886_conf6_mol1.chk"
 Charge =  0 Multiplicity = 1

                         Standard orientation:
 ---------------------------------------------------------------------
 Center     Atomic      Atomic             Coordinates (Angstroms)
 Number     Number       Type             X           Y           Z
 ---------------------------------------------------------------------
      1          1           0       -0.241704   -0.650146   -0.167154
      2          1           0       -3.323120    0.403969    0.587427
      3          1           0        0.980505    1.334550    0.968033
      4          1           0        3.373800    0.319316   -0.793414
      5          8           0       -0.909803   -0.535948    0.527451
      6          8           0       -2.044880   -0.612802   -0.277475
      7          8           0       -2.836780    0.560607   -0.229925
      8          8           0        1.033860    1.004040    0.031844
      9          8           0        1.582740   -0.322849   -0.047278
     10          8           0        3.076180   -0.269007   -0.078978
 ---------------------------------------------------------------------

 SCF Done:  E(RHF) =  -451.275256642     A.U. after    2 cycles

 The electronic state is 1-A.
 Alpha  occ. eigenvalues --  -20.74190 -20.69336 -20.67905 -20.67531 -20.65122
 Alpha  occ. eigenvalues --  -20.63933  -1.49664  -1.48582  -1.34381  -1.33359
 Alpha  occ. eigenvalues --   -1.16103  -1.10862  -0.80989  -0.78862  -0.73176
 Alpha  occ. eigenvalues --   -0.71546  -0.70332  -0.69408  -0.67947  -0.64245
 Alpha  occ. eigenvalues --   -0.57201  -0.56389  -0.54202  -0.53583  -0.52266
 Alpha  occ. eigenvalues --   -0.48213
 Alpha virt. eigenvalues --    0.03334   0.04431   0.05325   0.07363   0.11163
 Alpha virt. eigenvalues --    0.11992   0.14354   0.15318   0.17341   0.18753
 Alpha virt. eigenvalues --    0.19500   0.19672   0.20682   0.21487   0.21885

 Mulliken charges:
               1
     1  H    0.342557
     2  H    0.224095
     3  H    0.274898
     4  H    0.219211
     5  O   -0.187578
     6  O   -0.156969
     7  O   -0.172024
     8  O   -0.264671
     9  O   -0.061954
    10  O   -0.217566
 Sum of Mulliken charges =  -0.00000

 Dipole moment (field-independent basis, Debye):
    X=              1.5202    Y=              1.9307    Z=              0.8857  Tot=              2.6121

 Test job not archived.
 1\1\GINC-SE143\SP\RHF\Aug-CC-pVDZ\H4O6\OHZDE\08-Apr-2025\0\\#t hf aug-
 cc-pvdz iop(5/13=1,5/36=2,99/5=2) pseudo=read geom=check guess=(read,t
 check) scf=(maxcycle=1)\\title\\0,1\H,0,-0.241704,-0.650146,-0.167154\
 H,0,-3.32312,0.403969,0.587427\H,0,0.980505,1.33455,0.968033\H,0,3.373
 8,0.319316,-0.793414\O,0,-0.909803,-0.535948,0.527451\O,0,-2.04488,-0.
 612802,-0.277475\O,0,-2.83678,0.560607,-0.229925\O,0,1.03386,1.00404,0
 .0318445\O,0,1.58274,-0.322849,-0.0472782\O,0,3.07618,-0.269007,-0.078
 9783\\Version=ES64L-G16RevC.01\State=1-A\HF=-451.2752566\RMSD=2.221e-0

 Normal termination of Gaussian 16 at Tue Apr  8 21:11:29 2025.
