 Gaussian 16, Revision C.01,

 ----------------------------------------------------------------------
 #t hf aug-cc-pvdz symm=none int=(grid=ultrafine) guess=(read,tcheck) s
 table=(opt,rrhf)
 ----------------------------------------------------------------------
 -----
 title
 -----
 Symbolic Z-matrix:
 Charge =  0 Multiplicity = 1

 SCF Done:  E(RHF) =  -373.429807294     A.U. after   16 cycles
 Normal termination of Gaussian 16 at Tue Apr  8 21:47:54 2025.
 Gaussian 16:  ES64L-G16RevC.01  3-Jul-2019

 ----------------------------------------------------------------------
 #t hf aug-cc-pvdz iop(5/13=1,5/36=2,99/5=2) pseudo=read geom=check gue
 ss=(read,tcheck) scf=(maxcycle=1)
 ----------------------------------------------------------------------
 -----
 title
 -----
 Structure from the checkpoint file:  "ANI1ccx_655_conf5_mol1.chk"
 Charge =  0 Multiplicity = 1

                         Standard orientation:
 ---------------------------------------------------------------------
 Center     Atomic      Atomic             Coordinates (Angstroms)
 Number     Number       Type             X           Y           Z
 ---------------------------------------------------------------------
      1          6           0        1.433661    0.405774    0.078067
      2          6           0       -0.733525   -0.647014   -0.002520
      3          6           0       -1.293449    0.766415   -0.042478
      4          1           0        0.957358    1.360630    0.285745
      5          1           0        1.071469   -1.639900    0.254521
      6          7           0        0.647698   -0.742837    0.078177
      7          7           0       -1.793718    1.799333    0.006638
      8          8           0        2.619661    0.351922   -0.115229
      9          8           0       -1.425511   -1.635328   -0.051319
 ---------------------------------------------------------------------

 SCF Done:  E(RHF) =  -373.543965188     A.U. after    2 cycles

 The electronic state is 1-A.
 Alpha  occ. eigenvalues --  -20.62700 -20.60272 -15.73256 -15.70849 -11.47712
 Alpha  occ. eigenvalues --  -11.41846 -11.34621  -1.43905  -1.40991  -1.27162
 Alpha  occ. eigenvalues --   -1.24932  -0.97179  -0.92452  -0.82093  -0.75288
 Alpha  occ. eigenvalues --   -0.72296  -0.69268  -0.67156  -0.61374  -0.60163
 Alpha  occ. eigenvalues --   -0.55986  -0.52594  -0.52550  -0.49670  -0.47547
 Alpha virt. eigenvalues --    0.03201   0.04174   0.04324   0.06528   0.07151
 Alpha virt. eigenvalues --    0.09197   0.10026   0.10333   0.11440   0.12232
 Alpha virt. eigenvalues --    0.12948   0.13246   0.13997   0.15167   0.15586

 Mulliken charges:
               1
     1  C    0.885695
     2  C    0.789707
     3  C   -0.132200
     4  H   -0.202975
     5  H   -0.056579
     6  N   -0.302437
     7  N   -0.148631
     8  O   -0.429881
     9  O   -0.402699
 Sum of Mulliken charges =   0.00000

 Dipole moment (field-independent basis, Debye):
    X=              0.5311    Y=             -0.6093    Z=              0.8744  Tot=              1.1907

 Test job not archived.
 1\1\GINC-SE247\SP\RHF\Aug-CC-pVDZ\C3H2N2O2\OHZDE\08-Apr-2025\0\\#t hf
 aug-cc-pvdz iop(5/13=1,5/36=2,99/5=2) pseudo=read geom=check guess=(re
 ad,tcheck) scf=(maxcycle=1)\\title\\0,1\C,0,1.43366,0.405774,0.0780668
 \C,0,-0.733525,-0.647016,-0.00251998\C,0,-1.29345,0.766413,-0.0424776\
 H,0,0.957357,1.36063,0.285745\H,0,1.07147,-1.6399,0.254521\N,0,0.64769
 8,-0.742838,0.0781766\N,0,-1.79372,1.79933,0.00663843\O,0,2.61966,0.35
 1923,-0.115229\O,0,-1.42551,-1.63533,-0.0513192\\Version=ES64L-G16RevC
 .01\State=1-A\HF=-373.5439652\RMSD=3.248e-03\Dipole=0.2089636,-0.23970

 Normal termination of Gaussian 16 at Tue Apr  8 21:47:57 2025.
