 Gaussian 16, Revision C.01,

 ----------------------------------------------------------------------
 #t hf aug-cc-pvdz symm=none int=(grid=ultrafine) guess=(read,tcheck) s
 table=(opt,rrhf)
 ----------------------------------------------------------------------
 -----
 title
 -----
 Symbolic Z-matrix:
 Charge =  0 Multiplicity = 1

 SCF Done:  E(RHF) =  -659.115294171     A.U. after   14 cycles
 Normal termination of Gaussian 16 at Tue Apr  8 19:27:20 2025.
 Gaussian 16:  ES64L-G16RevC.01  3-Jul-2019

 ----------------------------------------------------------------------
 #t hf aug-cc-pvdz iop(5/13=1,5/36=2,99/5=2) pseudo=read geom=check gue
 ss=(read,tcheck) scf=(maxcycle=1)
 ----------------------------------------------------------------------
 -----
 title
 -----
 Structure from the checkpoint file:  "ANI1ccx_1265_conf4_mol2.chk"
 Charge =  0 Multiplicity = 1

                         Standard orientation:
 ---------------------------------------------------------------------
 Center     Atomic      Atomic             Coordinates (Angstroms)
 Number     Number       Type             X           Y           Z
 ---------------------------------------------------------------------
      1          6           0       -2.018230    0.166327   -0.604554
      2          6           0       -0.616889    2.003340    0.224924
      3          6           0        0.790435    1.807500   -0.250268
      4          6           0        1.720561    1.231359    0.839223
      5          6           0        2.533760    0.018564    0.377676
      6          6           0        1.753590   -1.229981    0.036590
      7          1           0       -0.117822   -0.426985    0.623934
      8          1           0        3.714330   -0.511331   -1.179900
      9          1           0        4.218841    0.907090   -0.470226
     10          1           0        3.039720   -0.276760    1.330980
     11          1           0        1.077971    0.946372    1.672960
     12          1           0        2.414982    1.989479    1.197750
     13          1           0        0.810093    1.149930   -1.126620
     14          1           0        1.200812    2.787749   -0.562098
     15          1           0       -0.533274    2.521930    1.207840
     16          1           0       -1.268568    2.615251   -0.411366
     17          1           0       -1.829159    0.676394    1.310920
     18          1           0       -3.843529    0.654656   -0.105844
     19          1           0       -3.543489    0.658595   -1.699600
     20          1           0       -1.393209    0.352453   -1.516110
     21          1           0       -1.419281   -1.773969   -0.465734
     22          1           0       -2.365211   -1.855099    1.502340
     23          1           0       -3.617671   -2.198698    0.619379
     24          7           0       -2.975791   -1.408928    0.792119
     25          7           0       -2.310050   -1.245549   -0.462606
     26          7           0       -3.180199    0.990977   -0.814879
     27          7           0       -1.197469    0.683774    0.528610
     28          7           0        3.413411    0.357883   -0.737846
     29          8           0        0.517365   -1.337380    0.496643
     30          8           0        2.260859   -2.143471   -0.597633
 ---------------------------------------------------------------------

 SCF Done:  E(RHF) =  -659.311609431     A.U. after    2 cycles

 The electronic state is 1-A.
 Alpha  occ. eigenvalues --  -20.57686 -20.53263 -15.66245 -15.65355 -15.65008
 Alpha  occ. eigenvalues --  -15.62024 -15.60618 -11.37476 -11.33893 -11.28077
 Alpha  occ. eigenvalues --  -11.27693 -11.24082 -11.23701  -1.37936  -1.29035
 Alpha  occ. eigenvalues --   -1.27911  -1.20672  -1.15988  -1.14534  -1.05422
 Alpha  occ. eigenvalues --   -1.02130  -0.96906  -0.89228  -0.84367  -0.80595
 Alpha  occ. eigenvalues --   -0.79848  -0.73084  -0.71788  -0.69180  -0.67784
 Alpha  occ. eigenvalues --   -0.66888  -0.65782  -0.65239  -0.62921  -0.62874
 Alpha  occ. eigenvalues --   -0.61999  -0.59672  -0.59031  -0.57584  -0.54141
 Alpha  occ. eigenvalues --   -0.53095  -0.52066  -0.50038  -0.49792  -0.48152
 Alpha  occ. eigenvalues --   -0.46354  -0.45322  -0.44290  -0.42922  -0.42201
 Alpha  occ. eigenvalues --   -0.40155  -0.38312
 Alpha virt. eigenvalues --    0.02466   0.03134   0.03293   0.03920   0.05185
 Alpha virt. eigenvalues --    0.05240   0.05676   0.06718   0.07048   0.08053
 Alpha virt. eigenvalues --    0.08599   0.08684   0.08793   0.09190   0.10204

 Mulliken charges:
               1
     1  C    1.298119
     2  C    0.815488
     3  C    0.291872
     4  C    0.561879
     5  C   -0.140543
     6  C    0.653322
     7  H    0.712653
     8  H    0.069718
     9  H   -0.007546
    10  H    0.128019
    11  H   -0.239535
    12  H   -0.140503
    13  H   -0.278203
    14  H   -0.061593
    15  H   -0.162671
    16  H   -0.142460
    17  H    0.092244
    18  H    0.109650
    19  H    0.058772
    20  H   -0.179359
    21  H    0.145461
    22  H    0.034466
    23  H    0.051857
    24  N   -0.110362
    25  N   -0.542980
    26  N   -0.415547
    27  N   -1.057768
    28  N   -0.302440
    29  O   -0.678984
    30  O   -0.563027
 Sum of Mulliken charges =   0.00000

 Dipole moment (field-independent basis, Debye):
    X=             -2.1991    Y=              3.2713    Z=              2.6986  Tot=              4.7770

 Test job not archived.
 1\1\GINC-SE162\SP\RHF\Aug-CC-pVDZ\C6H17N5O2\OHZDE\08-Apr-2025\0\\#t hf
  aug-cc-pvdz iop(5/13=1,5/36=2,99/5=2) pseudo=read geom=check guess=(r
 ead,tcheck) scf=(maxcycle=1)\\title\\0,1\C,0,-2.01823,0.166326,-0.6045
 54\C,0,-0.616891,2.00334,0.224924\C,0,0.790434,1.8075,-0.250268\C,0,1.
 72056,1.23136,0.839223\C,0,2.53376,0.0185658,0.377676\C,0,1.75359,-1.2
 2998,0.0365899\H,0,-0.117822,-0.426985,0.623934\H,0,3.71433,-0.511329,
 -1.1799\H,0,4.21884,0.907093,-0.470226\H,0,3.03972,-0.276758,1.33098\H
 ,0,1.07797,0.946373,1.67296\H,0,2.41498,1.98948,1.19775\H,0,0.810092,1

 Normal termination of Gaussian 16 at Tue Apr  8 19:27:52 2025.
