 Gaussian 16, Revision C.01,

 ----------------------------------------------------------------------
 #t hf aug-cc-pvdz symm=none int=(grid=ultrafine) guess=(read,tcheck) s
 table=(opt,rrhf)
 ----------------------------------------------------------------------
 -----
 title
 -----
 Symbolic Z-matrix:
 Charge =  0 Multiplicity = 1

 SCF Done:  E(RHF) =  -486.384816758     A.U. after   14 cycles
 Normal termination of Gaussian 16 at Tue Apr  8 21:43:57 2025.
 Gaussian 16:  ES64L-G16RevC.01  3-Jul-2019

 ----------------------------------------------------------------------
 #t hf aug-cc-pvdz iop(5/13=1,5/36=2,99/5=2) pseudo=read geom=check gue
 ss=(read,tcheck) scf=(maxcycle=1)
 ----------------------------------------------------------------------
 -----
 title
 -----
 Structure from the checkpoint file:  "ANI1ccx_517_conf9_mol2.chk"
 Charge =  0 Multiplicity = 1

                         Standard orientation:
 ---------------------------------------------------------------------
 Center     Atomic      Atomic             Coordinates (Angstroms)
 Number     Number       Type             X           Y           Z
 ---------------------------------------------------------------------
      1          6           0        0.694779    0.320687   -0.040749
      2          6           0       -0.693677   -0.304030   -0.049310
      3          1           0        2.889360    0.736602    0.147055
      4          1           0        1.470851   -1.603859   -0.038070
      5          1           0       -1.530080    1.611830    0.051680
      6          1           0       -2.845519   -0.773650    0.039738
      7          7           0        1.643041   -0.605255   -0.014459
      8          7           0       -1.659510    0.611513   -0.038142
      9          8           0        2.966541   -0.232726    0.065182
     10          8           0        0.911482    1.534191   -0.035121
     11          8           0       -0.904026   -1.511830   -0.024100
     12          8           0       -2.958489    0.196031    0.082559
 ---------------------------------------------------------------------

 SCF Done:  E(RHF) =  -486.535997893     A.U. after    2 cycles

 The electronic state is 1-A.
 Alpha  occ. eigenvalues --  -20.65611 -20.65251 -20.58628 -20.58311 -15.74425
 Alpha  occ. eigenvalues --  -15.74294 -11.41417 -11.41321  -1.45589  -1.44449
 Alpha  occ. eigenvalues --   -1.37715  -1.36358  -1.17339  -1.16528  -0.93328
 Alpha  occ. eigenvalues --   -0.88378  -0.83885  -0.74837  -0.73691  -0.70255
 Alpha  occ. eigenvalues --   -0.69930  -0.67347  -0.65105  -0.65011  -0.62868
 Alpha  occ. eigenvalues --   -0.59569  -0.56000  -0.55294  -0.47520  -0.42348
 Alpha  occ. eigenvalues --   -0.41664
 Alpha virt. eigenvalues --    0.03519   0.04402   0.04534   0.06345   0.07501
 Alpha virt. eigenvalues --    0.08959   0.10944   0.11283   0.12137   0.12548
 Alpha virt. eigenvalues --    0.14755   0.15608   0.16236   0.16997   0.17828

 Mulliken charges:
               1
     1  C    0.651287
     2  C    0.668126
     3  H    0.187277
     4  H    0.062960
     5  H    0.057696
     6  H    0.188630
     7  N    0.177515
     8  N    0.163366
     9  O   -0.509671
    10  O   -0.570298
    11  O   -0.568436
    12  O   -0.508454
 Sum of Mulliken charges =  -0.00000

 Dipole moment (field-independent basis, Debye):
    X=              0.0351    Y=             -0.0627    Z=              0.1394  Tot=              0.1568

 Test job not archived.
 1\1\GINC-SE338\SP\RHF\Aug-CC-pVDZ\C2H4N2O4\OHZDE\08-Apr-2025\0\\#t hf
 aug-cc-pvdz iop(5/13=1,5/36=2,99/5=2) pseudo=read geom=check guess=(re
 ad,tcheck) scf=(maxcycle=1)\\title\\0,1\C,0,0.694778,0.320687,-0.04074
 92\C,0,-0.693678,-0.30403,-0.0493102\H,0,2.88936,0.736601,0.147055\H,0
 ,1.47085,-1.60386,-0.0380698\H,0,-1.53008,1.61183,0.0516803\H,0,-2.845
 52,-0.773649,0.039738\N,0,1.64304,-0.605256,-0.0144587\N,0,-1.65951,0.
 611513,-0.038142\O,0,2.96654,-0.232727,0.0651816\O,0,0.911482,1.53419,
 -0.0351213\O,0,-0.904027,-1.51183,-0.0240997\O,0,-2.95849,0.196032,0.0

 Normal termination of Gaussian 16 at Tue Apr  8 21:44:02 2025.
