 Gaussian 16, Revision C.01,

 ----------------------------------------------------------------------
 #t hf aug-cc-pvdz symm=none int=(grid=ultrafine) guess=(read,tcheck) s
 table=(opt,rrhf)
 ----------------------------------------------------------------------
 -----
 title
 -----
 Symbolic Z-matrix:
 Charge =  0 Multiplicity = 1

 SCF Done:  E(RHF) =  -537.876301471     A.U. after   15 cycles
 Normal termination of Gaussian 16 at Tue Apr  8 22:15:21 2025.
 Gaussian 16:  ES64L-G16RevC.01  3-Jul-2019

 ----------------------------------------------------------------------
 #t hf aug-cc-pvdz iop(5/13=1,5/36=2,99/5=2) pseudo=read geom=check gue
 ss=(read,tcheck) scf=(maxcycle=1)
 ----------------------------------------------------------------------
 -----
 title
 -----
 Structure from the checkpoint file:  "ANI1ccx_988_conf10_mol2.chk"
 Charge =  0 Multiplicity = 1

                         Standard orientation:
 ---------------------------------------------------------------------
 Center     Atomic      Atomic             Coordinates (Angstroms)
 Number     Number       Type             X           Y           Z
 ---------------------------------------------------------------------
      1          6           0        2.169880   -0.427684   -0.001672
      2          6           0        0.794506    1.607960    0.594356
      3          6           0       -0.636832    1.793070    0.063107
      4          6           0       -1.449590    0.530737   -0.072497
      5          1           0       -0.175966   -1.088320    0.745861
      6          1           0       -0.602008    2.190510   -0.954116
      7          1           0       -1.207610    2.506690    0.636017
      8          1           0        1.178530    2.616980    0.733133
      9          1           0        0.765303    1.098610    1.560320
     10          1           0        2.118960   -2.042320    0.945294
     11          1           0        3.621530   -1.719410   -0.754132
     12          1           0        3.861850   -0.059319   -1.088910
     13          1           0        1.982340    1.330270   -1.083530
     14          7           0       -2.113340   -1.539740    0.135050
     15          7           0        3.197580   -0.785426   -0.868884
     16          7           0        1.610650   -1.145880    0.922818
     17          7           0        1.720000    0.870241   -0.225465
     18          7           0       -2.667020    0.444832   -0.533916
     19          7           0       -3.008460   -0.842285   -0.432502
     20          7           0       -1.140940   -0.695772    0.397227
 ---------------------------------------------------------------------

 SCF Done:  E(RHF) =  -538.029725502     A.U. after    2 cycles

 The electronic state is 1-A.
 Alpha  occ. eigenvalues --  -15.69295 -15.68435 -15.68153 -15.67135 -15.66742
 Alpha  occ. eigenvalues --  -15.62860 -15.61678 -11.40586 -11.31291 -11.30213
 Alpha  occ. eigenvalues --  -11.27004  -1.42980  -1.30035  -1.19124  -1.17693
 Alpha  occ. eigenvalues --   -1.14483  -1.14073  -1.03486  -0.91933  -0.84249
 Alpha  occ. eigenvalues --   -0.82648  -0.81772  -0.76754  -0.73154  -0.71509
 Alpha  occ. eigenvalues --   -0.66701  -0.65588  -0.64219  -0.63040  -0.61322
 Alpha  occ. eigenvalues --   -0.58071  -0.55327  -0.54826  -0.51285  -0.46813
 Alpha  occ. eigenvalues --   -0.44084  -0.43242  -0.41913  -0.40613  -0.38361
 Alpha  occ. eigenvalues --   -0.37014
 Alpha virt. eigenvalues --    0.01031   0.02222   0.03371   0.04356   0.05524
 Alpha virt. eigenvalues --    0.06013   0.07284   0.07707   0.08654   0.09619
 Alpha virt. eigenvalues --    0.10689   0.11397   0.13178   0.13341   0.14281

 Mulliken charges:
               1
     1  C    0.919823
     2  C    0.869307
     3  C    0.144090
     4  C    0.574307
     5  H    0.247385
     6  H    0.019905
     7  H   -0.049469
     8  H   -0.104504
     9  H   -0.175689
    10  H   -0.017388
    11  H    0.047278
    12  H   -0.024489
    13  H   -0.118990
    14  N   -0.130181
    15  N   -0.243117
    16  N   -0.413030
    17  N   -0.494511
    18  N   -0.506909
    19  N   -0.275288
    20  N   -0.268529
 Sum of Mulliken charges =  -0.00000

 Dipole moment (field-independent basis, Debye):
    X=             10.0332    Y=              2.7791    Z=             -0.2305  Tot=             10.4135

 Test job not archived.
 1\1\GINC-SE343\SP\RHF\Aug-CC-pVDZ\C4H9N7\OHZDE\08-Apr-2025\0\\#t hf au
 g-cc-pvdz iop(5/13=1,5/36=2,99/5=2) pseudo=read geom=check guess=(read
 ,tcheck) scf=(maxcycle=1)\\title\\0,1\C,0,2.16988,-0.427684,-0.0016717
 5\C,0,0.794506,1.60796,0.594356\C,0,-0.636832,1.79307,0.0631068\C,0,-1
 .44959,0.530737,-0.0724965\H,0,-0.175966,-1.08832,0.745861\H,0,-0.6020
 08,2.19051,-0.954116\H,0,-1.20761,2.50669,0.636017\H,0,1.17853,2.61698
 ,0.733133\H,0,0.765303,1.09861,1.56032\H,0,2.11896,-2.04232,0.945294\H
 ,0,3.62153,-1.71941,-0.754132\H,0,3.86185,-0.0593193,-1.08891\H,0,1.98

 Normal termination of Gaussian 16 at Tue Apr  8 22:15:33 2025.
