 Gaussian 16, Revision C.01,

 ----------------------------------------------------------------------
 #t hf aug-cc-pvdz symm=none int=(grid=ultrafine) guess=(read,tcheck) s
 table=(opt,rrhf)
 ----------------------------------------------------------------------
 -----
 title
 -----
 Symbolic Z-matrix:
 Charge =  0 Multiplicity = 1

 SCF Done:  E(RHF) =  -405.921606729     A.U. after   15 cycles
 Normal termination of Gaussian 16 at Tue Apr  8 21:46:18 2025.
 Gaussian 16:  ES64L-G16RevC.01  3-Jul-2019

 ----------------------------------------------------------------------
 #t hf aug-cc-pvdz iop(5/13=1,5/36=2,99/5=2) pseudo=read geom=check gue
 ss=(read,tcheck) scf=(maxcycle=1)
 ----------------------------------------------------------------------
 -----
 title
 -----
 Structure from the checkpoint file:  "ANI1ccx_557_conf1_mol1.chk"
 Charge =  0 Multiplicity = 1

                         Standard orientation:
 ---------------------------------------------------------------------
 Center     Atomic      Atomic             Coordinates (Angstroms)
 Number     Number       Type             X           Y           Z
 ---------------------------------------------------------------------
      1          6           0       -1.314882   -0.004489    0.022414
      2          6           0        0.597997    0.697933    0.021192
      3          1           0       -3.195713   -0.862708    0.093468
      4          1           0       -2.955921    0.942980    0.237102
      5          1           0        2.363530    1.230527    0.736852
      6          1           0        1.545911    2.393158   -0.098700
      7          1           0        2.365067   -1.202473   -0.706626
      8          1           0        2.097596   -1.576303    0.908674
      9          7           0       -2.663942    0.024139   -0.019189
     10          7           0       -0.556858    1.178930    0.002888
     11          7           0        1.841640    1.407967   -0.102929
     12          7           0        0.603401   -0.678982   -0.004890
     13          7           0        1.706026   -1.525933   -0.004838
     14          7           0       -0.633005   -1.132670   -0.075671
 ---------------------------------------------------------------------

 SCF Done:  E(RHF) =  -406.039709693     A.U. after    2 cycles

 The electronic state is 1-A.
 Alpha  occ. eigenvalues --  -15.71061 -15.66613 -15.65865 -15.63033 -15.62425
 Alpha  occ. eigenvalues --  -15.61687 -11.35525 -11.33230  -1.39581  -1.24572
 Alpha  occ. eigenvalues --   -1.21551  -1.15997  -1.12164  -0.97911  -0.83082
 Alpha  occ. eigenvalues --   -0.81168  -0.73909  -0.72295  -0.69748  -0.66922
 Alpha  occ. eigenvalues --   -0.62931  -0.61823  -0.60303  -0.51109  -0.50356
 Alpha  occ. eigenvalues --   -0.46972  -0.44910  -0.42661  -0.40174  -0.29180
 Alpha virt. eigenvalues --    0.02278   0.03561   0.04009   0.05167   0.06744
 Alpha virt. eigenvalues --    0.07350   0.10480   0.11134   0.11931   0.13138
 Alpha virt. eigenvalues --    0.14039   0.15127   0.15525   0.16657   0.16898

 Mulliken charges:
               1
     1  C    0.857939
     2  C    0.667932
     3  H    0.029916
     4  H    0.026312
     5  H    0.065809
     6  H    0.068541
     7  H    0.084168
     8  H    0.046637
     9  N   -0.268560
    10  N   -0.547626
    11  N   -0.309605
    12  N   -0.514374
    13  N    0.407458
    14  N   -0.614547
 Sum of Mulliken charges =  -0.00000

 Dipole moment (field-independent basis, Debye):
    X=              1.8757    Y=              1.5603    Z=              2.2405  Tot=              3.3124

 Test job not archived.
 1\1\GINC-SE331\SP\RHF\Aug-CC-pVDZ\C2H6N6\OHZDE\08-Apr-2025\0\\#t hf au
 g-cc-pvdz iop(5/13=1,5/36=2,99/5=2) pseudo=read geom=check guess=(read
 ,tcheck) scf=(maxcycle=1)\\title\\0,1\C,0,-1.31488,-0.00448967,0.02241
 43\C,0,0.597998,0.697934,0.021192\H,0,-3.19571,-0.862711,0.0934679\H,0
 ,-2.95592,0.942977,0.237102\H,0,2.36353,1.23053,0.736852\H,0,1.54591,2
 .39316,-0.0987\H,0,2.36507,-1.20247,-0.706626\H,0,2.0976,-1.5763,0.908
 674\N,0,-2.66394,0.0241364,-0.0191893\N,0,-0.556858,1.17893,0.00288814
 \N,0,1.84164,1.40797,-0.102929\N,0,0.603404,-0.678981,-0.00488985\N,0,

 Normal termination of Gaussian 16 at Tue Apr  8 21:46:23 2025.
