 Gaussian 16, Revision C.01,

 ----------------------------------------------------------------------
 #t hf aug-cc-pvdz symm=none int=(grid=ultrafine) guess=(read,tcheck) s
 table=(opt,rrhf)
 ----------------------------------------------------------------------
 -----
 title
 -----
 Symbolic Z-matrix:
 Charge =  0 Multiplicity = 1

 SCF Done:  E(RHF) =  -908.368905514     A.U. after   14 cycles
 Normal termination of Gaussian 16 at Tue Apr  8 20:59:15 2025.
 Gaussian 16:  ES64L-G16RevC.01  3-Jul-2019

 ----------------------------------------------------------------------
 #t hf aug-cc-pvdz iop(5/13=1,5/36=2,99/5=2) pseudo=read geom=check gue
 ss=(read,tcheck) scf=(maxcycle=1)
 ----------------------------------------------------------------------
 -----
 title
 -----
 Structure from the checkpoint file:  "ANI1ccx_1761_conf18_mol1.chk"
 Charge =  0 Multiplicity = 1

                         Standard orientation:
 ---------------------------------------------------------------------
 Center     Atomic      Atomic             Coordinates (Angstroms)
 Number     Number       Type             X           Y           Z
 ---------------------------------------------------------------------
      1          6           0       -2.245730   -0.147483    0.674421
      2          6           0        2.895860    0.899068   -0.846957
      3          6           0        2.012640   -0.142017   -1.553449
      4          6           0        1.956470   -1.567941    0.536402
      5          6           0        2.181751    1.998659   -0.090826
      6          6           0       -3.833110   -0.703909   -1.173839
      7          6           0       -3.205810    0.414910   -0.403605
      8          6           0       -1.140520   -1.012700    0.091098
      9          6           0        1.150960   -1.056321   -0.648070
     10          1           0        0.852445   -1.885631   -1.237519
     11          1           0        3.399789   -2.569252    1.006151
     12          1           0        0.746231    3.265069   -0.372202
     13          1           0        3.508480    0.504102   -0.042628
     14          1           0        3.622191    1.408418   -1.569709
     15          1           0        2.676880   -0.808996   -2.085579
     16          1           0        1.408780    0.389932   -2.278459
     17          1           0       -0.022375    0.522061    0.387783
     18          1           0       -4.494710   -0.269343   -1.873909
     19          1           0       -4.369680   -1.404489   -0.466161
     20          1           0       -3.064300   -1.237680   -1.739969
     21          1           0       -4.759670    0.629729    0.712363
     22          1           0       -2.597370    1.093250   -1.020399
     23          1           0       -2.835620   -0.763574    1.329911
     24          1           0       -2.450019    1.665200    1.472531
     25          1           0       -1.425400    0.672096    2.371861
     26          7           0       -1.695120    0.987441    1.442201
     27          7           0       -0.003955   -0.317185   -0.171102
     28          8           0       -1.276801   -2.244890   -0.063956
     29          8           0       -4.205900    1.246351    0.216918
     30          8           0        1.786040   -1.201111    1.645501
     31          8           0        2.702401    2.588389    0.807099
     32          8           0        0.961041    2.309409   -0.643413
     33          8           0        2.916069   -2.447681    0.162507
 ---------------------------------------------------------------------

 SCF Done:  E(RHF) =  -908.647063832     A.U. after    2 cycles

 The electronic state is 1-A.
 Alpha  occ. eigenvalues --  -20.63888 -20.63465 -20.59111 -20.57955 -20.57542
 Alpha  occ. eigenvalues --  -20.53619 -15.64292 -15.62170 -11.40680 -11.40494
 Alpha  occ. eigenvalues --  -11.36154 -11.30771 -11.30454 -11.28070 -11.27213
 Alpha  occ. eigenvalues --  -11.26342 -11.23238  -1.44664  -1.42404  -1.35141
 Alpha  occ. eigenvalues --   -1.34189  -1.33619  -1.33123  -1.21422  -1.16852
 Alpha  occ. eigenvalues --   -1.08756  -1.04061  -1.01108  -0.93281  -0.90405
 Alpha  occ. eigenvalues --   -0.85698  -0.83227  -0.81251  -0.78282  -0.74378
 Alpha  occ. eigenvalues --   -0.73207  -0.72111  -0.71226  -0.69480  -0.68466
 Alpha  occ. eigenvalues --   -0.68015  -0.67622  -0.66785  -0.65729  -0.63899
 Alpha  occ. eigenvalues --   -0.62825  -0.61745  -0.61062  -0.59676  -0.58725
 Alpha  occ. eigenvalues --   -0.58516  -0.56174  -0.55456  -0.54643  -0.53518
 Alpha  occ. eigenvalues --   -0.53353  -0.52832  -0.51993  -0.50300  -0.50118
 Alpha  occ. eigenvalues --   -0.48049  -0.46938  -0.46689  -0.43747  -0.40821
 Alpha  occ. eigenvalues --   -0.40166
 Alpha virt. eigenvalues --    0.02715   0.03201   0.03626   0.03908   0.04742
 Alpha virt. eigenvalues --    0.05287   0.06061   0.06249   0.06495   0.07354
 Alpha virt. eigenvalues --    0.07609   0.07842   0.08251   0.08996   0.10194

 Mulliken charges:
               1
     1  C    0.826030
     2  C    0.158580
     3  C    0.817101
     4  C    0.723080
     5  C    0.516210
     6  C    0.651132
     7  C   -0.036875
     8  C    0.341802
     9  C    0.009062
    10  H   -0.200616
    11  H    0.207812
    12  H    0.274085
    13  H   -0.054792
    14  H    0.099447
    15  H   -0.109625
    16  H   -0.080413
    17  H    0.052841
    18  H   -0.102791
    19  H    0.077118
    20  H    0.022042
    21  H    0.190724
    22  H   -0.233572
    23  H   -0.220314
    24  H    0.088327
    25  H    0.059590
    26  N   -0.397545
    27  N   -0.137960
    28  O   -0.665755
    29  O   -0.627528
    30  O   -0.475219
    31  O   -0.484893
    32  O   -0.707194
    33  O   -0.579892
 Sum of Mulliken charges =  -0.00000

 Dipole moment (field-independent basis, Debye):
    X=             -0.0387    Y=              1.1261    Z=             -1.9672  Tot=              2.2670

 Test job not archived.
 1\1\GINC-SE273\SP\RHF\Aug-CC-pVDZ\C9H16N2O6\OHZDE\08-Apr-2025\0\\#t hf
  aug-cc-pvdz iop(5/13=1,5/36=2,99/5=2) pseudo=read geom=check guess=(r
 ead,tcheck) scf=(maxcycle=1)\\title\\0,1\C,0,-2.24573,-0.147483,0.6744
 2\C,0,2.89586,0.899069,-0.846958\C,0,2.01264,-0.142016,-1.55345\C,0,1.
 95647,-1.56794,0.536401\C,0,2.18175,1.99866,-0.0908264\C,0,-3.83311,-0
 .70391,-1.17384\C,0,-3.20581,0.41491,-0.403606\C,0,-1.14052,-1.0127,0.
 0910973\C,0,1.15096,-1.05632,-0.648071\H,0,0.852445,-1.88563,-1.23752\
 H,0,3.39979,-2.56925,1.00615\H,0,0.74623,3.26507,-0.372203\H,0,3.50848

 Normal termination of Gaussian 16 at Tue Apr  8 21:00:07 2025.
