 Gaussian 16, Revision C.01,

 ----------------------------------------------------------------------
 #t hf aug-cc-pvdz symm=none int=(grid=ultrafine) guess=(read,tcheck) s
 table=(opt,rrhf)
 ----------------------------------------------------------------------
 -----
 title
 -----
 Symbolic Z-matrix:
 Charge =  0 Multiplicity = 1

 SCF Done:  E(RHF) =  -480.029515801     A.U. after   18 cycles
 Normal termination of Gaussian 16 at Tue Apr  8 21:38:47 2025.
 Gaussian 16:  ES64L-G16RevC.01  3-Jul-2019

 ----------------------------------------------------------------------
 #t hf aug-cc-pvdz iop(5/13=1,5/36=2,99/5=2) pseudo=read geom=check gue
 ss=(read,tcheck) scf=(maxcycle=1)
 ----------------------------------------------------------------------
 -----
 title
 -----
 Structure from the checkpoint file:  "ANI1ccx_456_conf18_mol1.chk"
 Charge =  0 Multiplicity = 1

                         Standard orientation:
 ---------------------------------------------------------------------
 Center     Atomic      Atomic             Coordinates (Angstroms)
 Number     Number       Type             X           Y           Z
 ---------------------------------------------------------------------
      1          6           0       -0.053317   -0.156629   -0.069692
      2          7           0        1.412491   -0.037998   -0.084758
      3          7           0       -0.732245   -1.175670   -0.087445
      4          7           0       -2.020529   -0.626988    0.020789
      5          7           0       -2.093838    0.547494    0.009744
      6          8           0        1.648503    1.208028   -0.061319
      7          8           0        2.122910   -0.975500    0.131332
      8          8           0       -0.726570    1.016460    0.106217
 ---------------------------------------------------------------------

 SCF Done:  E(RHF) =  -480.169615869     A.U. after    2 cycles

 The electronic state is 1-A.
 Alpha  occ. eigenvalues --  -20.73230 -20.70112 -20.66842 -15.98690 -15.82735
 Alpha  occ. eigenvalues --  -15.78577 -15.74786 -11.47526  -1.61550  -1.58051
 Alpha  occ. eigenvalues --   -1.42870  -1.36868  -1.30579  -1.08158  -0.94831
 Alpha  occ. eigenvalues --   -0.89607  -0.84575  -0.80506  -0.79226  -0.75554
 Alpha  occ. eigenvalues --   -0.75158  -0.65133  -0.58876  -0.58098  -0.57376
 Alpha  occ. eigenvalues --   -0.56551  -0.52888  -0.52009  -0.50610
 Alpha virt. eigenvalues --   -0.01811   0.06157   0.06932   0.07512   0.08399
 Alpha virt. eigenvalues --    0.09299   0.11910   0.12638   0.14813   0.15309
 Alpha virt. eigenvalues --    0.16460   0.17007   0.18704   0.18944   0.19560

 Mulliken charges:
               1
     1  C    1.156945
     2  N    0.364069
     3  N   -0.160316
     4  N   -0.035187
     5  N    0.175876
     6  O   -0.538698
     7  O   -0.455616
     8  O   -0.507074
 Sum of Mulliken charges =  -0.00000

 Dipole moment (field-independent basis, Debye):
    X=             -1.0137    Y=             -0.5206    Z=             -0.3754  Tot=              1.1999

 Test job not archived.
 1\1\GINC-SE367\SP\RHF\Aug-CC-pVDZ\C1N4O3\OHZDE\08-Apr-2025\0\\#t hf au
 g-cc-pvdz iop(5/13=1,5/36=2,99/5=2) pseudo=read geom=check guess=(read
 ,tcheck) scf=(maxcycle=1)\\title\\0,1\C,0,-0.0533184,-0.156628,-0.0696
 918\N,0,1.41249,-0.0379964,-0.0847579\N,0,-0.732245,-1.17567,-0.087444
 9\N,0,-2.02053,-0.626989,0.0207892\N,0,-2.09384,0.547493,0.00974381\O,
 0,1.6485,1.20803,-0.0613189\O,0,2.12291,-0.975497,0.131332\O,0,-0.7265
 72,1.01646,0.106217\\Version=ES64L-G16RevC.01\State=1-A\HF=-480.169615
 9\RMSD=3.530e-03\Dipole=-0.398839,-0.2048209,-0.1477112\Quadrupole=-2.

 Normal termination of Gaussian 16 at Tue Apr  8 21:38:51 2025.
