 Gaussian 16, Revision C.01,

 ----------------------------------------------------------------------
 #t hf aug-cc-pvdz symm=none int=(grid=ultrafine) guess=(read,tcheck) s
 table=(opt,rrhf)
 ----------------------------------------------------------------------
 -----
 title
 -----
 Symbolic Z-matrix:
 Charge =  0 Multiplicity = 1

 SCF Done:  E(RHF) =  -774.644024728     A.U. after   14 cycles
 Normal termination of Gaussian 16 at Tue Apr  8 20:12:03 2025.
 Gaussian 16:  ES64L-G16RevC.01  3-Jul-2019

 ----------------------------------------------------------------------
 #t hf aug-cc-pvdz iop(5/13=1,5/36=2,99/5=2) pseudo=read geom=check gue
 ss=(read,tcheck) scf=(maxcycle=1)
 ----------------------------------------------------------------------
 -----
 title
 -----
 Structure from the checkpoint file:  "ANI1ccx_1610_conf2_mol2.chk"
 Charge =  0 Multiplicity = 1

                         Standard orientation:
 ---------------------------------------------------------------------
 Center     Atomic      Atomic             Coordinates (Angstroms)
 Number     Number       Type             X           Y           Z
 ---------------------------------------------------------------------
      1          6           0       -2.676629   -1.320940    0.059331
      2          6           0       -1.389030   -0.783694    0.698593
      3          6           0       -2.295009   -2.084500   -1.202810
      4          6           0        0.097805    1.273621    0.768942
      5          6           0        0.217081    2.608881   -0.012937
      6          6           0        1.435519    0.530050    0.801157
      7          6           0        1.771940   -0.063968   -0.569643
      8          6           0        2.724761   -1.264857   -0.410717
      9          1           0       -0.661421    3.708411   -1.203190
     10          1           0        1.304011   -2.380868    0.698857
     11          1           0        2.753152   -3.148317    0.343168
     12          1           0        2.301649    0.678869   -1.166230
     13          1           0        0.897225   -0.450015   -1.091500
     14          1           0        1.387690   -0.209476    1.613950
     15          1           0        2.175389    1.310333    1.078590
     16          1           0       -1.656711    0.865858   -0.354052
     17          1           0       -1.612208   -2.907680   -0.946232
     18          1           0       -1.721809   -1.459820   -1.914540
     19          1           0       -3.192969   -2.439551   -1.716750
     20          1           0       -3.036489   -2.024691    0.827805
     21          1           0       -3.885840    0.254031    0.598372
     22          1           0       -4.422580   -0.589133   -0.682130
     23          1           0       -0.153632    1.585801    1.806070
     24          7           0       -3.583230   -0.204793   -0.262829
     25          7           0       -1.007061    0.438702    0.273524
     26          7           0        2.160831   -2.363007    0.193895
     27          8           0        3.905120   -1.233036   -0.739053
     28          8           0       -0.697308   -1.468469    1.453780
     29          8           0        1.029978    3.467132    0.134384
     30          8           0       -0.836273    2.827171   -0.863590
 ---------------------------------------------------------------------

 SCF Done:  E(RHF) =  -774.880069062     A.U. after    2 cycles

 The electronic state is 1-A.
 Alpha  occ. eigenvalues --  -20.64328 -20.59179 -20.55115 -20.52744 -15.66289
 Alpha  occ. eigenvalues --  -15.64542 -15.62891 -11.42706 -11.37963 -11.35937
 Alpha  occ. eigenvalues --  -11.32899 -11.30405 -11.25656 -11.25576 -11.24903
 Alpha  occ. eigenvalues --   -1.45373  -1.36105  -1.35203  -1.33076  -1.22838
 Alpha  occ. eigenvalues --   -1.18703  -1.16311  -1.08103  -1.02525  -0.99752
 Alpha  occ. eigenvalues --   -0.90100  -0.89143  -0.82284  -0.79668  -0.77856
 Alpha  occ. eigenvalues --   -0.75327  -0.73591  -0.71920  -0.70510  -0.69228
 Alpha  occ. eigenvalues --   -0.67775  -0.66567  -0.66241  -0.64041  -0.63863
 Alpha  occ. eigenvalues --   -0.63060  -0.60435  -0.59260  -0.58606  -0.57060
 Alpha  occ. eigenvalues --   -0.56098  -0.54443  -0.54052  -0.53265  -0.52682
 Alpha  occ. eigenvalues --   -0.51382  -0.50965  -0.49036  -0.45047  -0.42920
 Alpha  occ. eigenvalues --   -0.42476  -0.41290  -0.40369
 Alpha virt. eigenvalues --    0.02022   0.02946   0.03218   0.03998   0.05283
 Alpha virt. eigenvalues --    0.05388   0.05749   0.06301   0.07251   0.07779
 Alpha virt. eigenvalues --    0.08054   0.08657   0.09142   0.09736   0.10546

 Mulliken charges:
               1
     1  C    0.244601
     2  C    0.476754
     3  C    0.492525
     4  C    0.150680
     5  C    0.820001
     6  C    0.095776
     7  C    0.791337
     8  C    0.636847
     9  H    0.203640
    10  H   -0.021316
    11  H   -0.054233
    12  H   -0.136653
    13  H   -0.155806
    14  H   -0.145809
    15  H   -0.045995
    16  H    0.087240
    17  H    0.023698
    18  H   -0.018420
    19  H   -0.113979
    20  H   -0.042761
    21  H    0.047305
    22  H   -0.007635
    23  H    0.038502
    24  N   -0.250705
    25  N   -0.610536
    26  N   -0.128822
    27  O   -0.577928
    28  O   -0.717658
    29  O   -0.472920
    30  O   -0.607732
 Sum of Mulliken charges =   0.00000

 Dipole moment (field-independent basis, Debye):
    X=             -8.3344    Y=              0.2660    Z=             -0.0107  Tot=              8.3387

 Test job not archived.
 1\1\GINC-SE184\SP\RHF\Aug-CC-pVDZ\C8H15N3O4\OHZDE\08-Apr-2025\0\\#t hf
  aug-cc-pvdz iop(5/13=1,5/36=2,99/5=2) pseudo=read geom=check guess=(r
 ead,tcheck) scf=(maxcycle=1)\\title\\0,1\C,0,-2.67663,-1.32094,0.05933
 12\C,0,-1.38903,-0.783694,0.698593\C,0,-2.29501,-2.0845,-1.20281\C,0,0
 .0978063,1.27362,0.768942\C,0,0.217083,2.60888,-0.0129368\C,0,1.43552,
 0.530048,0.801157\C,0,1.77194,-0.0639707,-0.569643\C,0,2.72476,-1.2648
 6,-0.410717\H,0,-0.661418,3.70841,-1.20319\H,0,1.30401,-2.38087,0.6988
 57\H,0,2.75315,-3.14832,0.343168\H,0,2.30165,0.678866,-1.16623\H,0,0.8

 Normal termination of Gaussian 16 at Tue Apr  8 20:12:38 2025.
