 Gaussian 16, Revision C.01,

 ----------------------------------------------------------------------
 #t hf aug-cc-pvdz symm=none int=(grid=ultrafine) guess=(read,tcheck) s
 table=(opt,rrhf)
 ----------------------------------------------------------------------
 -----
 title
 -----
 Symbolic Z-matrix:
 Charge =  0 Multiplicity = 1

 SCF Done:  E(RHF) =  -441.370127844     A.U. after   17 cycles
 Normal termination of Gaussian 16 at Tue Apr  8 21:48:05 2025.
 Gaussian 16:  ES64L-G16RevC.01  3-Jul-2019

 ----------------------------------------------------------------------
 #t hf aug-cc-pvdz iop(5/13=1,5/36=2,99/5=2) pseudo=read geom=check gue
 ss=(read,tcheck) scf=(maxcycle=1)
 ----------------------------------------------------------------------
 -----
 title
 -----
 Structure from the checkpoint file:  "ANI1ccx_662_conf1_mol1.chk"
 Charge =  0 Multiplicity = 1

                         Standard orientation:
 ---------------------------------------------------------------------
 Center     Atomic      Atomic             Coordinates (Angstroms)
 Number     Number       Type             X           Y           Z
 ---------------------------------------------------------------------
      1          6           0       -2.194569   -0.182706   -0.041400
      2          6           0       -0.200127   -0.645304    0.181293
      3          6           0       -0.195215    0.725782    0.166980
      4          1           0       -1.932200    1.875619   -0.306000
      5          1           0       -3.220829   -0.159713   -0.265821
      6          7           0       -1.529189    0.996860    0.032510
      7          7           0       -1.346359   -1.195440   -0.048501
      8          7           0        0.927693   -1.394650   -0.041534
      9          7           0        2.020611   -0.618311   -0.022530
     10          7           0        1.976041    0.660386   -0.061044
     11          7           0        0.907275    1.393650   -0.040247
 ---------------------------------------------------------------------

 SCF Done:  E(RHF) =  -441.493043916     A.U. after    2 cycles

 The electronic state is 1-A.
 Alpha  occ. eigenvalues --  -15.74019 -15.72728 -15.72334 -15.72033 -15.71533
 Alpha  occ. eigenvalues --  -15.65873 -11.38681 -11.36606 -11.34151  -1.43600
 Alpha  occ. eigenvalues --   -1.38429  -1.27772  -1.20328  -1.15432  -1.00256
 Alpha  occ. eigenvalues --   -0.94262  -0.89274  -0.83959  -0.75140  -0.73856
 Alpha  occ. eigenvalues --   -0.70080  -0.68674  -0.61346  -0.59842  -0.54973
 Alpha  occ. eigenvalues --   -0.51920  -0.50179  -0.43732  -0.42286  -0.41078
 Alpha  occ. eigenvalues --   -0.38241
 Alpha virt. eigenvalues --    0.00866   0.02582   0.03554   0.05915   0.07540
 Alpha virt. eigenvalues --    0.08615   0.09294   0.09828   0.10605   0.11375
 Alpha virt. eigenvalues --    0.12079   0.12489   0.13813   0.13905   0.15405

 Mulliken charges:
               1
     1  C    0.774509
     2  C    0.831219
     3  C    0.828148
     4  H   -0.034973
     5  H   -0.262032
     6  N   -0.352997
     7  N   -0.541328
     8  N   -0.500571
     9  N   -0.191075
    10  N   -0.209661
    11  N   -0.341240
 Sum of Mulliken charges =  -0.00000

 Dipole moment (field-independent basis, Debye):
    X=             -6.7834    Y=              3.3925    Z=             -0.0755  Tot=              7.5848

 Test job not archived.
 1\1\GINC-SE453\SP\RHF\Aug-CC-pVDZ\C3H2N6\OHZDE\08-Apr-2025\0\\#t hf au
 g-cc-pvdz iop(5/13=1,5/36=2,99/5=2) pseudo=read geom=check guess=(read
 ,tcheck) scf=(maxcycle=1)\\title\\0,1\C,0,-2.19457,-0.182705,-0.041399
 8\C,0,-0.200128,-0.645304,0.181293\C,0,-0.195216,0.725782,0.16698\H,0,
 -1.9322,1.87562,-0.306\H,0,-3.22083,-0.159712,-0.265821\N,0,-1.52919,0
 .99686,0.0325102\N,0,-1.34636,-1.19544,-0.048501\N,0,0.927692,-1.39465
 ,-0.0415339\N,0,2.02061,-0.618311,-0.0225304\N,0,1.97604,0.660386,-0.0
 610437\N,0,0.907275,1.39365,-0.0402467\\Version=ES64L-G16RevC.01\State

 Normal termination of Gaussian 16 at Tue Apr  8 21:48:10 2025.
