 Gaussian 16, Revision C.01,

 ----------------------------------------------------------------------
 #t hf aug-cc-pvdz symm=none int=(grid=ultrafine) guess=(read,tcheck) s
 table=(opt,rrhf)
 ----------------------------------------------------------------------
 -----
 title
 -----
 Symbolic Z-matrix:
 Charge =  0 Multiplicity = 1

 SCF Done:  E(RHF) =  -428.587218035     A.U. after   13 cycles
 Normal termination of Gaussian 16 at Tue Apr  8 21:36:49 2025.
 Gaussian 16:  ES64L-G16RevC.01  3-Jul-2019

 ----------------------------------------------------------------------
 #t hf aug-cc-pvdz iop(5/13=1,5/36=2,99/5=2) pseudo=read geom=check gue
 ss=(read,tcheck) scf=(maxcycle=1)
 ----------------------------------------------------------------------
 -----
 title
 -----
 Structure from the checkpoint file:  "ANI1ccx_419_conf1_mol2.chk"
 Charge =  0 Multiplicity = 1

                         Standard orientation:
 ---------------------------------------------------------------------
 Center     Atomic      Atomic             Coordinates (Angstroms)
 Number     Number       Type             X           Y           Z
 ---------------------------------------------------------------------
      1          6           0       -0.135732   -0.300053    0.054265
      2          1           0        1.936759    1.312892   -0.044596
      3          1           0       -0.707242    1.581579   -0.298694
      4          1           0       -1.619408   -1.608242    0.277906
      5          1           0       -2.975010    0.484535    0.324316
      6          1           0        2.537782   -1.581837   -0.155498
      7          7           0        0.117420    1.001680   -0.376231
      8          7           0       -1.449889   -0.618456    0.442015
      9          7           0        0.723428   -1.245919    0.116470
     10          8           0        1.127878    1.641641    0.376749
     11          8           0       -2.388200    0.098693   -0.340953
     12          8           0        1.998421   -0.784052   -0.248896
 ---------------------------------------------------------------------

 SCF Done:  E(RHF) =  -428.716970523     A.U. after    2 cycles

 The electronic state is 1-A.
 Alpha  occ. eigenvalues --  -20.64278 -20.61620 -20.61434 -15.71279 -15.69574
 Alpha  occ. eigenvalues --  -15.67208 -11.36393  -1.41451  -1.39170  -1.36491
 Alpha  occ. eigenvalues --   -1.21107  -1.08856  -1.06217  -0.81695  -0.77381
 Alpha  occ. eigenvalues --   -0.74788  -0.71571  -0.69409  -0.67534  -0.65132
 Alpha  occ. eigenvalues --   -0.63215  -0.61993  -0.55617  -0.54166  -0.50624
 Alpha  occ. eigenvalues --   -0.45282  -0.42898  -0.35742
 Alpha virt. eigenvalues --    0.02971   0.03930   0.04466   0.06715   0.07449
 Alpha virt. eigenvalues --    0.08997   0.13073   0.13478   0.14378   0.15292
 Alpha virt. eigenvalues --    0.15586   0.17352   0.18221   0.18366   0.19188

 Mulliken charges:
               1
     1  C    1.293643
     2  H    0.229886
     3  H    0.107157
     4  H    0.102545
     5  H    0.226878
     6  H    0.193943
     7  N   -0.182619
     8  N   -0.144153
     9  N   -0.244342
    10  O   -0.485338
    11  O   -0.536110
    12  O   -0.561489
 Sum of Mulliken charges =  -0.00000

 Dipole moment (field-independent basis, Debye):
    X=             -1.4070    Y=             -0.6646    Z=              0.3984  Tot=              1.6062

 Test job not archived.
 1\1\GINC-SE250\SP\RHF\Aug-CC-pVDZ\C1H5N3O3\OHZDE\08-Apr-2025\0\\#t hf
 aug-cc-pvdz iop(5/13=1,5/36=2,99/5=2) pseudo=read geom=check guess=(re
 ad,tcheck) scf=(maxcycle=1)\\title\\0,1\C,0,-0.135732,-0.300053,0.0542
 652\H,0,1.93676,1.31289,-0.0445956\H,0,-0.707241,1.58158,-0.298694\H,0
 ,-1.61941,-1.60824,0.277906\H,0,-2.97501,0.484538,0.324316\H,0,2.53778
 ,-1.58184,-0.155498\N,0,0.117421,1.00168,-0.376231\N,0,-1.44989,-0.618
 455,0.442015\N,0,0.723427,-1.24592,0.11647\O,0,1.12788,1.64164,0.37674
 9\O,0,-2.3882,0.0986954,-0.340953\O,0,1.99842,-0.784054,-0.248896\\Ver

 Normal termination of Gaussian 16 at Tue Apr  8 21:36:54 2025.
