 Gaussian 16, Revision C.01,

 ----------------------------------------------------------------------
 #t hf aug-cc-pvdz symm=none int=(grid=ultrafine) guess=(read,tcheck) s
 table=(opt,rrhf)
 ----------------------------------------------------------------------
 -----
 title
 -----
 Symbolic Z-matrix:
 Charge =  0 Multiplicity = 1

 SCF Done:  E(RHF) =  -386.361691518     A.U. after   16 cycles
 Normal termination of Gaussian 16 at Tue Apr  8 21:47:58 2025.
 Gaussian 16:  ES64L-G16RevC.01  3-Jul-2019

 ----------------------------------------------------------------------
 #t hf aug-cc-pvdz iop(5/13=1,5/36=2,99/5=2) pseudo=read geom=check gue
 ss=(read,tcheck) scf=(maxcycle=1)
 ----------------------------------------------------------------------
 -----
 title
 -----
 Structure from the checkpoint file:  "ANI1ccx_651_conf1_mol1.chk"
 Charge =  0 Multiplicity = 1

                         Standard orientation:
 ---------------------------------------------------------------------
 Center     Atomic      Atomic             Coordinates (Angstroms)
 Number     Number       Type             X           Y           Z
 ---------------------------------------------------------------------
      1          6           0        1.913881   -0.020762    0.045791
      2          6           0        0.509739   -0.016495    0.098788
      3          6           0       -1.389888    1.099092   -0.082024
      4          1           0       -1.785818    2.046802   -0.146667
      5          7           0        3.036581    0.058836   -0.108999
      6          7           0       -0.067790    1.102431    0.112909
      7          7           0       -2.063049    0.010845   -0.032151
      8          7           0       -1.425729   -1.162018   -0.013997
      9          7           0       -0.110953   -1.212639    0.009572
 ---------------------------------------------------------------------

 SCF Done:  E(RHF) =  -386.471244591     A.U. after    2 cycles

 The electronic state is 1-A.
 Alpha  occ. eigenvalues --  -15.79617 -15.74290 -15.72570 -15.70687 -15.68448
 Alpha  occ. eigenvalues --  -11.41545 -11.38867 -11.31915  -1.44910  -1.30207
 Alpha  occ. eigenvalues --   -1.26484  -1.23163  -1.03646  -1.02421  -0.86609
 Alpha  occ. eigenvalues --   -0.83543  -0.72255  -0.69348  -0.65106  -0.58912
 Alpha  occ. eigenvalues --   -0.56961  -0.55783  -0.51519  -0.49947  -0.49119
 Alpha  occ. eigenvalues --   -0.46745  -0.44907
 Alpha virt. eigenvalues --    0.01576   0.02280   0.02719   0.05732   0.06197
 Alpha virt. eigenvalues --    0.07526   0.09256   0.10117   0.11949   0.12146
 Alpha virt. eigenvalues --    0.13382   0.14008   0.14390   0.16013   0.16871

 Mulliken charges:
               1
     1  C   -0.720627
     2  C    1.037138
     3  C    1.106045
     4  H   -0.365805
     5  N   -0.026901
     6  N   -0.268125
     7  N   -0.268155
     8  N   -0.091058
     9  N   -0.402512
 Sum of Mulliken charges =  -0.00000

 Dipole moment (field-independent basis, Debye):
    X=             -2.3070    Y=              2.3154    Z=              0.1055  Tot=              3.2703

 Test job not archived.
 1\1\GINC-SE049\SP\RHF\Aug-CC-pVDZ\C3H1N5\OHZDE\08-Apr-2025\0\\#t hf au
 g-cc-pvdz iop(5/13=1,5/36=2,99/5=2) pseudo=read geom=check guess=(read
 ,tcheck) scf=(maxcycle=1)\\title\\0,1\C,0,1.91388,-0.0207622,0.045791\
 C,0,0.509738,-0.0164957,0.0987878\C,0,-1.38989,1.09909,-0.0820237\H,0,
 -1.78582,2.0468,-0.146667\N,0,3.03658,0.0588361,-0.108999\N,0,-0.06779
 16,1.10243,0.112909\N,0,-2.06305,0.0108428,-0.0321507\N,0,-1.42573,-1.
 16202,-0.0139971\N,0,-0.110954,-1.21264,0.0095718\\Version=ES64L-G16Re
 vC.01\State=1-A\HF=-386.4712446\RMSD=5.263e-03\Dipole=-0.9076586,0.910

 Normal termination of Gaussian 16 at Tue Apr  8 21:48:02 2025.
