 Gaussian 16, Revision C.01,

 ----------------------------------------------------------------------
 #t hf aug-cc-pvdz symm=none int=(grid=ultrafine) guess=(read,tcheck) s
 table=(opt,rrhf)
 ----------------------------------------------------------------------
 -----
 title
 -----
 Symbolic Z-matrix:
 Charge =  0 Multiplicity = 1

 SCF Done:  E(RHF) =  -528.732981651     A.U. after   14 cycles
 Normal termination of Gaussian 16 at Tue Apr  8 22:16:12 2025.
 Gaussian 16:  ES64L-G16RevC.01  3-Jul-2019

 ----------------------------------------------------------------------
 #t hf aug-cc-pvdz iop(5/13=1,5/36=2,99/5=2) pseudo=read geom=check gue
 ss=(read,tcheck) scf=(maxcycle=1)
 ----------------------------------------------------------------------
 -----
 title
 -----
 Structure from the checkpoint file:  "ANI1ccx_998_conf19_mol1.chk"
 Charge =  0 Multiplicity = 1

                         Standard orientation:
 ---------------------------------------------------------------------
 Center     Atomic      Atomic             Coordinates (Angstroms)
 Number     Number       Type             X           Y           Z
 ---------------------------------------------------------------------
      1          6           0        0.970148    0.195240    0.392739
      2          6           0        2.376251   -0.339918   -0.081806
      3          6           0       -0.033993   -0.945945    0.118686
      4          6           0       -1.474649   -0.787900    0.656503
      5          6           0       -2.596979   -0.050021   -0.049832
      6          1           0        3.249131    1.155141    0.990395
      7          1           0       -3.042769    1.765240   -0.790449
      8          1           0       -1.907878   -1.828750    0.663801
      9          1           0       -1.467689   -0.525619    1.725940
     10          1           0       -1.542219    1.704670   -0.030419
     11          1           0        1.364951    2.215551   -0.061551
     12          1           0        0.639212    1.327870   -1.149910
     13          1           0        0.973471    0.481413    1.438370
     14          1           0       -0.040004   -1.119580   -0.944822
     15          1           0        0.360848   -1.854130    0.588337
     16          7           0        0.663714    1.511920   -0.209787
     17          7           0       -2.478079    1.310400   -0.145158
     18          8           0       -3.619569   -0.690486   -0.285288
     19          8           0        2.594392   -1.282599   -0.730080
     20          8           0        3.358781    0.534737    0.245015
 ---------------------------------------------------------------------

 SCF Done:  E(RHF) =  -528.896064865     A.U. after    2 cycles

 The electronic state is 1-A.
 Alpha  occ. eigenvalues --  -20.63311 -20.58750 -20.53398 -15.64986 -15.63980
 Alpha  occ. eigenvalues --  -11.41266 -11.36424 -11.31693 -11.26441 -11.25388
 Alpha  occ. eigenvalues --   -1.44615  -1.35917  -1.33678  -1.21080  -1.17719
 Alpha  occ. eigenvalues --   -1.06500  -0.97590  -0.89292  -0.85104  -0.78607
 Alpha  occ. eigenvalues --   -0.76070  -0.73297  -0.70796  -0.70351  -0.67685
 Alpha  occ. eigenvalues --   -0.67030  -0.63900  -0.60957  -0.59107  -0.58819
 Alpha  occ. eigenvalues --   -0.57012  -0.53262  -0.53076  -0.52059  -0.50749
 Alpha  occ. eigenvalues --   -0.49665  -0.44253  -0.42190  -0.41576
 Alpha virt. eigenvalues --    0.01422   0.02877   0.03943   0.04387   0.05667
 Alpha virt. eigenvalues --    0.06396   0.06918   0.07107   0.08398   0.09028
 Alpha virt. eigenvalues --    0.10407   0.11089   0.11616   0.12285   0.12813

 Mulliken charges:
               1
     1  C    0.226312
     2  C    0.778817
     3  C    0.472641
     4  C    0.315174
     5  C    0.408557
     6  H    0.185940
     7  H   -0.081190
     8  H    0.043452
     9  H    0.007612
    10  H    0.092113
    11  H   -0.013090
    12  H    0.020155
    13  H   -0.388523
    14  H   -0.143783
    15  H   -0.054772
    16  N   -0.377203
    17  N   -0.084410
    18  O   -0.555929
    19  O   -0.349288
    20  O   -0.502585
 Sum of Mulliken charges =  -0.00000

 Dipole moment (field-independent basis, Debye):
    X=              3.2450    Y=              4.8779    Z=              2.2802  Tot=              6.2868

 Test job not archived.
 1\1\GINC-SE090\SP\RHF\Aug-CC-pVDZ\C5H10N2O3\OHZDE\08-Apr-2025\0\\#t hf
  aug-cc-pvdz iop(5/13=1,5/36=2,99/5=2) pseudo=read geom=check guess=(r
 ead,tcheck) scf=(maxcycle=1)\\title\\0,1\C,0,0.970147,0.195239,0.39273
 9\C,0,2.37625,-0.339919,-0.0818065\C,0,-0.0339948,-0.945945,0.118686\C
 ,0,-1.47465,-0.7879,0.656503\C,0,-2.59698,-0.0500205,-0.0498326\H,0,3.
 24913,1.15514,0.990395\H,0,-3.04277,1.76524,-0.790449\H,0,-1.90788,-1.
 82875,0.663801\H,0,-1.46769,-0.525619,1.72594\H,0,-1.54222,1.70467,-0.
 030419\H,0,1.36495,2.21555,-0.0615514\H,0,0.639211,1.32787,-1.14991\H,

 Normal termination of Gaussian 16 at Tue Apr  8 22:16:23 2025.
