 Gaussian 16, Revision C.01,

 ----------------------------------------------------------------------
 #t hf aug-cc-pvdz symm=none int=(grid=ultrafine) guess=(read,tcheck) s
 table=(opt,rrhf)
 ----------------------------------------------------------------------
 -----
 title
 -----
 Symbolic Z-matrix:
 Charge =  0 Multiplicity = 1

 SCF Done:  E(RHF) =  -540.228025338     A.U. after   15 cycles
 Normal termination of Gaussian 16 at Tue Apr  8 21:43:03 2025.
 Gaussian 16:  ES64L-G16RevC.01  3-Jul-2019

 ----------------------------------------------------------------------
 #t hf aug-cc-pvdz iop(5/13=1,5/36=2,99/5=2) pseudo=read geom=check gue
 ss=(read,tcheck) scf=(maxcycle=1)
 ----------------------------------------------------------------------
 -----
 title
 -----
 Structure from the checkpoint file:  "ANI1ccx_504_conf1_mol1.chk"
 Charge =  0 Multiplicity = 1

                         Standard orientation:
 ---------------------------------------------------------------------
 Center     Atomic      Atomic             Coordinates (Angstroms)
 Number     Number       Type             X           Y           Z
 ---------------------------------------------------------------------
      1          6           0       -0.936904   -0.928268    0.005855
      2          6           0        1.306878   -0.421616   -0.212223
      3          1           0        0.963418    2.432500    0.670207
      4          1           0       -1.423711    1.687491    0.522937
      5          1           0        0.615710   -2.238070    0.545087
      6          7           0        0.552219    0.827795   -0.385647
      7          7           0       -0.769297    0.382965   -0.567882
      8          7           0        0.368980   -1.432440    0.022150
      9          8           0        0.696002    1.513400    0.865094
     10          8           0       -1.678241    1.390001   -0.370364
     11          8           0       -1.960452   -1.429769    0.422916
     12          8           0        2.512868   -0.502489   -0.165192
 ---------------------------------------------------------------------

 SCF Done:  E(RHF) =  -540.391914190     A.U. after    2 cycles

 The electronic state is 1-A.
 Alpha  occ. eigenvalues --  -20.67281 -20.66715 -20.60913 -20.59803 -15.78212
 Alpha  occ. eigenvalues --  -15.76914 -15.72378 -11.45956 -11.45532  -1.49513
 Alpha  occ. eigenvalues --   -1.42352  -1.40481  -1.38714  -1.30357  -1.19755
 Alpha  occ. eigenvalues --   -1.05288  -0.90327  -0.87996  -0.80964  -0.80402
 Alpha  occ. eigenvalues --   -0.74971  -0.71751  -0.70968  -0.68859  -0.68565
 Alpha  occ. eigenvalues --   -0.65530  -0.61309  -0.59003  -0.58225  -0.53052
 Alpha  occ. eigenvalues --   -0.52054  -0.50588  -0.47590  -0.42034
 Alpha virt. eigenvalues --    0.02323   0.03472   0.05235   0.06751   0.08545
 Alpha virt. eigenvalues --    0.09219   0.10916   0.11400   0.12043   0.12408
 Alpha virt. eigenvalues --    0.13505   0.13781   0.15008   0.16499   0.17308

 Mulliken charges:
               1
     1  C    0.931874
     2  C    1.039864
     3  H    0.249882
     4  H    0.250427
     5  H   -0.051827
     6  N   -0.218646
     7  N   -0.030257
     8  N   -0.303326
     9  O   -0.593874
    10  O   -0.478194
    11  O   -0.402124
    12  O   -0.393798
 Sum of Mulliken charges =   0.00000

 Dipole moment (field-independent basis, Debye):
    X=              0.9905    Y=              1.4982    Z=              1.3086  Tot=              2.2222

 Test job not archived.
 1\1\GINC-SE364\SP\RHF\Aug-CC-pVDZ\C2H3N3O4\OHZDE\08-Apr-2025\0\\#t hf
 aug-cc-pvdz iop(5/13=1,5/36=2,99/5=2) pseudo=read geom=check guess=(re
 ad,tcheck) scf=(maxcycle=1)\\title\\0,1\C,0,-0.936902,-0.928268,0.0058
 5468\C,0,1.30688,-0.421616,-0.212223\H,0,0.963419,2.4325,0.670207\H,0,
 -1.42371,1.68749,0.522937\H,0,0.615712,-2.23807,0.545087\N,0,0.55222,0
 .827795,-0.385647\N,0,-0.769296,0.382965,-0.567882\N,0,0.368982,-1.432
 44,0.0221501\O,0,0.696003,1.5134,0.865094\O,0,-1.67824,1.39,-0.370364\
 O,0,-1.96045,-1.42977,0.422916\O,0,2.51287,-0.502488,-0.165192\\Versio

 Normal termination of Gaussian 16 at Tue Apr  8 21:43:08 2025.
