 Gaussian 16, Revision C.01,

 ----------------------------------------------------------------------
 #t hf aug-cc-pvdz symm=none int=(grid=ultrafine) guess=(read,tcheck) s
 table=(opt,rrhf)
 ----------------------------------------------------------------------
 -----
 title
 -----
 Symbolic Z-matrix:
 Charge =  0 Multiplicity = 1

 SCF Done:  E(RHF) =  -774.642166477     A.U. after   14 cycles
 Normal termination of Gaussian 16 at Tue Apr  8 20:09:53 2025.
 Gaussian 16:  ES64L-G16RevC.01  3-Jul-2019

 ----------------------------------------------------------------------
 #t hf aug-cc-pvdz iop(5/13=1,5/36=2,99/5=2) pseudo=read geom=check gue
 ss=(read,tcheck) scf=(maxcycle=1)
 ----------------------------------------------------------------------
 -----
 title
 -----
 Structure from the checkpoint file:  "ANI1ccx_1610_conf1_mol1.chk"
 Charge =  0 Multiplicity = 1

                         Standard orientation:
 ---------------------------------------------------------------------
 Center     Atomic      Atomic             Coordinates (Angstroms)
 Number     Number       Type             X           Y           Z
 ---------------------------------------------------------------------
      1          6           0       -2.677118   -1.308872    0.073383
      2          6           0       -1.372049   -0.776253    0.707156
      3          6           0       -2.310028   -2.090242   -1.210910
      4          6           0        0.087996    1.301501    0.772464
      5          6           0        0.209063    2.619871    0.001988
      6          6           0        1.424270    0.532974    0.792299
      7          6           0        1.790200   -0.083751   -0.555179
      8          6           0        2.727132   -1.273417   -0.394160
      9          1           0       -0.517288    3.543160   -1.479170
     10          1           0        1.286913   -2.298778    0.704691
     11          1           0        2.689173   -3.172817    0.335988
     12          1           0        2.321530    0.633216   -1.185370
     13          1           0        0.876379   -0.407887   -1.115450
     14          1           0        1.347131   -0.214156    1.577960
     15          1           0        2.230139    1.228193    1.053870
     16          1           0       -1.640851    0.992963   -0.314963
     17          1           0       -1.603927   -2.898501   -0.909093
     18          1           0       -1.771428   -1.489671   -1.952640
     19          1           0       -3.210247   -2.465133   -1.708110
     20          1           0       -3.054498   -2.007362    0.836876
     21          1           0       -3.959000    0.205339    0.599901
     22          1           0       -4.404839   -0.552039   -0.721414
     23          1           0       -0.054582    1.595610    1.853170
     24          7           0       -3.579719   -0.189977   -0.260028
     25          7           0       -1.029790    0.467634    0.277935
     26          7           0        2.130383   -2.361018    0.171539
     27          8           0        3.898132   -1.275326   -0.732181
     28          8           0       -0.698175   -1.442730    1.473730
     29          8           0        1.069477    3.447741    0.140667
     30          8           0       -0.826623    2.815380   -0.885290
 ---------------------------------------------------------------------

 SCF Done:  E(RHF) =  -774.877781371     A.U. after    2 cycles

 The electronic state is 1-A.
 Alpha  occ. eigenvalues --  -20.64886 -20.59162 -20.55766 -20.52679 -15.66388
 Alpha  occ. eigenvalues --  -15.64283 -15.62831 -11.42868 -11.38377 -11.35546
 Alpha  occ. eigenvalues --  -11.32718 -11.30494 -11.25697 -11.25330 -11.24748
 Alpha  occ. eigenvalues --   -1.44370  -1.37061  -1.34792  -1.33560  -1.22562
 Alpha  occ. eigenvalues --   -1.18387  -1.16626  -1.07772  -1.02092  -0.99585
 Alpha  occ. eigenvalues --   -0.90186  -0.89058  -0.81931  -0.80186  -0.77778
 Alpha  occ. eigenvalues --   -0.74852  -0.73257  -0.72012  -0.69943  -0.69287
 Alpha  occ. eigenvalues --   -0.67731  -0.66584  -0.66312  -0.64243  -0.63805
 Alpha  occ. eigenvalues --   -0.62054  -0.60050  -0.59396  -0.58820  -0.57251
 Alpha  occ. eigenvalues --   -0.56247  -0.54634  -0.54058  -0.52747  -0.52275
 Alpha  occ. eigenvalues --   -0.51353  -0.50296  -0.49016  -0.45265  -0.42929
 Alpha  occ. eigenvalues --   -0.42674  -0.41320  -0.40450
 Alpha virt. eigenvalues --    0.02048   0.02972   0.03141   0.03979   0.05279
 Alpha virt. eigenvalues --    0.05357   0.05803   0.06361   0.07162   0.07796
 Alpha virt. eigenvalues --    0.08074   0.08700   0.09055   0.09685   0.10373

 Mulliken charges:
               1
     1  C    0.241865
     2  C    0.498732
     3  C    0.476132
     4  C   -0.020826
     5  C    0.881259
     6  C    0.328003
     7  C    0.596413
     8  C    0.611348
     9  H    0.230931
    10  H    0.002087
    11  H   -0.050352
    12  H   -0.160314
    13  H   -0.067619
    14  H   -0.219614
    15  H   -0.083241
    16  H    0.064248
    17  H    0.061865
    18  H   -0.062832
    19  H   -0.120746
    20  H   -0.060954
    21  H    0.026319
    22  H   -0.003864
    23  H    0.135949
    24  N   -0.236830
    25  N   -0.532614
    26  N   -0.135651
    27  O   -0.562088
    28  O   -0.685281
    29  O   -0.490763
    30  O   -0.661561
 Sum of Mulliken charges =  -0.00000

 Dipole moment (field-independent basis, Debye):
    X=             -8.1864    Y=              0.1606    Z=             -0.3564  Tot=              8.1957

 Test job not archived.
 1\1\GINC-SE366\SP\RHF\Aug-CC-pVDZ\C8H15N3O4\OHZDE\08-Apr-2025\0\\#t hf
  aug-cc-pvdz iop(5/13=1,5/36=2,99/5=2) pseudo=read geom=check guess=(r
 ead,tcheck) scf=(maxcycle=1)\\title\\0,1\C,0,-2.67712,-1.30887,0.07338
 3\C,0,-1.37205,-0.776252,0.707156\C,0,-2.31003,-2.09024,-1.21091\C,0,0
 .0879973,1.3015,0.772464\C,0,0.209065,2.61987,0.0019884\C,0,1.42427,0.
 532972,0.792299\C,0,1.7902,-0.0837527,-0.555179\C,0,2.72713,-1.27342,-
 0.39416\H,0,-0.517285,3.54316,-1.47917\H,0,1.28691,-2.29878,0.704691\H
 ,0,2.68917,-3.17282,0.335988\H,0,2.32153,0.633213,-1.18537\H,0,0.87637

 Normal termination of Gaussian 16 at Tue Apr  8 20:10:23 2025.
