 Gaussian 16, Revision C.01,

 ----------------------------------------------------------------------
 #t hf aug-cc-pvdz symm=none int=(grid=ultrafine) guess=(read,tcheck) s
 table=(opt,rrhf)
 ----------------------------------------------------------------------
 -----
 title
 -----
 Symbolic Z-matrix:
 Charge =  0 Multiplicity = 1

 SCF Done:  E(RHF) =  -451.830578427     A.U. after   13 cycles
 Normal termination of Gaussian 16 at Tue Apr  8 21:52:30 2025.
 Gaussian 16:  ES64L-G16RevC.01  3-Jul-2019

 ----------------------------------------------------------------------
 #t hf aug-cc-pvdz iop(5/13=1,5/36=2,99/5=2) pseudo=read geom=check gue
 ss=(read,tcheck) scf=(maxcycle=1)
 ----------------------------------------------------------------------
 -----
 title
 -----
 Structure from the checkpoint file:  "ANI1ccx_764_conf4_mol1.chk"
 Charge =  0 Multiplicity = 1

                         Standard orientation:
 ---------------------------------------------------------------------
 Center     Atomic      Atomic             Coordinates (Angstroms)
 Number     Number       Type             X           Y           Z
 ---------------------------------------------------------------------
      1          6           0        2.175300   -0.225187   -0.549212
      2          6           0       -0.055682    0.621392    0.016883
      3          6           0       -1.845050   -0.929223    0.281553
      4          1           0        1.961610   -1.517490    0.875975
      5          1           0        3.090860    0.198486   -1.008610
      6          1           0        1.806260   -1.008040   -1.265840
      7          1           0        1.553341    1.698160   -0.119837
      8          1           0       -0.231894   -1.158579   -1.003330
      9          1           0       -2.097231   -1.973759    0.049930
     10          1           0       -1.812310   -0.714534    1.356110
     11          1           0       -2.545829    0.791050   -0.126150
     12          7           0        1.196291    0.860777   -0.516043
     13          7           0       -0.519439   -0.646646   -0.182031
     14          8           0        2.463520   -0.684964    0.738106
     15          8           0       -0.690222    1.486431    0.602096
     16          8           0       -2.787070   -0.128479   -0.386087
 ---------------------------------------------------------------------

 SCF Done:  E(RHF) =  -451.972938023     A.U. after    2 cycles

 The electronic state is 1-A.
 Alpha  occ. eigenvalues --  -20.60260 -20.56824 -20.54893 -15.65713 -15.65087
 Alpha  occ. eigenvalues --  -11.40386 -11.35675 -11.33140  -1.38566  -1.35990
 Alpha  occ. eigenvalues --   -1.32707  -1.22445  -1.17912  -0.95251  -0.92327
 Alpha  occ. eigenvalues --   -0.81154  -0.77674  -0.74852  -0.70577  -0.69938
 Alpha  occ. eigenvalues --   -0.66093  -0.65110  -0.63648  -0.61712  -0.59514
 Alpha  occ. eigenvalues --   -0.54355  -0.53596  -0.52404  -0.48197  -0.46748
 Alpha  occ. eigenvalues --   -0.43719  -0.42416
 Alpha virt. eigenvalues --    0.02144   0.03543   0.04176   0.04964   0.06218
 Alpha virt. eigenvalues --    0.06555   0.07989   0.08656   0.10374   0.11530
 Alpha virt. eigenvalues --    0.12575   0.12814   0.13990   0.14691   0.15310

 Mulliken charges:
               1
     1  C    1.047456
     2  C    0.699028
     3  C    1.025596
     4  H    0.220136
     5  H   -0.217876
     6  H   -0.119274
     7  H   -0.056536
     8  H   -0.064092
     9  H   -0.221178
    10  H   -0.161479
    11  H    0.202895
    12  N   -0.364198
    13  N   -0.340532
    14  O   -0.543769
    15  O   -0.538429
    16  O   -0.567749
 Sum of Mulliken charges =  -0.00000

 Dipole moment (field-independent basis, Debye):
    X=              2.7856    Y=             -3.3850    Z=             -1.5779  Tot=              4.6591

 Test job not archived.
 1\1\GINC-SE044\SP\RHF\Aug-CC-pVDZ\C3H8N2O3\OHZDE\08-Apr-2025\0\\#t hf
 aug-cc-pvdz iop(5/13=1,5/36=2,99/5=2) pseudo=read geom=check guess=(re
 ad,tcheck) scf=(maxcycle=1)\\title\\0,1\C,0,2.1753,-0.225187,-0.549212
 \C,0,-0.055683,0.621391,0.0168825\C,0,-1.84505,-0.929224,0.281553\H,0,
 1.96161,-1.51749,0.875975\H,0,3.09086,0.198487,-1.00861\H,0,1.80626,-1
 .00804,-1.26584\H,0,1.55334,1.69816,-0.119837\H,0,-0.231894,-1.15858,-
 1.00333\H,0,-2.09723,-1.97376,0.0499301\H,0,-1.81231,-0.714535,1.35611
 \H,0,-2.54583,0.791048,-0.12615\N,0,1.19629,0.860777,-0.516043\N,0,-0.

 Normal termination of Gaussian 16 at Tue Apr  8 21:52:36 2025.
