 Gaussian 16, Revision C.01,

 ----------------------------------------------------------------------
 #t hf aug-cc-pvdz symm=none int=(grid=ultrafine) guess=(read,tcheck) s
 table=(opt,rrhf)
 ----------------------------------------------------------------------
 -----
 title
 -----
 Symbolic Z-matrix:
 Charge =  0 Multiplicity = 1

 SCF Done:  E(RHF) =  -406.480550445     A.U. after   15 cycles
 Normal termination of Gaussian 16 at Tue Apr  8 21:28:34 2025.
 Gaussian 16:  ES64L-G16RevC.01  3-Jul-2019

 ----------------------------------------------------------------------
 #t hf aug-cc-pvdz iop(5/13=1,5/36=2,99/5=2) pseudo=read geom=check gue
 ss=(read,tcheck) scf=(maxcycle=1)
 ----------------------------------------------------------------------
 -----
 title
 -----
 Structure from the checkpoint file:  "ANI1ccx_379_conf9_mol1.chk"
 Charge =  0 Multiplicity = 1

                         Standard orientation:
 ---------------------------------------------------------------------
 Center     Atomic      Atomic             Coordinates (Angstroms)
 Number     Number       Type             X           Y           Z
 ---------------------------------------------------------------------
      1          6           0        0.009224    0.774338   -0.066972
      2          1           0        2.168740   -0.724926    1.010000
      3          1           0        2.209310   -0.302386   -0.667239
      4          7           0        1.811779   -0.878759   -0.000082
      5          7           0        0.446237   -0.500147   -0.067356
      6          7           0       -0.557972   -1.314469   -0.048281
      7          7           0       -1.614820   -0.670105    0.082422
      8          8           0       -1.294287    0.705776   -0.003031
      9          8           0        0.665542    1.784928    0.039549
 ---------------------------------------------------------------------

 SCF Done:  E(RHF) =  -406.601756453     A.U. after    2 cycles

 The electronic state is 1-A.
 Alpha  occ. eigenvalues --  -20.70352 -20.57507 -15.79166 -15.79036 -15.78107
 Alpha  occ. eigenvalues --  -15.72180 -11.45357  -1.58110  -1.40441  -1.38325
 Alpha  occ. eigenvalues --   -1.27471  -1.14072  -0.97461  -0.91593  -0.79951
 Alpha  occ. eigenvalues --   -0.78583  -0.72695  -0.70387  -0.67839  -0.60421
 Alpha  occ. eigenvalues --   -0.59454  -0.57530  -0.56507  -0.50676  -0.48207
 Alpha  occ. eigenvalues --   -0.42265
 Alpha virt. eigenvalues --    0.02714   0.04110   0.07763   0.08953   0.09337
 Alpha virt. eigenvalues --    0.10601   0.10815   0.12234   0.13203   0.15245
 Alpha virt. eigenvalues --    0.16614   0.17395   0.18262   0.18699   0.19928

 Mulliken charges:
               1
     1  C    0.654798
     2  H    0.216191
     3  H    0.045665
     4  N    0.091447
     5  N   -0.097377
     6  N   -0.057874
     7  N    0.049454
     8  O   -0.497123
     9  O   -0.405181
 Sum of Mulliken charges =  -0.00000

 Dipole moment (field-independent basis, Debye):
    X=              2.2882    Y=             -2.0807    Z=              0.1922  Tot=              3.0987

 Test job not archived.
 1\1\GINC-SE365\SP\RHF\Aug-CC-pVDZ\C1H2N4O2\OHZDE\08-Apr-2025\0\\#t hf
 aug-cc-pvdz iop(5/13=1,5/36=2,99/5=2) pseudo=read geom=check guess=(re
 ad,tcheck) scf=(maxcycle=1)\\title\\0,1\C,0,0.00922069,0.774339,-0.066
 9721\H,0,2.16874,-0.724921,1.01\H,0,2.20931,-0.30238,-0.667239\N,0,1.8
 1178,-0.878754,-0.00008149\N,0,0.446237,-0.500145,-0.0673557\N,0,-0.55
 797,-1.31447,-0.0482805\N,0,-1.61482,-0.670108,0.0824217\O,0,-1.29429,
 0.705774,-0.00303093\O,0,0.665537,1.78493,0.0395492\\Version=ES64L-G16
 RevC.01\State=1-A\HF=-406.6017565\RMSD=3.527e-03\Dipole=0.9002598,-0.8

 Normal termination of Gaussian 16 at Tue Apr  8 21:28:37 2025.
