 Gaussian 16, Revision C.01,

 ----------------------------------------------------------------------
 #t hf aug-cc-pvdz symm=none int=(grid=ultrafine) guess=(read,tcheck) s
 table=(opt,rrhf)
 ----------------------------------------------------------------------
 -----
 title
 -----
 Symbolic Z-matrix:
 Charge =  0 Multiplicity = 1

 SCF Done:  E(RHF) =  -456.242189562     A.U. after   11 cycles
 Normal termination of Gaussian 16 at Tue Apr  8 21:07:46 2025.
 Gaussian 16:  ES64L-G16RevC.01  3-Jul-2019

 ----------------------------------------------------------------------
 #t hf aug-cc-pvdz iop(5/13=1,5/36=2,99/5=2) pseudo=read geom=check gue
 ss=(read,tcheck) scf=(maxcycle=1)
 ----------------------------------------------------------------------
 -----
 title
 -----
 Structure from the checkpoint file:  "ANI1ccx_1844_conf400_mol1.chk"
 Charge =  0 Multiplicity = 1

                         Standard orientation:
 ---------------------------------------------------------------------
 Center     Atomic      Atomic             Coordinates (Angstroms)
 Number     Number       Type             X           Y           Z
 ---------------------------------------------------------------------
      1          1           0        2.303381   -0.425664    0.502279
      2          1           0       -3.709809   -0.065472    0.557367
      3          1           0       -2.768569   -0.805605   -0.447196
      4          1           0        0.047162   -1.870022    0.907736
      5          1           0        0.274098   -0.313871    0.832703
      6          1           0       -0.779188    1.748018    1.769100
      7          1           0        3.689901    0.253234    0.604921
      8          1           0       -1.587260    1.425328    0.447263
      9          1           0        0.369156    1.356779   -0.392693
     10          1           0        1.756010    0.899784   -0.974602
     11          1           0       -0.056245   -0.571484   -1.074440
     12          1           0       -0.774753   -1.992872   -1.502860
     13          8           0        0.687843   -1.160741    1.200370
     14          8           0        0.864891    1.205739   -1.222460
     15          8           0       -3.067319    0.013519   -0.110276
     16          8           0       -0.674057    1.423008    0.879062
     17          8           0        3.100071   -0.159872   -0.054295
     18          8           0       -0.756915   -1.276422   -0.846099
 ---------------------------------------------------------------------

 SCF Done:  E(RHF) =  -456.391979674     A.U. after    2 cycles

 The electronic state is 1-A.
 Alpha  occ. eigenvalues --  -20.60859 -20.58011 -20.57757 -20.57130 -20.56192
 Alpha  occ. eigenvalues --  -20.54184  -1.34214  -1.33049  -1.30751  -1.29356
 Alpha  occ. eigenvalues --   -1.27480  -1.27031  -0.77683  -0.77018  -0.74160
 Alpha  occ. eigenvalues --   -0.72276  -0.71670  -0.68419  -0.64041  -0.61145
 Alpha  occ. eigenvalues --   -0.60127  -0.59091  -0.57761  -0.56827  -0.55415
 Alpha  occ. eigenvalues --   -0.53272  -0.52692  -0.51063  -0.50060  -0.49207
 Alpha virt. eigenvalues --    0.02315   0.03982   0.04551   0.05526   0.06599
 Alpha virt. eigenvalues --    0.07265   0.07961   0.08862   0.10030   0.10240
 Alpha virt. eigenvalues --    0.10874   0.12290   0.16064   0.17838   0.19097

 Mulliken charges:
               1
     1  H    0.235086
     2  H    0.133831
     3  H    0.191520
     4  H    0.286879
     5  H    0.258085
     6  H    0.190777
     7  H    0.199861
     8  H    0.340164
     9  H    0.254236
    10  H    0.220823
    11  H    0.335586
    12  H    0.208678
    13  O   -0.494784
    14  O   -0.402606
    15  O   -0.300994
    16  O   -0.623360
    17  O   -0.417381
    18  O   -0.616401
 Sum of Mulliken charges =   0.00000

 Dipole moment (field-independent basis, Debye):
    X=             -3.4372    Y=             -0.7684    Z=              3.0256  Tot=              4.6432

 Test job not archived.
 1\1\GINC-SE083\SP\RHF\Aug-CC-pVDZ\H12O6\OHZDE\08-Apr-2025\0\\#t hf aug
 -cc-pvdz iop(5/13=1,5/36=2,99/5=2) pseudo=read geom=check guess=(read,
 tcheck) scf=(maxcycle=1)\\title\\0,1\H,0,2.30338,-0.425663,0.502279\H,
 0,-3.70981,-0.0654692,0.557367\H,0,-2.76857,-0.805602,-0.447196\H,0,0.
 0471607,-1.87002,0.907736\H,0,0.274097,-0.31387,0.832703\H,0,-0.779188
 ,1.74802,1.7691\H,0,3.6899,0.253234,0.604921\H,0,-1.58726,1.42533,0.44
 7263\H,0,0.369156,1.35678,-0.392693\H,0,1.75601,0.899785,-0.974602\H,0
 ,-0.0562463,-0.571482,-1.07444\H,0,-0.774754,-1.99287,-1.50286\O,0,0.6

 Normal termination of Gaussian 16 at Tue Apr  8 21:07:52 2025.
