 Gaussian 16, Revision C.01,

 ----------------------------------------------------------------------
 #t hf aug-cc-pvdz symm=none int=(grid=ultrafine) guess=(read,tcheck) s
 table=(opt,rrhf)
 ----------------------------------------------------------------------
 -----
 title
 -----
 Symbolic Z-matrix:
 Charge =  0 Multiplicity = 1

 SCF Done:  E(RHF) =  -452.134529997     A.U. after   16 cycles
 Normal termination of Gaussian 16 at Tue Apr  8 21:55:03 2025.
 Gaussian 16:  ES64L-G16RevC.01  3-Jul-2019

 ----------------------------------------------------------------------
 #t hf aug-cc-pvdz iop(5/13=1,5/36=2,99/5=2) pseudo=read geom=check gue
 ss=(read,tcheck) scf=(maxcycle=1)
 ----------------------------------------------------------------------
 -----
 title
 -----
 Structure from the checkpoint file:  "ANI1ccx_859_conf2_mol1.chk"
 Charge =  0 Multiplicity = 1

                         Standard orientation:
 ---------------------------------------------------------------------
 Center     Atomic      Atomic             Coordinates (Angstroms)
 Number     Number       Type             X           Y           Z
 ---------------------------------------------------------------------
      1          6           0        1.372830   -0.033993    0.049744
      2          6           0        0.525457   -1.268959    0.225509
      3          6           0       -0.880297   -0.757073   -0.085569
      4          6           0       -0.722195    0.765448    0.003172
      5          1           0        0.410524   -1.514459    1.215870
      6          1           0        1.014430   -2.097359   -0.295317
      7          8           0        2.536040    0.013238   -0.257717
      8          8           0       -1.979100   -1.318019   -0.140275
      9          8           0       -1.558590    1.615281   -0.033768
     10          8           0        0.601683    1.111911    0.172049
 ---------------------------------------------------------------------

 SCF Done:  E(RHF) =  -452.273916642     A.U. after    2 cycles

 The electronic state is 1-A.
 Alpha  occ. eigenvalues --  -20.69497 -20.65065 -20.62708 -20.62125 -11.45796
 Alpha  occ. eigenvalues --  -11.45373 -11.43196 -11.32610  -1.50737  -1.42722
 Alpha  occ. eigenvalues --   -1.40589  -1.38042  -1.13678  -0.97985  -0.90551
 Alpha  occ. eigenvalues --   -0.82558  -0.75681  -0.75495  -0.73018  -0.70874
 Alpha  occ. eigenvalues --   -0.69468  -0.67379  -0.64367  -0.61743  -0.58660
 Alpha  occ. eigenvalues --   -0.55980  -0.53442  -0.51664  -0.48777
 Alpha virt. eigenvalues --    0.00180   0.02476   0.04067   0.06521   0.06990
 Alpha virt. eigenvalues --    0.08969   0.09189   0.10312   0.10680   0.11507
 Alpha virt. eigenvalues --    0.11679   0.13175   0.14034   0.14434   0.14624

 Mulliken charges:
               1
     1  C    0.628657
     2  C    0.270411
     3  C    0.217638
     4  C    0.612768
     5  H    0.050356
     6  H    0.011699
     7  O   -0.401835
     8  O   -0.448126
     9  O   -0.358310
    10  O   -0.583256
 Sum of Mulliken charges =   0.00000

 Dipole moment (field-independent basis, Debye):
    X=              1.2886    Y=             -3.2255    Z=              1.0780  Tot=              3.6368

 Test job not archived.
 1\1\GINC-SE232\SP\RHF\Aug-CC-pVDZ\C4H2O4\OHZDE\08-Apr-2025\0\\#t hf au
 g-cc-pvdz iop(5/13=1,5/36=2,99/5=2) pseudo=read geom=check guess=(read
 ,tcheck) scf=(maxcycle=1)\\title\\0,1\C,0,1.37283,-0.0339933,0.0497444
 \C,0,0.525457,-1.26896,0.225509\C,0,-0.880297,-0.757074,-0.0855685\C,0
 ,-0.722195,0.765447,0.00317197\H,0,0.410524,-1.51446,1.21587\H,0,1.014
 43,-2.09736,-0.295317\O,0,2.53604,0.013237,-0.257717\O,0,-1.9791,-1.31
 802,-0.140275\O,0,-1.55859,1.61528,-0.0337683\O,0,0.601683,1.11191,0.1
 72049\\Version=ES64L-G16RevC.01\State=1-A\HF=-452.2739166\RMSD=4.514e-

 Normal termination of Gaussian 16 at Tue Apr  8 21:55:08 2025.
