 Gaussian 16, Revision C.01,

 ----------------------------------------------------------------------
 #t hf aug-cc-pvdz symm=none int=(grid=ultrafine) guess=(read,tcheck) s
 table=(opt,rrhf)
 ----------------------------------------------------------------------
 -----
 title
 -----
 Symbolic Z-matrix:
 Charge =  0 Multiplicity = 1

 SCF Done:  E(RHF) =  -588.726453593     A.U. after   13 cycles
 Normal termination of Gaussian 16 at Tue Apr  8 19:20:19 2025.
 Gaussian 16:  ES64L-G16RevC.01  3-Jul-2019

 ----------------------------------------------------------------------
 #t hf aug-cc-pvdz iop(5/13=1,5/36=2,99/5=2) pseudo=read geom=check gue
 ss=(read,tcheck) scf=(maxcycle=1)
 ----------------------------------------------------------------------
 -----
 title
 -----
 Structure from the checkpoint file:  "ANI1ccx_1232_conf1_mol2.chk"
 Charge =  0 Multiplicity = 1

                         Standard orientation:
 ---------------------------------------------------------------------
 Center     Atomic      Atomic             Coordinates (Angstroms)
 Number     Number       Type             X           Y           Z
 ---------------------------------------------------------------------
      1          6           0       -2.227740   -1.081989    0.067611
      2          6           0       -0.887402   -0.435971    0.443967
      3          6           0        0.201004   -1.505439    0.535993
      4          6           0        1.826880   -0.181359   -0.675751
      5          6           0        0.970251    1.007851   -0.307119
      6          6           0       -0.515045    0.686685   -0.564341
      7          1           0       -1.106321    2.137161    0.527249
      8          1           0       -0.669039    0.342528   -1.575340
      9          1           0        1.931770    1.055281    1.423480
     10          1           0        1.293470    1.831201   -0.942400
     11          1           0        3.574720   -0.887449   -0.014887
     12          1           0        2.174960   -0.137452   -1.709120
     13          1           0        0.809302   -1.366869    1.470320
     14          1           0       -0.252038   -2.529469    0.557808
     15          1           0       -1.042750    0.033638    1.420720
     16          1           0       -2.477650   -1.879610    0.807183
     17          1           0       -2.089450   -1.604359   -0.888351
     18          1           0       -2.936720    0.714337   -0.280044
     19          1           0        1.635350   -2.212219   -0.797123
     20          7           0        1.051990   -1.384319   -0.616364
     21          8           0        1.044290    1.311821    1.070380
     22          8           0       -3.288780   -0.143976    0.024787
     23          8           0        2.976630   -0.103959    0.213764
     24          8           0       -1.284290    1.842971   -0.394819
 ---------------------------------------------------------------------

 SCF Done:  E(RHF) =  -588.903674341     A.U. after    2 cycles

 The electronic state is 1-A.
 Alpha  occ. eigenvalues --  -20.60408 -20.58560 -20.57780 -20.55013 -15.62879
 Alpha  occ. eigenvalues --  -11.33695 -11.29642 -11.29481 -11.27757 -11.27412
 Alpha  occ. eigenvalues --  -11.23451  -1.36334  -1.34216  -1.31157  -1.29808
 Alpha  occ. eigenvalues --   -1.20440  -1.05097  -1.02223  -0.91232  -0.88240
 Alpha  occ. eigenvalues --   -0.84041  -0.79603  -0.73824  -0.72938  -0.71362
 Alpha  occ. eigenvalues --   -0.68481  -0.67342  -0.63567  -0.62847  -0.61874
 Alpha  occ. eigenvalues --   -0.61485  -0.59689  -0.59160  -0.58095  -0.57106
 Alpha  occ. eigenvalues --   -0.54946  -0.50776  -0.50215  -0.49142  -0.48946
 Alpha  occ. eigenvalues --   -0.46901  -0.43705  -0.42082  -0.38715
 Alpha virt. eigenvalues --    0.02018   0.03609   0.03950   0.04516   0.06077
 Alpha virt. eigenvalues --    0.06173   0.06489   0.06581   0.06953   0.08513
 Alpha virt. eigenvalues --    0.08768   0.08937   0.09469   0.11797   0.12810

 Mulliken charges:
               1
     1  C    0.980176
     2  C   -0.708803
     3  C    1.003790
     4  C    1.302098
     5  C    0.642188
     6  C    0.638714
     7  H    0.239682
     8  H   -0.311046
     9  H    0.241603
    10  H   -0.138131
    11  H    0.208042
    12  H   -0.245137
    13  H   -0.013908
    14  H   -0.206700
    15  H   -0.195577
    16  H   -0.046967
    17  H   -0.033525
    18  H    0.213677
    19  H   -0.076829
    20  N   -0.687125
    21  O   -0.730042
    22  O   -0.599776
    23  O   -0.763311
    24  O   -0.713095
 Sum of Mulliken charges =  -0.00000

 Dipole moment (field-independent basis, Debye):
    X=              5.0495    Y=             -2.7210    Z=             -0.6089  Tot=              5.7682

 Test job not archived.
 1\1\GINC-SE089\SP\RHF\Aug-CC-pVDZ\C6H13N1O4\OHZDE\08-Apr-2025\0\\#t hf
  aug-cc-pvdz iop(5/13=1,5/36=2,99/5=2) pseudo=read geom=check guess=(r
 ead,tcheck) scf=(maxcycle=1)\\title\\0,1\C,0,-2.22774,-1.08199,0.06761
 08\C,0,-0.887402,-0.435972,0.443967\C,0,0.201004,-1.50544,0.535993\C,0
 ,1.82688,-0.18136,-0.675751\C,0,0.970251,1.00785,-0.307119\C,0,-0.5150
 45,0.686684,-0.564341\H,0,-1.10632,2.13716,0.527249\H,0,-0.669039,0.34
 2527,-1.57534\H,0,1.93177,1.05528,1.42348\H,0,1.29347,1.8312,-0.9424\H
 ,0,3.57472,-0.88745,-0.0148873\H,0,2.17496,-0.137453,-1.70912\H,0,0.80

 Normal termination of Gaussian 16 at Tue Apr  8 19:20:38 2025.
