 Gaussian 16, Revision C.01,

 ----------------------------------------------------------------------
 #t hf aug-cc-pvdz symm=none int=(grid=ultrafine) guess=(read,tcheck) s
 table=(opt,rrhf)
 ----------------------------------------------------------------------
 -----
 title
 -----
 Symbolic Z-matrix:
 Charge =  0 Multiplicity = 1

 SCF Done:  E(RHF) =  -276.582015858     A.U. after   15 cycles
 Normal termination of Gaussian 16 at Tue Apr  8 21:16:21 2025.
 Gaussian 16:  ES64L-G16RevC.01  3-Jul-2019

 ----------------------------------------------------------------------
 #t hf aug-cc-pvdz iop(5/13=1,5/36=2,99/5=2) pseudo=read geom=check gue
 ss=(read,tcheck) scf=(maxcycle=1)
 ----------------------------------------------------------------------
 -----
 title
 -----
 Structure from the checkpoint file:  "ANI1ccx_370_conf81_mol1.chk"
 Charge =  0 Multiplicity = 1

                         Standard orientation:
 ---------------------------------------------------------------------
 Center     Atomic      Atomic             Coordinates (Angstroms)
 Number     Number       Type             X           Y           Z
 ---------------------------------------------------------------------
      1          6           0       -1.053330    0.208845    0.071721
      2          1           0       -2.168110    0.197089   -0.059383
      3          7           0       -0.150813    1.164281   -0.024060
      4          7           0        1.059631    0.505598   -0.013068
      5          7           0        0.856295   -0.759867    0.036507
      6          8           0       -0.483463   -0.977530   -0.045824
 ---------------------------------------------------------------------

 SCF Done:  E(RHF) =  -276.661989518     A.U. after    2 cycles

 The electronic state is 1-A.
 Alpha  occ. eigenvalues --  -20.72547 -15.78361 -15.75814 -15.70406 -11.40744
 Alpha  occ. eigenvalues --   -1.56180  -1.32548  -1.20325  -0.94113  -0.90324
 Alpha  occ. eigenvalues --   -0.78630  -0.74740  -0.67059  -0.58593  -0.53032
 Alpha  occ. eigenvalues --   -0.51796  -0.50169  -0.44413
 Alpha virt. eigenvalues --    0.02588   0.05876   0.07432   0.09135   0.10073
 Alpha virt. eigenvalues --    0.12882   0.13316   0.14597   0.15068   0.17541
 Alpha virt. eigenvalues --    0.18432   0.19775   0.21089   0.23212   0.24882

 Mulliken charges:
               1
     1  C    0.790133
     2  H   -0.053848
     3  N   -0.328392
     4  N   -0.055880
     5  N    0.106297
     6  O   -0.458310
 Sum of Mulliken charges =  -0.00000

 Dipole moment (field-independent basis, Debye):
    X=             -3.1552    Y=             -0.5146    Z=              0.0796  Tot=              3.1978

 Test job not archived.
 1\1\GINC-SE340\SP\RHF\Aug-CC-pVDZ\C1H1N3O1\OHZDE\08-Apr-2025\0\\#t hf
 aug-cc-pvdz iop(5/13=1,5/36=2,99/5=2) pseudo=read geom=check guess=(re
 ad,tcheck) scf=(maxcycle=1)\\title\\0,1\C,0,-1.05333,0.208841,0.071721
 \H,0,-2.16811,0.19708,-0.0593827\N,0,-0.150817,1.16428,-0.0240603\N,0,
 1.05963,0.505602,-0.013068\N,0,0.856299,-0.759864,0.0365069\O,0,-0.483
 458,-0.977532,-0.0458241\\Version=ES64L-G16RevC.01\State=1-A\HF=-276.6
 619895\RMSD=3.177e-03\Dipole=-1.2413352,-0.2024647,0.0312984\Quadrupol
 e=2.7985652,-3.5068218,0.7082566,-0.1424233,-0.0202905,-0.0162097\PG=C

 Normal termination of Gaussian 16 at Tue Apr  8 21:16:23 2025.
