 Gaussian 16, Revision C.01,

 ----------------------------------------------------------------------
 #t hf aug-cc-pvdz symm=none int=(grid=ultrafine) guess=(read,tcheck) s
 table=(opt,rrhf)
 ----------------------------------------------------------------------
 -----
 title
 -----
 Symbolic Z-matrix:
 Charge =  0 Multiplicity = 1

 SCF Done:  E(RHF) =  -672.922503138     A.U. after   17 cycles
 Normal termination of Gaussian 16 at Tue Apr  8 19:22:37 2025.
 Gaussian 16:  ES64L-G16RevC.01  3-Jul-2019

 ----------------------------------------------------------------------
 #t hf aug-cc-pvdz iop(5/13=1,5/36=2,99/5=2) pseudo=read geom=check gue
 ss=(read,tcheck) scf=(maxcycle=1)
 ----------------------------------------------------------------------
 -----
 title
 -----
 Structure from the checkpoint file:  "ANI1ccx_1321_conf2_mol1.chk"
 Charge =  0 Multiplicity = 1

                         Standard orientation:
 ---------------------------------------------------------------------
 Center     Atomic      Atomic             Coordinates (Angstroms)
 Number     Number       Type             X           Y           Z
 ---------------------------------------------------------------------
      1          6           0        1.287812   -0.838560    0.156529
      2          6           0        0.481634   -2.089049    0.392715
      3          6           0       -0.865471   -2.180500   -0.291104
      4          6           0       -1.516828   -0.842888   -0.157068
      5          6           0       -0.843156    0.380985   -0.026570
      6          6           0        0.607736    0.466195    0.152639
      7          1           0        1.156097    3.382762    0.049397
      8          1           0       -0.778535   -2.423720   -1.331460
      9          1           0       -1.468276   -2.904741    0.219545
     10          1           0        1.147104   -2.899118    0.178586
     11          1           0        2.765180    0.839956   -0.261221
     12          1           0        0.359705   -2.177799    1.486090
     13          7           0        2.541522   -0.997661    0.020889
     14          7           0       -2.793689   -0.600179   -0.131182
     15          7           0       -1.739571    1.327869    0.097904
     16          7           0        1.214119    1.593512    0.090114
     17          8           0       -2.937020    0.718496    0.045364
     18          8           0        3.377081    0.024030   -0.300163
     19          8           0        0.478902    2.700071   -0.026182
 ---------------------------------------------------------------------

 SCF Done:  E(RHF) =  -673.117044552     A.U. after    2 cycles

 The electronic state is 1-A.
 Alpha  occ. eigenvalues --  -20.71956 -20.66589 -20.62728 -15.74420 -15.74024
 Alpha  occ. eigenvalues --  -15.72505 -15.71217 -11.34702 -11.32116 -11.31665
 Alpha  occ. eigenvalues --  -11.31619 -11.28107 -11.27322  -1.53448  -1.46202
 Alpha  occ. eigenvalues --   -1.40482  -1.23663  -1.20644  -1.17499  -1.15556
 Alpha  occ. eigenvalues --   -1.07317  -0.97190  -0.92638  -0.87913  -0.84343
 Alpha  occ. eigenvalues --   -0.80409  -0.78086  -0.74108  -0.73119  -0.72161
 Alpha  occ. eigenvalues --   -0.68810  -0.68468  -0.67427  -0.64944  -0.62692
 Alpha  occ. eigenvalues --   -0.62003  -0.57872  -0.55866  -0.54991  -0.53708
 Alpha  occ. eigenvalues --   -0.51366  -0.49822  -0.48948  -0.43902  -0.43246
 Alpha  occ. eigenvalues --   -0.42641  -0.38081
 Alpha virt. eigenvalues --    0.02895   0.02957   0.03334   0.04039   0.05568
 Alpha virt. eigenvalues --    0.05995   0.06715   0.08966   0.09741   0.10264
 Alpha virt. eigenvalues --    0.11206   0.11692   0.12135   0.12366   0.13523

 Mulliken charges:
               1
     1  C    0.290678
     2  C    0.402936
     3  C    0.703196
     4  C    0.243206
     5  C    0.305841
     6  C    0.478877
     7  H    0.228650
     8  H    0.033896
     9  H    0.086568
    10  H   -0.098204
    11  H    0.295941
    12  H    0.018824
    13  N   -0.213708
    14  N   -0.369542
    15  N   -0.360962
    16  N   -0.409544
    17  O   -0.582974
    18  O   -0.537036
    19  O   -0.516642
 Sum of Mulliken charges =  -0.00000

 Dipole moment (field-independent basis, Debye):
    X=              0.2761    Y=             -0.3755    Z=              0.2975  Tot=              0.5530

 Test job not archived.
 1\1\GINC-SE343\SP\RHF\Aug-CC-pVDZ\C6H6N4O3\OHZDE\08-Apr-2025\0\\#t hf
 aug-cc-pvdz iop(5/13=1,5/36=2,99/5=2) pseudo=read geom=check guess=(re
 ad,tcheck) scf=(maxcycle=1)\\title\\0,1\C,0,1.28781,-0.838562,0.156529
 \C,0,0.481631,-2.08905,0.392715\C,0,-0.865474,-2.1805,-0.291104\C,0,-1
 .51683,-0.842887,-0.157068\C,0,-0.843156,0.380985,-0.0265695\C,0,0.607
 736,0.466194,0.152639\H,0,1.1561,3.38276,0.0493969\H,0,-0.778538,-2.42
 372,-1.33146\H,0,-1.46828,-2.90474,0.219545\H,0,1.1471,-2.89912,0.1785
 86\H,0,2.76518,0.839952,-0.261221\H,0,0.359702,-2.1778,1.48609\N,0,2.5

 Normal termination of Gaussian 16 at Tue Apr  8 19:22:50 2025.
