 Gaussian 16, Revision C.01,

 ----------------------------------------------------------------------
 #t hf aug-cc-pvdz symm=none int=(grid=ultrafine) guess=(read,tcheck) s
 table=(opt,rrhf)
 ----------------------------------------------------------------------
 -----
 title
 -----
 Symbolic Z-matrix:
 Charge =  0 Multiplicity = 1

 SCF Done:  E(RHF) =  -509.534435966     A.U. after   14 cycles
 Normal termination of Gaussian 16 at Tue Apr  8 22:09:55 2025.
 Gaussian 16:  ES64L-G16RevC.01  3-Jul-2019

 ----------------------------------------------------------------------
 #t hf aug-cc-pvdz iop(5/13=1,5/36=2,99/5=2) pseudo=read geom=check gue
 ss=(read,tcheck) scf=(maxcycle=1)
 ----------------------------------------------------------------------
 -----
 title
 -----
 Structure from the checkpoint file:  "ANI1ccx_939_conf57_mol1.chk"
 Charge =  0 Multiplicity = 1

                         Standard orientation:
 ---------------------------------------------------------------------
 Center     Atomic      Atomic             Coordinates (Angstroms)
 Number     Number       Type             X           Y           Z
 ---------------------------------------------------------------------
      1          6           0       -0.740514    0.769213   -0.565954
      2          6           0       -1.173759   -0.636146   -0.203371
      3          6           0        0.741689    1.063180   -0.637020
      4          6           0        1.583030    0.084850    0.129209
      5          1           0       -2.309781    2.035409   -0.080723
      6          1           0       -1.795290    0.983760    1.094449
      7          1           0       -1.129720    0.989026   -1.568671
      8          1           0        1.133600    1.022591   -1.704461
      9          1           0        0.987539    2.064481   -0.272628
     10          1           0        1.831151   -0.814379    1.645299
     11          1           0       -0.967804   -2.412341   -0.606049
     12          7           0       -1.415641    1.659049    0.383042
     13          8           0       -1.901289   -0.785984    0.739303
     14          8           0        2.744570   -0.208600   -0.242345
     15          8           0        1.091481   -0.343364    1.270359
     16          8           0       -0.722622   -1.558110   -0.958032
 ---------------------------------------------------------------------

 SCF Done:  E(RHF) =  -509.694115280     A.U. after    2 cycles

 The electronic state is 1-A.
 Alpha  occ. eigenvalues --  -20.65934 -20.64735 -20.57527 -20.56169 -15.61292
 Alpha  occ. eigenvalues --  -11.41192 -11.41078 -11.29858 -11.27177  -1.48441
 Alpha  occ. eigenvalues --   -1.45381  -1.36406  -1.31089  -1.17183  -1.04727
 Alpha  occ. eigenvalues --   -0.96003  -0.87636  -0.83066  -0.76182  -0.75132
 Alpha  occ. eigenvalues --   -0.73574  -0.70603  -0.68614  -0.66095  -0.64581
 Alpha  occ. eigenvalues --   -0.63055  -0.59932  -0.58395  -0.54952  -0.52343
 Alpha  occ. eigenvalues --   -0.51387  -0.49383  -0.48442  -0.46941  -0.40682
 Alpha virt. eigenvalues --    0.02737   0.03598   0.04425   0.04976   0.05884
 Alpha virt. eigenvalues --    0.07115   0.07786   0.09644   0.10059   0.11892
 Alpha virt. eigenvalues --    0.13054   0.13097   0.13435   0.13795   0.14481

 Mulliken charges:
               1
     1  C    0.116354
     2  C    0.773352
     3  C    0.111352
     4  C    0.686076
     5  H    0.092306
     6  H    0.159559
     7  H   -0.008059
     8  H    0.125128
     9  H    0.057765
    10  H    0.196248
    11  H    0.197484
    12  N   -0.431824
    13  O   -0.521100
    14  O   -0.610497
    15  O   -0.497143
    16  O   -0.447001
 Sum of Mulliken charges =  -0.00000

 Dipole moment (field-independent basis, Debye):
    X=             -1.8387    Y=             -0.9063    Z=             -1.2420  Tot=              2.3968

 Test job not archived.
 1\1\GINC-SE339\SP\RHF\Aug-CC-pVDZ\C4H7N1O4\OHZDE\08-Apr-2025\0\\#t hf
 aug-cc-pvdz iop(5/13=1,5/36=2,99/5=2) pseudo=read geom=check guess=(re
 ad,tcheck) scf=(maxcycle=1)\\title\\0,1\C,0,-0.740514,0.769213,-0.5659
 53\C,0,-1.17376,-0.636145,-0.20337\C,0,0.741689,1.06318,-0.637019\C,0,
 1.58303,0.0848489,0.12921\H,0,-2.30978,2.03541,-0.0807223\H,0,-1.79529
 ,0.983761,1.09445\H,0,-1.12972,0.989027,-1.56867\H,0,1.1336,1.02259,-1
 .70446\H,0,0.98754,2.06448,-0.272627\H,0,1.83115,-0.81438,1.6453\H,0,-
 0.967806,-2.41234,-0.606048\N,0,-1.41564,1.65905,0.383043\O,0,-1.90129

 Normal termination of Gaussian 16 at Tue Apr  8 22:10:02 2025.
