 Gaussian 16, Revision C.01,

 ----------------------------------------------------------------------
 #t hf aug-cc-pvdz symm=none int=(grid=ultrafine) guess=(read,tcheck) s
 table=(opt,rrhf)
 ----------------------------------------------------------------------
 -----
 title
 -----
 Symbolic Z-matrix:
 Charge =  0 Multiplicity = 1

 SCF Done:  E(RHF) =  -239.963904431     A.U. after   12 cycles
 Normal termination of Gaussian 16 at Tue Apr  8 21:10:17 2025.
 Gaussian 16:  ES64L-G16RevC.01  3-Jul-2019

 ----------------------------------------------------------------------
 #t hf aug-cc-pvdz iop(5/13=1,5/36=2,99/5=2) pseudo=read geom=check gue
 ss=(read,tcheck) scf=(maxcycle=1)
 ----------------------------------------------------------------------
 -----
 title
 -----
 Structure from the checkpoint file:  "ANI1ccx_1874_conf4_mol1.chk"
 Charge =  0 Multiplicity = 1

                         Standard orientation:
 ---------------------------------------------------------------------
 Center     Atomic      Atomic             Coordinates (Angstroms)
 Number     Number       Type             X           Y           Z
 ---------------------------------------------------------------------
      1          1           0        0.888822    1.036540    0.601707
      2          1           0        2.311729   -0.793174    0.726844
      3          1           0        0.792240   -1.089010    0.216937
      4          7           0       -2.056941    0.484606    0.103747
      5          7           0       -1.831711   -0.582238   -0.108086
      6          7           0        1.659499   -0.639874   -0.054897
      7          8           0        1.451409    0.751024   -0.141354
 ---------------------------------------------------------------------

 SCF Done:  E(RHF) =  -240.037443287     A.U. after    2 cycles

 The electronic state is 1-A.
 Alpha  occ. eigenvalues --  -20.60743 -15.77217 -15.76912 -15.67501  -1.42972
 Alpha  occ. eigenvalues --   -1.36217  -1.05360  -0.77029  -0.73657  -0.69252
 Alpha  occ. eigenvalues --   -0.63514  -0.61565  -0.61430  -0.59309  -0.50494
 Alpha  occ. eigenvalues --   -0.42393
 Alpha virt. eigenvalues --    0.03732   0.04888   0.06502   0.10641   0.11628
 Alpha virt. eigenvalues --    0.12148   0.12861   0.13927   0.15504   0.16254
 Alpha virt. eigenvalues --    0.19332   0.20310   0.20849   0.22421   0.23181

 Mulliken charges:
               1
     1  H    0.137040
     2  H    0.118667
     3  H    0.052717
     4  N   -0.025866
     5  N    0.014180
     6  N    0.136122
     7  O   -0.432861
 Sum of Mulliken charges =  -0.00000

 Dipole moment (field-independent basis, Debye):
    X=             -1.3944    Y=             -0.6962    Z=              2.8262  Tot=              3.2275

 Test job not archived.
 1\1\GINC-SE454\SP\RHF\Aug-CC-pVDZ\H3N3O1\OHZDE\08-Apr-2025\0\\#t hf au
 g-cc-pvdz iop(5/13=1,5/36=2,99/5=2) pseudo=read geom=check guess=(read
 ,tcheck) scf=(maxcycle=1)\\title\\0,1\H,0,0.888822,1.03654,0.601707\H,
 0,2.31173,-0.793174,0.726844\H,0,0.792241,-1.08901,0.216937\N,0,-2.056
 94,0.484605,0.103747\N,0,-1.83171,-0.582239,-0.108086\N,0,1.6595,-0.63
 9874,-0.0548971\O,0,1.45141,0.751024,-0.141354\\Version=ES64L-G16RevC.
 01\State=1-A\HF=-240.0374433\RMSD=1.995e-03\Dipole=-0.548597,-0.273916
 1,1.1119259\Quadrupole=-0.9535343,0.1932077,0.7603266,-0.9983454,3.415

 Normal termination of Gaussian 16 at Tue Apr  8 21:10:19 2025.
