 Gaussian 16, Revision C.01,

 ----------------------------------------------------------------------
 #t hf aug-cc-pvdz symm=none int=(grid=ultrafine) guess=(read,tcheck) s
 table=(opt,rrhf)
 ----------------------------------------------------------------------
 -----
 title
 -----
 Symbolic Z-matrix:
 Charge =  0 Multiplicity = 1

 SCF Done:  E(RHF) =  -366.856173509     A.U. after   16 cycles
 Normal termination of Gaussian 16 at Tue Apr  8 21:34:48 2025.
 Gaussian 16:  ES64L-G16RevC.01  3-Jul-2019

 ----------------------------------------------------------------------
 #t hf aug-cc-pvdz iop(5/13=1,5/36=2,99/5=2) pseudo=read geom=check gue
 ss=(read,tcheck) scf=(maxcycle=1)
 ----------------------------------------------------------------------
 -----
 title
 -----
 Structure from the checkpoint file:  "ANI1ccx_404_conf20_mol2.chk"
 Charge =  0 Multiplicity = 1

                         Standard orientation:
 ---------------------------------------------------------------------
 Center     Atomic      Atomic             Coordinates (Angstroms)
 Number     Number       Type             X           Y           Z
 ---------------------------------------------------------------------
      1          6           0       -0.254023   -0.698673   -0.010612
      2          1           0       -2.231687   -0.891162    0.266591
      3          1           0       -1.350845   -2.358654    0.229240
      4          1           0       -1.116241    2.116335    0.819080
      5          1           0       -1.231051    2.101206   -0.807538
      6          7           0       -1.426050   -1.393203   -0.071102
      7          7           0        0.967196   -1.188596    0.006273
      8          7           0        1.790307   -0.100139    0.014193
      9          7           0        1.144103    0.992261    0.001202
     10          7           0       -0.172861    0.642438   -0.033804
     11          7           0       -1.237844    1.507856    0.019852
 ---------------------------------------------------------------------

 SCF Done:  E(RHF) =  -366.959778805     A.U. after    2 cycles

 The electronic state is 1-A.
 Alpha  occ. eigenvalues --  -15.74932 -15.71130 -15.70768 -15.70540 -15.66970
 Alpha  occ. eigenvalues --  -15.64279 -11.37626  -1.45222  -1.29254  -1.24002
 Alpha  occ. eigenvalues --   -1.12991  -1.08872  -0.88857  -0.84007  -0.76488
 Alpha  occ. eigenvalues --   -0.75245  -0.70742  -0.68457  -0.64263  -0.56274
 Alpha  occ. eigenvalues --   -0.51805  -0.51121  -0.45654  -0.43330  -0.42713
 Alpha  occ. eigenvalues --   -0.36208
 Alpha virt. eigenvalues --    0.02122   0.03041   0.04168   0.06134   0.10398
 Alpha virt. eigenvalues --    0.10703   0.11182   0.11751   0.14426   0.14604
 Alpha virt. eigenvalues --    0.16024   0.16163   0.16498   0.17027   0.18357

 Mulliken charges:
               1
     1  C    0.988541
     2  H    0.031268
     3  H    0.029931
     4  H    0.118275
     5  H    0.122920
     6  N   -0.264406
     7  N   -0.403960
     8  N   -0.219423
     9  N   -0.278813
    10  N   -0.279410
    11  N    0.155078
 Sum of Mulliken charges =  -0.00000

 Dipole moment (field-independent basis, Debye):
    X=             -5.5538    Y=              1.6719    Z=              0.8792  Tot=              5.8663

 Test job not archived.
 1\1\GINC-SE458\SP\RHF\Aug-CC-pVDZ\C1H4N6\OHZDE\08-Apr-2025\0\\#t hf au
 g-cc-pvdz iop(5/13=1,5/36=2,99/5=2) pseudo=read geom=check guess=(read
 ,tcheck) scf=(maxcycle=1)\\title\\0,1\C,0,-0.254017,-0.698674,-0.01061
 2\H,0,-2.23168,-0.891173,0.266591\H,0,-1.35083,-2.35866,0.22924\H,0,-1
 .11625,2.11633,0.81908\H,0,-1.23106,2.1012,-0.807538\N,0,-1.42604,-1.3
 9321,-0.0711017\N,0,0.967204,-1.18859,0.00627309\N,0,1.79031,-0.100129
 ,0.0141931\N,0,1.1441,0.992268,0.00120164\N,0,-0.172862,0.642438,-0.03
 38041\N,0,-1.23785,1.50785,0.0198521\\Version=ES64L-G16RevC.01\State=1

 Normal termination of Gaussian 16 at Tue Apr  8 21:34:52 2025.
