 Gaussian 16, Revision C.01,

 ----------------------------------------------------------------------
 #t hf aug-cc-pvdz symm=none int=(grid=ultrafine) guess=(read,tcheck) s
 table=(opt,rrhf)
 ----------------------------------------------------------------------
 -----
 title
 -----
 Symbolic Z-matrix:
 Charge =  0 Multiplicity = 1

 SCF Done:  E(RHF) =  -752.398365234     A.U. after   14 cycles
 Normal termination of Gaussian 16 at Tue Apr  8 19:57:33 2025.
 Gaussian 16:  ES64L-G16RevC.01  3-Jul-2019

 ----------------------------------------------------------------------
 #t hf aug-cc-pvdz iop(5/13=1,5/36=2,99/5=2) pseudo=read geom=check gue
 ss=(read,tcheck) scf=(maxcycle=1)
 ----------------------------------------------------------------------
 -----
 title
 -----
 Structure from the checkpoint file:  "ANI1ccx_1572_conf6_mol1.chk"
 Charge =  0 Multiplicity = 1

                         Standard orientation:
 ---------------------------------------------------------------------
 Center     Atomic      Atomic             Coordinates (Angstroms)
 Number     Number       Type             X           Y           Z
 ---------------------------------------------------------------------
      1          6           0        1.727232   -2.117627   -0.703894
      2          6           0        2.615441   -1.077126   -0.130149
      3          6           0        0.669198    0.647549   -0.012565
      4          6           0        0.738306    2.181472   -0.089729
      5          6           0       -0.319953    0.306254    1.104470
      6          6           0       -1.636430   -0.062210    0.558098
      7          6           0       -2.460109   -1.078922    0.973116
      8          6           0       -3.322680   -0.086585   -0.784947
      9          1           0       -1.146873    2.188889   -0.588272
     10          1           0       -4.225458   -1.754694    0.089406
     11          1           0       -4.001410   -0.005309   -1.585820
     12          1           0       -2.345288   -1.767112    1.827510
     13          1           0       -0.364459    1.127210    1.786120
     14          1           0        0.046843   -0.465325    1.810670
     15          1           0        0.371074    0.319403   -0.984991
     16          1           0        2.648659    0.799168    0.615739
     17          1           0        2.050383   -3.148717   -0.289095
     18          1           0        1.769522   -2.058237   -1.753220
     19          1           0        0.202465   -2.329569    0.643138
     20          1           0       -0.140289   -2.735459   -0.955817
     21          7           0        0.332727   -2.022949   -0.375990
     22          7           0        2.002419    0.099447    0.230356
     23          7           0       -2.290371    0.561367   -0.544460
     24          7           0       -3.521639   -1.082543    0.120701
     25          8           0        3.788471   -1.252785    0.113199
     26          8           0        1.734766    2.842543    0.233415
     27          8           0       -0.347381    2.743450   -0.611121
 ---------------------------------------------------------------------

 SCF Done:  E(RHF) =  -752.624347378     A.U. after    2 cycles

 The electronic state is 1-A.
 Alpha  occ. eigenvalues --  -20.61238 -20.55485 -20.53031 -15.70028 -15.64093
 Alpha  occ. eigenvalues --  -15.63813 -15.63641 -11.39880 -11.36118 -11.33136
 Alpha  occ. eigenvalues --  -11.30329 -11.29498 -11.28874 -11.28216 -11.26408
 Alpha  occ. eigenvalues --   -1.40983  -1.35050  -1.34838  -1.30893  -1.20783
 Alpha  occ. eigenvalues --   -1.17620  -1.16955  -1.08694  -1.01697  -0.95264
 Alpha  occ. eigenvalues --   -0.92478  -0.85856  -0.83963  -0.81131  -0.78361
 Alpha  occ. eigenvalues --   -0.77938  -0.75161  -0.71285  -0.67283  -0.66675
 Alpha  occ. eigenvalues --   -0.66005  -0.64871  -0.64137  -0.63199  -0.62104
 Alpha  occ. eigenvalues --   -0.61272  -0.60683  -0.59511  -0.58893  -0.58260
 Alpha  occ. eigenvalues --   -0.54746  -0.53904  -0.52265  -0.48359  -0.47008
 Alpha  occ. eigenvalues --   -0.45403  -0.44154  -0.43000  -0.40800  -0.39148
 Alpha  occ. eigenvalues --   -0.33912
 Alpha virt. eigenvalues --    0.00793   0.02022   0.02818   0.03860   0.05077
 Alpha virt. eigenvalues --    0.05598   0.06137   0.06420   0.07035   0.08366
 Alpha virt. eigenvalues --    0.08666   0.09049   0.09652   0.10340   0.11218

 Mulliken charges:
               1
     1  C    0.555981
     2  C    0.309391
     3  C    0.868607
     4  C    0.611957
     5  C    0.459488
     6  C    0.060360
     7  C    1.145153
     8  C    0.765761
     9  H    0.248542
    10  H   -0.164662
    11  H   -0.436252
    12  H   -0.285341
    13  H   -0.147596
    14  H   -0.141440
    15  H   -0.358330
    16  H    0.014026
    17  H    0.071785
    18  H   -0.196509
    19  H    0.229048
    20  H    0.067372
    21  N   -0.506086
    22  N   -0.487883
    23  N   -0.577534
    24  N   -0.527126
    25  O   -0.555645
    26  O   -0.561358
    27  O   -0.461710
 Sum of Mulliken charges =  -0.00000

 Dipole moment (field-independent basis, Debye):
    X=            -10.0847    Y=             -7.1501    Z=             -0.1698  Tot=             12.3634

 Test job not archived.
 1\1\GINC-SE088\SP\RHF\Aug-CC-pVDZ\C8H12N4O3\OHZDE\08-Apr-2025\0\\#t hf
  aug-cc-pvdz iop(5/13=1,5/36=2,99/5=2) pseudo=read geom=check guess=(r
 ead,tcheck) scf=(maxcycle=1)\\title\\0,1\C,0,1.72723,-2.11763,-0.70389
 4\C,0,2.61544,-1.07713,-0.130149\C,0,0.669199,0.647547,-0.0125653\C,0,
 0.738309,2.18147,-0.089729\C,0,-0.319952,0.306254,1.10447\C,0,-1.63643
 ,-0.0622089,0.558098\C,0,-2.46011,-1.07892,0.973116\C,0,-3.32268,-0.08
 65817,-0.784947\H,0,-1.14687,2.18889,-0.588272\H,0,-4.22546,-1.75469,0
 .0894052\H,0,-4.00141,-0.0053046,-1.58582\H,0,-2.34529,-1.76711,1.8275

 Normal termination of Gaussian 16 at Tue Apr  8 19:58:05 2025.
