 Gaussian 16, Revision C.01,

 ----------------------------------------------------------------------
 #t hf aug-cc-pvdz symm=none int=(grid=ultrafine) guess=(read,tcheck) s
 table=(opt,rrhf)
 ----------------------------------------------------------------------
 -----
 title
 -----
 Symbolic Z-matrix:
 Charge =  0 Multiplicity = 1

 SCF Done:  E(RHF) =  -445.628528542     A.U. after   16 cycles
 Normal termination of Gaussian 16 at Tue Apr  8 21:43:58 2025.
 Gaussian 16:  ES64L-G16RevC.01  3-Jul-2019

 ----------------------------------------------------------------------
 #t hf aug-cc-pvdz iop(5/13=1,5/36=2,99/5=2) pseudo=read geom=check gue
 ss=(read,tcheck) scf=(maxcycle=1)
 ----------------------------------------------------------------------
 -----
 title
 -----
 Structure from the checkpoint file:  "ANI1ccx_521_conf1_mol2.chk"
 Charge =  0 Multiplicity = 1

                         Standard orientation:
 ---------------------------------------------------------------------
 Center     Atomic      Atomic             Coordinates (Angstroms)
 Number     Number       Type             X           Y           Z
 ---------------------------------------------------------------------
      1          6           0        1.313051   -0.080426   -0.308036
      2          6           0       -1.299789   -0.046985    0.306922
      3          1           0        2.619341    0.639479    1.084609
      4          1           0        3.009411   -0.909835    0.392649
      5          1           0       -2.909089   -0.992074   -0.450603
      6          1           0       -2.514519    0.509204   -1.247191
      7          7           0        2.412211   -0.100519    0.433790
      8          7           0        0.615393    1.209200   -0.164189
      9          7           0       -0.600539    1.200061    0.077796
     10          7           0       -2.395629   -0.119909   -0.476353
     11          8           0        0.940702   -0.939162   -1.079551
     12          8           0       -1.003799   -0.786356    1.220789
 ---------------------------------------------------------------------

 SCF Done:  E(RHF) =  -445.764588290     A.U. after    2 cycles

 The electronic state is 1-A.
 Alpha  occ. eigenvalues --  -20.56394 -20.56308 -15.73798 -15.73625 -15.67707
 Alpha  occ. eigenvalues --  -15.67192 -11.41732 -11.41678  -1.41480  -1.37693
 Alpha  occ. eigenvalues --   -1.32438  -1.22249  -1.20828  -1.00548  -0.89450
 Alpha  occ. eigenvalues --   -0.80213  -0.78328  -0.72960  -0.72343  -0.67349
 Alpha  occ. eigenvalues --   -0.66264  -0.65568  -0.60960  -0.56371  -0.54969
 Alpha  occ. eigenvalues --   -0.50831  -0.49577  -0.44833  -0.44304  -0.39936
 Alpha virt. eigenvalues --    0.02890   0.03190   0.05086   0.05425   0.06323
 Alpha virt. eigenvalues --    0.08726   0.10188   0.11672   0.13072   0.13274
 Alpha virt. eigenvalues --    0.13523   0.14399   0.16036   0.16160   0.16484

 Mulliken charges:
               1
     1  C    0.945020
     2  C    0.971847
     3  H    0.008319
     4  H    0.010287
     5  H    0.032693
     6  H   -0.001904
     7  N   -0.124188
     8  N   -0.405159
     9  N   -0.389839
    10  N   -0.184373
    11  O   -0.428289
    12  O   -0.434414
 Sum of Mulliken charges =  -0.00000

 Dipole moment (field-independent basis, Debye):
    X=              0.6078    Y=              1.1867    Z=             -0.4472  Tot=              1.4062

 Test job not archived.
 1\1\GINC-SE455\SP\RHF\Aug-CC-pVDZ\C2H4N4O2\OHZDE\08-Apr-2025\0\\#t hf
 aug-cc-pvdz iop(5/13=1,5/36=2,99/5=2) pseudo=read geom=check guess=(re
 ad,tcheck) scf=(maxcycle=1)\\title\\0,1\C,0,1.31305,-0.0804257,-0.3080
 35\C,0,-1.29979,-0.0469854,0.306923\H,0,2.61934,0.639479,1.08461\H,0,3
 .00941,-0.909835,0.39265\H,0,-2.90909,-0.992075,-0.450602\H,0,-2.51452
 ,0.509203,-1.24719\N,0,2.41221,-0.100519,0.433791\N,0,0.615392,1.2092,
 -0.164188\N,0,-0.60054,1.20006,0.0777969\N,0,-2.39563,-0.11991,-0.4763
 52\O,0,0.940701,-0.939162,-1.07955\O,0,-1.0038,-0.786357,1.22079\\Vers

 Normal termination of Gaussian 16 at Tue Apr  8 21:44:03 2025.
