 Gaussian 16, Revision C.01,

 ----------------------------------------------------------------------
 #t hf aug-cc-pvdz symm=none int=(grid=ultrafine) guess=(read,tcheck) s
 table=(opt,rrhf)
 ----------------------------------------------------------------------
 -----
 title
 -----
 Symbolic Z-matrix:
 Charge =  0 Multiplicity = 1

 SCF Done:  E(RHF) =  -490.245388874     A.U. after   15 cycles
 Normal termination of Gaussian 16 at Tue Apr  8 21:50:03 2025.
 Gaussian 16:  ES64L-G16RevC.01  3-Jul-2019

 ----------------------------------------------------------------------
 #t hf aug-cc-pvdz iop(5/13=1,5/36=2,99/5=2) pseudo=read geom=check gue
 ss=(read,tcheck) scf=(maxcycle=1)
 ----------------------------------------------------------------------
 -----
 title
 -----
 Structure from the checkpoint file:  "ANI1ccx_703_conf49_mol1.chk"
 Charge =  0 Multiplicity = 1

                         Standard orientation:
 ---------------------------------------------------------------------
 Center     Atomic      Atomic             Coordinates (Angstroms)
 Number     Number       Type             X           Y           Z
 ---------------------------------------------------------------------
      1          6           0        0.092191   -0.349014    0.513754
      2          6           0        1.109620    0.475692   -0.069406
      3          6           0       -1.273311   -0.046158    0.037304
      4          1           0       -0.445548   -2.030609   -0.140972
      5          1           0        0.341126   -0.141500    1.588970
      6          1           0        1.758278   -1.203172   -0.219555
      7          1           0       -0.462808    1.572531    0.305665
      8          8           0        0.411650   -1.752710    0.041755
      9          8           0        2.247739   -0.269075   -0.159590
     10          8           0        0.813967    1.720569   -0.194806
     11          8           0       -1.513709    1.323532    0.100461
     12          8           0       -2.054902   -0.857363   -0.340822
 ---------------------------------------------------------------------

 SCF Done:  E(RHF) =  -490.395831517     A.U. after    2 cycles

 The electronic state is 1-A.
 Alpha  occ. eigenvalues --  -20.67602 -20.66003 -20.63933 -20.60948 -20.60665
 Alpha  occ. eigenvalues --  -11.48157 -11.43523 -11.38935  -1.47769  -1.43616
 Alpha  occ. eigenvalues --   -1.40871  -1.37735  -1.32679  -1.10716  -0.90296
 Alpha  occ. eigenvalues --   -0.87667  -0.81541  -0.79118  -0.76129  -0.72235
 Alpha  occ. eigenvalues --   -0.69964  -0.68998  -0.67550  -0.64650  -0.62256
 Alpha  occ. eigenvalues --   -0.61333  -0.58084  -0.55247  -0.52409  -0.50895
 Alpha  occ. eigenvalues --   -0.50346
 Alpha virt. eigenvalues --    0.02095   0.03988   0.05464   0.06060   0.07178
 Alpha virt. eigenvalues --    0.08728   0.09506   0.10413   0.10725   0.11235
 Alpha virt. eigenvalues --    0.12332   0.13805   0.14145   0.14571   0.15586

 Mulliken charges:
               1
     1  C    0.197075
     2  C    0.607211
     3  C    0.772634
     4  H    0.148072
     5  H    0.288453
     6  H    0.426200
     7  H    0.481817
     8  O   -0.605444
     9  O   -0.576368
    10  O   -0.639316
    11  O   -0.688864
    12  O   -0.411469
 Sum of Mulliken charges =  -0.00000

 Dipole moment (field-independent basis, Debye):
    X=              2.2954    Y=             -2.5066    Z=              2.0875  Tot=              3.9887

 Test job not archived.
 1\1\GINC-SE009\SP\RHF\Aug-CC-pVDZ\C3H4O5\OHZDE\08-Apr-2025\0\\#t hf au
 g-cc-pvdz iop(5/13=1,5/36=2,99/5=2) pseudo=read geom=check guess=(read
 ,tcheck) scf=(maxcycle=1)\\title\\0,1\C,0,0.0921923,-0.349014,0.513754
 \C,0,1.10962,0.475693,-0.0694057\C,0,-1.27331,-0.0461593,0.0373042\H,0
 ,-0.445545,-2.03061,-0.140972\H,0,0.341127,-0.1415,1.58897\H,0,1.75828
 ,-1.20317,-0.219555\H,0,-0.462809,1.57253,0.305665\O,0,0.411653,-1.752
 71,0.0417546\O,0,2.24774,-0.269073,-0.15959\O,0,0.813966,1.72057,-0.19
 4806\O,0,-1.51371,1.32353,0.100461\O,0,-2.0549,-0.857366,-0.340822\\Ve

 Normal termination of Gaussian 16 at Tue Apr  8 21:50:09 2025.
