 Gaussian 16, Revision C.01,

 ----------------------------------------------------------------------
 #t hf aug-cc-pvdz symm=none int=(grid=ultrafine) guess=(read,tcheck) s
 table=(opt,rrhf)
 ----------------------------------------------------------------------
 -----
 title
 -----
 Symbolic Z-matrix:
 Charge =  0 Multiplicity = 1

 SCF Done:  E(RHF) =  -499.462899453     A.U. after   16 cycles
 Normal termination of Gaussian 16 at Tue Apr  8 21:44:09 2025.
 Gaussian 16:  ES64L-G16RevC.01  3-Jul-2019

 ----------------------------------------------------------------------
 #t hf aug-cc-pvdz iop(5/13=1,5/36=2,99/5=2) pseudo=read geom=check gue
 ss=(read,tcheck) scf=(maxcycle=1)
 ----------------------------------------------------------------------
 -----
 title
 -----
 Structure from the checkpoint file:  "ANI1ccx_508_conf1_mol1.chk"
 Charge =  0 Multiplicity = 1

                         Standard orientation:
 ---------------------------------------------------------------------
 Center     Atomic      Atomic             Coordinates (Angstroms)
 Number     Number       Type             X           Y           Z
 ---------------------------------------------------------------------
      1          6           0        0.936836    0.597822   -0.011720
      2          6           0       -1.500971   -0.183016   -0.020856
      3          1           0        1.114155    2.381601    0.828068
      4          1           0        1.216235    2.310231   -0.805586
      5          1           0       -1.068674    1.710977   -0.096979
      6          7           0        0.695134    1.977370    0.002898
      7          7           0        2.045829   -0.012535   -0.000595
      8          7           0        1.803851   -1.304898    0.018241
      9          7           0        0.535943   -1.567380   -0.006763
     10          7           0       -0.080907   -0.330061   -0.003185
     11          8           0       -1.854893    1.115846    0.018969
     12          8           0       -2.254589   -1.144485    0.005504
 ---------------------------------------------------------------------

 SCF Done:  E(RHF) =  -499.608347747     A.U. after    2 cycles

 The electronic state is 1-A.
 Alpha  occ. eigenvalues --  -20.65206 -20.59439 -15.77301 -15.75678 -15.74276
 Alpha  occ. eigenvalues --  -15.71776 -15.69346 -11.48109 -11.41472  -1.49264
 Alpha  occ. eigenvalues --   -1.44606  -1.35946  -1.28652  -1.25517  -1.16267
 Alpha  occ. eigenvalues --   -0.97356  -0.90670  -0.87377  -0.82485  -0.77521
 Alpha  occ. eigenvalues --   -0.73595  -0.70786  -0.69908  -0.66152  -0.65276
 Alpha  occ. eigenvalues --   -0.59768  -0.54729  -0.53318  -0.52628  -0.49142
 Alpha  occ. eigenvalues --   -0.47703  -0.47475  -0.43782
 Alpha virt. eigenvalues --    0.01024   0.03036   0.04565   0.06547   0.08022
 Alpha virt. eigenvalues --    0.08888   0.09324   0.09674   0.11125   0.12956
 Alpha virt. eigenvalues --    0.13197   0.14533   0.14778   0.15538   0.15779

 Mulliken charges:
               1
     1  C    0.930133
     2  C    0.893647
     3  H    0.182372
     4  H    0.215264
     5  H    0.314500
     6  N   -0.719802
     7  N   -0.249142
     8  N   -0.292535
     9  N   -0.099330
    10  N   -0.393053
    11  O   -0.405612
    12  O   -0.376441
 Sum of Mulliken charges =  -0.00000

 Dipole moment (field-independent basis, Debye):
    X=              2.5830    Y=              6.4272    Z=             -0.2017  Tot=              6.9297

 Test job not archived.
 1\1\GINC-SE159\SP\RHF\Aug-CC-pVDZ\C2H3N5O2\OHZDE\08-Apr-2025\0\\#t hf
 aug-cc-pvdz iop(5/13=1,5/36=2,99/5=2) pseudo=read geom=check guess=(re
 ad,tcheck) scf=(maxcycle=1)\\title\\0,1\C,0,0.936838,0.597821,-0.01171
 97\C,0,-1.50097,-0.183013,-0.0208564\H,0,1.11416,2.3816,0.828068\H,0,1
 .21624,2.31023,-0.805586\H,0,-1.06867,1.71098,-0.096979\N,0,0.695138,1
 .97737,0.00289754\N,0,2.04583,-0.012538,-0.00059482\N,0,1.80385,-1.304
 9,0.0182413\N,0,0.535941,-1.56738,-0.00676251\N,0,-0.0809066,-0.33006,
 -0.00318528\O,0,-1.85489,1.11585,0.0189687\O,0,-2.25459,-1.14448,0.005

 Normal termination of Gaussian 16 at Tue Apr  8 21:44:16 2025.
