 Gaussian 16, Revision C.01,

 ----------------------------------------------------------------------
 #t hf aug-cc-pvdz symm=none int=(grid=ultrafine) guess=(read,tcheck) s
 table=(opt,rrhf)
 ----------------------------------------------------------------------
 -----
 title
 -----
 Symbolic Z-matrix:
 Charge =  0 Multiplicity = 1

 SCF Done:  E(RHF) =  -456.235396750     A.U. after   12 cycles
 Normal termination of Gaussian 16 at Tue Apr  8 21:07:47 2025.
 Gaussian 16:  ES64L-G16RevC.01  3-Jul-2019

 ----------------------------------------------------------------------
 #t hf aug-cc-pvdz iop(5/13=1,5/36=2,99/5=2) pseudo=read geom=check gue
 ss=(read,tcheck) scf=(maxcycle=1)
 ----------------------------------------------------------------------
 -----
 title
 -----
 Structure from the checkpoint file:  "ANI1ccx_1844_conf475_mol1.chk"
 Charge =  0 Multiplicity = 1

                         Standard orientation:
 ---------------------------------------------------------------------
 Center     Atomic      Atomic             Coordinates (Angstroms)
 Number     Number       Type             X           Y           Z
 ---------------------------------------------------------------------
      1          1           0        0.065033    0.731315    1.624420
      2          1           0       -0.903667   -1.765429   -0.460627
      3          1           0        0.338482   -0.872910   -0.371490
      4          1           0       -3.099550   -0.971394    1.014430
      5          1           0       -1.582289    0.253421   -1.322350
      6          1           0       -0.291484    0.571605   -1.980570
      7          1           0       -1.371360   -0.510184    1.084530
      8          1           0        0.535685    3.130429    0.266387
      9          1           0        2.544259   -1.565783   -0.550018
     10          1           0        3.314781   -0.475113    0.234210
     11          1           0        0.913014   -0.349238    1.152320
     12          1           0       -0.216137    1.862110   -0.352938
     13          8           0       -2.230110   -0.770409    0.493135
     14          8           0        0.164486   -0.179260    1.726950
     15          8           0        2.510600   -0.640484   -0.241348
     16          8           0        0.437674    2.156249    0.332645
     17          8           0       -0.947014    1.010801   -1.498810
     18          8           0        0.033518   -1.581750   -0.854863
 ---------------------------------------------------------------------

 SCF Done:  E(RHF) =  -456.383947431     A.U. after    2 cycles

 The electronic state is 1-A.
 Alpha  occ. eigenvalues --  -20.59665 -20.58084 -20.57908 -20.57686 -20.55493
 Alpha  occ. eigenvalues --  -20.55207  -1.34157  -1.32991  -1.32893  -1.29368
 Alpha  occ. eigenvalues --   -1.27833  -1.26519  -0.76027  -0.75157  -0.73560
 Alpha  occ. eigenvalues --   -0.72885  -0.71721  -0.70462  -0.64805  -0.61846
 Alpha  occ. eigenvalues --   -0.60912  -0.59156  -0.57656  -0.56003  -0.54847
 Alpha  occ. eigenvalues --   -0.53208  -0.52509  -0.51311  -0.50723  -0.50185
 Alpha virt. eigenvalues --    0.03061   0.04170   0.04829   0.05910   0.07127
 Alpha virt. eigenvalues --    0.07652   0.07915   0.08405   0.09018   0.10256
 Alpha virt. eigenvalues --    0.11648   0.12732   0.17672   0.18533   0.19001

 Mulliken charges:
               1
     1  H    0.198416
     2  H    0.310056
     3  H    0.094692
     4  H    0.251396
     5  H    0.294799
     6  H    0.185220
     7  H    0.413526
     8  H    0.194525
     9  H    0.215938
    10  H    0.150804
    11  H    0.249470
    12  H    0.309973
    13  O   -0.638003
    14  O   -0.485733
    15  O   -0.393474
    16  O   -0.436129
    17  O   -0.537088
    18  O   -0.378387
 Sum of Mulliken charges =  -0.00000

 Dipole moment (field-independent basis, Debye):
    X=              0.9212    Y=              0.0784    Z=              0.6418  Tot=              1.1255

 Test job not archived.
 1\1\GINC-SE043\SP\RHF\Aug-CC-pVDZ\H12O6\OHZDE\08-Apr-2025\0\\#t hf aug
 -cc-pvdz iop(5/13=1,5/36=2,99/5=2) pseudo=read geom=check guess=(read,
 tcheck) scf=(maxcycle=1)\\title\\0,1\H,0,0.0650307,0.731315,1.62442\H,
 0,-0.903666,-1.76543,-0.460627\H,0,0.338482,-0.872909,-0.37149\H,0,-3.
 09955,-0.971397,1.01443\H,0,-1.58229,0.253419,-1.32235\H,0,-0.291486,0
 .571605,-1.98057\H,0,-1.37136,-0.510185,1.08453\H,0,0.53568,3.13043,0.
 266387\H,0,2.54426,-1.56578,-0.550018\H,0,3.31478,-0.475109,0.23421\H,
 0,0.913013,-0.349237,1.15232\H,0,-0.21614,1.86211,-0.352938\O,0,-2.230

 Normal termination of Gaussian 16 at Tue Apr  8 21:07:54 2025.
