 Gaussian 16, Revision C.01,

 ----------------------------------------------------------------------
 #t hf aug-cc-pvdz symm=none int=(grid=ultrafine) guess=(read,tcheck) s
 table=(opt,rrhf)
 ----------------------------------------------------------------------
 -----
 title
 -----
 Symbolic Z-matrix:
 Charge =  0 Multiplicity = 1

 SCF Done:  E(RHF) =  -394.554665840     A.U. after   14 cycles
 Normal termination of Gaussian 16 at Tue Apr  8 21:36:37 2025.
 Gaussian 16:  ES64L-G16RevC.01  3-Jul-2019

 ----------------------------------------------------------------------
 #t hf aug-cc-pvdz iop(5/13=1,5/36=2,99/5=2) pseudo=read geom=check gue
 ss=(read,tcheck) scf=(maxcycle=1)
 ----------------------------------------------------------------------
 -----
 title
 -----
 Structure from the checkpoint file:  "ANI1ccx_415_conf1_mol2.chk"
 Charge =  0 Multiplicity = 1

                         Standard orientation:
 ---------------------------------------------------------------------
 Center     Atomic      Atomic             Coordinates (Angstroms)
 Number     Number       Type             X           Y           Z
 ---------------------------------------------------------------------
      1          6           0        1.962050    0.285211   -0.091172
      2          1           0       -0.839794   -0.935392    0.131585
      3          1           0       -2.396910    1.260439    0.863113
      4          1           0        3.725220   -0.709872    0.156260
      5          1           0        3.724550    0.942769    0.701724
      6          1           0        1.577710    1.299720    0.064853
      7          7           0        3.265400    0.182608    0.229770
      8          8           0       -1.740250   -0.984497    0.530922
      9          8           0       -2.480300   -0.175403   -0.325199
     10          8           0       -2.098200    1.152219   -0.055614
     11          8           0        1.266140   -0.598218   -0.522471
 ---------------------------------------------------------------------

 SCF Done:  E(RHF) =  -394.684967411     A.U. after    2 cycles

 The electronic state is 1-A.
 Alpha  occ. eigenvalues --  -20.69391 -20.64278 -20.63581 -20.56267 -15.67499
 Alpha  occ. eigenvalues --  -11.38456  -1.49852  -1.37571  -1.31909  -1.20671
 Alpha  occ. eigenvalues --   -1.10596  -0.86577  -0.79110  -0.77043  -0.70114
 Alpha  occ. eigenvalues --   -0.69483  -0.68972  -0.66393  -0.63905  -0.60187
 Alpha  occ. eigenvalues --   -0.53400  -0.52079  -0.48980  -0.46968  -0.44459
 Alpha virt. eigenvalues --    0.02164   0.03603   0.04984   0.06541   0.08167
 Alpha virt. eigenvalues --    0.09341   0.12755   0.13605   0.14385   0.14883
 Alpha virt. eigenvalues --    0.15094   0.16554   0.18051   0.19465   0.19948

 Mulliken charges:
               1
     1  C    0.726281
     2  H    0.296447
     3  H    0.245953
     4  H   -0.010752
     5  H    0.009383
     6  H   -0.185897
     7  N   -0.058913
     8  O   -0.236965
     9  O   -0.091340
    10  O   -0.218744
    11  O   -0.475453
 Sum of Mulliken charges =  -0.00000

 Dipole moment (field-independent basis, Debye):
    X=              5.2297    Y=              2.7193    Z=              2.8931  Tot=              6.5661

 Test job not archived.
 1\1\GINC-SE083\SP\RHF\Aug-CC-pVDZ\C1H5N1O4\OHZDE\08-Apr-2025\0\\#t hf
 aug-cc-pvdz iop(5/13=1,5/36=2,99/5=2) pseudo=read geom=check guess=(re
 ad,tcheck) scf=(maxcycle=1)\\title\\0,1\C,0,1.96205,0.285211,-0.091171
 8\H,0,-0.839794,-0.935391,0.131585\H,0,-2.39691,1.26044,0.863113\H,0,3
 .72522,-0.709872,0.15626\H,0,3.72455,0.942769,0.701724\H,0,1.57771,1.2
 9972,0.0648525\N,0,3.2654,0.182608,0.22977\O,0,-1.74025,-0.984496,0.53
 0922\O,0,-2.4803,-0.175402,-0.325199\O,0,-2.0982,1.15222,-0.0556142\O,
 0,1.26614,-0.598218,-0.522471\\Version=ES64L-G16RevC.01\State=1-A\HF=-

 Normal termination of Gaussian 16 at Tue Apr  8 21:36:41 2025.
