 Gaussian 16, Revision C.01,

 ----------------------------------------------------------------------
 #t hf aug-cc-pvdz symm=none int=(grid=ultrafine) guess=(read,tcheck) s
 table=(opt,rrhf)
 ----------------------------------------------------------------------
 -----
 title
 -----
 Symbolic Z-matrix:
 Charge =  0 Multiplicity = 1

 SCF Done:  E(RHF) =  -410.439618598     A.U. after   14 cycles
 Normal termination of Gaussian 16 at Tue Apr  8 21:42:10 2025.
 Gaussian 16:  ES64L-G16RevC.01  3-Jul-2019

 ----------------------------------------------------------------------
 #t hf aug-cc-pvdz iop(5/13=1,5/36=2,99/5=2) pseudo=read geom=check gue
 ss=(read,tcheck) scf=(maxcycle=1)
 ----------------------------------------------------------------------
 -----
 title
 -----
 Structure from the checkpoint file:  "ANI1ccx_483_conf3_mol1.chk"
 Charge =  0 Multiplicity = 1

                         Standard orientation:
 ---------------------------------------------------------------------
 Center     Atomic      Atomic             Coordinates (Angstroms)
 Number     Number       Type             X           Y           Z
 ---------------------------------------------------------------------
      1          6           0        1.103851   -0.195981    0.035067
      2          6           0       -1.131069   -0.125310   -0.005481
      3          1           0        1.235621    1.642410    0.623849
      4          1           0       -1.207729    1.863690   -0.433089
      5          7           0        0.735059    1.109540   -0.081883
      6          7           0       -0.678427    1.105570    0.035507
      7          8           0        2.225141   -0.569617   -0.006927
      8          8           0       -2.247539   -0.571110    0.047489
      9          8           0       -0.010230   -0.994788   -0.046018
 ---------------------------------------------------------------------

 SCF Done:  E(RHF) =  -410.568361986     A.U. after    2 cycles

 The electronic state is 1-A.
 Alpha  occ. eigenvalues --  -20.67939 -20.58974 -20.58725 -15.74693 -15.74238
 Alpha  occ. eigenvalues --  -11.46694 -11.46013  -1.51640  -1.41547  -1.36702
 Alpha  occ. eigenvalues --   -1.33999  -1.15936  -0.91941  -0.90693  -0.79731
 Alpha  occ. eigenvalues --   -0.78589  -0.72302  -0.69787  -0.68981  -0.65991
 Alpha  occ. eigenvalues --   -0.62196  -0.59566  -0.53510  -0.52315  -0.50422
 Alpha  occ. eigenvalues --   -0.43391
 Alpha virt. eigenvalues --    0.01779   0.03293   0.07128   0.07890   0.10130
 Alpha virt. eigenvalues --    0.10864   0.11670   0.12042   0.12158   0.14385
 Alpha virt. eigenvalues --    0.14971   0.15546   0.15814   0.16637   0.18924

 Mulliken charges:
               1
     1  C    0.643547
     2  C    0.682224
     3  H    0.145010
     4  H    0.119878
     5  N   -0.181396
     6  N   -0.107723
     7  O   -0.365301
     8  O   -0.385506
     9  O   -0.550732
 Sum of Mulliken charges =   0.00000

 Dipole moment (field-independent basis, Debye):
    X=             -0.0366    Y=              5.4834    Z=              0.3942  Tot=              5.4977

 Test job not archived.
 1\1\GINC-SE059\SP\RHF\Aug-CC-pVDZ\C2H2N2O3\OHZDE\08-Apr-2025\0\\#t hf
 aug-cc-pvdz iop(5/13=1,5/36=2,99/5=2) pseudo=read geom=check guess=(re
 ad,tcheck) scf=(maxcycle=1)\\title\\0,1\C,0,1.10385,-0.195981,0.035066
 9\C,0,-1.13107,-0.12531,-0.00548136\H,0,1.23562,1.64241,0.623849\H,0,-
 1.20773,1.86369,-0.433089\N,0,0.735058,1.10954,-0.0818828\N,0,-0.67842
 8,1.10557,0.0355069\O,0,2.22514,-0.569617,-0.00692657\O,0,-2.24754,-0.
 57111,0.0474893\O,0,-0.0102315,-0.994788,-0.0460181\\Version=ES64L-G16
 RevC.01\State=1-A\HF=-410.568362\RMSD=2.889e-03\Dipole=-0.0143987,2.15

 Normal termination of Gaussian 16 at Tue Apr  8 21:42:14 2025.
