 Gaussian 16, Revision C.01,

 ----------------------------------------------------------------------
 #t hf aug-cc-pvdz symm=none int=(grid=ultrafine) guess=(read,tcheck) s
 table=(opt,rrhf)
 ----------------------------------------------------------------------
 -----
 title
 -----
 Symbolic Z-matrix:
 Charge =  0 Multiplicity = 1

 SCF Done:  E(RHF) =  -505.044429741     A.U. after   15 cycles
 Normal termination of Gaussian 16 at Tue Apr  8 21:39:51 2025.
 Gaussian 16:  ES64L-G16RevC.01  3-Jul-2019

 ----------------------------------------------------------------------
 #t hf aug-cc-pvdz iop(5/13=1,5/36=2,99/5=2) pseudo=read geom=check gue
 ss=(read,tcheck) scf=(maxcycle=1)
 ----------------------------------------------------------------------
 -----
 title
 -----
 Structure from the checkpoint file:  "ANI1ccx_471_conf5_mol1.chk"
 Charge =  0 Multiplicity = 1

                         Standard orientation:
 ---------------------------------------------------------------------
 Center     Atomic      Atomic             Coordinates (Angstroms)
 Number     Number       Type             X           Y           Z
 ---------------------------------------------------------------------
      1          6           0        1.389990   -0.095785   -0.004387
      2          6           0       -0.660074    0.787773    0.097793
      3          1           0       -2.374857   -1.620954    0.374793
      4          7           0       -0.786113   -0.580868    0.432272
      5          8           0       -1.806908   -1.232583   -0.327540
      6          8           0        0.555607   -1.106789    0.015140
      7          8           0        2.572050   -0.148569   -0.059106
      8          8           0        0.657133    1.140981   -0.080589
      9          8           0       -1.540613    1.538848   -0.043047
 ---------------------------------------------------------------------

 SCF Done:  E(RHF) =  -505.204423214     A.U. after    2 cycles

 The electronic state is 1-A.
 Alpha  occ. eigenvalues --  -20.72544 -20.70717 -20.70516 -20.62317 -20.61724
 Alpha  occ. eigenvalues --  -15.84650 -11.50766 -11.48431  -1.56722  -1.46837
 Alpha  occ. eigenvalues --   -1.45673  -1.40164  -1.39174  -1.16310  -0.93275
 Alpha  occ. eigenvalues --   -0.91666  -0.82421  -0.79188  -0.75902  -0.74193
 Alpha  occ. eigenvalues --   -0.73036  -0.71540  -0.68161  -0.66043  -0.61883
 Alpha  occ. eigenvalues --   -0.61182  -0.55685  -0.54942  -0.53766  -0.49785
 Alpha virt. eigenvalues --    0.02183   0.06603   0.07217   0.07595   0.09849
 Alpha virt. eigenvalues --    0.10410   0.11262   0.11675   0.12216   0.13713
 Alpha virt. eigenvalues --    0.14112   0.15202   0.17397   0.18134   0.19445

 Mulliken charges:
               1
     1  C    0.800799
     2  C    0.904340
     3  H    0.276432
     4  N    0.018261
     5  O   -0.410200
     6  O   -0.422918
     7  O   -0.332094
     8  O   -0.545524
     9  O   -0.289096
 Sum of Mulliken charges =  -0.00000

 Dipole moment (field-independent basis, Debye):
    X=             -2.8652    Y=             -2.3821    Z=              1.6049  Tot=              4.0570

 Test job not archived.
 1\1\GINC-SE455\SP\RHF\Aug-CC-pVDZ\C2H1N1O5\OHZDE\08-Apr-2025\0\\#t hf
 aug-cc-pvdz iop(5/13=1,5/36=2,99/5=2) pseudo=read geom=check guess=(re
 ad,tcheck) scf=(maxcycle=1)\\title\\0,1\C,0,1.38999,-0.0957875,-0.0043
 8698\C,0,-0.660072,0.787774,0.0977931\H,0,-2.37486,-1.62095,0.374793\N
 ,0,-0.786114,-0.580867,0.432272\O,0,-1.80691,-1.23258,-0.32754\O,0,0.5
 55605,-1.10679,0.0151396\O,0,2.57205,-0.148574,-0.0591062\O,0,0.657135
 ,1.14098,-0.0805886\O,0,-1.54061,1.53885,-0.0430466\\Version=ES64L-G16
 RevC.01\State=1-A\HF=-505.2044232\RMSD=2.843e-03\Dipole=-1.1272492,-0.

 Normal termination of Gaussian 16 at Tue Apr  8 21:39:54 2025.
