 Gaussian 16, Revision C.01,

 ----------------------------------------------------------------------
 #t hf aug-cc-pvdz symm=none int=(grid=ultrafine) guess=(read,tcheck) s
 table=(opt,rrhf)
 ----------------------------------------------------------------------
 -----
 title
 -----
 Symbolic Z-matrix:
 Charge =  0 Multiplicity = 1

 SCF Done:  E(RHF) =  -239.965703564     A.U. after   14 cycles
 Normal termination of Gaussian 16 at Tue Apr  8 21:10:17 2025.
 Gaussian 16:  ES64L-G16RevC.01  3-Jul-2019

 ----------------------------------------------------------------------
 #t hf aug-cc-pvdz iop(5/13=1,5/36=2,99/5=2) pseudo=read geom=check gue
 ss=(read,tcheck) scf=(maxcycle=1)
 ----------------------------------------------------------------------
 -----
 title
 -----
 Structure from the checkpoint file:  "ANI1ccx_1874_conf6_mol1.chk"
 Charge =  0 Multiplicity = 1

                         Standard orientation:
 ---------------------------------------------------------------------
 Center     Atomic      Atomic             Coordinates (Angstroms)
 Number     Number       Type             X           Y           Z
 ---------------------------------------------------------------------
      1          1           0        0.792018    0.564639    0.739256
      2          1           0        2.404800    0.926001   -0.661480
      3          1           0        3.027309   -0.050285    0.497052
      4          7           0       -2.139161    0.568203    0.041951
      5          7           0       -2.374411   -0.495850   -0.143280
      6          7           0        2.369439   -0.013161   -0.269729
      7          8           0        1.098099   -0.231838    0.252822
 ---------------------------------------------------------------------

 SCF Done:  E(RHF) =  -240.039705285     A.U. after    2 cycles

 The electronic state is 1-A.
 Alpha  occ. eigenvalues --  -20.60728 -15.75463 -15.75105 -15.67198  -1.41701
 Alpha  occ. eigenvalues --   -1.36758  -1.05291  -0.75288  -0.73812  -0.70049
 Alpha  occ. eigenvalues --   -0.62046  -0.60503  -0.60137  -0.59307  -0.50452
 Alpha  occ. eigenvalues --   -0.41944
 Alpha virt. eigenvalues --    0.03369   0.05236   0.05563   0.10187   0.12701
 Alpha virt. eigenvalues --    0.13075   0.13562   0.14156   0.14792   0.17495
 Alpha virt. eigenvalues --    0.19081   0.20055   0.20605   0.22866   0.24175

 Mulliken charges:
               1
     1  H    0.151849
     2  H    0.064575
     3  H    0.080794
     4  N   -0.014791
     5  N    0.006800
     6  N    0.147128
     7  O   -0.436355
 Sum of Mulliken charges =  -0.00000

 Dipole moment (field-independent basis, Debye):
    X=              0.8132    Y=              2.7366    Z=              1.2823  Tot=              3.1296

 Test job not archived.
 1\1\GINC-SE068\SP\RHF\Aug-CC-pVDZ\H3N3O1\OHZDE\08-Apr-2025\0\\#t hf au
 g-cc-pvdz iop(5/13=1,5/36=2,99/5=2) pseudo=read geom=check guess=(read
 ,tcheck) scf=(maxcycle=1)\\title\\0,1\H,0,0.792019,0.564639,0.739256\H
 ,0,2.4048,0.926001,-0.66148\H,0,3.02731,-0.0502844,0.497052\N,0,-2.139
 16,0.568203,0.0419514\N,0,-2.37441,-0.49585,-0.14328\N,0,2.36944,-0.01
 31601,-0.269729\O,0,1.0981,-0.231838,0.252822\\Version=ES64L-G16RevC.0
 1\State=1-A\HF=-240.0397053\RMSD=1.965e-03\Dipole=0.3199193,1.0766496,
 0.504514\Quadrupole=1.8812423,-1.2085144,-0.6727279,3.1672193,1.925325

 Normal termination of Gaussian 16 at Tue Apr  8 21:10:18 2025.
