 Gaussian 16, Revision C.01,

 ----------------------------------------------------------------------
 #t hf aug-cc-pvdz symm=none int=(grid=ultrafine) guess=(read,tcheck) s
 table=(opt,rrhf)
 ----------------------------------------------------------------------
 -----
 title
 -----
 Symbolic Z-matrix:
 Charge =  0 Multiplicity = 1

 SCF Done:  E(RHF) =  -256.791434377     A.U. after   15 cycles
 Normal termination of Gaussian 16 at Tue Apr  8 21:25:28 2025.
 Gaussian 16:  ES64L-G16RevC.01  3-Jul-2019

 ----------------------------------------------------------------------
 #t hf aug-cc-pvdz iop(5/13=1,5/36=2,99/5=2) pseudo=read geom=check gue
 ss=(read,tcheck) scf=(maxcycle=1)
 ----------------------------------------------------------------------
 -----
 title
 -----
 Structure from the checkpoint file:  "ANI1ccx_377_conf64_mol1.chk"
 Charge =  0 Multiplicity = 1

                         Standard orientation:
 ---------------------------------------------------------------------
 Center     Atomic      Atomic             Coordinates (Angstroms)
 Number     Number       Type             X           Y           Z
 ---------------------------------------------------------------------
      1          6           0       -1.066070   -0.341726   -0.018014
      2          1           0       -2.137220   -0.626780    0.132383
      3          1           0        1.933980   -0.665131    0.073549
      4          7           0       -0.648885    0.959536   -0.029880
      5          7           0        0.609107    0.948079    0.046372
      6          7           0        1.005180   -0.298728   -0.043477
      7          7           0       -0.022592   -1.131420    0.013007
 ---------------------------------------------------------------------

 SCF Done:  E(RHF) =  -256.862130975     A.U. after    2 cycles

 The electronic state is 1-A.
 Alpha  occ. eigenvalues --  -15.76784 -15.73869 -15.69741 -15.68024 -11.32367
 Alpha  occ. eigenvalues --   -1.47933  -1.23977  -1.16203  -0.90961  -0.87934
 Alpha  occ. eigenvalues --   -0.78490  -0.69101  -0.65583  -0.57412  -0.49614
 Alpha  occ. eigenvalues --   -0.45967  -0.44766  -0.41433
 Alpha virt. eigenvalues --    0.02891   0.03817   0.08316   0.08456   0.11221
 Alpha virt. eigenvalues --    0.12317   0.12454   0.14977   0.16247   0.16769
 Alpha virt. eigenvalues --    0.17592   0.18852   0.19942   0.20310   0.21863

 Mulliken charges:
               1
     1  C    0.757702
     2  H   -0.091343
     3  H    0.051811
     4  N   -0.357739
     5  N   -0.108787
     6  N    0.097307
     7  N   -0.348952
 Sum of Mulliken charges =  -0.00000

 Dipole moment (field-independent basis, Debye):
    X=              1.1473    Y=             -1.8600    Z=              0.2476  Tot=              2.1994

 Test job not archived.
 1\1\GINC-SE250\SP\RHF\Aug-CC-pVDZ\C1H2N4\OHZDE\08-Apr-2025\0\\#t hf au
 g-cc-pvdz iop(5/13=1,5/36=2,99/5=2) pseudo=read geom=check guess=(read
 ,tcheck) scf=(maxcycle=1)\\title\\0,1\C,0,-1.06607,-0.341725,-0.018013
 6\H,0,-2.13722,-0.626778,0.132383\H,0,1.93398,-0.665133,0.0735492\N,0,
 -0.648884,0.959537,-0.0298801\N,0,0.609108,0.948078,0.0463724\N,0,1.00
 518,-0.298729,-0.0434775\N,0,-0.0225924,-1.13142,0.0130065\\Version=ES
 64L-G16RevC.01\State=1-A\HF=-256.862131\RMSD=3.334e-03\Dipole=0.451400
 9,-0.7317924,0.0974269\Quadrupole=5.7397767,-5.1274161,-0.6123606,-0.3

 Normal termination of Gaussian 16 at Tue Apr  8 21:25:30 2025.
