 Gaussian 16, Revision C.01,

 ----------------------------------------------------------------------
 #t hf aug-cc-pvdz symm=none int=(grid=ultrafine) guess=(read,tcheck) s
 table=(opt,rrhf)
 ----------------------------------------------------------------------
 -----
 title
 -----
 Symbolic Z-matrix:
 Charge =  0 Multiplicity = 1

 SCF Done:  E(RHF) =  -456.264633128     A.U. after   11 cycles
 Normal termination of Gaussian 16 at Tue Apr  8 21:04:39 2025.
 Gaussian 16:  ES64L-G16RevC.01  3-Jul-2019

 ----------------------------------------------------------------------
 #t hf aug-cc-pvdz iop(5/13=1,5/36=2,99/5=2) pseudo=read geom=check gue
 ss=(read,tcheck) scf=(maxcycle=1)
 ----------------------------------------------------------------------
 -----
 title
 -----
 Structure from the checkpoint file:  "ANI1ccx_1844_conf139_mol1.chk"
 Charge =  0 Multiplicity = 1

                         Standard orientation:
 ---------------------------------------------------------------------
 Center     Atomic      Atomic             Coordinates (Angstroms)
 Number     Number       Type             X           Y           Z
 ---------------------------------------------------------------------
      1          1           0        1.994259    1.119250    0.011350
      2          1           0        0.071773    2.204270   -0.015882
      3          1           0       -1.056590    2.946638   -0.735600
      4          1           0       -3.127714    0.476725    0.945670
      5          1           0       -2.035191    1.154588    0.042750
      6          1           0        0.923014   -2.813391    0.949076
      7          1           0        1.922086    2.367099    0.858660
      8          1           0       -0.027637   -2.313281   -0.083587
      9          1           0       -2.024515   -2.339942   -0.950518
     10          1           0       -1.928778   -1.124671    0.048414
     11          1           0        1.957073   -1.178771   -0.017728
     12          1           0        3.258517   -0.595726   -0.663510
     13          8           0       -2.767424    0.483014   -0.007585
     14          8           0       -1.644978   -2.065728   -0.039996
     15          8           0       -0.912232    2.442870    0.038869
     16          8           0        0.935251   -2.454741    0.008644
     17          8           0        1.770109    2.067047   -0.091615
     18          8           0        2.628486   -0.460311    0.043047
 ---------------------------------------------------------------------

 SCF Done:  E(RHF) =  -456.416084348     A.U. after    2 cycles

 The electronic state is 1-A.
 Alpha  occ. eigenvalues --  -20.58876 -20.57843 -20.57723 -20.57524 -20.57101
 Alpha  occ. eigenvalues --  -20.56381  -1.32254  -1.31697  -1.31033  -1.29633
 Alpha  occ. eigenvalues --   -1.29078  -1.28279  -0.74590  -0.73355  -0.72576
 Alpha  occ. eigenvalues --   -0.71394  -0.71235  -0.70937  -0.64465  -0.63083
 Alpha  occ. eigenvalues --   -0.62235  -0.59185  -0.58299  -0.56903  -0.53049
 Alpha  occ. eigenvalues --   -0.52474  -0.52268  -0.52138  -0.51958  -0.51356
 Alpha virt. eigenvalues --    0.03054   0.04670   0.04830   0.05430   0.06152
 Alpha virt. eigenvalues --    0.06285   0.08706   0.08956   0.09642   0.09778
 Alpha virt. eigenvalues --    0.11189   0.11240   0.15889   0.18862   0.19288

 Mulliken charges:
               1
     1  H    0.271141
     2  H    0.312863
     3  H    0.120136
     4  H    0.223841
     5  H    0.285900
     6  H    0.212059
     7  H    0.220681
     8  H    0.267542
     9  H    0.231547
    10  H    0.261863
    11  H    0.300728
    12  H    0.139291
    13  O   -0.498821
    14  O   -0.488862
    15  O   -0.433184
    16  O   -0.507053
    17  O   -0.493228
    18  O   -0.426444
 Sum of Mulliken charges =  -0.00000

 Dipole moment (field-independent basis, Debye):
    X=             -0.2191    Y=             -0.4059    Z=              0.5928  Tot=              0.7511

 Test job not archived.
 1\1\GINC-SE457\SP\RHF\Aug-CC-pVDZ\H12O6\OHZDE\08-Apr-2025\0\\#t hf aug
 -cc-pvdz iop(5/13=1,5/36=2,99/5=2) pseudo=read geom=check guess=(read,
 tcheck) scf=(maxcycle=1)\\title\\0,1\H,0,1.99427,1.11923,0.0113503\H,0
 ,0.0717952,2.20427,-0.0158819\H,0,-1.05656,2.94665,-0.7356\H,0,-3.1277
 1,0.476758,0.94567\H,0,-2.03518,1.15461,0.0427495\H,0,0.922984,-2.8134
 ,0.949076\H,0,1.92211,2.36708,0.85866\H,0,-0.0276614,-2.31328,-0.08358
 72\H,0,-2.02454,-2.33992,-0.950518\H,0,-1.92879,-1.12465,0.0484138\H,0
 ,1.95706,-1.17879,-0.0177277\H,0,3.25851,-0.595759,-0.66351\O,0,-2.767

 Normal termination of Gaussian 16 at Tue Apr  8 21:04:44 2025.
