 Gaussian 16, Revision C.01,

 ----------------------------------------------------------------------
 #t hf aug-cc-pvdz symm=none int=(grid=ultrafine) guess=(read,tcheck) s
 table=(opt,rrhf)
 ----------------------------------------------------------------------
 -----
 title
 -----
 Symbolic Z-matrix:
 Charge =  0 Multiplicity = 1

 SCF Done:  E(RHF) =  -409.825793417     A.U. after   14 cycles
 Normal termination of Gaussian 16 at Tue Apr  8 21:50:21 2025.
 Gaussian 16:  ES64L-G16RevC.01  3-Jul-2019

 ----------------------------------------------------------------------
 #t hf aug-cc-pvdz iop(5/13=1,5/36=2,99/5=2) pseudo=read geom=check gue
 ss=(read,tcheck) scf=(maxcycle=1)
 ----------------------------------------------------------------------
 -----
 title
 -----
 Structure from the checkpoint file:  "ANI1ccx_727_conf2_mol1.chk"
 Charge =  0 Multiplicity = 1

                         Standard orientation:
 ---------------------------------------------------------------------
 Center     Atomic      Atomic             Coordinates (Angstroms)
 Number     Number       Type             X           Y           Z
 ---------------------------------------------------------------------
      1          6           0       -1.102129   -0.339857    0.041622
      2          6           0        1.203901   -0.521033   -0.029050
      3          6           0        0.194108    1.671172    0.180268
      4          1           0       -2.486655   -1.838736    0.106979
      5          1           0       -3.110899   -0.237297    0.176930
      6          1           0        2.310727    1.217637   -0.084052
      7          1           0        0.189916    1.846752    1.258440
      8          1           0        0.308868    2.664132   -0.255841
      9          1           0       -1.561163    1.256117   -1.015970
     10          7           0       -2.342578   -0.813970   -0.083381
     11          7           0       -0.028535   -1.064719    0.240883
     12          7           0        1.327118    0.870505   -0.102166
     13          7           0       -1.107883    1.010568   -0.128758
     14          8           0        2.204633   -1.223373   -0.103696
 ---------------------------------------------------------------------

 SCF Done:  E(RHF) =  -409.950049128     A.U. after    2 cycles

 The electronic state is 1-A.
 Alpha  occ. eigenvalues --  -20.50647 -15.67493 -15.67422 -15.64206 -15.60376
 Alpha  occ. eigenvalues --  -11.39764 -11.37197 -11.33317  -1.34559  -1.30754
 Alpha  occ. eigenvalues --   -1.21796  -1.15463  -1.14088  -0.94226  -0.87670
 Alpha  occ. eigenvalues --   -0.77700  -0.75840  -0.73608  -0.70119  -0.67084
 Alpha  occ. eigenvalues --   -0.63766  -0.61623  -0.59359  -0.57591  -0.54042
 Alpha  occ. eigenvalues --   -0.45344  -0.43671  -0.41768  -0.38440  -0.37786
 Alpha virt. eigenvalues --    0.01716   0.02587   0.03723   0.04867   0.06439
 Alpha virt. eigenvalues --    0.06512   0.10153   0.10623   0.11276   0.11716
 Alpha virt. eigenvalues --    0.12678   0.13347   0.14160   0.14555   0.15283

 Mulliken charges:
               1
     1  C    0.744229
     2  C    0.665852
     3  C    1.199887
     4  H    0.075843
     5  H   -0.044339
     6  H   -0.049147
     7  H   -0.207482
     8  H   -0.207833
     9  H    0.037139
    10  N   -0.229870
    11  N   -0.524957
    12  N   -0.499600
    13  N   -0.446506
    14  O   -0.513216
 Sum of Mulliken charges =  -0.00000

 Dipole moment (field-independent basis, Debye):
    X=             -6.0238    Y=              5.3427    Z=             -0.2391  Tot=              8.0553

 Test job not archived.
 1\1\GINC-SE453\SP\RHF\Aug-CC-pVDZ\C3H6N4O1\OHZDE\08-Apr-2025\0\\#t hf
 aug-cc-pvdz iop(5/13=1,5/36=2,99/5=2) pseudo=read geom=check guess=(re
 ad,tcheck) scf=(maxcycle=1)\\title\\0,1\C,0,-1.10213,-0.339855,0.04162
 17\C,0,1.2039,-0.521037,-0.0290502\C,0,0.194113,1.67117,0.180268\H,0,-
 2.48666,-1.83873,0.106979\H,0,-3.1109,-0.23729,0.17693\H,0,2.31073,1.2
 1763,-0.0840522\H,0,0.189921,1.84675,1.25844\H,0,0.308875,2.66413,-0.2
 55841\H,0,-1.56116,1.25612,-1.01597\N,0,-2.34258,-0.813965,-0.0833811\
 N,0,-0.0285375,-1.06472,0.240883\N,0,1.32712,0.8705,-0.102166\N,0,-1.1

 Normal termination of Gaussian 16 at Tue Apr  8 21:50:26 2025.
