 Gaussian 16, Revision C.01,

 ----------------------------------------------------------------------
 #t hf aug-cc-pvdz symm=none int=(grid=ultrafine) guess=(read,tcheck) s
 table=(opt,rrhf)
 ----------------------------------------------------------------------
 -----
 title
 -----
 Symbolic Z-matrix:
 Charge =  0 Multiplicity = 1

 SCF Done:  E(RHF) =  -830.270991327     A.U. after   14 cycles
 Normal termination of Gaussian 16 at Tue Apr  8 19:36:10 2025.
 Gaussian 16:  ES64L-G16RevC.01  3-Jul-2019

 ----------------------------------------------------------------------
 #t hf aug-cc-pvdz iop(5/13=1,5/36=2,99/5=2) pseudo=read geom=check gue
 ss=(read,tcheck) scf=(maxcycle=1)
 ----------------------------------------------------------------------
 -----
 title
 -----
 Structure from the checkpoint file:  "ANI1ccx_1406_conf13_mol1.chk"
 Charge =  0 Multiplicity = 1

                         Standard orientation:
 ---------------------------------------------------------------------
 Center     Atomic      Atomic             Coordinates (Angstroms)
 Number     Number       Type             X           Y           Z
 ---------------------------------------------------------------------
      1          6           0        2.420890    0.678886   -0.098748
      2          6           0        1.510001    0.072865    0.896435
      3          6           0        2.861611   -0.490238   -1.014300
      4          6           0       -1.017879   -0.527527    0.900682
      5          6           0       -1.518998   -1.694880    0.061804
      6          6           0       -1.943340    0.708641    0.906609
      7          6           0       -2.087850    1.489499   -0.435150
      8          1           0       -3.001707   -2.893002    0.223441
      9          1           0       -3.135551    2.879928   -1.244450
     10          1           0       -1.514260    1.408020    1.672290
     11          1           0       -2.936430    0.508575    1.299770
     12          1           0       -0.967298   -0.927645    1.933680
     13          1           0        0.315466   -0.159026   -0.712309
     14          1           0        3.691881   -0.140964   -1.622720
     15          1           0        3.194082   -1.415617   -0.427686
     16          1           0        1.896740    1.449922   -0.684339
     17          1           0        4.120490    0.618410    1.124840
     18          1           0        3.320409    1.986603    1.315510
     19          1           0        1.548612   -1.812758   -1.752890
     20          7           0        3.546610    1.289433    0.581929
     21          7           0        0.307006   -0.154145    0.324526
     22          8           0       -3.025921    2.473578   -0.373494
     23          8           0        1.695121   -0.152005    2.067240
     24          8           0        1.846931   -0.890348   -1.969000
     25          8           0       -1.065138   -1.938550   -1.003670
     26          8           0       -1.239840    1.376560   -1.303910
     27          8           0       -2.567948   -2.228351    0.736046
 ---------------------------------------------------------------------

 SCF Done:  E(RHF) =  -830.525858320     A.U. after    2 cycles

 The electronic state is 1-A.
 Alpha  occ. eigenvalues --  -20.65167 -20.64734 -20.59360 -20.58195 -20.57965
 Alpha  occ. eigenvalues --  -20.52637 -15.62608 -15.60776 -11.42574 -11.42055
 Alpha  occ. eigenvalues --  -11.34366 -11.31908 -11.30427 -11.28791 -11.27744
 Alpha  occ. eigenvalues --   -1.45308  -1.43391  -1.37371  -1.34945  -1.34248
 Alpha  occ. eigenvalues --   -1.31281  -1.19194  -1.15442  -1.07191  -0.98892
 Alpha  occ. eigenvalues --   -0.96537  -0.88743  -0.86279  -0.82118  -0.77576
 Alpha  occ. eigenvalues --   -0.74897  -0.73824  -0.73378  -0.71208  -0.70260
 Alpha  occ. eigenvalues --   -0.68776  -0.68378  -0.66822  -0.65710  -0.65134
 Alpha  occ. eigenvalues --   -0.63123  -0.61556  -0.60865  -0.59049  -0.57748
 Alpha  occ. eigenvalues --   -0.57567  -0.56359  -0.55919  -0.53832  -0.53535
 Alpha  occ. eigenvalues --   -0.51614  -0.50338  -0.48924  -0.47390  -0.46093
 Alpha  occ. eigenvalues --   -0.43880  -0.39007  -0.38036
 Alpha virt. eigenvalues --    0.02375   0.03258   0.04192   0.04380   0.05109
 Alpha virt. eigenvalues --    0.05916   0.06014   0.06794   0.07622   0.08127
 Alpha virt. eigenvalues --    0.08747   0.09526   0.10269   0.11452   0.11629

 Mulliken charges:
               1
     1  C    0.292760
     2  C    0.491168
     3  C    0.817856
     4  C   -0.017024
     5  C    0.553194
     6  C    0.284606
     7  C    0.608259
     8  H    0.176317
     9  H    0.193804
    10  H    0.128598
    11  H   -0.137495
    12  H   -0.031953
    13  H    0.302774
    14  H   -0.177919
    15  H    0.007557
    16  H   -0.137967
    17  H    0.059161
    18  H    0.008960
    19  H    0.246274
    20  N   -0.405084
    21  N   -0.246913
    22  O   -0.501589
    23  O   -0.561005
    24  O   -0.600186
    25  O   -0.418745
    26  O   -0.455005
    27  O   -0.480404
 Sum of Mulliken charges =  -0.00000

 Dipole moment (field-independent basis, Debye):
    X=             -4.4243    Y=             -0.8023    Z=              0.5170  Tot=              4.5261

 Test job not archived.
 1\1\GINC-SE038\SP\RHF\Aug-CC-pVDZ\C7H12N2O6\OHZDE\08-Apr-2025\0\\#t hf
  aug-cc-pvdz iop(5/13=1,5/36=2,99/5=2) pseudo=read geom=check guess=(r
 ead,tcheck) scf=(maxcycle=1)\\title\\0,1\C,0,2.42089,0.678884,-0.09874
 83\C,0,1.51,0.0728638,0.896435\C,0,2.86161,-0.490241,-1.0143\C,0,-1.01
 788,-0.527527,0.900682\C,0,-1.519,-1.69488,0.0618044\C,0,-1.94334,0.70
 8642,0.906609\C,0,-2.08785,1.4895,-0.43515\H,0,-3.00171,-2.893,0.22344
 1\H,0,-3.13555,2.87993,-1.24445\H,0,-1.51426,1.40802,1.67229\H,0,-2.93
 643,0.508576,1.29977\H,0,-0.967299,-0.927645,1.93368\H,0,0.315465,-0.1

 Normal termination of Gaussian 16 at Tue Apr  8 19:36:41 2025.
