 Gaussian 16, Revision C.01,

 ----------------------------------------------------------------------
 #t hf aug-cc-pvdz symm=none int=(grid=ultrafine) guess=(read,tcheck) s
 table=(opt,rrhf)
 ----------------------------------------------------------------------
 -----
 title
 -----
 Symbolic Z-matrix:
 Charge =  0 Multiplicity = 1

 SCF Done:  E(RHF) =  -1021.12640949     A.U. after   15 cycles
 Normal termination of Gaussian 16 at Tue Apr  8 22:08:13 2025.
 Gaussian 16:  ES64L-G16RevC.01  3-Jul-2019

 ----------------------------------------------------------------------
 #t hf aug-cc-pvdz iop(5/13=1,5/36=2,99/5=2) pseudo=read geom=check gue
 ss=(read,tcheck) scf=(maxcycle=1)
 ----------------------------------------------------------------------
 -----
 title
 -----
 Structure from the checkpoint file:  "ANI1ccx_54_conf10_mol2.chk"
 Charge =  0 Multiplicity = 1

                         Standard orientation:
 ---------------------------------------------------------------------
 Center     Atomic      Atomic             Coordinates (Angstroms)
 Number     Number       Type             X           Y           Z
 ---------------------------------------------------------------------
      1          6           0       -2.103619    1.188832    0.222027
      2          6           0        4.269910   -0.471083   -0.404707
      3          6           0        1.875870   -0.334502   -1.211320
      4          6           0        1.027340   -0.205483    1.186390
      5          6           0        0.718134    0.078109   -0.307336
      6          6           0        3.194360    0.425623   -0.952500
      7          6           0       -3.766700   -0.578748   -0.597166
      8          6           0       -2.716780    0.450085   -0.991061
      9          6           0       -0.871072    2.060151   -0.198937
     10          6           0       -3.224280   -1.918918   -0.241773
     11          1           0       -0.151682   -0.553195   -0.526267
     12          1           0       -0.560776   -1.313809    1.207760
     13          1           0        3.629510    0.017850    1.277850
     14          1           0        3.598720    0.788137   -1.911700
     15          1           0        3.073421    1.283130   -0.271714
     16          1           0        1.999780   -1.412810   -1.161070
     17          1           0        1.531590   -0.090081   -2.221160
     18          1           0        1.054701    2.104441   -0.788250
     19          1           0       -1.877601   -2.882209    0.585647
     20          1           0       -4.437780   -0.185248    0.209392
     21          1           0       -4.311260   -0.721719   -1.532620
     22          1           0       -3.154609    1.255852   -1.607040
     23          1           0       -1.993060   -0.086395   -1.606390
     24          1           0       -1.800980    0.463365    0.986696
     25          1           0       -2.675089    2.485822    1.682510
     26          1           0       -3.329909    2.821132    0.249014
     27          7           0       -3.101579    2.058392    0.865622
     28          7           0        0.342253    1.471831   -0.458991
     29          8           0       -0.952512    3.274661   -0.303313
     30          8           0       -3.778821   -2.998268   -0.473658
     31          8           0       -2.015680   -1.930569    0.379023
     32          8           0        1.999790    0.269639    1.736630
     33          8           0        5.010970   -1.103161   -1.114220
     34          8           0        4.347690   -0.525850    0.917332
     35          8           0        0.176230   -1.092729    1.803110
 ---------------------------------------------------------------------

 SCF Done:  E(RHF) =  -1021.43737319     A.U. after    2 cycles

 The electronic state is 1-A.
 Alpha  occ. eigenvalues --  -20.68766 -20.65892 -20.60767 -20.60704 -20.60442
 Alpha  occ. eigenvalues --  -20.56712 -20.54916 -15.68597 -15.63629 -11.44886
 Alpha  occ. eigenvalues --  -11.44624 -11.39640 -11.38979 -11.34890 -11.32422
 Alpha  occ. eigenvalues --  -11.29595 -11.29566 -11.29346 -11.27668  -1.47714
 Alpha  occ. eigenvalues --   -1.44933  -1.41792  -1.37985  -1.37169  -1.35522
 Alpha  occ. eigenvalues --   -1.32158  -1.24395  -1.19484  -1.11037  -1.10616
 Alpha  occ. eigenvalues --   -1.02119  -0.99830  -0.92447  -0.91393  -0.88114
 Alpha  occ. eigenvalues --   -0.86186  -0.83520  -0.81804  -0.78718  -0.77338
 Alpha  occ. eigenvalues --   -0.75274  -0.73173  -0.72869  -0.71730  -0.71608
 Alpha  occ. eigenvalues --   -0.69939  -0.69358  -0.68483  -0.67046  -0.66130
 Alpha  occ. eigenvalues --   -0.65620  -0.64634  -0.63484  -0.62992  -0.62283
 Alpha  occ. eigenvalues --   -0.61661  -0.60511  -0.59423  -0.57803  -0.56854
 Alpha  occ. eigenvalues --   -0.56241  -0.55290  -0.54582  -0.53424  -0.53039
 Alpha  occ. eigenvalues --   -0.51928  -0.51096  -0.50375  -0.48274  -0.47368
 Alpha  occ. eigenvalues --   -0.45670  -0.42773  -0.42490
 Alpha virt. eigenvalues --    0.01601   0.02656   0.02971   0.03462   0.04714
 Alpha virt. eigenvalues --    0.05048   0.05351   0.05737   0.06471   0.06887
 Alpha virt. eigenvalues --    0.07455   0.07939   0.08409   0.08867   0.08983

 Mulliken charges:
               1
     1  C    0.222633
     2  C    0.723142
     3  C    0.450571
     4  C    0.626982
     5  C    0.664590
     6  C    0.690627
     7  C    0.302995
     8  C    0.577996
     9  C    0.551213
    10  C    0.637695
    11  H   -0.414890
    12  H    0.271136
    13  H    0.271406
    14  H   -0.112464
    15  H   -0.207899
    16  H   -0.165889
    17  H   -0.055645
    18  H   -0.075433
    19  H    0.234806
    20  H    0.112851
    21  H    0.136025
    22  H   -0.100969
    23  H   -0.377070
    24  H   -0.386452
    25  H    0.006768
    26  H    0.053974
    27  N   -0.264902
    28  N   -0.475310
    29  O   -0.585203
    30  O   -0.542605
    31  O   -0.692855
    32  O   -0.609596
    33  O   -0.530987
    34  O   -0.455674
    35  O   -0.481566
 Sum of Mulliken charges =  -0.00000

 Dipole moment (field-independent basis, Debye):
    X=             -6.1011    Y=              0.9766    Z=             -2.1122  Tot=              6.5298

 Test job not archived.
 1\1\GINC-SE106\SP\RHF\Aug-CC-pVDZ\C10H16N2O7\OHZDE\08-Apr-2025\0\\#t h
 f aug-cc-pvdz iop(5/13=1,5/36=2,99/5=2) pseudo=read geom=check guess=(
 read,tcheck) scf=(maxcycle=1)\\title\\0,1\C,0,-2.10362,1.18883,0.22202
 7\C,0,4.26991,-0.471083,-0.404707\C,0,1.87587,-0.334502,-1.21132\C,0,1
 .02734,-0.205484,1.18639\C,0,0.718134,0.0781079,-0.307336\C,0,3.19436,
 0.425623,-0.9525\C,0,-3.7667,-0.57875,-0.597166\C,0,-2.71678,0.450083,
 -0.991061\C,0,-0.871073,2.06015,-0.198937\C,0,-3.22428,-1.91892,-0.241
 773\H,0,-0.151682,-0.553196,-0.526267\H,0,-0.560776,-1.31381,1.20776\H

 Normal termination of Gaussian 16 at Tue Apr  8 22:09:17 2025.
