 Gaussian 16, Revision C.01,

 ----------------------------------------------------------------------
 #t hf aug-cc-pvdz symm=none int=(grid=ultrafine) guess=(read,tcheck) s
 table=(opt,rrhf)
 ----------------------------------------------------------------------
 -----
 title
 -----
 Symbolic Z-matrix:
 Charge =  0 Multiplicity = 1

 SCF Done:  E(RHF) =  -456.250015159     A.U. after   11 cycles
 Normal termination of Gaussian 16 at Tue Apr  8 21:05:36 2025.
 Gaussian 16:  ES64L-G16RevC.01  3-Jul-2019

 ----------------------------------------------------------------------
 #t hf aug-cc-pvdz iop(5/13=1,5/36=2,99/5=2) pseudo=read geom=check gue
 ss=(read,tcheck) scf=(maxcycle=1)
 ----------------------------------------------------------------------
 -----
 title
 -----
 Structure from the checkpoint file:  "ANI1ccx_1844_conf206_mol1.chk"
 Charge =  0 Multiplicity = 1

                         Standard orientation:
 ---------------------------------------------------------------------
 Center     Atomic      Atomic             Coordinates (Angstroms)
 Number     Number       Type             X           Y           Z
 ---------------------------------------------------------------------
      1          1           0        2.280731    0.580958   -0.417983
      2          1           0       -2.253543   -1.663026   -1.298380
      3          1           0       -2.414681   -0.307870   -0.531703
      4          1           0        2.280898   -1.235654   -1.527030
      5          1           0        1.780267   -1.543993    0.027120
      6          1           0       -0.132773   -1.971570    1.661230
      7          1           0        3.011423    1.939965    0.001843
      8          1           0       -0.866237   -1.498628    0.422735
      9          1           0       -0.096008    0.321558    1.123020
     10          1           0        0.646011    1.572969    0.573898
     11          1           0       -1.391508    1.336543   -0.171276
     12          1           0       -2.918267    1.716895    0.072182
     13          8           0        2.582868   -1.198654   -0.487498
     14          8           0       -0.209198    1.284351    0.977059
     15          8           0       -2.204703   -1.292556   -0.383580
     16          8           0        0.036860   -1.537740    0.804447
     17          8           0        2.129662    1.560657   -0.325946
     18          8           0       -2.326278    1.277924   -0.576440
 ---------------------------------------------------------------------

 SCF Done:  E(RHF) =  -456.399420173     A.U. after    2 cycles

 The electronic state is 1-A.
 Alpha  occ. eigenvalues --  -20.59810 -20.58265 -20.57994 -20.57559 -20.56919
 Alpha  occ. eigenvalues --  -20.55408  -1.32959  -1.30700  -1.30363  -1.29057
 Alpha  occ. eigenvalues --   -1.28252  -1.27309  -0.74809  -0.73266  -0.72153
 Alpha  occ. eigenvalues --   -0.71362  -0.71291  -0.70592  -0.64898  -0.62040
 Alpha  occ. eigenvalues --   -0.61410  -0.58961  -0.58841  -0.56344  -0.53299
 Alpha  occ. eigenvalues --   -0.52635  -0.52395  -0.51883  -0.51291  -0.50174
 Alpha virt. eigenvalues --    0.02758   0.04546   0.04770   0.05179   0.06179
 Alpha virt. eigenvalues --    0.07739   0.08168   0.08551   0.08923   0.10144
 Alpha virt. eigenvalues --    0.10852   0.12105   0.15906   0.18897   0.19649

 Mulliken charges:
               1
     1  H    0.248097
     2  H    0.187255
     3  H    0.319562
     4  H    0.300694
     5  H    0.279207
     6  H    0.230882
     7  H    0.217523
     8  H    0.344525
     9  H    0.227836
    10  H    0.313971
    11  H    0.346816
    12  H    0.190794
    13  O   -0.580509
    14  O   -0.532095
    15  O   -0.482635
    16  O   -0.629370
    17  O   -0.451626
    18  O   -0.530928
 Sum of Mulliken charges =  -0.00000

 Dipole moment (field-independent basis, Debye):
    X=              0.0692    Y=             -1.6163    Z=             -0.1717  Tot=              1.6269

 Test job not archived.
 1\1\GINC-SE368\SP\RHF\Aug-CC-pVDZ\H12O6\OHZDE\08-Apr-2025\0\\#t hf aug
 -cc-pvdz iop(5/13=1,5/36=2,99/5=2) pseudo=read geom=check guess=(read,
 tcheck) scf=(maxcycle=1)\\title\\0,1\H,0,2.28073,0.580962,-0.417983\H,
 0,-2.25354,-1.66303,-1.29838\H,0,-2.41468,-0.307874,-0.531703\H,0,2.28
 09,-1.23565,-1.52703\H,0,1.78027,-1.54399,0.0271203\H,0,-0.132769,-1.9
 7157,1.66123\H,0,3.01142,1.93997,0.00184304\H,0,-0.866234,-1.49863,0.4
 22735\H,0,-0.0960079,0.321558,1.12302\H,0,0.646009,1.57297,0.573898\H,
 0,-1.39151,1.33654,-0.171276\H,0,-2.91827,1.71689,0.0721818\O,0,2.5828

 Normal termination of Gaussian 16 at Tue Apr  8 21:05:40 2025.
