 Gaussian 16, Revision C.01,

 ----------------------------------------------------------------------
 #t hf aug-cc-pvdz symm=none int=(grid=ultrafine) guess=(read,tcheck) s
 table=(opt,rrhf)
 ----------------------------------------------------------------------
 -----
 title
 -----
 Symbolic Z-matrix:
 Charge =  0 Multiplicity = 1

 SCF Done:  E(RHF) =  -1018.15745913     A.U. after   15 cycles
 Normal termination of Gaussian 16 at Tue Apr  8 20:45:14 2025.
 Gaussian 16:  ES64L-G16RevC.01  3-Jul-2019

 ----------------------------------------------------------------------
 #t hf aug-cc-pvdz iop(5/13=1,5/36=2,99/5=2) pseudo=read geom=check gue
 ss=(read,tcheck) scf=(maxcycle=1)
 ----------------------------------------------------------------------
 -----
 title
 -----
 Structure from the checkpoint file:  "ANI1ccx_171_conf1_mol2.chk"
 Charge =  0 Multiplicity = 1

                         Standard orientation:
 ---------------------------------------------------------------------
 Center     Atomic      Atomic             Coordinates (Angstroms)
 Number     Number       Type             X           Y           Z
 ---------------------------------------------------------------------
      1          6           0        0.927535   -1.278589    1.255139
      2          6           0       -2.464819   -1.678171   -0.948365
      3          6           0       -2.511500    0.854132   -0.851094
      4          6           0       -1.259851    2.594609    0.519438
      5          6           0       -1.145001    1.415139   -0.511802
      6          6           0       -2.512130   -0.391545   -1.752031
      7          6           0        4.223781   -0.654030   -0.221668
      8          6           0        2.866011   -0.578329   -0.311411
      9          6           0        1.886971   -1.640709    0.111881
     10          6           0       -0.308443   -0.351971    0.886484
     11          6           0        3.621919    1.357922   -0.888914
     12          1           0       -0.738121    1.880020   -1.402261
     13          1           0       -2.362802    3.969469    0.997055
     14          1           0       -3.450308   -2.702942    0.274824
     15          1           0       -1.610150   -0.395884   -2.386271
     16          1           0       -3.383360   -0.461315   -2.420021
     17          1           0       -3.125981    1.666808   -1.269461
     18          1           0       -3.089480    0.541859    0.063254
     19          1           0        0.795764    0.713000   -0.413996
     20          1           0        3.719249    2.387372   -1.252381
     21          1           0        4.831831   -1.538487   -0.100400
     22          1           0        1.386701   -1.977199   -0.788828
     23          1           0        2.469552   -2.518479    0.386243
     24          1           0        1.489321   -0.688413    1.978209
     25          1           0       -0.196846   -2.955140    1.194099
     26          1           0       -0.127907   -2.231440    2.636269
     27          1           0        5.649740    0.826835   -0.781973
     28          7           0        0.447951   -2.511990    1.877359
     29          7           0        2.506310    0.674961   -0.718340
     30          7           0        4.684940    0.599399   -0.556696
     31          7           0       -0.119085    0.478473   -0.120636
     32          8           0       -3.607309   -1.964852   -0.323787
     33          8           0       -1.395040   -0.436905    1.503289
     34          8           0       -0.385479    3.023250    1.232339
     35          8           0       -1.495608   -2.394511   -0.847613
     36          8           0       -2.472172    3.136429    0.459249
 ---------------------------------------------------------------------

 SCF Done:  E(RHF) =  -1018.46150274     A.U. after    2 cycles

 The electronic state is 1-A.
 Alpha  occ. eigenvalues --  -20.63065 -20.61620 -20.56190 -20.55154 -20.51649
 Alpha  occ. eigenvalues --  -15.70330 -15.62645 -15.62360 -15.58787 -11.39721
 Alpha  occ. eigenvalues --  -11.39183 -11.34535 -11.33168 -11.29950 -11.27552
 Alpha  occ. eigenvalues --  -11.27183 -11.27012 -11.25573 -11.24558 -11.23568
 Alpha  occ. eigenvalues --   -1.43290  -1.42307  -1.33290  -1.32612  -1.32059
 Alpha  occ. eigenvalues --   -1.31500  -1.20380  -1.15889  -1.14275  -1.07458
 Alpha  occ. eigenvalues --   -1.04650  -1.00260  -0.96719  -0.88915  -0.87347
 Alpha  occ. eigenvalues --   -0.84550  -0.82894  -0.81937  -0.78791  -0.76704
 Alpha  occ. eigenvalues --   -0.75680  -0.72714  -0.71570  -0.70938  -0.69979
 Alpha  occ. eigenvalues --   -0.68436  -0.65878  -0.65339  -0.64373  -0.64010
 Alpha  occ. eigenvalues --   -0.62631  -0.62323  -0.61684  -0.61441  -0.60034
 Alpha  occ. eigenvalues --   -0.58718  -0.57565  -0.57418  -0.54808  -0.54652
 Alpha  occ. eigenvalues --   -0.53116  -0.52158  -0.52022  -0.50770  -0.49963
 Alpha  occ. eigenvalues --   -0.48852  -0.48584  -0.45711  -0.45617  -0.44809
 Alpha  occ. eigenvalues --   -0.42482  -0.41333  -0.38923  -0.37651  -0.33018
 Alpha virt. eigenvalues --    0.01778   0.02849   0.03693   0.04256   0.04788
 Alpha virt. eigenvalues --    0.05130   0.05666   0.06463   0.06703   0.06923
 Alpha virt. eigenvalues --    0.07658   0.07996   0.08732   0.09156   0.09716

 Mulliken charges:
               1
     1  C    0.266765
     2  C    0.613707
     3  C    0.550157
     4  C    1.023142
     5  C    0.030452
     6  C    0.299104
     7  C    1.068260
     8  C   -0.283367
     9  C    0.641941
    10  C    0.016596
    11  C    0.673969
    12  H   -0.219524
    13  H    0.281394
    14  H    0.160762
    15  H   -0.005030
    16  H   -0.012344
    17  H   -0.133281
    18  H    0.083405
    19  H   -0.213777
    20  H   -0.268859
    21  H   -0.263944
    22  H    0.012726
    23  H   -0.064560
    24  H   -0.183481
    25  H    0.130887
    26  H    0.002136
    27  H   -0.066766
    28  N   -0.334805
    29  N   -0.463401
    30  N   -0.585513
    31  N    0.198486
    32  O   -0.502022
    33  O   -0.751040
    34  O   -0.527959
    35  O   -0.525776
    36  O   -0.648440
 Sum of Mulliken charges =  -0.00000

 Dipole moment (field-independent basis, Debye):
    X=              4.1403    Y=              2.7879    Z=             -4.4013  Tot=              6.6548

 Test job not archived.
 1\1\GINC-SE220\SP\RHF\Aug-CC-pVDZ\C11H16N4O5\OHZDE\08-Apr-2025\0\\#t h
 f aug-cc-pvdz iop(5/13=1,5/36=2,99/5=2) pseudo=read geom=check guess=(
 read,tcheck) scf=(maxcycle=1)\\title\\0,1\C,0,0.927534,-1.27859,1.2551
 4\C,0,-2.46482,-1.67817,-0.948364\C,0,-2.5115,0.854133,-0.851093\C,0,-
 1.25985,2.59461,0.519439\C,0,-1.145,1.41514,-0.511801\C,0,-2.51213,-0.
 391544,-1.75203\C,0,4.22378,-0.654032,-0.221667\C,0,2.86601,-0.578331,
 -0.31141\C,0,1.88697,-1.64071,0.111882\C,0,-0.308443,-0.351971,0.88648
 5\C,0,3.62192,1.35792,-0.888913\H,0,-0.73812,1.88002,-1.40226\H,0,-2.3

 Normal termination of Gaussian 16 at Tue Apr  8 20:46:29 2025.
