 Gaussian 16, Revision C.01,

 ----------------------------------------------------------------------
 #t hf aug-cc-pvdz symm=none int=(grid=ultrafine) guess=(read,tcheck) s
 table=(opt,rrhf)
 ----------------------------------------------------------------------
 -----
 title
 -----
 Symbolic Z-matrix:
 Charge =  0 Multiplicity = 1

 SCF Done:  E(RHF) =  -423.360642521     A.U. after   17 cycles
 Normal termination of Gaussian 16 at Tue Apr  8 21:40:52 2025.
 Gaussian 16:  ES64L-G16RevC.01  3-Jul-2019

 ----------------------------------------------------------------------
 #t hf aug-cc-pvdz iop(5/13=1,5/36=2,99/5=2) pseudo=read geom=check gue
 ss=(read,tcheck) scf=(maxcycle=1)
 ----------------------------------------------------------------------
 -----
 title
 -----
 Structure from the checkpoint file:  "ANI1ccx_477_conf1_mol1.chk"
 Charge =  0 Multiplicity = 1

                         Standard orientation:
 ---------------------------------------------------------------------
 Center     Atomic      Atomic             Coordinates (Angstroms)
 Number     Number       Type             X           Y           Z
 ---------------------------------------------------------------------
      1          6           0       -0.392481   -0.298280   -0.017908
      2          6           0        0.555165    0.840581    0.007845
      3          1           0        2.671990    0.452680   -0.006339
      4          7           0        1.499249   -1.265222   -0.004806
      5          7           0        0.239505   -1.485511    0.006624
      6          7           0       -1.691500   -0.159469    0.024309
      7          7           0       -2.799210   -0.051040   -0.014637
      8          7           0        1.731060    0.080065   -0.000554
      9          8           0        0.437273    2.057719   -0.001228
 ---------------------------------------------------------------------

 SCF Done:  E(RHF) =  -423.484379902     A.U. after    2 cycles

 The electronic state is 1-A.
 Alpha  occ. eigenvalues --  -20.56533 -15.87795 -15.82272 -15.75471 -15.72048
 Alpha  occ. eigenvalues --  -15.71828 -11.40909 -11.35122  -1.50598  -1.43180
 Alpha  occ. eigenvalues --   -1.35454  -1.21668  -1.15973  -0.99059  -0.89355
 Alpha  occ. eigenvalues --   -0.80492  -0.74574  -0.74289  -0.72191  -0.68727
 Alpha  occ. eigenvalues --   -0.66056  -0.64500  -0.57077  -0.55433  -0.52375
 Alpha  occ. eigenvalues --   -0.45429  -0.43698  -0.34818
 Alpha virt. eigenvalues --    0.03516   0.04154   0.05591   0.06132   0.07425
 Alpha virt. eigenvalues --    0.07918   0.09434   0.11278   0.12208   0.12381
 Alpha virt. eigenvalues --    0.13416   0.14443   0.16658   0.16969   0.17471

 Mulliken charges:
               1
     1  C    0.901527
     2  C    0.435045
     3  H   -0.019281
     4  N   -0.157969
     5  N   -0.420145
     6  N    0.100500
     7  N   -0.212180
     8  N   -0.127668
     9  O   -0.499827
 Sum of Mulliken charges =  -0.00000

 Dipole moment (field-independent basis, Debye):
    X=             -0.6665    Y=             -1.0678    Z=              0.0598  Tot=              1.2601

 Test job not archived.
 1\1\GINC-SE074\SP\RHF\Aug-CC-pVDZ\C2H1N5O1\OHZDE\08-Apr-2025\0\\#t hf
 aug-cc-pvdz iop(5/13=1,5/36=2,99/5=2) pseudo=read geom=check guess=(re
 ad,tcheck) scf=(maxcycle=1)\\title\\0,1\C,0,-0.392481,-0.298279,-0.017
 9084\C,0,0.555164,0.840583,0.00784483\H,0,2.67199,0.452683,-0.00633854
 \N,0,1.49925,-1.26522,-0.00480592\N,0,0.239506,-1.48551,0.00662364\N,0
 ,-1.6915,-0.159469,0.024309\N,0,-2.79921,-0.0510415,-0.0146374\N,0,1.7
 3106,0.0800681,-0.00055444\O,0,0.437271,2.05772,-0.00122811\\Version=E
 S64L-G16RevC.01\State=1-A\HF=-423.4843799\RMSD=4.906e-03\Dipole=-0.262

 Normal termination of Gaussian 16 at Tue Apr  8 21:40:56 2025.
