 Gaussian 16, Revision C.01,

 ----------------------------------------------------------------------
 #t hf aug-cc-pvdz symm=none int=(grid=ultrafine) guess=(read,tcheck) s
 table=(opt,rrhf)
 ----------------------------------------------------------------------
 -----
 title
 -----
 Symbolic Z-matrix:
 Charge =  0 Multiplicity = 1

 SCF Done:  E(RHF) =  -905.376291576     A.U. after   15 cycles
 Normal termination of Gaussian 16 at Tue Apr  8 22:05:03 2025.
 Gaussian 16:  ES64L-G16RevC.01  3-Jul-2019

 ----------------------------------------------------------------------
 #t hf aug-cc-pvdz iop(5/13=1,5/36=2,99/5=2) pseudo=read geom=check gue
 ss=(read,tcheck) scf=(maxcycle=1)
 ----------------------------------------------------------------------
 -----
 title
 -----
 Structure from the checkpoint file:  "ANI1ccx_56_conf15_mol2.chk"
 Charge =  0 Multiplicity = 1

                         Standard orientation:
 ---------------------------------------------------------------------
 Center     Atomic      Atomic             Coordinates (Angstroms)
 Number     Number       Type             X           Y           Z
 ---------------------------------------------------------------------
      1          6           0       -2.026660   -0.178516    0.526136
      2          6           0        3.599869   -1.745123    0.749607
      3          6           0        2.064880   -0.896249   -0.634043
      4          6           0        1.112191    0.130872   -1.200490
      5          6           0        1.472633    2.397169    0.115722
      6          6           0        2.086988   -2.246112   -0.848365
      7          6           0       -3.060901   -1.616477   -1.390590
      8          6           0       -3.137491   -1.118057    0.039478
      9          6           0       -1.935758    1.117632   -0.232472
     10          6           0        0.601626    1.115970   -0.059235
     11          1           0        0.592741    0.575811    0.897893
     12          1           0        2.763932    1.175578    0.771384
     13          1           0        3.335077   -3.713123    0.050983
     14          1           0        4.281959   -1.822224    1.566690
     15          1           0        1.457478   -2.885611   -1.456040
     16          1           0        1.468431    0.660259   -2.066420
     17          1           0        0.220685   -0.324901   -1.532100
     18          1           0       -0.719010    2.521461   -0.942594
     19          1           0       -3.884952   -2.287416   -1.550830
     20          1           0       -3.196620   -0.774874   -2.046100
     21          1           0       -3.048571   -1.971387    1.817100
     22          1           0       -4.116410   -0.630149    0.094143
     23          1           0       -1.110890   -0.779538    0.448203
     24          1           0       -3.021009    0.767208    2.071920
     25          1           0       -1.491699    0.285751    2.515540
     26          1           0       -2.089972   -2.123788   -1.514890
     27          7           0       -2.291749    0.064655    1.933690
     28          7           0       -0.723781    1.663881   -0.390214
     29          7           0        3.011770   -0.584394    0.356751
     30          7           0        3.099788   -2.734313   -0.002116
     31          8           0        1.072964    3.462659   -0.223523
     32          8           0       -2.933088    1.706973   -0.641563
     33          8           0       -3.040322   -2.258787    0.866504
     34          8           0        2.678243    2.175588    0.647817
 ---------------------------------------------------------------------

 SCF Done:  E(RHF) =  -905.648682572     A.U. after    2 cycles

 The electronic state is 1-A.
 Alpha  occ. eigenvalues --  -20.60931 -20.56168 -20.55763 -20.52831 -15.72843
 Alpha  occ. eigenvalues --  -15.65647 -15.64855 -15.63023 -11.39759 -11.36043
 Alpha  occ. eigenvalues --  -11.35754 -11.32541 -11.30747 -11.30565 -11.28420
 Alpha  occ. eigenvalues --  -11.28362 -11.27886 -11.22008  -1.41837  -1.34436
 Alpha  occ. eigenvalues --   -1.34201  -1.33355  -1.31296  -1.20952  -1.17125
 Alpha  occ. eigenvalues --   -1.16338  -1.07931  -1.02631  -1.02101  -0.94949
 Alpha  occ. eigenvalues --   -0.92904  -0.86742  -0.83759  -0.82206  -0.80666
 Alpha  occ. eigenvalues --   -0.78725  -0.77140  -0.75089  -0.73050  -0.70447
 Alpha  occ. eigenvalues --   -0.67964  -0.66603  -0.66147  -0.65541  -0.65258
 Alpha  occ. eigenvalues --   -0.64926  -0.63886  -0.63705  -0.61370  -0.60814
 Alpha  occ. eigenvalues --   -0.59308  -0.57339  -0.56875  -0.55968  -0.55559
 Alpha  occ. eigenvalues --   -0.54348  -0.53701  -0.52633  -0.49711  -0.48095
 Alpha  occ. eigenvalues --   -0.47810  -0.46295  -0.45391  -0.44652  -0.42791
 Alpha  occ. eigenvalues --   -0.39947  -0.39331  -0.35799
 Alpha virt. eigenvalues --    0.00976   0.02303   0.03328   0.03829   0.04888
 Alpha virt. eigenvalues --    0.04968   0.05842   0.06247   0.06753   0.07310
 Alpha virt. eigenvalues --    0.07772   0.08112   0.08772   0.09248   0.09557

 Mulliken charges:
               1
     1  C    0.217575
     2  C    0.963346
     3  C   -0.078915
     4  C    0.811936
     5  C    0.774667
     6  C    1.224972
     7  C    0.543515
     8  C    0.813699
     9  C    0.423875
    10  C    0.078388
    11  H   -0.275757
    12  H    0.312397
    13  H   -0.084243
    14  H   -0.327002
    15  H   -0.311643
    16  H   -0.084000
    17  H   -0.269872
    18  H    0.027895
    19  H   -0.051790
    20  H    0.042324
    21  H    0.250237
    22  H   -0.183394
    23  H   -0.390608
    24  H    0.101868
    25  H    0.017136
    26  H    0.094636
    27  N   -0.636396
    28  N   -0.343502
    29  N   -0.829080
    30  N   -0.572377
    31  O   -0.459793
    32  O   -0.618799
    33  O   -0.698766
    34  O   -0.482530
 Sum of Mulliken charges =   0.00000

 Dipole moment (field-independent basis, Debye):
    X=              5.2494    Y=             -8.4502    Z=              1.5094  Tot=             10.0618

 Test job not archived.
 1\1\GINC-SE051\SP\RHF\Aug-CC-pVDZ\C10H16N4O4\OHZDE\08-Apr-2025\0\\#t h
 f aug-cc-pvdz iop(5/13=1,5/36=2,99/5=2) pseudo=read geom=check guess=(
 read,tcheck) scf=(maxcycle=1)\\title\\0,1\C,0,-2.02666,-0.178518,0.526
 136\C,0,3.59987,-1.74512,0.749607\C,0,2.06488,-0.896247,-0.634043\C,0,
 1.11219,0.130873,-1.20049\C,0,1.47263,2.39717,0.115722\C,0,2.08699,-2.
 24611,-0.848365\C,0,-3.0609,-1.61648,-1.39059\C,0,-3.13749,-1.11806,0.
 0394779\C,0,-1.93576,1.11763,-0.232472\C,0,0.601624,1.11597,-0.0592351
 \H,0,0.59274,0.575811,0.897893\H,0,2.76393,1.17558,0.771384\H,0,3.3350

 Normal termination of Gaussian 16 at Tue Apr  8 22:06:01 2025.
