 Gaussian 16, Revision C.01,

 ----------------------------------------------------------------------
 #t hf aug-cc-pvdz symm=none int=(grid=ultrafine) guess=(read,tcheck) s
 table=(opt,rrhf)
 ----------------------------------------------------------------------
 -----
 title
 -----
 Symbolic Z-matrix:
 Charge =  0 Multiplicity = 1

 SCF Done:  E(RHF) =  -414.375088959     A.U. after   14 cycles
 Normal termination of Gaussian 16 at Tue Apr  8 21:35:41 2025.
 Gaussian 16:  ES64L-G16RevC.01  3-Jul-2019

 ----------------------------------------------------------------------
 #t hf aug-cc-pvdz iop(5/13=1,5/36=2,99/5=2) pseudo=read geom=check gue
 ss=(read,tcheck) scf=(maxcycle=1)
 ----------------------------------------------------------------------
 -----
 title
 -----
 Structure from the checkpoint file:  "ANI1ccx_410_conf3_mol2.chk"
 Charge =  0 Multiplicity = 1

                         Standard orientation:
 ---------------------------------------------------------------------
 Center     Atomic      Atomic             Coordinates (Angstroms)
 Number     Number       Type             X           Y           Z
 ---------------------------------------------------------------------
      1          6           0        2.452111    0.030554    0.195147
      2          1           0       -0.466234   -0.146757   -0.004218
      3          1           0       -3.189349    0.714193   -0.651793
      4          1           0        1.640122    1.750919    0.065756
      5          1           0        2.952441    0.462847    1.072100
      6          8           0       -1.062389    0.363590    0.556683
      7          8           0       -2.261469   -0.372820    0.559778
      8          8           0       -2.876109   -0.192363   -0.707726
      9          8           0        1.638751    0.910450   -0.410492
     10          8           0        2.605010   -1.079422   -0.204835
 ---------------------------------------------------------------------

 SCF Done:  E(RHF) =  -414.512749899     A.U. after    2 cycles

 The electronic state is 1-A.
 Alpha  occ. eigenvalues --  -20.71366 -20.65731 -20.65600 -20.65445 -20.58993
 Alpha  occ. eigenvalues --  -11.42143  -1.50545  -1.45040  -1.36256  -1.33825
 Alpha  occ. eigenvalues --   -1.13045  -0.89281  -0.82114  -0.80613  -0.70928
 Alpha  occ. eigenvalues --   -0.70568  -0.70110  -0.68042  -0.66722  -0.63038
 Alpha  occ. eigenvalues --   -0.54487  -0.53920  -0.52581  -0.51541  -0.49883
 Alpha virt. eigenvalues --    0.02190   0.04249   0.05146   0.07827   0.08249
 Alpha virt. eigenvalues --    0.11120   0.12177   0.13671   0.13990   0.15217
 Alpha virt. eigenvalues --    0.16673   0.17893   0.19379   0.19622   0.20410

 Mulliken charges:
               1
     1  C    0.758556
     2  H    0.283786
     3  H    0.228298
     4  H    0.227186
     5  H   -0.151182
     6  O   -0.195584
     7  O   -0.113284
     8  O   -0.184519
     9  O   -0.472062
    10  O   -0.381195
 Sum of Mulliken charges =  -0.00000

 Dipole moment (field-independent basis, Debye):
    X=              1.0649    Y=              4.7745    Z=              1.2528  Tot=              5.0497

 Test job not archived.
 1\1\GINC-SE402\SP\RHF\Aug-CC-pVDZ\C1H4O5\OHZDE\08-Apr-2025\0\\#t hf au
 g-cc-pvdz iop(5/13=1,5/36=2,99/5=2) pseudo=read geom=check guess=(read
 ,tcheck) scf=(maxcycle=1)\\title\\0,1\C,0,2.45211,0.0305551,0.195147\H
 ,0,-0.466235,-0.146757,-0.00421839\H,0,-3.18935,0.714192,-0.651793\H,0
 ,1.64012,1.75092,0.0657561\H,0,2.95244,0.462849,1.0721\O,0,-1.06239,0.
 36359,0.556683\O,0,-2.26147,-0.372821,0.559778\O,0,-2.87611,-0.192364,
 -0.707726\O,0,1.63875,0.910451,-0.410492\O,0,2.60501,-1.07942,-0.20483
 5\\Version=ES64L-G16RevC.01\State=1-A\HF=-414.5127499\RMSD=2.255e-03\D

 Normal termination of Gaussian 16 at Tue Apr  8 21:35:44 2025.
