 Gaussian 16, Revision C.01,

 ----------------------------------------------------------------------
 #t hf aug-cc-pvdz symm=none int=(grid=ultrafine) guess=(read,tcheck) s
 table=(opt,rrhf)
 ----------------------------------------------------------------------
 -----
 title
 -----
 Symbolic Z-matrix:
 Charge =  0 Multiplicity = 1

 SCF Done:  E(RHF) =  -279.367956296     a.u. after   32 cycles
 Normal termination of Gaussian 16 at Tue Apr  8 21:09:28 2025.
 Gaussian 16:  ES64L-G16RevC.01  3-Jul-2019

 ----------------------------------------------------------------------
 #t hf aug-cc-pvdz iop(5/13=1,5/36=2,99/5=2) pseudo=read geom=check gue
 ss=(read,tcheck) scf=(maxcycle=1)
 ----------------------------------------------------------------------
 -----
 title
 -----
 Structure from the checkpoint file:  "ANI1ccx_1850_conf4_mol2.chk"
 Charge =  0 Multiplicity = 1

                         Standard orientation:
 ---------------------------------------------------------------------
 Center     Atomic      Atomic             Coordinates (Angstroms)
 Number     Number       Type             X           Y           Z
 ---------------------------------------------------------------------
      1          1           0       -3.273248    0.367847   -0.229447
      2          7           0       -2.386078   -0.182252   -0.410097
      3          8           0       -1.609058    0.052327    0.486402
      4          8           0        1.803082    0.573465   -0.120615
      5          8           0        2.302952   -0.512303    0.021729
 ---------------------------------------------------------------------

 SCF Done:  E(RHF) =  -279.454761161     A.U. after    2 cycles

 The electronic state is 1-A.
 Alpha  occ. eigenvalues --  -20.74747 -20.74637 -20.67310 -15.78425  -1.60216
 Alpha  occ. eigenvalues --   -1.48433  -1.08571  -0.97786  -0.78806  -0.75755
 Alpha  occ. eigenvalues --   -0.75696  -0.67690  -0.66814  -0.60859  -0.48800
 Alpha  occ. eigenvalues --   -0.43926
 Alpha virt. eigenvalues --    0.00707   0.03593   0.05896   0.10895   0.12461
 Alpha virt. eigenvalues --    0.13841   0.15904   0.17731   0.19173   0.19211
 Alpha virt. eigenvalues --    0.22839   0.23664   0.24348   0.25523   0.28572

 Mulliken charges:
               1
     1  H    0.136712
     2  N    0.213683
     3  O   -0.350147
     4  O    0.008533
     5  O   -0.008780
 Sum of Mulliken charges =  -0.00000

 Dipole moment (field-independent basis, Debye):
    X=             -2.0757    Y=              0.6861    Z=             -0.4188  Tot=              2.2259

 Test job not archived.
 1\1\GINC-SE090\SP\RHF\Aug-CC-pVDZ\H1N1O3\OHZDE\08-Apr-2025\0\\#t hf au
 g-cc-pvdz iop(5/13=1,5/36=2,99/5=2) pseudo=read geom=check guess=(read
 ,tcheck) scf=(maxcycle=1)\\title\\0,1\H,0,-3.27325,0.367847,-0.229447\
 N,0,-2.38608,-0.182252,-0.410097\O,0,-1.60906,0.0523271,0.486402\O,0,1
 .80308,0.573465,-0.120615\O,0,2.30295,-0.512303,0.0217289\\Version=ES6
 4L-G16RevC.01\State=1-A\HF=-279.4547612\RMSD=3.646e-03\Dipole=-0.81665
 39,0.2699212,-0.1647719\Quadrupole=5.5453303,-2.1144084,-3.4309219,-1.
 1058501,0.3127149,-0.9201259\PG=C01 [X(H1N1O3)]\\@

 Normal termination of Gaussian 16 at Tue Apr  8 21:09:29 2025.
