 Gaussian 16, Revision C.01,

 ----------------------------------------------------------------------
 #t hf aug-cc-pvdz symm=none int=(grid=ultrafine) guess=(read,tcheck) s
 table=(opt,rrhf)
 ----------------------------------------------------------------------
 -----
 title
 -----
 Symbolic Z-matrix:
 Charge =  0 Multiplicity = 1

 SCF Done:  E(RHF) =  -432.546686973     A.U. after   13 cycles
 Normal termination of Gaussian 16 at Tue Apr  8 21:44:57 2025.
 Gaussian 16:  ES64L-G16RevC.01  3-Jul-2019

 ----------------------------------------------------------------------
 #t hf aug-cc-pvdz iop(5/13=1,5/36=2,99/5=2) pseudo=read geom=check gue
 ss=(read,tcheck) scf=(maxcycle=1)
 ----------------------------------------------------------------------
 -----
 title
 -----
 Structure from the checkpoint file:  "ANI1ccx_535_conf1_mol2.chk"
 Charge =  0 Multiplicity = 1

                         Standard orientation:
 ---------------------------------------------------------------------
 Center     Atomic      Atomic             Coordinates (Angstroms)
 Number     Number       Type             X           Y           Z
 ---------------------------------------------------------------------
      1          6           0        0.147806    0.637235   -0.259444
      2          6           0        1.267141   -1.230890   -0.100000
      3          1           0       -3.624990    0.264756   -0.071387
      4          1           0       -2.432330   -0.523192    0.541155
      5          1           0        1.363920    1.469690    1.198970
      6          1           0        1.861311   -1.706270   -0.859705
      7          1           0        0.930268   -1.945050    0.637918
      8          7           0        1.383090    0.930370    0.333714
      9          8           0       -3.434669   -0.583741    0.386091
     10          8           0       -0.804384    1.380630   -0.370183
     11          8           0        2.095340   -0.248325    0.416051
     12          8           0        0.110027   -0.612389   -0.635243
 ---------------------------------------------------------------------

 SCF Done:  E(RHF) =  -432.688009466     A.U. after    2 cycles

 The electronic state is 1-A.
 Alpha  occ. eigenvalues --  -20.67285 -20.66585 -20.57739 -20.56700 -15.74059
 Alpha  occ. eigenvalues --  -11.45753 -11.39838  -1.53543  -1.42517  -1.36335
 Alpha  occ. eigenvalues --   -1.27580  -1.17140  -0.98769  -0.90450  -0.80994
 Alpha  occ. eigenvalues --   -0.78608  -0.71188  -0.70527  -0.68739  -0.66125
 Alpha  occ. eigenvalues --   -0.65511  -0.63629  -0.60595  -0.57786  -0.50888
 Alpha  occ. eigenvalues --   -0.50605  -0.50507  -0.43506
 Alpha virt. eigenvalues --    0.02573   0.03698   0.04632   0.05864   0.07519
 Alpha virt. eigenvalues --    0.08815   0.09486   0.11252   0.12065   0.12869
 Alpha virt. eigenvalues --    0.14228   0.14953   0.15896   0.17112   0.17367

 Mulliken charges:
               1
     1  C    0.651192
     2  C    1.225998
     3  H    0.167715
     4  H    0.186851
     5  H    0.106581
     6  H   -0.262704
     7  H   -0.196048
     8  N    0.025393
     9  O   -0.361024
    10  O   -0.436615
    11  O   -0.634842
    12  O   -0.472497
 Sum of Mulliken charges =   0.00000

 Dipole moment (field-independent basis, Debye):
    X=              4.4610    Y=             -0.9368    Z=              1.1872  Tot=              4.7103

 Test job not archived.
 1\1\GINC-SE096\SP\RHF\Aug-CC-pVDZ\C2H5N1O4\OHZDE\08-Apr-2025\0\\#t hf
 aug-cc-pvdz iop(5/13=1,5/36=2,99/5=2) pseudo=read geom=check guess=(re
 ad,tcheck) scf=(maxcycle=1)\\title\\0,1\C,0,0.147806,0.637235,-0.25944
 4\C,0,1.26714,-1.23089,-0.1\H,0,-3.62499,0.264757,-0.0713871\H,0,-2.43
 233,-0.523191,0.541155\H,0,1.36392,1.46969,1.19897\H,0,1.86131,-1.7062
 7,-0.859705\H,0,0.930267,-1.94505,0.637918\N,0,1.38309,0.93037,0.33371
 4\O,0,-3.43467,-0.58374,0.386091\O,0,-0.804384,1.38063,-0.370183\O,0,2
 .09534,-0.248325,0.416051\O,0,0.110026,-0.612389,-0.635243\\Version=ES

 Normal termination of Gaussian 16 at Tue Apr  8 21:45:02 2025.
