 Gaussian 16, Revision C.01,

 ----------------------------------------------------------------------
 #t hf aug-cc-pvdz symm=none int=(grid=ultrafine) guess=(read,tcheck) s
 table=(opt,rrhf)
 ----------------------------------------------------------------------
 -----
 title
 -----
 Symbolic Z-matrix:
 Charge =  0 Multiplicity = 1

 SCF Done:  E(RHF) =  -405.918479645     A.U. after   15 cycles
 Normal termination of Gaussian 16 at Tue Apr  8 21:46:18 2025.
 Gaussian 16:  ES64L-G16RevC.01  3-Jul-2019

 ----------------------------------------------------------------------
 #t hf aug-cc-pvdz iop(5/13=1,5/36=2,99/5=2) pseudo=read geom=check gue
 ss=(read,tcheck) scf=(maxcycle=1)
 ----------------------------------------------------------------------
 -----
 title
 -----
 Structure from the checkpoint file:  "ANI1ccx_557_conf2_mol1.chk"
 Charge =  0 Multiplicity = 1

                         Standard orientation:
 ---------------------------------------------------------------------
 Center     Atomic      Atomic             Coordinates (Angstroms)
 Number     Number       Type             X           Y           Z
 ---------------------------------------------------------------------
      1          6           0        1.298830   -0.000995    0.092428
      2          6           0       -0.626630    0.721217    0.101905
      3          1           0        3.095349   -0.852434   -0.473100
      4          1           0        3.269960    0.755520   -0.416258
      5          1           0       -2.433509    1.417793    0.689407
      6          1           0       -1.643318    2.223533   -0.607289
      7          1           0       -2.044003   -1.818507    0.780031
      8          1           0       -2.386962   -1.025857   -0.680114
      9          7           0        2.701600    0.005584   -0.016912
     10          7           0        0.561552    1.191970    0.084308
     11          7           0       -1.803459    1.349063   -0.106963
     12          7           0       -0.639765   -0.626441    0.067831
     13          7           0       -1.683922   -1.519317   -0.154965
     14          7           0        0.593892   -1.118200    0.061177
 ---------------------------------------------------------------------

 SCF Done:  E(RHF) =  -406.036914405     A.U. after    2 cycles

 The electronic state is 1-A.
 Alpha  occ. eigenvalues --  -15.71410 -15.67108 -15.65224 -15.63154 -15.62921
 Alpha  occ. eigenvalues --  -15.61316 -11.35164 -11.33751  -1.39952  -1.23724
 Alpha  occ. eigenvalues --   -1.22441  -1.13957  -1.11311  -0.98989  -0.84074
 Alpha  occ. eigenvalues --   -0.80542  -0.74599  -0.72385  -0.68822  -0.67155
 Alpha  occ. eigenvalues --   -0.62565  -0.61141  -0.58604  -0.51827  -0.49292
 Alpha  occ. eigenvalues --   -0.46261  -0.44952  -0.42102  -0.38942  -0.30250
 Alpha virt. eigenvalues --    0.02088   0.03353   0.04290   0.04844   0.07034
 Alpha virt. eigenvalues --    0.07206   0.10703   0.10945   0.11855   0.12551
 Alpha virt. eigenvalues --    0.14122   0.14546   0.16169   0.16740   0.17127

 Mulliken charges:
               1
     1  C    1.013907
     2  C    0.577439
     3  H    0.025624
     4  H   -0.025068
     5  H    0.068015
     6  H    0.067159
     7  H    0.155177
     8  H    0.045809
     9  N   -0.406287
    10  N   -0.594809
    11  N   -0.261568
    12  N   -0.412405
    13  N    0.265410
    14  N   -0.518404
 Sum of Mulliken charges =  -0.00000

 Dipole moment (field-independent basis, Debye):
    X=             -2.9900    Y=              1.6770    Z=             -0.1941  Tot=              3.4337

 Test job not archived.
 1\1\GINC-SE404\SP\RHF\Aug-CC-pVDZ\C2H6N6\OHZDE\08-Apr-2025\0\\#t hf au
 g-cc-pvdz iop(5/13=1,5/36=2,99/5=2) pseudo=read geom=check guess=(read
 ,tcheck) scf=(maxcycle=1)\\title\\0,1\C,0,1.29883,-0.00099434,0.092428
 1\C,0,-0.62663,0.721216,0.101905\H,0,3.09535,-0.852431,-0.4731\H,0,3.2
 6996,0.755523,-0.416258\H,0,-2.43351,1.41779,0.689407\H,0,-1.64332,2.2
 2353,-0.607289\H,0,-2.044,-1.81851,0.780031\H,0,-2.38696,-1.02586,-0.6
 80114\N,0,2.7016,0.00558676,-0.0169123\N,0,0.561551,1.19197,0.0843079\
 N,0,-1.80346,1.34906,-0.106963\N,0,-0.639764,-0.626442,0.0678307\N,0,-

 Normal termination of Gaussian 16 at Tue Apr  8 21:46:23 2025.
