 Gaussian 16, Revision C.01,

 ----------------------------------------------------------------------
 #t hf aug-cc-pvdz symm=none int=(grid=ultrafine) guess=(read,tcheck) s
 table=(opt,rrhf)
 ----------------------------------------------------------------------
 -----
 title
 -----
 Symbolic Z-matrix:
 Charge =  0 Multiplicity = 1

 SCF Done:  E(RHF) =  -584.431671608     A.U. after   14 cycles
 Normal termination of Gaussian 16 at Tue Apr  8 22:10:52 2025.
 Gaussian 16:  ES64L-G16RevC.01  3-Jul-2019

 ----------------------------------------------------------------------
 #t hf aug-cc-pvdz iop(5/13=1,5/36=2,99/5=2) pseudo=read geom=check gue
 ss=(read,tcheck) scf=(maxcycle=1)
 ----------------------------------------------------------------------
 -----
 title
 -----
 Structure from the checkpoint file:  "ANI1ccx_940_conf6_mol1.chk"
 Charge =  0 Multiplicity = 1

                         Standard orientation:
 ---------------------------------------------------------------------
 Center     Atomic      Atomic             Coordinates (Angstroms)
 Number     Number       Type             X           Y           Z
 ---------------------------------------------------------------------
      1          6           0       -0.467338    0.212730    0.282561
      2          6           0        0.578576   -0.564524   -0.569339
      3          6           0        2.094540   -0.283926   -0.289571
      4          6           0       -1.912050   -0.124794   -0.212743
      5          1           0       -3.226280   -1.493450   -0.327968
      6          1           0        1.718790    1.602210   -0.131448
      7          1           0        0.345711   -0.472038   -1.633370
      8          1           0        0.503533   -1.637600   -0.321069
      9          1           0       -0.879124    0.260902    2.350330
     10          1           0        0.710342   -0.069839    1.993190
     11          1           0       -0.903470    1.867030   -0.613178
     12          7           0       -0.235879   -0.178991    1.673740
     13          8           0       -2.316470   -1.388660    0.047659
     14          8           0       -0.301496    1.586720    0.083175
     15          8           0        2.468590    0.994618   -0.072266
     16          8           0        2.884250   -1.185000   -0.299279
     17          8           0       -2.532460    0.712171   -0.796554
 ---------------------------------------------------------------------

 SCF Done:  E(RHF) =  -584.613270972     A.U. after    2 cycles

 The electronic state is 1-A.
 Alpha  occ. eigenvalues --  -20.66522 -20.62303 -20.61277 -20.61011 -20.56607
 Alpha  occ. eigenvalues --  -15.64236 -11.44052 -11.40970 -11.38763 -11.28122
 Alpha  occ. eigenvalues --   -1.46700  -1.42233  -1.39090  -1.36653  -1.33552
 Alpha  occ. eigenvalues --   -1.17801  -1.03980  -0.95098  -0.85516  -0.84368
 Alpha  occ. eigenvalues --   -0.79776  -0.76042  -0.74065  -0.70642  -0.70277
 Alpha  occ. eigenvalues --   -0.68183  -0.67095  -0.66239  -0.64524  -0.63475
 Alpha  occ. eigenvalues --   -0.60093  -0.57186  -0.56008  -0.54634  -0.52228
 Alpha  occ. eigenvalues --   -0.50790  -0.49712  -0.46098  -0.43564
 Alpha virt. eigenvalues --    0.02378   0.03708   0.04037   0.05342   0.06161
 Alpha virt. eigenvalues --    0.07189   0.07770   0.09512   0.09860   0.11284
 Alpha virt. eigenvalues --    0.11653   0.12204   0.12930   0.13712   0.14529

 Mulliken charges:
               1
     1  C    0.540348
     2  C    0.300612
     3  C    0.528213
     4  C    0.839573
     5  H    0.246847
     6  H    0.215296
     7  H    0.020790
     8  H    0.067297
     9  H   -0.015163
    10  H    0.021026
    11  H    0.200836
    12  N   -0.325956
    13  O   -0.576553
    14  O   -0.666062
    15  O   -0.484943
    16  O   -0.440074
    17  O   -0.472087
 Sum of Mulliken charges =  -0.00000

 Dipole moment (field-independent basis, Debye):
    X=             -5.0243    Y=              0.7903    Z=             -0.0863  Tot=              5.0868

 Test job not archived.
 1\1\GINC-SE186\SP\RHF\Aug-CC-pVDZ\C4H7N1O5\OHZDE\08-Apr-2025\0\\#t hf
 aug-cc-pvdz iop(5/13=1,5/36=2,99/5=2) pseudo=read geom=check guess=(re
 ad,tcheck) scf=(maxcycle=1)\\title\\0,1\C,0,-0.467338,0.21273,0.282561
 \C,0,0.578576,-0.564524,-0.569339\C,0,2.09454,-0.283926,-0.289571\C,0,
 -1.91205,-0.124794,-0.212743\H,0,-3.22628,-1.49345,-0.327968\H,0,1.718
 79,1.60221,-0.131448\H,0,0.345711,-0.472038,-1.63337\H,0,0.503533,-1.6
 376,-0.321069\H,0,-0.879124,0.260902,2.35033\H,0,0.710342,-0.0698391,1
 .99319\H,0,-0.90347,1.86703,-0.613178\N,0,-0.235879,-0.178991,1.67374\

 Normal termination of Gaussian 16 at Tue Apr  8 22:11:02 2025.
