 Gaussian 16, Revision C.01,

 ----------------------------------------------------------------------
 #t hf aug-cc-pvdz symm=none int=(grid=ultrafine) guess=(read,tcheck) s
 table=(opt,rrhf)
 ----------------------------------------------------------------------
 -----
 title
 -----
 Symbolic Z-matrix:
 Charge =  0 Multiplicity = 1

 SCF Done:  E(RHF) =  -390.242513132     A.U. after   17 cycles
 Normal termination of Gaussian 16 at Tue Apr  8 21:53:58 2025.
 Gaussian 16:  ES64L-G16RevC.01  3-Jul-2019

 ----------------------------------------------------------------------
 #t hf aug-cc-pvdz iop(5/13=1,5/36=2,99/5=2) pseudo=read geom=check gue
 ss=(read,tcheck) scf=(maxcycle=1)
 ----------------------------------------------------------------------
 -----
 title
 -----
 Structure from the checkpoint file:  "ANI1ccx_847_conf8_mol1.chk"
 Charge =  0 Multiplicity = 1

                         Standard orientation:
 ---------------------------------------------------------------------
 Center     Atomic      Atomic             Coordinates (Angstroms)
 Number     Number       Type             X           Y           Z
 ---------------------------------------------------------------------
      1          6           0       -1.489709   -0.297433   -0.010489
      2          6           0       -1.113758    1.222040    0.019056
      3          6           0        0.633096   -0.048235   -0.029760
      4          6           0        2.040071   -0.206618    0.003623
      5          1           0       -1.891718    1.967300    0.051691
      6          7           0        0.126405    1.339649   -0.020416
      7          7           0       -0.203680   -0.935372   -0.011873
      8          7           0        3.222211   -0.326012    0.022688
      9          8           0       -2.567629   -0.816710    0.015117
 ---------------------------------------------------------------------

 SCF Done:  E(RHF) =  -390.354053750     A.U. after    2 cycles

 The electronic state is 1-A.
 Alpha  occ. eigenvalues --  -20.64323 -15.71149 -15.70670 -15.69176 -11.43093
 Alpha  occ. eigenvalues --  -11.42023 -11.36523 -11.34431  -1.43821  -1.37324
 Alpha  occ. eigenvalues --   -1.23141  -1.21855  -1.03944  -0.89410  -0.86019
 Alpha  occ. eigenvalues --   -0.78900  -0.72522  -0.69175  -0.67512  -0.60095
 Alpha  occ. eigenvalues --   -0.59945  -0.57736  -0.51376  -0.51012  -0.49554
 Alpha  occ. eigenvalues --   -0.47602  -0.46395
 Alpha virt. eigenvalues --   -0.02908   0.02496   0.06062   0.06372   0.06690
 Alpha virt. eigenvalues --    0.09184   0.09826   0.10078   0.10634   0.12003
 Alpha virt. eigenvalues --    0.12395   0.12781   0.13325   0.13992   0.15298

 Mulliken charges:
               1
     1  C    0.490528
     2  C    0.509250
     3  C    1.029962
     4  C   -0.503748
     5  H   -0.151745
     6  N   -0.507492
     7  N   -0.369556
     8  N   -0.124391
     9  O   -0.372807
 Sum of Mulliken charges =  -0.00000

 Dipole moment (field-independent basis, Debye):
    X=             -1.7880    Y=              2.5359    Z=             -0.0508  Tot=              3.1032

 Test job not archived.
 1\1\GINC-SE424\SP\RHF\Aug-CC-pVDZ\C4H1N3O1\OHZDE\08-Apr-2025\0\\#t hf
 aug-cc-pvdz iop(5/13=1,5/36=2,99/5=2) pseudo=read geom=check guess=(re
 ad,tcheck) scf=(maxcycle=1)\\title\\0,1\C,0,-1.48971,-0.297433,-0.0104
 892\C,0,-1.11376,1.22204,0.0190564\C,0,0.633095,-0.0482337,-0.0297603\
 C,0,2.04007,-0.206617,0.00362256\H,0,-1.89172,1.9673,0.0516911\N,0,0.1
 26403,1.33965,-0.020416\N,0,-0.203681,-0.935371,-0.0118729\N,0,3.22221
 ,-0.32601,0.0226881\O,0,-2.56763,-0.81671,0.0151172\\Version=ES64L-G16
 RevC.01\State=1-A\HF=-390.3540538\RMSD=5.213e-03\Dipole=-0.7034519,0.9

 Normal termination of Gaussian 16 at Tue Apr  8 21:54:02 2025.
