 Gaussian 16, Revision C.01,

 ----------------------------------------------------------------------
 #t hf aug-cc-pvdz symm=none int=(grid=ultrafine) guess=(read,tcheck) s
 table=(opt,rrhf)
 ----------------------------------------------------------------------
 -----
 title
 -----
 Symbolic Z-matrix:
 Charge =  0 Multiplicity = 1

 SCF Done:  E(RHF) =  -446.837756422     A.U. after   13 cycles
 Normal termination of Gaussian 16 at Tue Apr  8 21:46:23 2025.
 Gaussian 16:  ES64L-G16RevC.01  3-Jul-2019

 ----------------------------------------------------------------------
 #t hf aug-cc-pvdz iop(5/13=1,5/36=2,99/5=2) pseudo=read geom=check gue
 ss=(read,tcheck) scf=(maxcycle=1)
 ----------------------------------------------------------------------
 -----
 title
 -----
 Structure from the checkpoint file:  "ANI1ccx_555_conf1_mol1.chk"
 Charge =  0 Multiplicity = 1

                         Standard orientation:
 ---------------------------------------------------------------------
 Center     Atomic      Atomic             Coordinates (Angstroms)
 Number     Number       Type             X           Y           Z
 ---------------------------------------------------------------------
      1          6           0        1.501440   -0.151520   -0.063843
      2          6           0       -1.677190    0.016541    0.049231
      3          1           0        3.416620   -0.023763   -0.797927
      4          1           0        2.885870    1.404029   -0.015356
      5          1           0        0.920279    0.881412    1.573380
      6          1           0       -0.348624   -1.237230    0.729829
      7          1           0       -0.709453    1.715640   -0.549348
      8          1           0       -2.335950    1.464131   -1.167230
      9          7           0        2.778670    0.400929   -0.103546
     10          7           0        0.553708    0.492519    0.675855
     11          7           0       -0.624501   -0.283677    0.913252
     12          7           0       -1.600800    1.210101   -0.590678
     13          8           0        1.288139   -1.234571   -0.616434
     14          8           0       -2.603611   -0.782110   -0.127299
 ---------------------------------------------------------------------

 SCF Done:  E(RHF) =  -446.975452449     A.U. after    2 cycles

 The electronic state is 1-A.
 Alpha  occ. eigenvalues --  -20.56122 -20.52792 -15.71594 -15.69151 -15.67835
 Alpha  occ. eigenvalues --  -15.64914 -11.42511 -11.39587  -1.39696  -1.35246
 Alpha  occ. eigenvalues --   -1.28094  -1.20209  -1.17974  -1.09307  -0.85316
 Alpha  occ. eigenvalues --   -0.82895  -0.77785  -0.75401  -0.74242  -0.68538
 Alpha  occ. eigenvalues --   -0.67678  -0.64942  -0.62208  -0.60453  -0.59033
 Alpha  occ. eigenvalues --   -0.49220  -0.48143  -0.46658  -0.45242  -0.42842
 Alpha  occ. eigenvalues --   -0.42039
 Alpha virt. eigenvalues --    0.01271   0.03343   0.03465   0.04933   0.06968
 Alpha virt. eigenvalues --    0.07457   0.10003   0.11030   0.12502   0.13233
 Alpha virt. eigenvalues --    0.13659   0.14697   0.15063   0.15445   0.15754

 Mulliken charges:
               1
     1  C    0.981833
     2  C    0.867271
     3  H    0.060727
     4  H   -0.014448
     5  H    0.123351
     6  H    0.104090
     7  H    0.098907
     8  H   -0.076857
     9  N   -0.299548
    10  N   -0.457662
    11  N   -0.204300
    12  N   -0.113386
    13  O   -0.522856
    14  O   -0.547123
 Sum of Mulliken charges =  -0.00000

 Dipole moment (field-independent basis, Debye):
    X=              5.4087    Y=              6.1719    Z=              0.6693  Tot=              8.2338

 Test job not archived.
 1\1\GINC-SE087\SP\RHF\Aug-CC-pVDZ\C2H6N4O2\OHZDE\08-Apr-2025\0\\#t hf
 aug-cc-pvdz iop(5/13=1,5/36=2,99/5=2) pseudo=read geom=check guess=(re
 ad,tcheck) scf=(maxcycle=1)\\title\\0,1\C,0,1.50144,-0.151519,-0.06384
 35\C,0,-1.67719,0.0165399,0.0492313\H,0,3.41662,-0.0237619,-0.797927\H
 ,0,2.88587,1.40403,-0.0153562\H,0,0.920279,0.881412,1.57338\H,0,-0.348
 623,-1.23723,0.729829\H,0,-0.709453,1.71564,-0.549348\H,0,-2.33595,1.4
 6413,-1.16723\N,0,2.77867,0.40093,-0.103546\N,0,0.553708,0.492519,0.67
 5855\N,0,-0.624501,-0.283677,0.913252\N,0,-1.6008,1.2101,-0.590678\O,0

 Normal termination of Gaussian 16 at Tue Apr  8 21:46:29 2025.
