 Gaussian 16, Revision C.01,

 ----------------------------------------------------------------------
 #t hf aug-cc-pvdz symm=none int=(grid=ultrafine) guess=(read,tcheck) s
 table=(opt,rrhf)
 ----------------------------------------------------------------------
 -----
 title
 -----
 Symbolic Z-matrix:
 Charge =  0 Multiplicity = 1

 SCF Done:  E(RHF) =  -298.819538392     A.U. after   14 cycles
 Normal termination of Gaussian 16 at Tue Apr  8 21:34:32 2025.
 Gaussian 16:  ES64L-G16RevC.01  3-Jul-2019

 ----------------------------------------------------------------------
 #t hf aug-cc-pvdz iop(5/13=1,5/36=2,99/5=2) pseudo=read geom=check gue
 ss=(read,tcheck) scf=(maxcycle=1)
 ----------------------------------------------------------------------
 -----
 title
 -----
 Structure from the checkpoint file:  "ANI1ccx_398_conf19_mol1.chk"
 Charge =  0 Multiplicity = 1

                         Standard orientation:
 ---------------------------------------------------------------------
 Center     Atomic      Atomic             Coordinates (Angstroms)
 Number     Number       Type             X           Y           Z
 ---------------------------------------------------------------------
      1          6           0       -0.448326    0.094367   -0.003035
      2          1           0       -1.798810   -1.403520   -0.294653
      3          1           0       -2.474350    0.168209   -0.128030
      4          1           0        0.542146   -1.645310    0.415368
      5          1           0        1.454710    0.822082    0.303122
      6          7           0       -1.679210   -0.467171    0.130549
      7          7           0        0.647216   -0.781737   -0.173019
      8          8           0       -0.329672    1.321370   -0.043560
      9          8           0        1.853450   -0.042033    0.046022
 ---------------------------------------------------------------------

 SCF Done:  E(RHF) =  -298.912758376     A.U. after    2 cycles

 The electronic state is 1-A.
 Alpha  occ. eigenvalues --  -20.62137 -20.56161 -15.71922 -15.67704 -11.41798
 Alpha  occ. eigenvalues --   -1.40944  -1.34238  -1.20831  -1.09870  -0.83163
 Alpha  occ. eigenvalues --   -0.77776  -0.72673  -0.69100  -0.64728  -0.63239
 Alpha  occ. eigenvalues --   -0.57961  -0.56919  -0.49185  -0.45433  -0.42291
 Alpha virt. eigenvalues --    0.02281   0.03920   0.05185   0.07203   0.09372
 Alpha virt. eigenvalues --    0.11957   0.12939   0.14524   0.15431   0.16147
 Alpha virt. eigenvalues --    0.16905   0.17125   0.18946   0.19198   0.20736

 Mulliken charges:
               1
     1  C    0.935775
     2  H    0.033033
     3  H    0.090001
     4  H    0.122839
     5  H    0.202082
     6  N   -0.271109
     7  N   -0.097727
     8  O   -0.537674
     9  O   -0.477221
 Sum of Mulliken charges =  -0.00000

 Dipole moment (field-independent basis, Debye):
    X=             -3.0332    Y=             -3.2724    Z=              0.4343  Tot=              4.4830

 Test job not archived.
 1\1\GINC-SE041\SP\RHF\Aug-CC-pVDZ\C1H4N2O2\OHZDE\08-Apr-2025\0\\#t hf
 aug-cc-pvdz iop(5/13=1,5/36=2,99/5=2) pseudo=read geom=check guess=(re
 ad,tcheck) scf=(maxcycle=1)\\title\\0,1\C,0,-0.448326,0.0943672,-0.003
 03486\H,0,-1.79881,-1.40352,-0.294653\H,0,-2.47435,0.168209,-0.12803\H
 ,0,0.542146,-1.64531,0.415368\H,0,1.45471,0.822083,0.303122\N,0,-1.679
 21,-0.467171,0.130549\N,0,0.647216,-0.781737,-0.173019\O,0,-0.329672,1
 .32137,-0.0435601\O,0,1.85345,-0.0420319,0.0460216\\Version=ES64L-G16R
 evC.01\State=1-A\HF=-298.9127584\RMSD=2.354e-03\Dipole=-1.1933626,-1.2

 Normal termination of Gaussian 16 at Tue Apr  8 21:34:35 2025.
