 Gaussian 16, Revision C.01,

 ----------------------------------------------------------------------
 #t hf aug-cc-pvdz symm=none int=(grid=ultrafine) guess=(read,tcheck) s
 table=(opt,rrhf)
 ----------------------------------------------------------------------
 -----
 title
 -----
 Symbolic Z-matrix:
 Charge =  0 Multiplicity = 1

 SCF Done:  E(RHF) =  -672.935672851     A.U. after   17 cycles
 Normal termination of Gaussian 16 at Tue Apr  8 19:23:51 2025.
 Gaussian 16:  ES64L-G16RevC.01  3-Jul-2019

 ----------------------------------------------------------------------
 #t hf aug-cc-pvdz iop(5/13=1,5/36=2,99/5=2) pseudo=read geom=check gue
 ss=(read,tcheck) scf=(maxcycle=1)
 ----------------------------------------------------------------------
 -----
 title
 -----
 Structure from the checkpoint file:  "ANI1ccx_1321_conf5_mol2.chk"
 Charge =  0 Multiplicity = 1

                         Standard orientation:
 ---------------------------------------------------------------------
 Center     Atomic      Atomic             Coordinates (Angstroms)
 Number     Number       Type             X           Y           Z
 ---------------------------------------------------------------------
      1          6           0        1.250181   -0.848915    0.117983
      2          6           0        0.417617   -2.042050    0.469900
      3          6           0       -0.871002   -2.145220   -0.354364
      4          6           0       -1.555859   -0.829044   -0.209435
      5          6           0       -0.882941    0.406206    0.034250
      6          6           0        0.594518    0.476098    0.071488
      7          1           0        1.266631    3.423840    0.037053
      8          1           0       -0.667051   -2.398670   -1.385510
      9          1           0       -1.525699   -2.916690    0.031021
     10          1           0        1.036141   -2.909510    0.354364
     11          1           0        2.910361    0.775843   -0.233339
     12          1           0        0.213112   -1.980750    1.543870
     13          7           0        2.501041   -1.074150   -0.030446
     14          7           0       -2.835229   -0.584676   -0.121690
     15          7           0       -1.759349    1.348320    0.169296
     16          7           0        1.324901    1.550470    0.023246
     17          8           0       -2.949689    0.764718    0.077613
     18          8           0        3.391701   -0.074804   -0.171905
     19          8           0        0.611969    2.713050   -0.081863
 ---------------------------------------------------------------------

 SCF Done:  E(RHF) =  -673.128848533     A.U. after    2 cycles

 The electronic state is 1-A.
 Alpha  occ. eigenvalues --  -20.71722 -20.65703 -20.62270 -15.74550 -15.74421
 Alpha  occ. eigenvalues --  -15.72910 -15.71601 -11.35273 -11.32587 -11.32493
 Alpha  occ. eigenvalues --  -11.31426 -11.28478 -11.27441  -1.53045  -1.43531
 Alpha  occ. eigenvalues --   -1.41195  -1.23011  -1.21028  -1.17275  -1.15060
 Alpha  occ. eigenvalues --   -1.07185  -0.97053  -0.92780  -0.87765  -0.84027
 Alpha  occ. eigenvalues --   -0.80961  -0.77421  -0.73166  -0.72908  -0.71632
 Alpha  occ. eigenvalues --   -0.68739  -0.68015  -0.66308  -0.64053  -0.62687
 Alpha  occ. eigenvalues --   -0.61564  -0.58088  -0.55898  -0.54737  -0.53859
 Alpha  occ. eigenvalues --   -0.50975  -0.50139  -0.49337  -0.44452  -0.43743
 Alpha  occ. eigenvalues --   -0.42759  -0.37997
 Alpha virt. eigenvalues --    0.02915   0.02975   0.03257   0.04052   0.05560
 Alpha virt. eigenvalues --    0.05912   0.06623   0.09100   0.09772   0.10761
 Alpha virt. eigenvalues --    0.11047   0.11416   0.12012   0.12818   0.13347

 Mulliken charges:
               1
     1  C    0.207794
     2  C    0.455617
     3  C    0.634285
     4  C    0.392767
     5  C    0.275564
     6  C    0.577382
     7  H    0.228631
     8  H   -0.015989
     9  H    0.065308
    10  H   -0.089596
    11  H    0.225079
    12  H   -0.030213
    13  N   -0.200378
    14  N   -0.383735
    15  N   -0.351275
    16  N   -0.370171
    17  O   -0.589260
    18  O   -0.468049
    19  O   -0.563762
 Sum of Mulliken charges =  -0.00000

 Dipole moment (field-independent basis, Debye):
    X=              0.4055    Y=             -0.4244    Z=              0.1690  Tot=              0.6108

 Test job not archived.
 1\1\GINC-SE035\SP\RHF\Aug-CC-pVDZ\C6H6N4O3\OHZDE\08-Apr-2025\0\\#t hf
 aug-cc-pvdz iop(5/13=1,5/36=2,99/5=2) pseudo=read geom=check guess=(re
 ad,tcheck) scf=(maxcycle=1)\\title\\0,1\C,0,1.25018,-0.848915,0.117983
 \C,0,0.417616,-2.04205,0.4699\C,0,-0.871003,-2.14522,-0.354364\C,0,-1.
 55586,-0.829044,-0.209435\C,0,-0.882942,0.406206,0.0342504\C,0,0.59451
 7,0.476098,0.0714883\H,0,1.26663,3.42384,0.0370527\H,0,-0.667052,-2.39
 867,-1.38551\H,0,-1.5257,-2.91669,0.0310212\H,0,1.03614,-2.90951,0.354
 364\H,0,2.91036,0.775843,-0.233339\H,0,0.213111,-1.98075,1.54387\N,0,2

 Normal termination of Gaussian 16 at Tue Apr  8 19:24:05 2025.
