 Gaussian 16, Revision C.01,

 ----------------------------------------------------------------------
 #t hf aug-cc-pvdz symm=none int=(grid=ultrafine) guess=(read,tcheck) s
 table=(opt,rrhf)
 ----------------------------------------------------------------------
 -----
 title
 -----
 Symbolic Z-matrix:
 Charge =  0 Multiplicity = 1

 SCF Done:  E(RHF) =  -431.403244338     A.U. after   14 cycles
 Normal termination of Gaussian 16 at Tue Apr  8 21:42:50 2025.
 Gaussian 16:  ES64L-G16RevC.01  3-Jul-2019

 ----------------------------------------------------------------------
 #t hf aug-cc-pvdz iop(5/13=1,5/36=2,99/5=2) pseudo=read geom=check gue
 ss=(read,tcheck) scf=(maxcycle=1)
 ----------------------------------------------------------------------
 -----
 title
 -----
 Structure from the checkpoint file:  "ANI1ccx_499_conf10_mol2.chk"
 Charge =  0 Multiplicity = 1

                         Standard orientation:
 ---------------------------------------------------------------------
 Center     Atomic      Atomic             Coordinates (Angstroms)
 Number     Number       Type             X           Y           Z
 ---------------------------------------------------------------------
      1          6           0        0.050892    0.728597   -0.003960
      2          6           0       -0.781231   -0.571866   -0.000361
      3          1           0        1.435190   -1.262901   -0.022116
      4          1           0        1.971420    1.442169    0.018451
      5          1           0       -2.113200    0.671567    0.005916
      6          7           0        1.380680    0.610080    0.040065
      7          8           0        2.117540   -0.552948   -0.001768
      8          8           0       -0.571042    1.788439   -0.036802
      9          8           0       -2.067760   -0.306365    0.035543
     10          8           0       -0.300754   -1.686851   -0.029070
 ---------------------------------------------------------------------

 SCF Done:  E(RHF) =  -431.538792250     A.U. after    2 cycles

 The electronic state is 1-A.
 Alpha  occ. eigenvalues --  -20.66041 -20.65213 -20.61655 -20.59388 -15.75310
 Alpha  occ. eigenvalues --  -11.45204 -11.42733  -1.47856  -1.43514  -1.39414
 Alpha  occ. eigenvalues --   -1.37221  -1.16695  -0.96639  -0.88433  -0.83423
 Alpha  occ. eigenvalues --   -0.74903  -0.72412  -0.70902  -0.70831  -0.66542
 Alpha  occ. eigenvalues --   -0.65494  -0.63100  -0.58917  -0.57224  -0.54121
 Alpha  occ. eigenvalues --   -0.48378  -0.42249
 Alpha virt. eigenvalues --    0.03354   0.04606   0.05278   0.05418   0.08995
 Alpha virt. eigenvalues --    0.09214   0.10774   0.11695   0.12009   0.14365
 Alpha virt. eigenvalues --    0.14856   0.16539   0.17223   0.18271   0.18672

 Mulliken charges:
               1
     1  C    0.642978
     2  C    0.594823
     3  H    0.247017
     4  H    0.056338
     5  H    0.248808
     6  N    0.166492
     7  O   -0.513901
     8  O   -0.540648
     9  O   -0.429432
    10  O   -0.472475
 Sum of Mulliken charges =   0.00000

 Dipole moment (field-independent basis, Debye):
    X=              1.0714    Y=              1.3819    Z=              0.0143  Tot=              1.7486

 Test job not archived.
 1\1\GINC-SE044\SP\RHF\Aug-CC-pVDZ\C2H3N1O4\OHZDE\08-Apr-2025\0\\#t hf
 aug-cc-pvdz iop(5/13=1,5/36=2,99/5=2) pseudo=read geom=check guess=(re
 ad,tcheck) scf=(maxcycle=1)\\title\\0,1\C,0,0.0508923,0.728598,-0.0039
 6045\C,0,-0.781231,-0.571865,-0.00036118\H,0,1.43519,-1.2629,-0.022116
 3\H,0,1.97142,1.44217,0.0184513\H,0,-2.1132,0.671568,0.00591639\N,0,1.
 38068,0.610081,0.0400654\O,0,2.11754,-0.552947,-0.00176815\O,0,-0.5710
 42,1.78844,-0.0368021\O,0,-2.06776,-0.306364,0.0355429\O,0,-0.300754,-
 1.68685,-0.0290701\\Version=ES64L-G16RevC.01\State=1-A\HF=-431.5387922

 Normal termination of Gaussian 16 at Tue Apr  8 21:42:53 2025.
