 Gaussian 16, Revision C.01,

 ----------------------------------------------------------------------
 #t hf aug-cc-pvdz symm=none int=(grid=ultrafine) guess=(read,tcheck) s
 table=(opt,rrhf)
 ----------------------------------------------------------------------
 -----
 title
 -----
 Symbolic Z-matrix:
 Charge =  0 Multiplicity = 1

 SCF Done:  E(RHF) =  -848.827299823     A.U. after   14 cycles
 Normal termination of Gaussian 16 at Tue Apr  8 21:08:58 2025.
 Gaussian 16:  ES64L-G16RevC.01  3-Jul-2019

 ----------------------------------------------------------------------
 #t hf aug-cc-pvdz iop(5/13=1,5/36=2,99/5=2) pseudo=read geom=check gue
 ss=(read,tcheck) scf=(maxcycle=1)
 ----------------------------------------------------------------------
 -----
 title
 -----
 Structure from the checkpoint file:  "ANI1ccx_1786_conf4_mol1.chk"
 Charge =  0 Multiplicity = 1

                         Standard orientation:
 ---------------------------------------------------------------------
 Center     Atomic      Atomic             Coordinates (Angstroms)
 Number     Number       Type             X           Y           Z
 ---------------------------------------------------------------------
      1          6           0        1.156278    2.163551   -0.096451
      2          6           0       -2.727289   -0.842839    0.765314
      3          6           0       -2.314340    0.350024   -0.086807
      4          6           0        1.427212   -2.257568   -0.597880
      5          6           0       -2.677350    0.050525   -1.559600
      6          6           0        2.188910    0.202213    1.324770
      7          6           0        1.739369    1.645982    1.226020
      8          6           0       -0.367781    1.872380   -0.341688
      9          6           0        2.864911   -0.410429    0.113360
     10          1           0        3.162373   -3.058487   -0.976089
     11          1           0       -1.069198   -1.621871    0.367556
     12          1           0       -2.156169   -0.838010   -1.954460
     13          1           0       -2.583871    0.971799   -2.161850
     14          1           0       -3.727129   -0.302294   -1.732740
     15          1           0       -2.845931    1.219548    0.319728
     16          1           0       -0.361657    0.160323    0.812584
     17          1           0        1.955484   -4.164098   -0.481579
     18          1           0       -0.083584   -3.400940   -0.291678
     19          1           0        3.663191   -1.118837    0.399246
     20          1           0        0.884608    4.037271    0.694245
     21          1           0        3.477750    0.306583   -0.470570
     22          1           0        1.369941   -0.458811    1.668320
     23          1           0        2.865890    0.127443    2.191050
     24          1           0        2.596838    2.332213    1.375820
     25          1           0        1.020909    1.934731    2.014880
     26          1           0        1.658209    1.667662   -0.959669
     27          1           0        0.852190    3.925001   -0.970969
     28          1           0        1.137451   -0.431535   -0.937323
     29          7           0        1.326047    3.622251   -0.126788
     30          7           0        1.949101   -1.020348   -0.836292
     31          7           0        0.138430   -2.431810   -0.586568
     32          7           0        2.346293   -3.251118   -0.400998
     33          7           0       -0.863121    0.602973    0.031111
     34          8           0       -3.847749   -0.970184    1.180310
     35          8           0       -1.086132    2.687249   -0.934355
     36          8           0       -1.795378   -1.790111    1.010050
 ---------------------------------------------------------------------

 SCF Done:  E(RHF) =  -849.081079691     A.U. after    2 cycles

 The electronic state is 1-A.
 Alpha  occ. eigenvalues --  -20.59432 -20.55893 -20.54246 -15.67008 -15.66704
 Alpha  occ. eigenvalues --  -15.65803 -15.61797 -15.60981 -11.38724 -11.38197
 Alpha  occ. eigenvalues --  -11.38159 -11.30617 -11.30449 -11.30136 -11.26869
 Alpha  occ. eigenvalues --  -11.26594 -11.23632  -1.40092  -1.35491  -1.31294
 Alpha  occ. eigenvalues --   -1.30931  -1.20633  -1.19569  -1.17425  -1.13426
 Alpha  occ. eigenvalues --   -1.07554  -1.03056  -0.97819  -0.92007  -0.88813
 Alpha  occ. eigenvalues --   -0.84878  -0.82741  -0.80996  -0.78387  -0.75417
 Alpha  occ. eigenvalues --   -0.73570  -0.71680  -0.69708  -0.68715  -0.68175
 Alpha  occ. eigenvalues --   -0.66660  -0.65248  -0.64592  -0.63991  -0.62367
 Alpha  occ. eigenvalues --   -0.61526  -0.61189  -0.59955  -0.59181  -0.58808
 Alpha  occ. eigenvalues --   -0.57162  -0.55628  -0.54084  -0.53079  -0.51542
 Alpha  occ. eigenvalues --   -0.50978  -0.50793  -0.49892  -0.47611  -0.45999
 Alpha  occ. eigenvalues --   -0.45744  -0.44576  -0.43973  -0.41156  -0.40216
 Alpha  occ. eigenvalues --   -0.38261
 Alpha virt. eigenvalues --    0.01550   0.02564   0.02973   0.03764   0.04866
 Alpha virt. eigenvalues --    0.05305   0.05546   0.06115   0.06264   0.07227
 Alpha virt. eigenvalues --    0.07599   0.07957   0.08612   0.08726   0.08876

 Mulliken charges:
               1
     1  C    0.161960
     2  C    0.745708
     3  C   -0.069937
     4  C    0.508177
     5  C    0.694334
     6  C    0.327015
     7  C    0.605853
     8  C    0.223971
     9  C    0.843138
    10  H    0.070205
    11  H    0.374073
    12  H   -0.099444
    13  H   -0.043117
    14  H   -0.101026
    15  H   -0.315252
    16  H    0.003275
    17  H   -0.030889
    18  H   -0.025549
    19  H   -0.275524
    20  H    0.045290
    21  H   -0.177925
    22  H   -0.216297
    23  H   -0.127038
    24  H   -0.052692
    25  H   -0.057185
    26  H   -0.118732
    27  H    0.033022
    28  H    0.004858
    29  N   -0.272474
    30  N   -0.307735
    31  N   -0.408821
    32  N   -0.153043
    33  N   -0.168634
    34  O   -0.511586
    35  O   -0.592612
    36  O   -0.515367
 Sum of Mulliken charges =  -0.00000

 Dipole moment (field-independent basis, Debye):
    X=              8.2892    Y=             -2.1257    Z=             -0.4404  Tot=              8.5687

 Test job not archived.
 1\1\GINC-SE029\SP\RHF\Aug-CC-pVDZ\C9H19N5O3\OHZDE\08-Apr-2025\0\\#t hf
  aug-cc-pvdz iop(5/13=1,5/36=2,99/5=2) pseudo=read geom=check guess=(r
 ead,tcheck) scf=(maxcycle=1)\\title\\0,1\C,0,1.15628,2.16355,-0.096450
 5\C,0,-2.72729,-0.842837,0.765314\C,0,-2.31434,0.350026,-0.0868071\C,0
 ,1.42721,-2.25757,-0.59788\C,0,-2.67735,0.050527,-1.5596\C,0,2.18891,0
 .202211,1.32477\C,0,1.73937,1.64598,1.22602\C,0,-0.36778,1.87238,-0.34
 1688\C,0,2.86491,-0.410432,0.11336\H,0,3.16237,-3.05849,-0.976089\H,0,
 -1.0692,-1.62187,0.367556\H,0,-2.15617,-0.838008,-1.95446\H,0,-2.58387

 Normal termination of Gaussian 16 at Tue Apr  8 21:09:59 2025.
