 Gaussian 16, Revision C.01,

 ----------------------------------------------------------------------
 #t hf aug-cc-pvdz symm=none int=(grid=ultrafine) guess=(read,tcheck) s
 table=(opt,rrhf)
 ----------------------------------------------------------------------
 -----
 title
 -----
 Symbolic Z-matrix:
 Charge =  0 Multiplicity = 1

 SCF Done:  E(RHF) =  -943.055909897     A.U. after   14 cycles
 Normal termination of Gaussian 16 at Tue Apr  8 20:01:02 2025.
 Gaussian 16:  ES64L-G16RevC.01  3-Jul-2019

 ----------------------------------------------------------------------
 #t hf aug-cc-pvdz iop(5/13=1,5/36=2,99/5=2) pseudo=read geom=check gue
 ss=(read,tcheck) scf=(maxcycle=1)
 ----------------------------------------------------------------------
 -----
 title
 -----
 Structure from the checkpoint file:  "ANI1ccx_1569_conf16_mol1.chk"
 Charge =  0 Multiplicity = 1

                         Standard orientation:
 ---------------------------------------------------------------------
 Center     Atomic      Atomic             Coordinates (Angstroms)
 Number     Number       Type             X           Y           Z
 ---------------------------------------------------------------------
      1          6           0        2.309785   -1.022890    0.327479
      2          6           0        0.820710   -1.258266   -0.029802
      3          6           0        2.906380    0.288210   -0.303681
      4          6           0        2.010956    1.417568   -0.083136
      5          6           0       -1.464557   -0.462015    0.467496
      6          6           0       -2.315862   -1.737029    0.205146
      7          6           0       -1.682711    0.598515   -0.579446
      8          6           0       -1.459527    2.009795   -0.102612
      9          1           0       -0.790366   -2.560703   -0.567584
     10          1           0       -2.048304    3.752802   -0.392375
     11          1           0       -2.641141    0.441119   -1.022160
     12          1           0       -0.932386    0.414442   -1.402190
     13          1           0       -1.962438   -0.197670    1.401540
     14          1           0        0.408287   -0.103559    1.424390
     15          1           0        3.113271    0.124911   -1.376620
     16          1           0        3.839899    0.449282    0.245918
     17          1           0        2.382325   -0.873421    1.434310
     18          1           0        2.606602   -2.763089   -0.752670
     19          1           0        3.435612   -2.672056    0.670927
     20          1           0        1.034242    2.341515    1.249230
     21          7           0        3.072390   -2.166398   -0.095033
     22          7           0       -0.080664   -0.771691    0.841114
     23          8           0       -2.208770    2.887332   -0.754686
     24          8           0        0.495413   -1.701088   -1.107200
     25          8           0        1.568712    2.211857   -0.930066
     26          8           0        1.558905    1.542627    1.180780
     27          8           0       -3.506422   -1.678843    0.422816
     28          8           0       -0.709140    2.403558    0.806260
     29          8           0       -1.716038   -2.764226   -0.310900
 ---------------------------------------------------------------------

 SCF Done:  E(RHF) =  -943.344889931     A.U. after    2 cycles

 The electronic state is 1-A.
 Alpha  occ. eigenvalues --  -20.65044 -20.62851 -20.61501 -20.58999 -20.58531
 Alpha  occ. eigenvalues --  -20.57327 -20.55585 -15.68440 -15.63274 -11.43816
 Alpha  occ. eigenvalues --  -11.41742 -11.40501 -11.40343 -11.33062 -11.32642
 Alpha  occ. eigenvalues --  -11.28927 -11.28451  -1.45829  -1.43771  -1.43751
 Alpha  occ. eigenvalues --   -1.41244  -1.33953  -1.32914  -1.31821  -1.25120
 Alpha  occ. eigenvalues --   -1.20209  -1.10055  -1.07259  -0.98953  -0.92911
 Alpha  occ. eigenvalues --   -0.87188  -0.86291  -0.85056  -0.82454  -0.77836
 Alpha  occ. eigenvalues --   -0.76390  -0.75385  -0.72848  -0.72253  -0.71516
 Alpha  occ. eigenvalues --   -0.70421  -0.69130  -0.68353  -0.67226  -0.66545
 Alpha  occ. eigenvalues --   -0.65749  -0.63863  -0.63667  -0.62556  -0.61988
 Alpha  occ. eigenvalues --   -0.60784  -0.59340  -0.58368  -0.56502  -0.55258
 Alpha  occ. eigenvalues --   -0.54886  -0.52141  -0.51118  -0.49621  -0.49366
 Alpha  occ. eigenvalues --   -0.48782  -0.47753  -0.47155  -0.44021  -0.41165
 Alpha virt. eigenvalues --    0.02206   0.03206   0.03740   0.03999   0.05062
 Alpha virt. eigenvalues --    0.05860   0.06129   0.06585   0.07174   0.08256
 Alpha virt. eigenvalues --    0.08703   0.09126   0.09643   0.10461   0.10762

 Mulliken charges:
               1
     1  C   -0.290924
     2  C    0.864681
     3  C    0.336325
     4  C    0.821493
     5  C    0.137414
     6  C    0.603179
     7  C    0.242971
     8  C    0.810210
     9  H    0.252050
    10  H    0.175380
    11  H   -0.217033
    12  H    0.232834
    13  H   -0.203764
    14  H    0.111513
    15  H    0.005880
    16  H    0.105857
    17  H   -0.054282
    18  H    0.027209
    19  H   -0.019104
    20  H    0.268551
    21  N   -0.107251
    22  N   -0.177377
    23  O   -0.470623
    24  O   -0.731548
    25  O   -0.575682
    26  O   -0.594615
    27  O   -0.511306
    28  O   -0.618831
    29  O   -0.423208
 Sum of Mulliken charges =  -0.00000

 Dipole moment (field-independent basis, Debye):
    X=              4.6873    Y=              1.6529    Z=              2.6235  Tot=              5.6202

 Test job not archived.
 1\1\GINC-SE150\SP\RHF\Aug-CC-pVDZ\C8H12N2O7\OHZDE\08-Apr-2025\0\\#t hf
  aug-cc-pvdz iop(5/13=1,5/36=2,99/5=2) pseudo=read geom=check guess=(r
 ead,tcheck) scf=(maxcycle=1)\\title\\0,1\C,0,2.30978,-1.0229,0.327479\
 C,0,0.820704,-1.25827,-0.0298022\C,0,2.90638,0.288198,-0.303681\C,0,2.
 01096,1.41756,-0.0831364\C,0,-1.46456,-0.46201,0.467496\C,0,-2.31587,-
 1.73702,0.205146\C,0,-1.68271,0.598521,-0.579446\C,0,-1.45952,2.0098,-
 0.102612\H,0,-0.790377,-2.5607,-0.567584\H,0,-2.04829,3.75281,-0.39237
 5\H,0,-2.64114,0.441129,-1.02216\H,0,-0.932385,0.414445,-1.40219\H,0,-

 Normal termination of Gaussian 16 at Tue Apr  8 20:01:44 2025.
