 Gaussian 16, Revision C.01,

 ----------------------------------------------------------------------
 #t hf aug-cc-pvdz symm=none int=(grid=ultrafine) guess=(read,tcheck) s
 table=(opt,rrhf)
 ----------------------------------------------------------------------
 -----
 title
 -----
 Symbolic Z-matrix:
 Charge =  0 Multiplicity = 1

 SCF Done:  E(RHF) =  -350.914078896     A.U. after   14 cycles
 Normal termination of Gaussian 16 at Tue Apr  8 21:44:54 2025.
 Gaussian 16:  ES64L-G16RevC.01  3-Jul-2019

 ----------------------------------------------------------------------
 #t hf aug-cc-pvdz iop(5/13=1,5/36=2,99/5=2) pseudo=read geom=check gue
 ss=(read,tcheck) scf=(maxcycle=1)
 ----------------------------------------------------------------------
 -----
 title
 -----
 Structure from the checkpoint file:  "ANI1ccx_542_conf5_mol1.chk"
 Charge =  0 Multiplicity = 1

                         Standard orientation:
 ---------------------------------------------------------------------
 Center     Atomic      Atomic             Coordinates (Angstroms)
 Number     Number       Type             X           Y           Z
 ---------------------------------------------------------------------
      1          6           0        1.095519   -0.004683    0.006498
      2          6           0       -1.081761   -0.060818    0.038450
      3          1           0        3.018119    0.344741   -0.181892
      4          1           0        2.658529   -1.010941    0.739675
      5          1           0       -2.620451   -1.053230   -0.690266
      6          1           0       -2.979881    0.441193   -0.093375
      7          1           0       -0.038665   -1.941981   -0.012145
      8          7           0        2.376949   -0.477709   -0.101319
      9          7           0        0.689636    1.172159    0.024964
     10          7           0       -0.680251    1.166630   -0.021817
     11          7           0       -2.408621   -0.453127    0.108906
     12          7           0        0.005114   -0.891778   -0.015259
 ---------------------------------------------------------------------

 SCF Done:  E(RHF) =  -351.015800350     A.U. after    2 cycles

 The electronic state is 1-A.
 Alpha  occ. eigenvalues --  -15.68758 -15.66062 -15.65404 -15.62186 -15.61838
 Alpha  occ. eigenvalues --  -11.34633 -11.34196  -1.37250  -1.22417  -1.18546
 Alpha  occ. eigenvalues --   -1.14836  -1.03161  -0.82376  -0.82017  -0.75050
 Alpha  occ. eigenvalues --   -0.69542  -0.68210  -0.63792  -0.62756  -0.60522
 Alpha  occ. eigenvalues --   -0.51891  -0.46409  -0.45969  -0.42332  -0.40597
 Alpha  occ. eigenvalues --   -0.32178
 Alpha virt. eigenvalues --    0.02119   0.02718   0.04671   0.05344   0.07403
 Alpha virt. eigenvalues --    0.08909   0.11152   0.11907   0.12249   0.13890
 Alpha virt. eigenvalues --    0.14472   0.15632   0.17068   0.17389   0.17802

 Mulliken charges:
               1
     1  C    0.818101
     2  C    0.877377
     3  H    0.108016
     4  H    0.065465
     5  H    0.040431
     6  H    0.160482
     7  H   -0.016570
     8  N   -0.373685
     9  N   -0.275755
    10  N   -0.458248
    11  N   -0.442260
    12  N   -0.503354
 Sum of Mulliken charges =  -0.00000

 Dipole moment (field-independent basis, Debye):
    X=              0.2289    Y=             -4.6851    Z=             -0.2332  Tot=              4.6964

 Test job not archived.
 1\1\GINC-SE455\SP\RHF\Aug-CC-pVDZ\C2H5N5\OHZDE\08-Apr-2025\0\\#t hf au
 g-cc-pvdz iop(5/13=1,5/36=2,99/5=2) pseudo=read geom=check guess=(read
 ,tcheck) scf=(maxcycle=1)\\title\\0,1\C,0,1.09552,-0.0046818,0.0064976
 5\C,0,-1.08176,-0.0608181,0.0384498\H,0,3.01812,0.344742,-0.181892\H,0
 ,2.65853,-1.01094,0.739675\H,0,-2.62045,-1.05323,-0.690266\H,0,-2.9798
 8,0.441193,-0.0933751\H,0,-0.0386638,-1.94198,-0.0121451\N,0,2.37695,-
 0.477708,-0.101319\N,0,0.689637,1.17216,0.024964\N,0,-0.68025,1.16663,
 -0.0218172\N,0,-2.40862,-0.453127,0.108906\N,0,0.00511548,-0.891777,-0

 Normal termination of Gaussian 16 at Tue Apr  8 21:44:58 2025.
