 Gaussian 16, Revision C.01,

 ----------------------------------------------------------------------
 #t hf aug-cc-pvdz symm=none int=(grid=ultrafine) guess=(read,tcheck) s
 table=(opt,rrhf)
 ----------------------------------------------------------------------
 -----
 title
 -----
 Symbolic Z-matrix:
 Charge =  0 Multiplicity = 1

 SCF Done:  E(RHF) =  -294.648944745     A.U. after   15 cycles
 Normal termination of Gaussian 16 at Tue Apr  8 21:42:07 2025.
 Gaussian 16:  ES64L-G16RevC.01  3-Jul-2019

 ----------------------------------------------------------------------
 #t hf aug-cc-pvdz iop(5/13=1,5/36=2,99/5=2) pseudo=read geom=check gue
 ss=(read,tcheck) scf=(maxcycle=1)
 ----------------------------------------------------------------------
 -----
 title
 -----
 Structure from the checkpoint file:  "ANI1ccx_486_conf3_mol2.chk"
 Charge =  0 Multiplicity = 1

                         Standard orientation:
 ---------------------------------------------------------------------
 Center     Atomic      Atomic             Coordinates (Angstroms)
 Number     Number       Type             X           Y           Z
 ---------------------------------------------------------------------
      1          6           0       -1.169240    0.514764   -0.018115
      2          6           0        1.027683    0.739546    0.025670
      3          1           0       -2.209524    0.883152    0.029364
      4          1           0        1.909124    1.368368    0.007018
      5          7           0       -0.143252    1.349872   -0.020961
      6          7           0        1.210561   -0.585600    0.008727
      7          7           0        0.134352   -1.339512   -0.039596
      8          7           0       -1.037413   -0.821528    0.040157
 ---------------------------------------------------------------------

 SCF Done:  E(RHF) =  -294.730242247     A.U. after    2 cycles

 The electronic state is 1-A.
 Alpha  occ. eigenvalues --  -15.76155 -15.70270 -15.70175 -15.68721 -11.37533
 Alpha  occ. eigenvalues --  -11.36977  -1.42014  -1.26036  -1.21383  -0.98720
 Alpha  occ. eigenvalues --   -0.96457  -0.79384  -0.76785  -0.65375  -0.64163
 Alpha  occ. eigenvalues --   -0.61717  -0.54400  -0.48561  -0.46009  -0.44891
 Alpha  occ. eigenvalues --   -0.41584
 Alpha virt. eigenvalues --    0.03068   0.03443   0.04757   0.06271   0.07054
 Alpha virt. eigenvalues --    0.08424   0.10021   0.10463   0.13789   0.14147
 Alpha virt. eigenvalues --    0.14848   0.16055   0.16953   0.18477   0.19619

 Mulliken charges:
               1
     1  C    0.675078
     2  C    0.744902
     3  H   -0.134504
     4  H   -0.197423
     5  N   -0.401920
     6  N   -0.301824
     7  N   -0.096234
     8  N   -0.288076
 Sum of Mulliken charges =  -0.00000

 Dipole moment (field-independent basis, Debye):
    X=             -0.4237    Y=              2.6418    Z=              0.0576  Tot=              2.6762

 Test job not archived.
 1\1\GINC-SE343\SP\RHF\Aug-CC-pVDZ\C2H2N4\OHZDE\08-Apr-2025\0\\#t hf au
 g-cc-pvdz iop(5/13=1,5/36=2,99/5=2) pseudo=read geom=check guess=(read
 ,tcheck) scf=(maxcycle=1)\\title\\0,1\C,0,-1.16925,0.514745,-0.0181145
 \C,0,1.02767,0.739563,0.02567\H,0,-2.20954,0.883116,0.0293641\H,0,1.90
 91,1.3684,0.00701843\N,0,-0.143275,1.34987,-0.0209614\N,0,1.21057,-0.5
 8558,0.00872692\N,0,0.134373,-1.33951,-0.039596\N,0,-1.0374,-0.821545,
 0.0401569\\Version=ES64L-G16RevC.01\State=1-A\HF=-294.7302422\RMSD=3.0
 60e-03\Dipole=-0.1667184,1.0393525,0.0226514\Quadrupole=2.5864735,-3.8

 Normal termination of Gaussian 16 at Tue Apr  8 21:42:09 2025.
