 Gaussian 16, Revision C.01,

 ----------------------------------------------------------------------
 #t hf aug-cc-pvdz symm=none int=(grid=ultrafine) guess=(read,tcheck) s
 table=(opt,rrhf)
 ----------------------------------------------------------------------
 -----
 title
 -----
 Symbolic Z-matrix:
 Charge =  0 Multiplicity = 1

 SCF Done:  E(RHF) =  -427.250282510     A.U. after   16 cycles
 Normal termination of Gaussian 16 at Tue Apr  8 21:47:59 2025.
 Gaussian 16:  ES64L-G16RevC.01  3-Jul-2019

 ----------------------------------------------------------------------
 #t hf aug-cc-pvdz iop(5/13=1,5/36=2,99/5=2) pseudo=read geom=check gue
 ss=(read,tcheck) scf=(maxcycle=1)
 ----------------------------------------------------------------------
 -----
 title
 -----
 Structure from the checkpoint file:  "ANI1ccx_649_conf1_mol2.chk"
 Charge =  0 Multiplicity = 1

                         Standard orientation:
 ---------------------------------------------------------------------
 Center     Atomic      Atomic             Coordinates (Angstroms)
 Number     Number       Type             X           Y           Z
 ---------------------------------------------------------------------
      1          6           0        1.467339   -0.213400    0.001932
      2          6           0       -0.699989    0.097392    0.055399
      3          6           0       -2.111921   -0.141033   -0.053980
      4          1           0        0.219694   -1.868920   -0.019157
      5          7           0        0.256512   -0.845969    0.052612
      6          7           0       -0.251298    1.293080   -0.005883
      7          7           0       -3.218781   -0.388569   -0.007930
      8          8           0        2.601119   -0.676428   -0.037503
      9          8           0        1.191720    1.051599    0.003436
 ---------------------------------------------------------------------

 SCF Done:  E(RHF) =  -427.379181635     A.U. after    2 cycles

 The electronic state is 1-A.
 Alpha  occ. eigenvalues --  -20.70120 -20.57961 -15.76890 -15.75370 -15.71298
 Alpha  occ. eigenvalues --  -11.46631 -11.44235 -11.35288  -1.53914  -1.37001
 Alpha  occ. eigenvalues --   -1.32590  -1.26677  -1.21151  -0.99009  -0.92668
 Alpha  occ. eigenvalues --   -0.86105  -0.77429  -0.76513  -0.69379  -0.64661
 Alpha  occ. eigenvalues --   -0.61445  -0.61329  -0.58695  -0.57002  -0.54411
 Alpha  occ. eigenvalues --   -0.52893  -0.50715  -0.43675
 Alpha virt. eigenvalues --    0.02008   0.04477   0.05531   0.06431   0.07059
 Alpha virt. eigenvalues --    0.09552   0.09757   0.10288   0.11261   0.11830
 Alpha virt. eigenvalues --    0.13613   0.14537   0.14706   0.15493   0.16636

 Mulliken charges:
               1
     1  C    0.606792
     2  C    1.197641
     3  C   -0.353485
     4  H    0.004372
     5  N   -0.271664
     6  N   -0.179161
     7  N   -0.056137
     8  O   -0.444406
     9  O   -0.503954
 Sum of Mulliken charges =  -0.00000

 Dipole moment (field-independent basis, Debye):
    X=             -2.2974    Y=             -2.2844    Z=              0.0592  Tot=              3.2404

 Test job not archived.
 1\1\GINC-SE132\SP\RHF\Aug-CC-pVDZ\C3H1N3O2\OHZDE\08-Apr-2025\0\\#t hf
 aug-cc-pvdz iop(5/13=1,5/36=2,99/5=2) pseudo=read geom=check guess=(re
 ad,tcheck) scf=(maxcycle=1)\\title\\0,1\C,0,1.46734,-0.213399,0.001932
 4\C,0,-0.699988,0.0973915,0.0553988\C,0,-2.11192,-0.141034,-0.0539804\
 H,0,0.219696,-1.86892,-0.019157\N,0,0.256513,-0.845969,0.0526119\N,0,-
 0.251298,1.29308,-0.00588251\N,0,-3.21878,-0.388571,-0.00793045\O,0,2.
 60112,-0.676427,-0.0375034\O,0,1.19172,1.0516,0.0034359\\Version=ES64L
 -G16RevC.01\State=1-A\HF=-427.3791816\RMSD=5.165e-03\Dipole=-0.903881,

 Normal termination of Gaussian 16 at Tue Apr  8 21:48:03 2025.
