 Gaussian 16, Revision C.01,

 ----------------------------------------------------------------------
 #t hf aug-cc-pvdz symm=none int=(grid=ultrafine) guess=(read,tcheck) s
 table=(opt,rrhf)
 ----------------------------------------------------------------------
 -----
 title
 -----
 Symbolic Z-matrix:
 Charge =  0 Multiplicity = 1

 SCF Done:  E(RHF) =  -636.080320538     A.U. after   15 cycles
 Normal termination of Gaussian 16 at Tue Apr  8 19:38:17 2025.
 Gaussian 16:  ES64L-G16RevC.01  3-Jul-2019

 ----------------------------------------------------------------------
 #t hf aug-cc-pvdz iop(5/13=1,5/36=2,99/5=2) pseudo=read geom=check gue
 ss=(read,tcheck) scf=(maxcycle=1)
 ----------------------------------------------------------------------
 -----
 title
 -----
 Structure from the checkpoint file:  "ANI1ccx_1499_conf7_mol2.chk"
 Charge =  0 Multiplicity = 1

                         Standard orientation:
 ---------------------------------------------------------------------
 Center     Atomic      Atomic             Coordinates (Angstroms)
 Number     Number       Type             X           Y           Z
 ---------------------------------------------------------------------
      1          6           0        0.730113    1.499988   -0.025325
      2          6           0       -1.968610   -0.029710    1.102430
      3          6           0       -2.191610   -0.116912   -1.026080
      4          6           0        1.315090    0.152552    0.000846
      5          6           0        2.733870    0.025042    0.215338
      6          6           0        3.004148   -1.306625    0.084679
      7          6           0        0.847500   -1.098812   -0.210884
      8          1           0       -0.128262   -1.526921   -0.457002
      9          1           0        3.929868   -1.871786    0.127917
     10          1           0        3.350071    0.886260    0.354864
     11          1           0       -2.046760    0.050543   -2.105220
     12          1           0       -1.601920    0.320029    2.079430
     13          1           0       -1.032997    2.539140   -0.056086
     14          7           0       -0.662548    1.595140   -0.209716
     15          7           0       -1.548500    0.579485   -0.040400
     16          7           0       -2.788131   -1.007498    0.861796
     17          7           0       -2.899981   -1.087658   -0.530231
     18          8           0        1.386933    2.510907   -0.010679
     19          8           0        1.863207   -1.974243   -0.159330
 ---------------------------------------------------------------------

 SCF Done:  E(RHF) =  -636.268418035     A.U. after    2 cycles

 The electronic state is 1-A.
 Alpha  occ. eigenvalues --  -20.67062 -20.57965 -15.75556 -15.72673 -15.67015
 Alpha  occ. eigenvalues --  -15.66959 -11.41218 -11.34443 -11.34129 -11.33998
 Alpha  occ. eigenvalues --  -11.32417 -11.27349 -11.26054  -1.46453  -1.41636
 Alpha  occ. eigenvalues --   -1.39103  -1.29233  -1.12977  -1.11170  -1.10304
 Alpha  occ. eigenvalues --   -1.04401  -0.92550  -0.87550  -0.86234  -0.83518
 Alpha  occ. eigenvalues --   -0.81018  -0.79873  -0.76116  -0.70783  -0.68798
 Alpha  occ. eigenvalues --   -0.67597  -0.66355  -0.65125  -0.63767  -0.62557
 Alpha  occ. eigenvalues --   -0.61574  -0.60463  -0.56194  -0.50298  -0.49079
 Alpha  occ. eigenvalues --   -0.48117  -0.44042  -0.43236  -0.42858  -0.39170
 Alpha  occ. eigenvalues --   -0.35206
 Alpha virt. eigenvalues --    0.02652   0.03054   0.03114   0.04890   0.05162
 Alpha virt. eigenvalues --    0.06661   0.07432   0.08406   0.09393   0.09642
 Alpha virt. eigenvalues --    0.10288   0.10552   0.11479   0.11741   0.12070

 Mulliken charges:
               1
     1  C    0.547778
     2  C    0.674887
     3  C    0.726883
     4  C   -0.050974
     5  C    0.892698
     6  C    0.649985
     7  C    0.419850
     8  H   -0.487613
     9  H   -0.299251
    10  H   -0.522050
    11  H   -0.253775
    12  H   -0.281687
    13  H    0.029642
    14  N   -0.204340
    15  N    0.008228
    16  N   -0.489409
    17  N   -0.449644
    18  O   -0.490446
    19  O   -0.420763
 Sum of Mulliken charges =  -0.00000

 Dipole moment (field-independent basis, Debye):
    X=              1.7767    Y=              1.5510    Z=             -0.2266  Tot=              2.3693

 Test job not archived.
 1\1\GINC-SE051\SP\RHF\Aug-CC-pVDZ\C7H6N4O2\OHZDE\08-Apr-2025\0\\#t hf
 aug-cc-pvdz iop(5/13=1,5/36=2,99/5=2) pseudo=read geom=check guess=(re
 ad,tcheck) scf=(maxcycle=1)\\title\\0,1\C,0,0.730111,1.49999,-0.025325
 2\C,0,-1.96861,-0.0297117,1.10243\C,0,-2.19161,-0.116914,-1.02608\C,0,
 1.31509,0.152555,0.00084636\C,0,2.73387,0.025046,0.215338\C,0,3.00415,
 -1.30662,0.0846794\C,0,0.847502,-1.09881,-0.210884\H,0,-0.12826,-1.526
 92,-0.457002\H,0,3.92987,-1.87178,0.127917\H,0,3.35007,0.886265,0.3548
 64\H,0,-2.04676,0.0505415,-2.10522\H,0,-1.60192,0.320028,2.07943\H,0,-

 Normal termination of Gaussian 16 at Tue Apr  8 19:38:32 2025.
