 Gaussian 16, Revision C.01,

 ----------------------------------------------------------------------
 #t hf aug-cc-pvdz symm=none int=(grid=ultrafine) guess=(read,tcheck) s
 table=(opt,rrhf)
 ----------------------------------------------------------------------
 -----
 title
 -----
 Symbolic Z-matrix:
 Charge =  0 Multiplicity = 1

 SCF Done:  E(RHF) =  -830.225785075     A.U. after   14 cycles
 Normal termination of Gaussian 16 at Tue Apr  8 19:37:06 2025.
 Gaussian 16:  ES64L-G16RevC.01  3-Jul-2019

 ----------------------------------------------------------------------
 #t hf aug-cc-pvdz iop(5/13=1,5/36=2,99/5=2) pseudo=read geom=check gue
 ss=(read,tcheck) scf=(maxcycle=1)
 ----------------------------------------------------------------------
 -----
 title
 -----
 Structure from the checkpoint file:  "ANI1ccx_1406_conf27_mol1.chk"
 Charge =  0 Multiplicity = 1

                         Standard orientation:
 ---------------------------------------------------------------------
 Center     Atomic      Atomic             Coordinates (Angstroms)
 Number     Number       Type             X           Y           Z
 ---------------------------------------------------------------------
      1          6           0       -2.469909   -0.799140   -0.391932
      2          6           0       -1.352750   -0.231747    0.500823
      3          6           0       -3.374890    0.376560   -0.683208
      4          6           0        0.952484    0.420656    0.690328
      5          6           0        1.585359    1.792561    0.260073
      6          6           0        2.075290   -0.622235    0.850994
      7          6           0        2.267041   -1.459559   -0.426832
      8          1           0        3.112218    2.501142   -0.314739
      9          1           0        2.569252   -3.035458    0.714192
     10          1           0        3.018430   -0.046389    1.049360
     11          1           0        1.828891   -1.458529    1.559990
     12          1           0        0.614866    0.650787    1.766140
     13          1           0        0.064785   -0.091273   -1.092070
     14          1           0       -3.923120    0.034296   -1.589090
     15          1           0       -4.215870    0.446971    0.071419
     16          1           0       -2.137599   -1.368072   -1.365200
     17          1           0       -2.606488   -2.561312    0.669886
     18          1           0       -3.738299   -1.523063    1.160640
     19          1           0       -2.412331    2.026018   -0.152770
     20          7           0       -3.270339   -1.825352    0.302812
     21          7           0       -0.200962   -0.021331   -0.120482
     22          8           0        2.455872   -2.726438   -0.277545
     23          8           0       -1.469550    0.099903    1.716820
     24          8           0       -2.821151    1.637238   -0.955481
     25          8           0        1.065008    2.825491    0.008411
     26          8           0        2.142271   -0.876409   -1.513180
     27          8           0        2.881129    1.601352   -0.048468
 ---------------------------------------------------------------------

 SCF Done:  E(RHF) =  -830.478419161     A.U. after    2 cycles

 The electronic state is 1-A.
 Alpha  occ. eigenvalues --  -20.67179 -20.63664 -20.58451 -20.58233 -20.56864
 Alpha  occ. eigenvalues --  -20.54800 -15.67847 -15.62988 -11.42170 -11.41685
 Alpha  occ. eigenvalues --  -11.38303 -11.33093 -11.30643 -11.30047 -11.29156
 Alpha  occ. eigenvalues --   -1.45998  -1.45590  -1.35205  -1.34927  -1.33399
 Alpha  occ. eigenvalues --   -1.32660  -1.22039  -1.16711  -1.08056  -0.99285
 Alpha  occ. eigenvalues --   -0.95774  -0.88892  -0.87892  -0.82946  -0.82151
 Alpha  occ. eigenvalues --   -0.76228  -0.73740  -0.72917  -0.72100  -0.71208
 Alpha  occ. eigenvalues --   -0.70430  -0.68196  -0.67654  -0.65886  -0.64827
 Alpha  occ. eigenvalues --   -0.62959  -0.62729  -0.61471  -0.60259  -0.59188
 Alpha  occ. eigenvalues --   -0.57857  -0.56570  -0.55105  -0.54820  -0.52052
 Alpha  occ. eigenvalues --   -0.50412  -0.49218  -0.48087  -0.46792  -0.46637
 Alpha  occ. eigenvalues --   -0.45665  -0.42185  -0.40499
 Alpha virt. eigenvalues --    0.01334   0.03364   0.04065   0.04158   0.05140
 Alpha virt. eigenvalues --    0.05494   0.05980   0.06848   0.07592   0.08045
 Alpha virt. eigenvalues --    0.08427   0.09098   0.09799   0.10690   0.10887

 Mulliken charges:
               1
     1  C    0.256904
     2  C    0.468815
     3  C    0.884312
     4  C   -0.249587
     5  C    0.788341
     6  C    0.208968
     7  C    0.755208
     8  H    0.223475
     9  H    0.304997
    10  H    0.116113
    11  H   -0.108629
    12  H    0.170231
    13  H   -0.074430
    14  H   -0.062183
    15  H    0.005836
    16  H   -0.070530
    17  H    0.060844
    18  H    0.028360
    19  H    0.190132
    20  N   -0.381554
    21  N   -0.170762
    22  O   -0.523645
    23  O   -0.687491
    24  O   -0.552371
    25  O   -0.458245
    26  O   -0.572347
    27  O   -0.550763
 Sum of Mulliken charges =  -0.00000

 Dipole moment (field-independent basis, Debye):
    X=              3.3757    Y=             -3.5309    Z=              3.5828  Tot=              6.0579

 Test job not archived.
 1\1\GINC-SE060\SP\RHF\Aug-CC-pVDZ\C7H12N2O6\OHZDE\08-Apr-2025\0\\#t hf
  aug-cc-pvdz iop(5/13=1,5/36=2,99/5=2) pseudo=read geom=check guess=(r
 ead,tcheck) scf=(maxcycle=1)\\title\\0,1\C,0,-2.46991,-0.799138,-0.391
 932\C,0,-1.35275,-0.231746,0.500823\C,0,-3.37489,0.376562,-0.683208\C,
 0,0.952484,0.420655,0.690328\C,0,1.58536,1.79256,0.260073\C,0,2.07529,
 -0.622236,0.850994\C,0,2.26704,-1.45956,-0.426832\H,0,3.11222,2.50114,
 -0.314739\H,0,2.56925,-3.03546,0.714192\H,0,3.01843,-0.0463912,1.04936
 \H,0,1.82889,-1.45853,1.55999\H,0,0.614866,0.650787,1.76614\H,0,0.0647

 Normal termination of Gaussian 16 at Tue Apr  8 19:37:36 2025.
