 Gaussian 16, Revision C.01,

 ----------------------------------------------------------------------
 #t hf aug-cc-pvdz symm=none int=(grid=ultrafine) guess=(read,tcheck) s
 table=(opt,rrhf)
 ----------------------------------------------------------------------
 -----
 title
 -----
 Symbolic Z-matrix:
 Charge =  0 Multiplicity = 1

 SCF Done:  E(RHF) =  -355.334741851     A.U. after   14 cycles
 Normal termination of Gaussian 16 at Tue Apr  8 21:39:43 2025.
 Gaussian 16:  ES64L-G16RevC.01  3-Jul-2019

 ----------------------------------------------------------------------
 #t hf aug-cc-pvdz iop(5/13=1,5/36=2,99/5=2) pseudo=read geom=check gue
 ss=(read,tcheck) scf=(maxcycle=1)
 ----------------------------------------------------------------------
 -----
 title
 -----
 Structure from the checkpoint file:  "ANI1ccx_469_conf16_mol1.chk"
 Charge =  0 Multiplicity = 1

                         Standard orientation:
 ---------------------------------------------------------------------
 Center     Atomic      Atomic             Coordinates (Angstroms)
 Number     Number       Type             X           Y           Z
 ---------------------------------------------------------------------
      1          6           0        0.798028    0.064856    0.058757
      2          6           0       -1.350469    0.555019   -0.020687
      3          1           0       -2.193999    1.202303    0.122640
      4          7           0       -1.392441   -0.761071   -0.064933
      5          8           0        1.974140   -0.011628   -0.050991
      6          8           0       -0.056153    1.120481    0.005107
      7          8           0       -0.011021   -1.058110    0.058817
 ---------------------------------------------------------------------

 SCF Done:  E(RHF) =  -355.445491493     A.U. after    2 cycles

 The electronic state is 1-A.
 Alpha  occ. eigenvalues --  -20.71104 -20.68453 -20.60280 -15.76208 -11.49074
 Alpha  occ. eigenvalues --  -11.42381  -1.54390  -1.40882  -1.40356  -1.18161
 Alpha  occ. eigenvalues --   -0.94866  -0.90382  -0.78968  -0.76434  -0.71565
 Alpha  occ. eigenvalues --   -0.69419  -0.62923  -0.61699  -0.58457  -0.57953
 Alpha  occ. eigenvalues --   -0.51876  -0.44416
 Alpha virt. eigenvalues --    0.02316   0.06195   0.06860   0.07747   0.09406
 Alpha virt. eigenvalues --    0.10733   0.11331   0.12885   0.13691   0.15513
 Alpha virt. eigenvalues --    0.16436   0.17756   0.19276   0.19801   0.22984

 Mulliken charges:
               1
     1  C    0.724991
     2  C    0.917300
     3  H   -0.140101
     4  N   -0.076536
     5  O   -0.341497
     6  O   -0.486898
     7  O   -0.597259
 Sum of Mulliken charges =  -0.00000

 Dipole moment (field-independent basis, Debye):
    X=             -3.8832    Y=              2.4171    Z=              0.3870  Tot=              4.5904

 Test job not archived.
 1\1\GINC-SE094\SP\RHF\Aug-CC-pVDZ\C2H1N1O3\OHZDE\08-Apr-2025\0\\#t hf
 aug-cc-pvdz iop(5/13=1,5/36=2,99/5=2) pseudo=read geom=check guess=(re
 ad,tcheck) scf=(maxcycle=1)\\title\\0,1\C,0,0.798028,0.064856,0.058757
 1\C,0,-1.35047,0.555017,-0.0206866\H,0,-2.194,1.2023,0.12264\N,0,-1.39
 244,-0.761073,-0.0649328\O,0,1.97414,-0.0116259,-0.0509912\O,0,-0.0561
 543,1.12048,0.00510741\O,0,-0.0110196,-1.05811,0.0588171\\Version=ES64
 L-G16RevC.01\State=1-A\HF=-355.4454915\RMSD=2.796e-03\Dipole=-1.527775
 5,0.9509551,0.152273\Quadrupole=-1.0949469,-0.5617524,1.6566993,-3.371

 Normal termination of Gaussian 16 at Tue Apr  8 21:39:46 2025.
