 Gaussian 16, Revision C.01,

 ----------------------------------------------------------------------
 #t hf aug-cc-pvdz symm=none int=(grid=ultrafine) guess=(read,tcheck) s
 table=(opt,rrhf)
 ----------------------------------------------------------------------
 -----
 title
 -----
 Symbolic Z-matrix:
 Charge =  0 Multiplicity = 1

 SCF Done:  E(RHF) =  -609.263788509     A.U. after   12 cycles
 Normal termination of Gaussian 16 at Tue Apr  8 22:29:37 2025.
 Gaussian 16:  ES64L-G16RevC.01  3-Jul-2019

 ----------------------------------------------------------------------
 #t hf aug-cc-pvdz iop(5/13=1,5/36=2,99/5=2) pseudo=read geom=check gue
 ss=(read,tcheck) scf=(maxcycle=1)
 ----------------------------------------------------------------------
 -----
 title
 -----
 Structure from the checkpoint file:  "ANI1ccx_99_conf2_mol2.chk"
 Charge =  0 Multiplicity = 1

                         Standard orientation:
 ---------------------------------------------------------------------
 Center     Atomic      Atomic             Coordinates (Angstroms)
 Number     Number       Type             X           Y           Z
 ---------------------------------------------------------------------
      1          6           0       -2.403209   -1.125251   -0.532991
      2          6           0       -1.477979   -1.828351    0.446522
      3          6           0        0.834152   -2.199580   -0.344613
      4          6           0        2.154151   -1.522439   -0.695610
      5          6           0        2.511890    0.852093   -0.234421
      6          6           0        1.498199    1.983481    0.028557
      7          6           0       -0.974997    2.207759   -0.182321
      8          6           0       -1.872991    1.288419   -1.018720
      9          6           0        0.004949    0.816028    1.577050
     10          6           0        0.396097   -0.658233    1.568350
     11          1           0       -1.568871    2.674239    0.615133
     12          1           0       -0.598649    2.983880   -0.850583
     13          1           0       -2.592401    1.895179   -1.583220
     14          1           0       -1.191990    0.758646   -1.721800
     15          1           0        1.492891   -0.746186    1.571050
     16          1           0        0.554934    1.331600    2.391930
     17          1           0       -1.071520    0.899031    1.853510
     18          1           0        0.074451   -1.098710    2.511730
     19          1           0        1.895089    2.663881    0.817210
     20          1           0       -3.645590    0.462641   -0.263950
     21          1           0        1.443509    2.568611   -0.886203
     22          1           0        2.840611   -1.545289    0.184147
     23          1           0        3.363179    1.291082   -0.753396
     24          1           0        0.934983   -0.010150   -1.085460
     25          1           0        2.644661   -2.096469   -1.489390
     26          1           0        1.087022   -3.111330    0.204498
     27          1           0        0.331050   -2.514530   -1.295430
     28          1           0       -1.535088   -2.914961    0.228424
     29          1           0       -1.892099   -1.715371    1.480150
     30          1           0       -3.364549   -1.674922   -0.489547
     31          1           0       -1.978519   -1.255761   -1.532420
     32          1           0        2.869400    0.409900    0.713758
     33          7           0        0.180631    1.502940    0.329302
     34          7           0       -0.089448   -1.377530    0.413718
     35          7           0        1.953860   -0.146834   -1.133160
     36          7           0       -2.632770    0.287343   -0.222852
 ---------------------------------------------------------------------

 SCF Done:  E(RHF) =  -609.444759530     A.U. after    2 cycles

 The electronic state is 1-A.
 Alpha  occ. eigenvalues --  -15.60248 -15.59219 -15.58934 -15.58040 -11.25519
 Alpha  occ. eigenvalues --  -11.25504 -11.25370 -11.25314 -11.25229 -11.25176
 Alpha  occ. eigenvalues --  -11.24766 -11.24681 -11.24572 -11.24241  -1.21602
 Alpha  occ. eigenvalues --   -1.18047  -1.16434  -1.14251  -1.02463  -1.00209
 Alpha  occ. eigenvalues --   -0.97098  -0.95974  -0.86827  -0.85271  -0.83142
 Alpha  occ. eigenvalues --   -0.80544  -0.76952  -0.74070  -0.68773  -0.66406
 Alpha  occ. eigenvalues --   -0.65106  -0.64070  -0.63232  -0.62275  -0.61427
 Alpha  occ. eigenvalues --   -0.59153  -0.57985  -0.57628  -0.56538  -0.55320
 Alpha  occ. eigenvalues --   -0.54129  -0.52733  -0.51898  -0.51269  -0.50137
 Alpha  occ. eigenvalues --   -0.48768  -0.48097  -0.47599  -0.47084  -0.45523
 Alpha  occ. eigenvalues --   -0.45049  -0.36237  -0.34806  -0.32305  -0.31846
 Alpha virt. eigenvalues --    0.03166   0.03421   0.03566   0.03873   0.05477
 Alpha virt. eigenvalues --    0.05680   0.06088   0.06189   0.06512   0.07471
 Alpha virt. eigenvalues --    0.07532   0.07892   0.08328   0.08397   0.08636

 Mulliken charges:
               1
     1  C    0.688281
     2  C    0.415623
     3  C    0.632638
     4  C    0.562589
     5  C    0.861576
     6  C    0.366129
     7  C    0.609186
     8  C    0.577480
     9  C    0.482260
    10  C    0.605016
    11  H   -0.201793
    12  H   -0.180082
    13  H   -0.245821
    14  H   -0.160114
    15  H   -0.343832
    16  H   -0.133701
    17  H   -0.262642
    18  H   -0.339940
    19  H   -0.238512
    20  H   -0.016244
    21  H   -0.379274
    22  H   -0.100708
    23  H   -0.328209
    24  H    0.150408
    25  H   -0.241776
    26  H   -0.238691
    27  H   -0.210029
    28  H   -0.216784
    29  H   -0.177024
    30  H   -0.163177
    31  H   -0.124598
    32  H   -0.062739
    33  N   -0.059823
    34  N   -0.319664
    35  N   -0.625193
    36  N   -0.580816
 Sum of Mulliken charges =  -0.00000

 Dipole moment (field-independent basis, Debye):
    X=             -1.5768    Y=             -0.0723    Z=              0.6560  Tot=              1.7093

 Test job not archived.
 1\1\GINC-SE229\SP\RHF\Aug-CC-pVDZ\C10H22N4\OHZDE\08-Apr-2025\0\\#t hf
 aug-cc-pvdz iop(5/13=1,5/36=2,99/5=2) pseudo=read geom=check guess=(re
 ad,tcheck) scf=(maxcycle=1)\\title\\0,1\C,0,-2.40321,-1.12525,-0.53299
 1\C,0,-1.47798,-1.82835,0.446522\C,0,0.834151,-2.19958,-0.344613\C,0,2
 .15415,-1.52244,-0.69561\C,0,2.51189,0.852092,-0.234421\C,0,1.4982,1.9
 8348,0.0285569\C,0,-0.974996,2.20776,-0.182321\C,0,-1.87299,1.28842,-1
 .01872\C,0,0.0049497,0.816028,1.57705\C,0,0.396097,-0.658233,1.56835\H
 ,0,-1.56887,2.67424,0.615133\H,0,-0.598648,2.98388,-0.850583\H,0,-2.59

 Normal termination of Gaussian 16 at Tue Apr  8 22:30:37 2025.
