 Gaussian 16, Revision C.01,

 ----------------------------------------------------------------------
 #t hf aug-cc-pvdz symm=none int=(grid=ultrafine) guess=(read,tcheck) s
 table=(opt,rrhf)
 ----------------------------------------------------------------------
 -----
 title
 -----
 Symbolic Z-matrix:
 Charge =  0 Multiplicity = 1

 SCF Done:  E(RHF) =  -982.113747602     A.U. after   14 cycles
 Normal termination of Gaussian 16 at Tue Apr  8 20:39:51 2025.
 Gaussian 16:  ES64L-G16RevC.01  3-Jul-2019

 ----------------------------------------------------------------------
 #t hf aug-cc-pvdz iop(5/13=1,5/36=2,99/5=2) pseudo=read geom=check gue
 ss=(read,tcheck) scf=(maxcycle=1)
 ----------------------------------------------------------------------
 -----
 title
 -----
 Structure from the checkpoint file:  "ANI1ccx_1743_conf11_mol2.chk"
 Charge =  0 Multiplicity = 1

                         Standard orientation:
 ---------------------------------------------------------------------
 Center     Atomic      Atomic             Coordinates (Angstroms)
 Number     Number       Type             X           Y           Z
 ---------------------------------------------------------------------
      1          6           0        1.316630   -1.725200    0.138644
      2          6           0       -0.005434   -1.085760   -0.328938
      3          6           0        2.502680   -1.407001   -0.737676
      4          6           0        2.871770    0.068317   -0.986495
      5          6           0        3.191671    0.719831    0.341210
      6          6           0       -1.458579    0.890122   -0.247433
      7          6           0       -1.214349    2.390111   -0.379183
      8          6           0       -2.578059    0.605737    0.812508
      9          6           0       -3.219430   -0.759312    0.602818
     10          1           0        0.218071    3.642370   -0.379304
     11          1           0       -4.192910   -1.700418   -0.624557
     12          1           0       -2.177129    0.580246    1.827160
     13          1           0       -3.399079    1.335062    0.703222
     14          1           0       -1.804029    0.547665   -1.254390
     15          1           0        0.313567    0.577616    0.875355
     16          1           0        4.587271    1.085278    1.490860
     17          1           0        3.754630    0.053276   -1.609930
     18          1           0        2.122631    0.631298   -1.540770
     19          1           0        2.317239   -1.880931   -1.754280
     20          1           0        3.383439   -1.965911   -0.296952
     21          1           0        1.529190   -1.494350    1.168940
     22          1           0        0.380864   -3.387740    0.797982
     23          1           0        0.540633   -3.334640   -0.828249
     24          7           0        1.066259   -3.181110    0.070627
     25          7           0       -0.229551    0.202043    0.081732
     26          8           0       -0.729063   -1.723969   -1.093850
     27          8           0        2.392031    1.125269    1.187980
     28          8           0        4.517741    0.708227    0.613480
     29          8           0       -2.093928    3.199841   -0.540687
     30          8           0       -3.030000   -1.724298    1.278040
     31          8           0       -3.909230   -0.778884   -0.556344
     32          8           0        0.118359    2.691760   -0.255413
 ---------------------------------------------------------------------

 SCF Done:  E(RHF) =  -982.412573288     A.U. after    2 cycles

 The electronic state is 1-A.
 Alpha  occ. eigenvalues --  -20.64531 -20.64408 -20.62612 -20.58766 -20.58488
 Alpha  occ. eigenvalues --  -20.57079 -20.54997 -15.66328 -15.60404 -11.42603
 Alpha  occ. eigenvalues --  -11.42422 -11.40243 -11.37358 -11.32649 -11.28422
 Alpha  occ. eigenvalues --  -11.27440 -11.27429 -11.27068  -1.44426  -1.43845
 Alpha  occ. eigenvalues --   -1.43452  -1.35732  -1.34863  -1.33725  -1.33585
 Alpha  occ. eigenvalues --   -1.22172  -1.16226  -1.08054  -1.06566  -0.98308
 Alpha  occ. eigenvalues --   -0.95730  -0.88050  -0.85094  -0.83271  -0.82073
 Alpha  occ. eigenvalues --   -0.79288  -0.74900  -0.74006  -0.73424  -0.72786
 Alpha  occ. eigenvalues --   -0.71612  -0.70334  -0.69798  -0.68017  -0.67204
 Alpha  occ. eigenvalues --   -0.66874  -0.65016  -0.64197  -0.62575  -0.62052
 Alpha  occ. eigenvalues --   -0.61474  -0.60976  -0.59865  -0.58807  -0.57009
 Alpha  occ. eigenvalues --   -0.56459  -0.55046  -0.53936  -0.52389  -0.51881
 Alpha  occ. eigenvalues --   -0.51308  -0.50821  -0.50477  -0.49577  -0.47913
 Alpha  occ. eigenvalues --   -0.46990  -0.44959  -0.41077  -0.39623
 Alpha virt. eigenvalues --    0.02428   0.03463   0.03764   0.04135   0.05144
 Alpha virt. eigenvalues --    0.05465   0.05959   0.06208   0.06558   0.07160
 Alpha virt. eigenvalues --    0.08012   0.08338   0.09063   0.09643   0.09748

 Mulliken charges:
               1
     1  C    0.484477
     2  C    0.360733
     3  C   -0.129145
     4  C    0.683411
     5  C    0.658282
     6  C   -0.387661
     7  C    0.971903
     8  C    0.533586
     9  C    0.686379
    10  H    0.209365
    11  H    0.192853
    12  H   -0.077988
    13  H    0.011406
    14  H   -0.023315
    15  H    0.063515
    16  H    0.158146
    17  H   -0.089745
    18  H   -0.014119
    19  H    0.047413
    20  H    0.095396
    21  H   -0.271662
    22  H    0.035315
    23  H    0.160938
    24  N   -0.411958
    25  N   -0.166242
    26  O   -0.604775
    27  O   -0.548256
    28  O   -0.515967
    29  O   -0.503217
    30  O   -0.510857
    31  O   -0.530883
    32  O   -0.567328
 Sum of Mulliken charges =   0.00000

 Dipole moment (field-independent basis, Debye):
    X=              3.2901    Y=              2.7509    Z=              0.0134  Tot=              4.2886

 Test job not archived.
 1\1\GINC-SE184\SP\RHF\Aug-CC-pVDZ\C9H14N2O7\OHZDE\08-Apr-2025\0\\#t hf
  aug-cc-pvdz iop(5/13=1,5/36=2,99/5=2) pseudo=read geom=check guess=(r
 ead,tcheck) scf=(maxcycle=1)\\title\\0,1\C,0,1.31663,-1.7252,0.138644\
 C,0,-0.00543393,-1.08576,-0.328938\C,0,2.50268,-1.407,-0.737676\C,0,2.
 87177,0.0683177,-0.986495\C,0,3.19167,0.719832,0.34121\C,0,-1.45858,0.
 890121,-0.247433\C,0,-1.21435,2.39011,-0.379183\C,0,-2.57806,0.605735,
 0.812508\C,0,-3.21943,-0.759314,0.602818\H,0,0.218069,3.64237,-0.37930
 4\H,0,-4.19291,-1.70042,-0.624557\H,0,-2.17713,0.580245,1.82716\H,0,-3

 Normal termination of Gaussian 16 at Tue Apr  8 20:40:40 2025.
