 Gaussian 16, Revision C.01,

 ----------------------------------------------------------------------
 #t hf aug-cc-pvdz symm=none int=(grid=ultrafine) guess=(read,tcheck) s
 table=(opt,rrhf)
 ----------------------------------------------------------------------
 -----
 title
 -----
 Symbolic Z-matrix:
 Charge =  0 Multiplicity = 1

 SCF Done:  E(RHF) =  -755.416340345     A.U. after   15 cycles
 Normal termination of Gaussian 16 at Tue Apr  8 19:34:01 2025.
 Gaussian 16:  ES64L-G16RevC.01  3-Jul-2019

 ----------------------------------------------------------------------
 #t hf aug-cc-pvdz iop(5/13=1,5/36=2,99/5=2) pseudo=read geom=check gue
 ss=(read,tcheck) scf=(maxcycle=1)
 ----------------------------------------------------------------------
 -----
 title
 -----
 Structure from the checkpoint file:  "ANI1ccx_1405_conf4_mol1.chk"
 Charge =  0 Multiplicity = 1

                         Standard orientation:
 ---------------------------------------------------------------------
 Center     Atomic      Atomic             Coordinates (Angstroms)
 Number     Number       Type             X           Y           Z
 ---------------------------------------------------------------------
      1          6           0        0.830405   -1.579730    0.531947
      2          6           0        0.291753   -1.216350   -0.790870
      3          6           0        0.942894   -0.392949    1.475380
      4          6           0        1.985190    0.653491    1.157620
      5          6           0        1.577531    1.621049    0.089534
      6          6           0       -2.129591   -1.023028   -0.022727
      7          6           0       -2.872800    0.345384    0.178080
      8          1           0       -1.246569    1.338861   -0.359875
      9          1           0       -2.909411   -1.757228   -0.352127
     10          1           0       -1.724141   -1.295489    0.963410
     11          1           0       -1.173551   -0.780665   -1.948290
     12          1           0        2.048082    2.706169   -1.205130
     13          1           0        2.248231    1.223249    2.083710
     14          1           0        2.943090    0.187035    0.864367
     15          1           0        1.177769   -0.818587    2.469170
     16          1           0        0.013046    0.121247    1.716860
     17          1           0        0.130967   -2.224890    1.083730
     18          1           0        1.902728   -3.168951    0.075472
     19          1           0        2.606939   -1.868692   -0.404135
     20          7           0        2.106108   -2.222981    0.412281
     21          7           0       -1.053591   -0.884445   -0.954436
     22          8           0        1.095919   -1.135191   -1.718230
     23          8           0        0.433791    1.694250   -0.326094
     24          8           0        2.562532    2.308228   -0.504822
     25          8           0       -3.984070    0.375672    0.664420
     26          8           0       -2.250309    1.462382   -0.228506
 ---------------------------------------------------------------------

 SCF Done:  E(RHF) =  -755.647711923     A.U. after    2 cycles

 The electronic state is 1-A.
 Alpha  occ. eigenvalues --  -20.65529 -20.60673 -20.59733 -20.56252 -20.55319
 Alpha  occ. eigenvalues --  -15.67337 -15.62510 -11.43542 -11.39711 -11.38606
 Alpha  occ. eigenvalues --  -11.32518 -11.30077 -11.28295 -11.27025  -1.46757
 Alpha  occ. eigenvalues --   -1.40059  -1.37361  -1.35873  -1.31039  -1.22573
 Alpha  occ. eigenvalues --   -1.19699  -1.09160  -1.01041  -0.98944  -0.91310
 Alpha  occ. eigenvalues --   -0.84138  -0.82762  -0.77788  -0.77203  -0.74395
 Alpha  occ. eigenvalues --   -0.73808  -0.73483  -0.70830  -0.70292  -0.67395
 Alpha  occ. eigenvalues --   -0.66803  -0.64608  -0.64226  -0.63483  -0.61000
 Alpha  occ. eigenvalues --   -0.59965  -0.59552  -0.57889  -0.55683  -0.54771
 Alpha  occ. eigenvalues --   -0.53509  -0.53000  -0.51077  -0.50294  -0.48190
 Alpha  occ. eigenvalues --   -0.48028  -0.46228  -0.43006  -0.41068
 Alpha virt. eigenvalues --    0.02399   0.02965   0.03409   0.04121   0.04910
 Alpha virt. eigenvalues --    0.05915   0.06223   0.06627   0.07741   0.07945
 Alpha virt. eigenvalues --    0.09363   0.09572   0.09958   0.10864   0.11483

 Mulliken charges:
               1
     1  C    0.176426
     2  C    0.803823
     3  C    0.685660
     4  C    0.026194
     5  C    0.513305
     6  C    0.507040
     7  C    0.635840
     8  H    0.378683
     9  H   -0.049271
    10  H   -0.064527
    11  H   -0.050025
    12  H    0.142716
    13  H    0.085128
    14  H    0.008467
    15  H   -0.059779
    16  H   -0.339858
    17  H   -0.081989
    18  H   -0.016566
    19  H    0.105003
    20  N   -0.306748
    21  N   -0.466868
    22  O   -0.655188
    23  O   -0.544340
    24  O   -0.446415
    25  O   -0.510605
    26  O   -0.476104
 Sum of Mulliken charges =  -0.00000

 Dipole moment (field-independent basis, Debye):
    X=              3.8812    Y=             -2.3229    Z=              0.7852  Tot=              4.5909

 Test job not archived.
 1\1\GINC-SE460\SP\RHF\Aug-CC-pVDZ\C7H12N2O5\OHZDE\08-Apr-2025\0\\#t hf
  aug-cc-pvdz iop(5/13=1,5/36=2,99/5=2) pseudo=read geom=check guess=(r
 ead,tcheck) scf=(maxcycle=1)\\title\\0,1\C,0,0.830406,-1.57973,0.53194
 7\C,0,0.291754,-1.21635,-0.79087\C,0,0.942894,-0.392949,1.47538\C,0,1.
 98519,0.653492,1.15762\C,0,1.57753,1.62105,0.0895341\C,0,-2.12959,-1.0
 2303,-0.0227272\C,0,-2.8728,0.345382,0.17808\H,0,-1.24657,1.33886,-0.3
 59875\H,0,-2.90941,-1.75723,-0.352127\H,0,-1.72414,-1.29549,0.96341\H,
 0,-1.17355,-0.780666,-1.94829\H,0,2.04808,2.70617,-1.20513\H,0,2.24823

 Normal termination of Gaussian 16 at Tue Apr  8 19:34:32 2025.
