 Gaussian 16, Revision C.01,

 ----------------------------------------------------------------------
 #t hf aug-cc-pvdz symm=none int=(grid=ultrafine) guess=(read,tcheck) s
 table=(opt,rrhf)
 ----------------------------------------------------------------------
 -----
 title
 -----
 Symbolic Z-matrix:
 Charge =  0 Multiplicity = 1

 SCF Done:  E(RHF) =  -755.374378113     A.U. after   15 cycles
 Normal termination of Gaussian 16 at Tue Apr  8 19:32:29 2025.
 Gaussian 16:  ES64L-G16RevC.01  3-Jul-2019

 ----------------------------------------------------------------------
 #t hf aug-cc-pvdz iop(5/13=1,5/36=2,99/5=2) pseudo=read geom=check gue
 ss=(read,tcheck) scf=(maxcycle=1)
 ----------------------------------------------------------------------
 -----
 title
 -----
 Structure from the checkpoint file:  "ANI1ccx_1405_conf22_mol1.chk"
 Charge =  0 Multiplicity = 1

                         Standard orientation:
 ---------------------------------------------------------------------
 Center     Atomic      Atomic             Coordinates (Angstroms)
 Number     Number       Type             X           Y           Z
 ---------------------------------------------------------------------
      1          6           0       -0.924074    1.983052   -0.063531
      2          6           0        0.105880    1.072791    0.649510
      3          6           0       -1.953539    1.018232   -0.674041
      4          6           0       -2.580300    0.054727    0.276689
      5          6           0       -2.404960   -1.392308   -0.060807
      6          6           0        2.465860    0.275508    0.763109
      7          6           0        2.884350   -0.880079   -0.103377
      8          1           0        1.075020   -1.207719   -0.646618
      9          1           0        3.420051    0.871338    0.904468
     10          1           0        1.959880   -0.083294    1.611930
     11          1           0        1.445711    1.609421   -0.770232
     12          1           0       -1.290281   -2.668108   -0.649221
     13          1           0       -2.134150    0.178898    1.279850
     14          1           0       -3.654490    0.263176    0.313310
     15          1           0       -2.691919    1.742482   -1.218830
     16          1           0       -1.563180    0.557344   -1.547890
     17          1           0       -1.541429    2.579122    0.708916
     18          1           0        0.676039    3.197791   -0.599935
     19          1           0       -0.787524    3.559232   -1.361460
     20          7           0       -0.170686    2.792971   -1.014490
     21          7           0        1.392671    1.153471    0.143393
     22          8           0       -0.146304    0.509165    1.771700
     23          8           0       -3.125531   -2.311088    0.288957
     24          8           0       -1.235440   -1.677398   -0.649528
     25          8           0        4.032900   -1.171180   -0.372218
     26          8           0        1.846010   -1.726539   -0.620397
 ---------------------------------------------------------------------

 SCF Done:  E(RHF) =  -755.603266085     A.U. after    2 cycles

 The electronic state is 1-A.
 Alpha  occ. eigenvalues --  -20.64097 -20.61638 -20.58426 -20.56812 -20.56624
 Alpha  occ. eigenvalues --  -15.69557 -15.66248 -11.41752 -11.40932 -11.40438
 Alpha  occ. eigenvalues --  -11.32774 -11.32736 -11.27293 -11.26443  -1.44378
 Alpha  occ. eigenvalues --   -1.40711  -1.34755  -1.32992  -1.32456  -1.23312
 Alpha  occ. eigenvalues --   -1.19124  -1.09696  -1.02921  -0.98187  -0.88546
 Alpha  occ. eigenvalues --   -0.83047  -0.82816  -0.80811  -0.77250  -0.73619
 Alpha  occ. eigenvalues --   -0.72748  -0.71225  -0.69450  -0.68643  -0.68212
 Alpha  occ. eigenvalues --   -0.66011  -0.65336  -0.64178  -0.62233  -0.60981
 Alpha  occ. eigenvalues --   -0.60476  -0.59178  -0.58143  -0.57198  -0.56254
 Alpha  occ. eigenvalues --   -0.54573  -0.51589  -0.50810  -0.50216  -0.49122
 Alpha  occ. eigenvalues --   -0.47469  -0.44967  -0.43908  -0.42614
 Alpha virt. eigenvalues --    0.01555   0.02737   0.03430   0.03944   0.05438
 Alpha virt. eigenvalues --    0.05828   0.06529   0.06732   0.06975   0.07899
 Alpha virt. eigenvalues --    0.08435   0.09701   0.10387   0.10525   0.11113

 Mulliken charges:
               1
     1  C    0.285052
     2  C    0.655621
     3  C    0.232370
     4  C    0.321945
     5  C    0.539817
     6  C    0.616833
     7  C    0.692111
     8  H    0.149125
     9  H   -0.031554
    10  H   -0.117952
    11  H   -0.001522
    12  H    0.258361
    13  H    0.065995
    14  H    0.052699
    15  H    0.088003
    16  H   -0.319977
    17  H    0.112469
    18  H    0.099755
    19  H   -0.012549
    20  N   -0.339152
    21  N   -0.595717
    22  O   -0.710710
    23  O   -0.548390
    24  O   -0.577108
    25  O   -0.452295
    26  O   -0.463229
 Sum of Mulliken charges =  -0.00000

 Dipole moment (field-independent basis, Debye):
    X=             -1.6294    Y=              7.4313    Z=             -1.8513  Tot=              7.8299

 Test job not archived.
 1\1\GINC-SE335\SP\RHF\Aug-CC-pVDZ\C7H12N2O5\OHZDE\08-Apr-2025\0\\#t hf
  aug-cc-pvdz iop(5/13=1,5/36=2,99/5=2) pseudo=read geom=check guess=(r
 ead,tcheck) scf=(maxcycle=1)\\title\\0,1\C,0,-0.924075,1.98305,-0.0635
 303\C,0,0.105879,1.07279,0.64951\C,0,-1.95354,1.01823,-0.674041\C,0,-2
 .5803,0.054725,0.276689\C,0,-2.40496,-1.39231,-0.060807\C,0,2.46586,0.
 275507,0.763109\C,0,2.88435,-0.880079,-0.103377\H,0,1.07502,-1.20772,-
 0.646618\H,0,3.42005,0.871338,0.904468\H,0,1.95988,-0.0832952,1.61193\
 H,0,1.44571,1.60942,-0.770232\H,0,-1.29028,-2.66811,-0.649221\H,0,-2.1

 Normal termination of Gaussian 16 at Tue Apr  8 19:32:57 2025.
