 Gaussian 16, Revision C.01,

 ----------------------------------------------------------------------
 #t hf aug-cc-pvdz symm=none int=(grid=ultrafine) guess=(read,tcheck) s
 table=(opt,rrhf)
 ----------------------------------------------------------------------
 -----
 title
 -----
 Symbolic Z-matrix:
 Charge =  0 Multiplicity = 1

 SCF Done:  E(RHF) =  -456.223471469     A.U. after   12 cycles
 Normal termination of Gaussian 16 at Tue Apr  8 21:07:45 2025.
 Gaussian 16:  ES64L-G16RevC.01  3-Jul-2019

 ----------------------------------------------------------------------
 #t hf aug-cc-pvdz iop(5/13=1,5/36=2,99/5=2) pseudo=read geom=check gue
 ss=(read,tcheck) scf=(maxcycle=1)
 ----------------------------------------------------------------------
 -----
 title
 -----
 Structure from the checkpoint file:  "ANI1ccx_1844_conf449_mol1.chk"
 Charge =  0 Multiplicity = 1

                         Standard orientation:
 ---------------------------------------------------------------------
 Center     Atomic      Atomic             Coordinates (Angstroms)
 Number     Number       Type             X           Y           Z
 ---------------------------------------------------------------------
      1          1           0       -0.823631   -1.479420   -0.908918
      2          1           0        1.226600    0.041531    2.504560
      3          1           0        0.023886   -0.407846    1.505040
      4          1           0        1.364908   -1.957932    0.275804
      5          1           0        1.369289   -0.635287   -0.871339
      6          1           0        2.646271    1.296377   -0.594476
      7          1           0       -2.393952   -1.794649   -1.066650
      8          1           0        1.492100    0.660411    0.353501
      9          1           0        0.287720    1.746869   -0.889349
     10          1           0       -1.120119    1.075860   -1.301120
     11          1           0       -1.258699    1.063820    0.776811
     12          1           0       -1.889300   -0.219745    0.594132
     13          8           0        1.146659   -1.641231   -0.761810
     14          8           0       -0.705652    1.843400   -0.884044
     15          8           0        1.073550   -0.347067    1.597930
     16          8           0        1.776411    0.951801   -0.559995
     17          8           0       -1.716071   -1.132719   -0.811523
     18          8           0       -1.690530    0.402068    1.372190
 ---------------------------------------------------------------------

 SCF Done:  E(RHF) =  -456.370853490     A.U. after    2 cycles

 The electronic state is 1-A.
 Alpha  occ. eigenvalues --  -20.61353 -20.60146 -20.59851 -20.56980 -20.55771
 Alpha  occ. eigenvalues --  -20.55128  -1.35449  -1.33385  -1.31865  -1.28887
 Alpha  occ. eigenvalues --   -1.27095  -1.25029  -0.80170  -0.76729  -0.73534
 Alpha  occ. eigenvalues --   -0.73036  -0.69190  -0.68848  -0.64579  -0.63466
 Alpha  occ. eigenvalues --   -0.62802  -0.58756  -0.58106  -0.55560  -0.54946
 Alpha  occ. eigenvalues --   -0.54229  -0.52991  -0.50603  -0.50400  -0.49605
 Alpha virt. eigenvalues --    0.02392   0.03832   0.04593   0.06112   0.07248
 Alpha virt. eigenvalues --    0.07717   0.07922   0.08288   0.09022   0.10089
 Alpha virt. eigenvalues --    0.10655   0.11622   0.17016   0.17662   0.18129

 Mulliken charges:
               1
     1  H    0.206682
     2  H    0.233387
     3  H    0.369487
     4  H    0.345039
     5  H    0.367523
     6  H    0.184698
     7  H    0.230954
     8  H    0.402874
     9  H    0.304993
    10  H    0.217186
    11  H    0.239545
    12  H    0.336164
    13  O   -0.648786
    14  O   -0.473148
    15  O   -0.642282
    16  O   -0.666960
    17  O   -0.467054
    18  O   -0.540301
 Sum of Mulliken charges =  -0.00000

 Dipole moment (field-independent basis, Debye):
    X=              2.6042    Y=             -1.4566    Z=              0.8791  Tot=              3.1106

 Test job not archived.
 1\1\GINC-SE150\SP\RHF\Aug-CC-pVDZ\H12O6\OHZDE\08-Apr-2025\0\\#t hf aug
 -cc-pvdz iop(5/13=1,5/36=2,99/5=2) pseudo=read geom=check guess=(read,
 tcheck) scf=(maxcycle=1)\\title\\0,1\H,0,-0.82363,-1.47942,-0.908918\H
 ,0,1.2266,0.0415324,2.50456\H,0,0.0238865,-0.407845,1.50504\H,0,1.3649
 1,-1.95793,0.275804\H,0,1.36929,-0.635285,-0.871339\H,0,2.64627,1.2963
 8,-0.594476\H,0,-2.39395,-1.79465,-1.06665\H,0,1.4921,0.660413,0.35350
 1\H,0,0.287719,1.74687,-0.889349\H,0,-1.12012,1.07586,-1.30112\H,0,-1.
 2587,1.06382,0.776811\H,0,-1.8893,-0.219746,0.594132\O,0,1.14666,-1.64

 Normal termination of Gaussian 16 at Tue Apr  8 21:07:51 2025.
