 Gaussian 16, Revision C.01,

 ----------------------------------------------------------------------
 #t hf aug-cc-pvdz symm=none int=(grid=ultrafine) guess=(read,tcheck) s
 table=(opt,rrhf)
 ----------------------------------------------------------------------
 -----
 title
 -----
 Symbolic Z-matrix:
 Charge =  0 Multiplicity = 1

 SCF Done:  E(RHF) =  -764.586726893     A.U. after   12 cycles
 Normal termination of Gaussian 16 at Tue Apr  8 22:18:40 2025.
 Gaussian 16:  ES64L-G16RevC.01  3-Jul-2019

 ----------------------------------------------------------------------
 #t hf aug-cc-pvdz iop(5/13=1,5/36=2,99/5=2) pseudo=read geom=check gue
 ss=(read,tcheck) scf=(maxcycle=1)
 ----------------------------------------------------------------------
 -----
 title
 -----
 Structure from the checkpoint file:  "ANI1ccx_92_conf1_mol2.chk"
 Charge =  0 Multiplicity = 1

                         Standard orientation:
 ---------------------------------------------------------------------
 Center     Atomic      Atomic             Coordinates (Angstroms)
 Number     Number       Type             X           Y           Z
 ---------------------------------------------------------------------
      1          6           0       -0.246864   -2.745450   -0.038492
      2          6           0       -3.107422   -0.600859    0.226464
      3          6           0       -1.735638    1.026183   -0.882044
      4          6           0       -1.222545    2.460502   -0.765039
      5          6           0        0.486315    2.178998    0.886830
      6          6           0       -2.224454   -1.709636    0.751627
      7          6           0        2.843240    0.132080    0.443665
      8          6           0        3.083167   -1.221737   -0.196335
      9          6           0        0.794711   -1.702913   -0.409280
     10          6           0        1.817524    2.213505    0.053331
     11          1           0        0.224628    1.169399    1.041960
     12          1           0       -1.536553   -1.380268    1.610940
     13          1           0       -2.847716   -2.467885    1.167660
     14          1           0       -4.179232   -0.544371    0.735738
     15          1           0       -3.437482   -0.791235   -0.865546
     16          1           0       -0.832610    0.334064   -1.030460
     17          1           0       -2.422209    0.899572   -1.688070
     18          1           0       -2.125424    3.068254   -1.007070
     19          1           0       -0.552601    2.503150   -1.639450
     20          1           0        0.696176    2.536558    1.860310
     21          1           0        2.435269   -0.162939    1.437160
     22          1           0        2.644755    2.489544    0.662711
     23          1           0        3.787201    0.630954    0.645062
     24          1           0        3.338127   -1.170798   -1.280980
     25          1           0        3.872646   -1.730349    0.318667
     26          1           0        0.789408   -1.388483   -1.437410
     27          1           0        0.450396   -0.791317    0.124508
     28          1           0       -0.288524   -3.567200   -0.781677
     29          1           0       -0.111460   -3.080281    0.972228
     30          1           0        1.677926    2.896436   -0.779950
     31          8           0       -2.495619    0.671766    0.339534
     32          8           0        2.048965   -2.199775    0.000264
     33          8           0        2.040891    0.915402   -0.441119
     34          8           0       -0.586727    2.901560    0.345167
     35          8           0       -1.571375   -2.243558   -0.305182
 ---------------------------------------------------------------------

 SCF Done:  E(RHF) =  -764.828279002     A.U. after    2 cycles

 The electronic state is 1-A.
 Alpha  occ. eigenvalues --  -20.58432 -20.57909 -20.57264 -20.56403 -20.56367
 Alpha  occ. eigenvalues --  -11.30393 -11.29188 -11.29038 -11.29015 -11.28691
 Alpha  occ. eigenvalues --  -11.28630 -11.28344 -11.28033 -11.27832 -11.27814
 Alpha  occ. eigenvalues --   -1.36171  -1.35283  -1.35047  -1.33375  -1.30736
 Alpha  occ. eigenvalues --   -1.05279  -1.04210  -1.00189  -0.98655  -0.93745
 Alpha  occ. eigenvalues --   -0.89483  -0.85044  -0.83018  -0.82070  -0.80098
 Alpha  occ. eigenvalues --   -0.72364  -0.70984  -0.69627  -0.69452  -0.69351
 Alpha  occ. eigenvalues --   -0.68148  -0.65954  -0.65623  -0.64573  -0.63011
 Alpha  occ. eigenvalues --   -0.62407  -0.61256  -0.59854  -0.59070  -0.56677
 Alpha  occ. eigenvalues --   -0.56140  -0.54653  -0.52817  -0.52025  -0.51075
 Alpha  occ. eigenvalues --   -0.50830  -0.49491  -0.49048  -0.47977  -0.46178
 Alpha  occ. eigenvalues --   -0.45035  -0.44459  -0.43677  -0.41065  -0.40184
 Alpha virt. eigenvalues --    0.02950   0.03922   0.04066   0.04308   0.05053
 Alpha virt. eigenvalues --    0.05095   0.05466   0.05724   0.06092   0.07042
 Alpha virt. eigenvalues --    0.07447   0.07564   0.08017   0.08468   0.09071

 Mulliken charges:
               1
     1  C    0.881970
     2  C    0.228821
     3  C    0.885740
     4  C    0.562556
     5  C    1.525222
     6  C    0.898808
     7  C    0.722716
     8  C    0.734482
     9  C    0.982475
    10  C    0.614334
    11  H   -0.606158
    12  H    0.000245
    13  H   -0.371277
    14  H   -0.112128
    15  H    0.010441
    16  H   -0.307039
    17  H   -0.308910
    18  H   -0.148411
    19  H    0.014569
    20  H   -0.331269
    21  H   -0.022388
    22  H   -0.137565
    23  H   -0.337848
    24  H   -0.101580
    25  H   -0.313953
    26  H   -0.095910
    27  H   -0.829643
    28  H   -0.196833
    29  H   -0.109282
    30  H   -0.375480
    31  O   -0.727227
    32  O   -0.760222
    33  O   -0.552111
    34  O   -0.626026
    35  O   -0.691120
 Sum of Mulliken charges =  -0.00000

 Dipole moment (field-independent basis, Debye):
    X=              2.3629    Y=              0.0650    Z=              0.1346  Tot=              2.3676

 Test job not archived.
 1\1\GINC-SE073\SP\RHF\Aug-CC-pVDZ\C10H20O5\OHZDE\08-Apr-2025\0\\#t hf
 aug-cc-pvdz iop(5/13=1,5/36=2,99/5=2) pseudo=read geom=check guess=(re
 ad,tcheck) scf=(maxcycle=1)\\title\\0,1\C,0,-0.246858,-2.74545,-0.0384
 922\C,0,-3.10742,-0.600865,0.226464\C,0,-1.73564,1.02618,-0.882044\C,0
 ,-1.22255,2.4605,-0.765039\C,0,0.486311,2.179,0.88683\C,0,-2.22445,-1.
 70964,0.751627\C,0,2.84324,0.132087,0.443665\C,0,3.08317,-1.22173,-0.1
 96335\C,0,0.794715,-1.70291,-0.40928\C,0,1.81752,2.21351,0.053331\H,0,
 0.224626,1.1694,1.04196\H,0,-1.53655,-1.38027,1.61094\H,0,-2.84771,-2.

 Normal termination of Gaussian 16 at Tue Apr  8 22:19:30 2025.
