 Gaussian 16, Revision C.01,

 ----------------------------------------------------------------------
 #t hf aug-cc-pvdz symm=none int=(grid=ultrafine) guess=(read,tcheck) s
 table=(opt,rrhf)
 ----------------------------------------------------------------------
 -----
 title
 -----
 Symbolic Z-matrix:
 Charge =  0 Multiplicity = 1

 SCF Done:  E(RHF) =  -410.048126259     A.U. after   13 cycles
 Normal termination of Gaussian 16 at Tue Apr  8 21:39:10 2025.
 Gaussian 16:  ES64L-G16RevC.01  3-Jul-2019

 ----------------------------------------------------------------------
 #t hf aug-cc-pvdz iop(5/13=1,5/36=2,99/5=2) pseudo=read geom=check gue
 ss=(read,tcheck) scf=(maxcycle=1)
 ----------------------------------------------------------------------
 -----
 title
 -----
 Structure from the checkpoint file:  "ANI1ccx_451_conf1_mol1.chk"
 Charge =  0 Multiplicity = 1

                         Standard orientation:
 ---------------------------------------------------------------------
 Center     Atomic      Atomic             Coordinates (Angstroms)
 Number     Number       Type             X           Y           Z
 ---------------------------------------------------------------------
      1          6           0        0.559411   -0.241689    0.273472
      2          1           0       -3.726749   -1.248142    0.234931
      3          1           0       -2.776619   -0.309027   -0.576923
      4          1           0       -1.354340    1.679179   -0.720189
      5          1           0       -1.266040    1.547159    0.920522
      6          1           0        1.312540    1.723770    0.288458
      7          1           0        1.582971   -1.924710    0.145381
      8          1           0        2.423790    0.238270   -1.335240
      9          1           0        3.315310    0.114734    0.060272
     10          7           0       -0.713759    1.793529    0.098181
     11          7           0        0.543858    1.122439    0.005581
     12          7           0        1.634181   -0.909010    0.053979
     13          7           0        2.799661   -0.409770   -0.607563
     14          8           0       -3.660279   -0.677816   -0.533893
     15          8           0       -0.429084   -0.766112    0.845231
 ---------------------------------------------------------------------

 SCF Done:  E(RHF) =  -410.176890262     A.U. after    2 cycles

 The electronic state is 1-A.
 Alpha  occ. eigenvalues --  -20.55877 -20.52888 -15.69709 -15.69140 -15.68831
 Alpha  occ. eigenvalues --  -15.66050 -11.40031  -1.37308  -1.29190  -1.27608
 Alpha  occ. eigenvalues --   -1.23915  -1.09401  -1.03667  -0.84571  -0.77034
 Alpha  occ. eigenvalues --   -0.72924  -0.72359  -0.70737  -0.67840  -0.64912
 Alpha  occ. eigenvalues --   -0.61931  -0.58249  -0.57373  -0.50925  -0.49209
 Alpha  occ. eigenvalues --   -0.46597  -0.42909  -0.42459  -0.41319
 Alpha virt. eigenvalues --    0.02179   0.03662   0.03775   0.04380   0.06690
 Alpha virt. eigenvalues --    0.07106   0.07795   0.09331   0.11556   0.12779
 Alpha virt. eigenvalues --    0.13899   0.14623   0.15111   0.15989   0.16839

 Mulliken charges:
               1
     1  C    0.734630
     2  H    0.152392
     3  H    0.131442
     4  H    0.090062
     5  H    0.033716
     6  H    0.024694
     7  H    0.034442
     8  H    0.113364
     9  H    0.060187
    10  N   -0.021327
    11  N   -0.345394
    12  N   -0.094943
    13  N   -0.047984
    14  O   -0.281301
    15  O   -0.583982
 Sum of Mulliken charges =  -0.00000

 Dipole moment (field-independent basis, Debye):
    X=              4.7488    Y=              1.3706    Z=              0.1446  Tot=              4.9448

 Test job not archived.
 1\1\GINC-SE127\SP\RHF\Aug-CC-pVDZ\C1H8N4O2\OHZDE\08-Apr-2025\0\\#t hf
 aug-cc-pvdz iop(5/13=1,5/36=2,99/5=2) pseudo=read geom=check guess=(re
 ad,tcheck) scf=(maxcycle=1)\\title\\0,1\C,0,0.55941,-0.241688,0.273472
 \H,0,-3.72675,-1.24814,0.234931\H,0,-2.77662,-0.309025,-0.576923\H,0,-
 1.35434,1.67918,-0.720189\H,0,-1.26604,1.54716,0.920522\H,0,1.31254,1.
 72377,0.288458\H,0,1.58297,-1.92471,0.145381\H,0,2.42379,0.23827,-1.33
 524\H,0,3.31531,0.114734,0.0602721\N,0,-0.713759,1.79353,0.0981812\N,0
 ,0.543858,1.12244,0.00558115\N,0,1.63418,-0.90901,0.0539789\N,0,2.7996

 Normal termination of Gaussian 16 at Tue Apr  8 21:39:15 2025.
