 Gaussian 16, Revision C.01,

 ----------------------------------------------------------------------
 #t hf aug-cc-pvdz symm=none int=(grid=ultrafine) guess=(read,tcheck) s
 table=(opt,rrhf)
 ----------------------------------------------------------------------
 -----
 title
 -----
 Symbolic Z-matrix:
 Charge =  0 Multiplicity = 1

 SCF Done:  E(RHF) =  -560.128619350     A.U. after   17 cycles
 Normal termination of Gaussian 16 at Tue Apr  8 19:34:37 2025.
 Gaussian 16:  ES64L-G16RevC.01  3-Jul-2019

 ----------------------------------------------------------------------
 #t hf aug-cc-pvdz iop(5/13=1,5/36=2,99/5=2) pseudo=read geom=check gue
 ss=(read,tcheck) scf=(maxcycle=1)
 ----------------------------------------------------------------------
 -----
 title
 -----
 Structure from the checkpoint file:  "ANI1ccx_1481_conf4_mol2.chk"
 Charge =  0 Multiplicity = 1

                         Standard orientation:
 ---------------------------------------------------------------------
 Center     Atomic      Atomic             Coordinates (Angstroms)
 Number     Number       Type             X           Y           Z
 ---------------------------------------------------------------------
      1          6           0        1.995890   -0.906629   -0.002542
      2          6           0       -0.269512   -0.034275    0.026296
      3          6           0       -1.633971    0.063257    0.004386
      4          6           0       -0.890610    2.084289    0.005149
      5          6           0        1.572379    1.517920   -0.016905
      6          6           0        2.428429    0.503367   -0.022309
      7          6           0       -2.564120   -1.019792   -0.026478
      8          1           0        0.239295   -2.012911    0.177157
      9          1           0       -0.788724    3.155649   -0.022370
     10          1           0        1.829948    2.582990   -0.018591
     11          1           0        3.509729    0.636948   -0.056350
     12          7           0        0.618473   -1.082660    0.066778
     13          7           0       -1.983091    1.391799   -0.010698
     14          7           0        0.200669    1.248779    0.026288
     15          7           0       -3.234160   -1.962442   -0.028499
     16          8           0        2.770700   -1.847479   -0.032813
 ---------------------------------------------------------------------

 SCF Done:  E(RHF) =  -560.291562662     A.U. after    2 cycles

 The electronic state is 1-A.
 Alpha  occ. eigenvalues --  -20.57509 -15.75032 -15.71827 -15.66493 -15.64910
 Alpha  occ. eigenvalues --  -11.41453 -11.38499 -11.36977 -11.35199 -11.31697
 Alpha  occ. eigenvalues --  -11.30097 -11.29834  -1.40420  -1.37979  -1.27093
 Alpha  occ. eigenvalues --   -1.22911  -1.19520  -1.10647  -1.06051  -0.95613
 Alpha  occ. eigenvalues --   -0.90482  -0.89383  -0.82820  -0.77189  -0.74940
 Alpha  occ. eigenvalues --   -0.72408  -0.70392  -0.68989  -0.66757  -0.64665
 Alpha  occ. eigenvalues --   -0.61937  -0.61219  -0.55549  -0.54064  -0.50539
 Alpha  occ. eigenvalues --   -0.49274  -0.48365  -0.47910  -0.46993  -0.39325
 Alpha  occ. eigenvalues --   -0.33843
 Alpha virt. eigenvalues --    0.01257   0.03201   0.04520   0.04647   0.05564
 Alpha virt. eigenvalues --    0.05702   0.07883   0.08370   0.09528   0.10335
 Alpha virt. eigenvalues --    0.10686   0.10811   0.11675   0.11960   0.12274

 Mulliken charges:
               1
     1  C    0.317475
     2  C   -0.164101
     3  C    1.988402
     4  C    0.618342
     5  C    0.779627
     6  C    0.723159
     7  C   -1.011112
     8  H   -0.024551
     9  H   -0.317665
    10  H   -0.390222
    11  H   -0.386244
    12  N   -0.410381
    13  N   -0.768654
    14  N   -0.386116
    15  N   -0.070006
    16  O   -0.497952
 Sum of Mulliken charges =  -0.00000

 Dipole moment (field-independent basis, Debye):
    X=              3.8850    Y=              6.1609    Z=              0.2297  Tot=              7.2872

 Test job not archived.
 1\1\GINC-SE051\SP\RHF\Aug-CC-pVDZ\C7H4N4O1\OHZDE\08-Apr-2025\0\\#t hf
 aug-cc-pvdz iop(5/13=1,5/36=2,99/5=2) pseudo=read geom=check guess=(re
 ad,tcheck) scf=(maxcycle=1)\\title\\0,1\C,0,1.99589,-0.906629,-0.00254
 174\C,0,-0.269511,-0.0342739,0.0262959\C,0,-1.63397,0.063258,0.0043861
 9\C,0,-0.890609,2.08429,0.00514875\C,0,1.57238,1.51792,-0.0169049\C,0,
 2.42843,0.503367,-0.0223088\C,0,-2.56412,-1.01979,-0.0264785\H,0,0.239
 295,-2.01291,0.177157\H,0,-0.788722,3.15565,-0.0223699\H,0,1.82995,2.5
 8299,-0.0185914\H,0,3.50973,0.636947,-0.0563499\N,0,0.618473,-1.08266,

 Normal termination of Gaussian 16 at Tue Apr  8 19:34:50 2025.
