 Gaussian 16, Revision C.01,

 ----------------------------------------------------------------------
 #t hf aug-cc-pvdz symm=none int=(grid=ultrafine) guess=(read,tcheck) s
 table=(opt,rrhf)
 ----------------------------------------------------------------------
 -----
 title
 -----
 Symbolic Z-matrix:
 Charge =  0 Multiplicity = 1

 SCF Done:  E(RHF) =  -502.212350405     A.U. after   17 cycles
 Normal termination of Gaussian 16 at Tue Apr  8 21:48:04 2025.
 Gaussian 16:  ES64L-G16RevC.01  3-Jul-2019

 ----------------------------------------------------------------------
 #t hf aug-cc-pvdz iop(5/13=1,5/36=2,99/5=2) pseudo=read geom=check gue
 ss=(read,tcheck) scf=(maxcycle=1)
 ----------------------------------------------------------------------
 -----
 title
 -----
 Structure from the checkpoint file:  "ANI1ccx_650_conf1_mol2.chk"
 Charge =  0 Multiplicity = 1

                         Standard orientation:
 ---------------------------------------------------------------------
 Center     Atomic      Atomic             Coordinates (Angstroms)
 Number     Number       Type             X           Y           Z
 ---------------------------------------------------------------------
      1          6           0       -2.401289   -0.003983   -0.382741
      2          6           0       -0.968042    0.042310    0.117038
      3          6           0        0.788776    1.584399   -0.016449
      4          1           0       -2.684089    0.690003   -1.201070
      5          7           0       -0.360267    1.268400   -0.258499
      6          7           0        2.194440   -1.093753   -0.295042
      7          7           0        2.719309   -2.076033   -0.198517
      8          8           0       -3.147820   -0.851644    0.035548
      9          8           0        1.841943    2.031857    0.210180
     10          8           0       -0.407491   -0.819795    0.774070
 ---------------------------------------------------------------------

 SCF Done:  E(RHF) =  -502.365445287     A.U. after    2 cycles

 The electronic state is 1-A.
 Alpha  occ. eigenvalues --  -20.68426 -20.62990 -20.61919 -15.76146 -15.75845
 Alpha  occ. eigenvalues --  -15.69925 -11.47834 -11.44044 -11.39211  -1.48144
 Alpha  occ. eigenvalues --   -1.42505  -1.41143  -1.39582  -1.28402  -1.01985
 Alpha  occ. eigenvalues --   -0.86164  -0.79261  -0.78134  -0.76331  -0.72898
 Alpha  occ. eigenvalues --   -0.71313  -0.69990  -0.68277  -0.63176  -0.62244
 Alpha  occ. eigenvalues --   -0.60002  -0.59960  -0.57304  -0.56516  -0.51559
 Alpha  occ. eigenvalues --   -0.48217  -0.47682
 Alpha virt. eigenvalues --    0.00802   0.02839   0.05881   0.06747   0.08306
 Alpha virt. eigenvalues --    0.09008   0.09831   0.10435   0.10979   0.11877
 Alpha virt. eigenvalues --    0.12558   0.12840   0.13176   0.13837   0.14780

 Mulliken charges:
               1
     1  C    0.693033
     2  C    0.496790
     3  C   -0.055734
     4  H   -0.090898
     5  N   -0.096144
     6  N    0.008144
     7  N   -0.024861
     8  O   -0.370114
     9  O   -0.145201
    10  O   -0.415015
 Sum of Mulliken charges =  -0.00000

 Dipole moment (field-independent basis, Debye):
    X=             -0.2817    Y=              2.6780    Z=             -2.2945  Tot=              3.5378

 Test job not archived.
 1\1\GINC-SE043\SP\RHF\Aug-CC-pVDZ\C3H1N3O3\OHZDE\08-Apr-2025\0\\#t hf
 aug-cc-pvdz iop(5/13=1,5/36=2,99/5=2) pseudo=read geom=check guess=(re
 ad,tcheck) scf=(maxcycle=1)\\title\\0,1\C,0,-2.40129,-0.003985,-0.3827
 41\C,0,-0.968043,0.0423099,0.117038\C,0,0.788774,1.5844,-0.016449\H,0,
 -2.68409,0.690001,-1.20107\N,0,-0.360269,1.2684,-0.258499\N,0,2.19444,
 -1.09375,-0.295042\N,0,2.71931,-2.07603,-0.198517\O,0,-3.14782,-0.8516
 46,0.0355484\O,0,1.84194,2.03186,0.21018\O,0,-0.407491,-0.819795,0.774
 07\\Version=ES64L-G16RevC.01\State=1-A\HF=-502.3654453\RMSD=3.290e-03\

 Normal termination of Gaussian 16 at Tue Apr  8 21:48:08 2025.
