 Gaussian 16, Revision C.01,

 ----------------------------------------------------------------------
 #t hf aug-cc-pvdz symm=none int=(grid=ultrafine) guess=(read,tcheck) s
 table=(opt,rrhf)
 ----------------------------------------------------------------------
 -----
 title
 -----
 Symbolic Z-matrix:
 Charge =  0 Multiplicity = 1

 SCF Done:  E(RHF) =  -431.388376843     A.U. after   15 cycles
 Normal termination of Gaussian 16 at Tue Apr  8 21:42:51 2025.
 Gaussian 16:  ES64L-G16RevC.01  3-Jul-2019

 ----------------------------------------------------------------------
 #t hf aug-cc-pvdz iop(5/13=1,5/36=2,99/5=2) pseudo=read geom=check gue
 ss=(read,tcheck) scf=(maxcycle=1)
 ----------------------------------------------------------------------
 -----
 title
 -----
 Structure from the checkpoint file:  "ANI1ccx_499_conf14_mol1.chk"
 Charge =  0 Multiplicity = 1

                         Standard orientation:
 ---------------------------------------------------------------------
 Center     Atomic      Atomic             Coordinates (Angstroms)
 Number     Number       Type             X           Y           Z
 ---------------------------------------------------------------------
      1          6           0        0.066420    0.759439   -0.051094
      2          6           0       -1.011140   -0.346145    0.028292
      3          1           0        2.167801   -1.206848    0.706967
      4          1           0        1.932168    1.275272    0.183336
      5          1           0        0.291088   -1.602499   -0.582481
      6          7           0        1.331819    0.430930    0.396496
      7          8           0        1.952220   -0.758002   -0.086770
      8          8           0       -0.209023    1.901160   -0.341345
      9          8           0       -0.638580   -1.566600   -0.291127
     10          8           0       -2.110300   -0.071833    0.350932
 ---------------------------------------------------------------------

 SCF Done:  E(RHF) =  -431.524016563     A.U. after    2 cycles

 The electronic state is 1-A.
 Alpha  occ. eigenvalues --  -20.68989 -20.64782 -20.60362 -20.58517 -15.75044
 Alpha  occ. eigenvalues --  -11.42431 -11.41675  -1.46984  -1.44520  -1.40046
 Alpha  occ. eigenvalues --   -1.36522  -1.17140  -0.94640  -0.87421  -0.81049
 Alpha  occ. eigenvalues --   -0.76856  -0.74359  -0.70225  -0.69799  -0.67658
 Alpha  occ. eigenvalues --   -0.64701  -0.60595  -0.59171  -0.54267  -0.51999
 Alpha  occ. eigenvalues --   -0.47074  -0.46846
 Alpha virt. eigenvalues --    0.01775   0.03853   0.04936   0.06808   0.08697
 Alpha virt. eigenvalues --    0.10269   0.10607   0.11613   0.12284   0.12994
 Alpha virt. eigenvalues --    0.13995   0.15044   0.17381   0.17505   0.17956

 Mulliken charges:
               1
     1  C    0.593789
     2  C    0.597152
     3  H    0.222559
     4  H    0.158904
     5  H    0.242483
     6  N   -0.110082
     7  O   -0.510875
     8  O   -0.435240
     9  O   -0.417195
    10  O   -0.341495
 Sum of Mulliken charges =  -0.00000

 Dipole moment (field-independent basis, Debye):
    X=              5.9783    Y=             -2.2313    Z=              0.5337  Tot=              6.4034

 Test job not archived.
 1\1\GINC-SE087\SP\RHF\Aug-CC-pVDZ\C2H3N1O4\OHZDE\08-Apr-2025\0\\#t hf
 aug-cc-pvdz iop(5/13=1,5/36=2,99/5=2) pseudo=read geom=check guess=(re
 ad,tcheck) scf=(maxcycle=1)\\title\\0,1\C,0,0.0664215,0.759439,-0.0510
 935\C,0,-1.01114,-0.346144,0.0282919\H,0,2.1678,-1.20685,0.706967\H,0,
 1.93217,1.27527,0.183336\H,0,0.291087,-1.6025,-0.582481\N,0,1.33182,0.
 430928,0.396496\O,0,1.95222,-0.758004,-0.0867701\O,0,-0.209021,1.90116
 ,-0.341345\O,0,-0.638581,-1.5666,-0.291127\O,0,-2.1103,-0.0718319,0.35
 0932\\Version=ES64L-G16RevC.01\State=1-A\HF=-431.5240166\RMSD=3.218e-0

 Normal termination of Gaussian 16 at Tue Apr  8 21:42:55 2025.
