 Gaussian 16, Revision C.01,

 ----------------------------------------------------------------------
 #t hf aug-cc-pvdz symm=none int=(grid=ultrafine) guess=(read,tcheck) s
 table=(opt,rrhf)
 ----------------------------------------------------------------------
 -----
 title
 -----
 Symbolic Z-matrix:
 Charge =  0 Multiplicity = 1

 SCF Done:  E(RHF) =  -541.417929143     A.U. after   16 cycles
 Normal termination of Gaussian 16 at Tue Apr  8 19:41:22 2025.
 Gaussian 16:  ES64L-G16RevC.01  3-Jul-2019

 ----------------------------------------------------------------------
 #t hf aug-cc-pvdz iop(5/13=1,5/36=2,99/5=2) pseudo=read geom=check gue
 ss=(read,tcheck) scf=(maxcycle=1)
 ----------------------------------------------------------------------
 -----
 title
 -----
 Structure from the checkpoint file:  "ANI1ccx_1513_conf4_mol1.chk"
 Charge =  0 Multiplicity = 1

                         Standard orientation:
 ---------------------------------------------------------------------
 Center     Atomic      Atomic             Coordinates (Angstroms)
 Number     Number       Type             X           Y           Z
 ---------------------------------------------------------------------
      1          6           0       -1.440670    0.069859    0.029857
      2          6           0       -3.807580   -0.330296    0.014190
      3          6           0        1.036350   -0.253773    0.086379
      4          6           0        1.439460    1.051540    0.185219
      5          6           0        2.741770    1.294229    0.025067
      6          6           0        3.709760    0.262546   -0.061466
      7          6           0        2.043429   -1.248280   -0.018345
      8          1           0        1.690129   -2.294280   -0.071896
      9          1           0        4.767260    0.565759   -0.200929
     10          1           0        3.134740    2.303989    0.140507
     11          1           0       -0.369487   -1.694990    0.066631
     12          1           0       -2.376061   -1.746229    0.099911
     13          1           0       -2.334660    1.750061   -0.249938
     14          1           0        0.714363    1.807180    0.383491
     15          7           0       -0.305546   -0.700672    0.119001
     16          7           0       -1.434240    1.327941   -0.194343
     17          7           0       -2.565971   -0.773704    0.019064
     18          7           0       -4.747760    0.354658   -0.050333
     19          7           0        3.401889   -1.032001   -0.140986
 ---------------------------------------------------------------------

 SCF Done:  E(RHF) =  -541.575314625     A.U. after    2 cycles

 The electronic state is 1-A.
 Alpha  occ. eigenvalues --  -15.73096 -15.69563 -15.66257 -15.65522 -15.61473
 Alpha  occ. eigenvalues --  -11.41632 -11.34740 -11.31560 -11.30189 -11.29184
 Alpha  occ. eigenvalues --  -11.25745 -11.25410  -1.34714  -1.26579  -1.22888
 Alpha  occ. eigenvalues --   -1.18844  -1.16456  -1.09514  -1.02750  -0.92289
 Alpha  occ. eigenvalues --   -0.88427  -0.83870  -0.82707  -0.79304  -0.73099
 Alpha  occ. eigenvalues --   -0.69553  -0.69118  -0.65984  -0.65316  -0.60646
 Alpha  occ. eigenvalues --   -0.59252  -0.58293  -0.57170  -0.54105  -0.53165
 Alpha  occ. eigenvalues --   -0.48904  -0.45881  -0.45195  -0.43166  -0.40220
 Alpha  occ. eigenvalues --   -0.38893  -0.32297
 Alpha virt. eigenvalues --    0.01067   0.03361   0.04265   0.04895   0.05826
 Alpha virt. eigenvalues --    0.06021   0.07261   0.07924   0.08913   0.09549
 Alpha virt. eigenvalues --    0.09854   0.10364   0.10491   0.11217   0.12305

 Mulliken charges:
               1
     1  C    1.075060
     2  C   -0.578219
     3  C    0.145323
     4  C    0.847755
     5  C    0.372680
     6  C    0.529887
     7  C    0.868402
     8  H   -0.431785
     9  H   -0.280775
    10  H   -0.370608
    11  H   -0.090213
    12  H    0.003779
    13  H   -0.020030
    14  H   -0.567148
    15  N   -0.437096
    16  N   -0.285518
    17  N   -0.087327
    18  N   -0.085666
    19  N   -0.608500
 Sum of Mulliken charges =  -0.00000

 Dipole moment (field-independent basis, Debye):
    X=              0.8205    Y=             -2.6293    Z=              0.6586  Tot=              2.8320

 Test job not archived.
 1\1\GINC-SE187\SP\RHF\Aug-CC-pVDZ\C7H7N5\OHZDE\08-Apr-2025\0\\#t hf au
 g-cc-pvdz iop(5/13=1,5/36=2,99/5=2) pseudo=read geom=check guess=(read
 ,tcheck) scf=(maxcycle=1)\\title\\0,1\C,0,-1.44067,0.0698583,0.0298573
 \C,0,-3.80758,-0.330297,0.0141903\C,0,1.03635,-0.253773,0.0863788\C,0,
 1.43946,1.05154,0.185219\C,0,2.74177,1.29423,0.0250672\C,0,3.70976,0.2
 62547,-0.0614664\C,0,2.04343,-1.24828,-0.0183448\H,0,1.69013,-2.29428,
 -0.071896\H,0,4.76726,0.56576,-0.200929\H,0,3.13474,2.30399,0.140507\H
 ,0,-0.369486,-1.69499,0.0666308\H,0,-2.37606,-1.74623,0.099911\H,0,-2.

 Normal termination of Gaussian 16 at Tue Apr  8 19:41:34 2025.
