 Gaussian 16, Revision C.01,

 ----------------------------------------------------------------------
 #t hf aug-cc-pvdz symm=none int=(grid=ultrafine) guess=(read,tcheck) s
 table=(opt,rrhf)
 ----------------------------------------------------------------------
 -----
 title
 -----
 Symbolic Z-matrix:
 Charge =  0 Multiplicity = 1

 SCF Done:  E(RHF) =  -557.491308612     A.U. after   16 cycles
 Normal termination of Gaussian 16 at Tue Apr  8 19:23:01 2025.
 Gaussian 16:  ES64L-G16RevC.01  3-Jul-2019

 ----------------------------------------------------------------------
 #t hf aug-cc-pvdz iop(5/13=1,5/36=2,99/5=2) pseudo=read geom=check gue
 ss=(read,tcheck) scf=(maxcycle=1)
 ----------------------------------------------------------------------
 -----
 title
 -----
 Structure from the checkpoint file:  "ANI1ccx_1322_conf8_mol2.chk"
 Charge =  0 Multiplicity = 1

                         Standard orientation:
 ---------------------------------------------------------------------
 Center     Atomic      Atomic             Coordinates (Angstroms)
 Number     Number       Type             X           Y           Z
 ---------------------------------------------------------------------
      1          6           0       -1.903160   -0.541272    0.041283
      2          6           0       -0.624053    1.310800   -0.029692
      3          6           0        0.511994    0.459495    0.073462
      4          6           0        2.788610    0.209538   -0.039070
      5          6           0        2.599361   -1.169089   -0.078597
      6          6           0        0.344624   -0.956530    0.058420
      7          1           0        3.481731   -1.803948   -0.055748
      8          1           0        3.770150    0.729096   -0.014442
      9          1           0        0.581211    2.909761    0.171132
     10          1           0       -1.160641    3.213560    0.276526
     11          1           0       -3.215619   -2.085381   -0.125209
     12          1           0       -3.973790   -0.483859   -0.189826
     13          7           0       -3.146119   -1.094061    0.036236
     14          7           0       -1.836860    0.817011   -0.126974
     15          7           0       -0.359851    2.663890   -0.034327
     16          7           0        1.726590    1.045611    0.043937
     17          7           0        1.415701   -1.777769    0.004540
     18          7           0       -0.911931   -1.419950    0.045549
 ---------------------------------------------------------------------

 SCF Done:  E(RHF) =  -557.649304105     A.U. after    2 cycles

 The electronic state is 1-A.
 Alpha  occ. eigenvalues --  -15.67846 -15.65521 -15.64924 -15.64676 -15.63134
 Alpha  occ. eigenvalues --  -15.60123 -11.37626 -11.36483 -11.33579 -11.31159
 Alpha  occ. eigenvalues --  -11.29539 -11.28787  -1.31937  -1.26843  -1.24038
 Alpha  occ. eigenvalues --   -1.18596  -1.14906  -1.13802  -1.03309  -0.93118
 Alpha  occ. eigenvalues --   -0.90139  -0.85476  -0.78120  -0.77613  -0.73910
 Alpha  occ. eigenvalues --   -0.70948  -0.68027  -0.65737  -0.63835  -0.62809
 Alpha  occ. eigenvalues --   -0.62414  -0.58396  -0.55356  -0.52818  -0.50151
 Alpha  occ. eigenvalues --   -0.48417  -0.44737  -0.44027  -0.41524  -0.38829
 Alpha  occ. eigenvalues --   -0.38124  -0.30909
 Alpha virt. eigenvalues --    0.02768   0.03110   0.03794   0.04210   0.05262
 Alpha virt. eigenvalues --    0.06106   0.07260   0.07795   0.09517   0.10079
 Alpha virt. eigenvalues --    0.10841   0.11595   0.11942   0.12367   0.12982

 Mulliken charges:
               1
     1  C    0.717308
     2  C    0.288782
     3  C    0.919960
     4  C    0.572539
     5  C    0.706475
     6  C    0.521110
     7  H   -0.338634
     8  H   -0.311187
     9  H    0.031924
    10  H   -0.006556
    11  H   -0.028982
    12  H    0.053077
    13  N   -0.339359
    14  N   -0.639478
    15  N   -0.166298
    16  N   -0.800966
    17  N   -0.530203
    18  N   -0.649511
 Sum of Mulliken charges =   0.00000

 Dipole moment (field-independent basis, Debye):
    X=              0.2092    Y=              2.5447    Z=              0.3269  Tot=              2.5741

 Test job not archived.
 1\1\GINC-SE105\SP\RHF\Aug-CC-pVDZ\C6H6N6\OHZDE\08-Apr-2025\0\\#t hf au
 g-cc-pvdz iop(5/13=1,5/36=2,99/5=2) pseudo=read geom=check guess=(read
 ,tcheck) scf=(maxcycle=1)\\title\\0,1\C,0,-1.90316,-0.541272,0.0412826
 \C,0,-0.624053,1.3108,-0.029692\C,0,0.511994,0.459494,0.0734622\C,0,2.
 78861,0.209536,-0.0390697\C,0,2.59936,-1.16909,-0.0785968\C,0,0.344623
 ,-0.956531,0.0584201\H,0,3.48173,-1.80395,-0.0557477\H,0,3.77015,0.729
 094,-0.014442\H,0,0.581212,2.90976,0.171132\H,0,-1.16064,3.21356,0.276
 526\H,0,-3.21562,-2.08538,-0.125209\H,0,-3.97379,-0.483858,-0.189826\N

 Normal termination of Gaussian 16 at Tue Apr  8 19:23:13 2025.
