 Gaussian 16, Revision C.01,

 ----------------------------------------------------------------------
 #t hf aug-cc-pvdz symm=none int=(grid=ultrafine) guess=(read,tcheck) s
 table=(opt,rrhf)
 ----------------------------------------------------------------------
 -----
 title
 -----
 Symbolic Z-matrix:
 Charge =  0 Multiplicity = 1

 SCF Done:  E(RHF) =  -456.232094658     A.U. after   11 cycles
 Normal termination of Gaussian 16 at Tue Apr  8 21:07:47 2025.
 Gaussian 16:  ES64L-G16RevC.01  3-Jul-2019

 ----------------------------------------------------------------------
 #t hf aug-cc-pvdz iop(5/13=1,5/36=2,99/5=2) pseudo=read geom=check gue
 ss=(read,tcheck) scf=(maxcycle=1)
 ----------------------------------------------------------------------
 -----
 title
 -----
 Structure from the checkpoint file:  "ANI1ccx_1844_conf483_mol1.chk"
 Charge =  0 Multiplicity = 1

                         Standard orientation:
 ---------------------------------------------------------------------
 Center     Atomic      Atomic             Coordinates (Angstroms)
 Number     Number       Type             X           Y           Z
 ---------------------------------------------------------------------
      1          1           0        1.118399   -0.804996   -0.815906
      2          1           0       -3.351421    0.280488   -0.538253
      3          1           0       -2.137571   -0.650472    0.305550
      4          1           0        2.555469    0.650683   -0.092838
      5          1           0       -0.812703   -0.831891    1.843421
      6          1           0       -0.270513   -1.311510    0.522363
      7          1           0        2.606069   -0.539223    0.692974
      8          1           0        0.558718    1.499580    0.543825
      9          1           0       -1.298601    1.213770   -0.608568
     10          1           0        0.057120    0.978916   -1.432519
     11          1           0        0.687367   -2.031710   -1.632159
     12          1           0        1.211019    1.476380    2.134651
     13          8           0        2.628499   -0.293090   -0.193893
     14          8           0        0.394503   -1.113050   -1.376779
     15          8           0       -0.512024    1.695610   -0.968885
     16          8           0        0.876232    1.005590    1.376331
     17          8           0       -1.059791   -1.456300    1.142551
     18          8           0       -2.442841    0.169988   -0.094641
 ---------------------------------------------------------------------

 SCF Done:  E(RHF) =  -456.381844470     A.U. after    2 cycles

 The electronic state is 1-A.
 Alpha  occ. eigenvalues --  -20.59809 -20.58449 -20.57890 -20.57796 -20.55257
 Alpha  occ. eigenvalues --  -20.54638  -1.36191  -1.32084  -1.30642  -1.30282
 Alpha  occ. eigenvalues --   -1.27955  -1.25523  -0.76684  -0.75536  -0.75220
 Alpha  occ. eigenvalues --   -0.73749  -0.71164  -0.69538  -0.65559  -0.62258
 Alpha  occ. eigenvalues --   -0.61592  -0.58662  -0.57505  -0.54996  -0.53731
 Alpha  occ. eigenvalues --   -0.52719  -0.52624  -0.52161  -0.50377  -0.49245
 Alpha virt. eigenvalues --    0.02467   0.04369   0.05016   0.05688   0.06135
 Alpha virt. eigenvalues --    0.07284   0.08238   0.08769   0.09121   0.10274
 Alpha virt. eigenvalues --    0.10737   0.12154   0.15564   0.18566   0.19300

 Mulliken charges:
               1
     1  H    0.268723
     2  H    0.246531
     3  H    0.264703
     4  H    0.211907
     5  H    0.244419
     6  H    0.271159
     7  H    0.181503
     8  H    0.345155
     9  H    0.311712
    10  H    0.247980
    11  H    0.200960
    12  H    0.177097
    13  O   -0.401060
    14  O   -0.452564
    15  O   -0.561414
    16  O   -0.541372
    17  O   -0.550840
    18  O   -0.464599
 Sum of Mulliken charges =  -0.00000

 Dipole moment (field-independent basis, Debye):
    X=              2.0231    Y=             -0.6879    Z=              2.2214  Tot=              3.0823

 Test job not archived.
 1\1\GINC-SE088\SP\RHF\Aug-CC-pVDZ\H12O6\OHZDE\08-Apr-2025\0\\#t hf aug
 -cc-pvdz iop(5/13=1,5/36=2,99/5=2) pseudo=read geom=check guess=(read,
 tcheck) scf=(maxcycle=1)\\title\\0,1\H,0,1.1184,-0.804996,-0.815907\H,
 0,-3.35142,0.280488,-0.538254\H,0,-2.13757,-0.650472,0.305549\H,0,2.55
 547,0.650683,-0.092839\H,0,-0.812702,-0.831891,1.84342\H,0,-0.270512,-
 1.31151,0.522362\H,0,2.60607,-0.539223,0.692973\H,0,0.558719,1.49958,0
 .543824\H,0,-1.2986,1.21377,-0.608569\H,0,0.0571205,0.978916,-1.43252\
 H,0,0.687368,-2.03171,-1.63216\H,0,1.21102,1.47638,2.13465\O,0,2.6285,

 Normal termination of Gaussian 16 at Tue Apr  8 21:07:52 2025.
