 Gaussian 16, Revision C.01,

 ----------------------------------------------------------------------
 #t hf aug-cc-pvdz symm=none int=(grid=ultrafine) guess=(read,tcheck) s
 table=(opt,rrhf)
 ----------------------------------------------------------------------
 -----
 title
 -----
 Symbolic Z-matrix:
 Charge =  0 Multiplicity = 1

 SCF Done:  E(RHF) =  -603.573693907     A.U. after   14 cycles
 Normal termination of Gaussian 16 at Tue Apr  8 22:17:43 2025.
 Gaussian 16:  ES64L-G16RevC.01  3-Jul-2019

 ----------------------------------------------------------------------
 #t hf aug-cc-pvdz iop(5/13=1,5/36=2,99/5=2) pseudo=read geom=check gue
 ss=(read,tcheck) scf=(maxcycle=1)
 ----------------------------------------------------------------------
 -----
 title
 -----
 Structure from the checkpoint file:  "ANI1ccx_999_conf4_mol1.chk"
 Charge =  0 Multiplicity = 1

                         Standard orientation:
 ---------------------------------------------------------------------
 Center     Atomic      Atomic             Coordinates (Angstroms)
 Number     Number       Type             X           Y           Z
 ---------------------------------------------------------------------
      1          6           0       -2.021579    0.085970    0.673154
      2          6           0       -1.297213   -1.141996    0.169895
      3          6           0        1.030211   -0.016769    0.347426
      4          6           0        0.568397    1.377189   -0.082075
      5          6           0        2.339500   -0.349105   -0.390427
      6          1           0        1.655927    2.215666    1.318040
      7          1           0        2.903736   -1.688227    0.869681
      8          1           0        3.080922    0.419818   -0.114520
      9          1           0        2.071320   -0.315574   -1.448070
     10          1           0        1.263330   -0.033196    1.449060
     11          1           0       -1.351087    0.831413    1.124790
     12          1           0       -2.708470   -0.292352    1.378790
     13          1           0       -3.517106    1.344250   -0.065709
     14          1           0       -2.206856    1.202487   -0.995834
     15          1           0        0.477228   -1.953150   -0.145210
     16          7           0       -2.863728    0.629455   -0.416687
     17          7           0        0.062838   -1.048149   -0.065846
     18          8           0        2.849476   -1.634557   -0.121508
     19          8           0       -1.898255   -2.242544   -0.024257
     20          8           0       -0.268604    1.608332   -0.945892
     21          8           0        1.095057    2.452268    0.554017
 ---------------------------------------------------------------------

 SCF Done:  E(RHF) =  -603.757260883     A.U. after    2 cycles

 The electronic state is 1-A.
 Alpha  occ. eigenvalues --  -20.66708 -20.62712 -20.59477 -20.53612 -15.66756
 Alpha  occ. eigenvalues --  -15.60834 -11.44429 -11.37500 -11.35444 -11.34196
 Alpha  occ. eigenvalues --  -11.27589  -1.45337  -1.37329  -1.35465  -1.31942
 Alpha  occ. eigenvalues --   -1.21558  -1.14305  -1.06307  -0.95107  -0.92684
 Alpha  occ. eigenvalues --   -0.87786  -0.81698  -0.77134  -0.73982  -0.72451
 Alpha  occ. eigenvalues --   -0.70552  -0.69186  -0.66955  -0.65636  -0.64682
 Alpha  occ. eigenvalues --   -0.63615  -0.62094  -0.60822  -0.58085  -0.55525
 Alpha  occ. eigenvalues --   -0.53580  -0.53055  -0.51859  -0.50778  -0.49810
 Alpha  occ. eigenvalues --   -0.44469  -0.41046  -0.39422
 Alpha virt. eigenvalues --    0.00526   0.03092   0.03235   0.04480   0.05657
 Alpha virt. eigenvalues --    0.05969   0.06488   0.06904   0.08376   0.08686
 Alpha virt. eigenvalues --    0.09647   0.10158   0.11037   0.11654   0.12189

 Mulliken charges:
               1
     1  C    1.080952
     2  C    0.457045
     3  C   -0.002893
     4  C    0.850169
     5  C    1.058618
     6  H    0.201943
     7  H    0.206580
     8  H   -0.078564
     9  H   -0.026503
    10  H   -0.208870
    11  H   -0.117956
    12  H   -0.287667
    13  H    0.011844
    14  H    0.126500
    15  H   -0.088718
    16  N   -0.466525
    17  N   -0.371662
    18  O   -0.609976
    19  O   -0.616863
    20  O   -0.574454
    21  O   -0.543000
 Sum of Mulliken charges =  -0.00000

 Dipole moment (field-independent basis, Debye):
    X=              6.1988    Y=              3.5552    Z=              5.6782  Tot=              9.1272

 Test job not archived.
 1\1\GINC-SE044\SP\RHF\Aug-CC-pVDZ\C5H10N2O4\OHZDE\08-Apr-2025\0\\#t hf
  aug-cc-pvdz iop(5/13=1,5/36=2,99/5=2) pseudo=read geom=check guess=(r
 ead,tcheck) scf=(maxcycle=1)\\title\\0,1\C,0,-2.02158,0.0859639,0.6731
 54\C,0,-1.29721,-1.142,0.169895\C,0,1.03021,-0.0167667,0.347426\C,0,0.
 568393,1.37719,-0.0820755\C,0,2.3395,-0.3491,-0.390427\H,0,1.65592,2.2
 1567,1.31804\H,0,2.90374,-1.68822,0.869681\H,0,3.08092,0.419825,-0.114
 52\H,0,2.07132,-0.315569,-1.44807\H,0,1.26333,-0.0331935,1.44906\H,0,-
 1.35109,0.831408,1.12479\H,0,-2.70847,-0.29236,1.37879\H,0,-3.51711,1.

 Normal termination of Gaussian 16 at Tue Apr  8 22:17:56 2025.
