 Gaussian 16, Revision C.01,

 ----------------------------------------------------------------------
 #t hf aug-cc-pvdz symm=none int=(grid=ultrafine) guess=(read,tcheck) s
 table=(opt,rrhf)
 ----------------------------------------------------------------------
 -----
 title
 -----
 Symbolic Z-matrix:
 Charge =  0 Multiplicity = 1

 SCF Done:  E(RHF) =  -791.986042899     A.U. after   14 cycles
 Normal termination of Gaussian 16 at Tue Apr  8 19:25:32 2025.
 Gaussian 16:  ES64L-G16RevC.01  3-Jul-2019

 ----------------------------------------------------------------------
 #t hf aug-cc-pvdz iop(5/13=1,5/36=2,99/5=2) pseudo=read geom=check gue
 ss=(read,tcheck) scf=(maxcycle=1)
 ----------------------------------------------------------------------
 -----
 title
 -----
 Structure from the checkpoint file:  "ANI1ccx_1216_conf15_mol1.chk"
 Charge =  0 Multiplicity = 1

                         Standard orientation:
 ---------------------------------------------------------------------
 Center     Atomic      Atomic             Coordinates (Angstroms)
 Number     Number       Type             X           Y           Z
 ---------------------------------------------------------------------
      1          6           0       -1.194098    1.415411   -1.037459
      2          6           0        1.598821    1.349259    0.644989
      3          6           0        0.798785   -0.697591    1.811981
      4          6           0       -2.166160   -0.180340    0.461273
      5          6           0       -0.983931   -1.040369   -1.509949
      6          6           0        2.020300   -0.794607   -0.455390
      7          1           0        2.940360   -0.271657   -0.769026
      8          1           0        2.328889   -1.809442   -0.014740
      9          1           0       -1.835581   -1.763768   -1.420059
     10          1           0       -0.790948   -0.640780   -2.490509
     11          1           0       -2.582291   -1.132858    0.350257
     12          1           0       -2.965419    0.578950    0.594438
     13          1           0        1.312289   -1.665831    1.979221
     14          1           0        1.195652    1.729529    1.617401
     15          1           0        2.662192    1.730758    0.535190
     16          1           0       -0.941373    1.628211   -2.034989
     17          1           0       -2.128278    1.942422   -0.968310
     18          1           0        0.764612    0.081543    2.653861
     19          7           0        1.412890   -0.061885    0.658812
     20          7           0       -1.448110    0.041125   -0.747714
     21          8           0        0.109505   -1.789070   -1.156029
     22          8           0       -0.403242    2.114980   -0.135338
     23          8           0        0.995305    1.946659   -0.425597
     24          8           0       -0.487661   -1.240159    1.762991
     25          8           0       -1.443760   -0.123963    1.667831
     26          8           0        1.210369   -0.979990   -1.576739
 ---------------------------------------------------------------------

 SCF Done:  E(RHF) =  -792.235072590     A.U. after    2 cycles

 The electronic state is 1-A.
 Alpha  occ. eigenvalues --  -20.64215 -20.64183 -20.63855 -20.63551 -20.63420
 Alpha  occ. eigenvalues --  -20.63046 -15.62852 -15.62677 -11.34270 -11.34255
 Alpha  occ. eigenvalues --  -11.33178 -11.32886 -11.32566 -11.32198  -1.46231
 Alpha  occ. eigenvalues --   -1.44818  -1.42513  -1.29165  -1.24759  -1.24251
 Alpha  occ. eigenvalues --   -1.21115  -1.15167  -0.96934  -0.96339  -0.92814
 Alpha  occ. eigenvalues --   -0.91275  -0.84149  -0.81919  -0.75987  -0.74758
 Alpha  occ. eigenvalues --   -0.73901  -0.72194  -0.71349  -0.70339  -0.70130
 Alpha  occ. eigenvalues --   -0.68373  -0.66948  -0.64970  -0.62778  -0.61684
 Alpha  occ. eigenvalues --   -0.60868  -0.57280  -0.56897  -0.56741  -0.55529
 Alpha  occ. eigenvalues --   -0.52130  -0.51467  -0.50466  -0.50338  -0.49459
 Alpha  occ. eigenvalues --   -0.48043  -0.45937  -0.45138  -0.39949  -0.38252
 Alpha virt. eigenvalues --    0.03399   0.03772   0.04372   0.04451   0.05483
 Alpha virt. eigenvalues --    0.05578   0.06803   0.06980   0.07670   0.07957
 Alpha virt. eigenvalues --    0.08704   0.09080   0.09909   0.10954   0.12079

 Mulliken charges:
               1
     1  C    1.109193
     2  C    0.853959
     3  C    0.780919
     4  C    1.125168
     5  C    0.785476
     6  C    0.827992
     7  H   -0.248112
     8  H   -0.080920
     9  H   -0.158906
    10  H   -0.276371
    11  H   -0.419215
    12  H   -0.145742
    13  H   -0.306075
    14  H   -0.250044
    15  H   -0.253813
    16  H   -0.475382
    17  H   -0.303130
    18  H   -0.044727
    19  N    0.232822
    20  N    0.185492
    21  O   -0.480521
    22  O   -0.464888
    23  O   -0.462837
    24  O   -0.488901
    25  O   -0.533202
    26  O   -0.508236
 Sum of Mulliken charges =   0.00000

 Dipole moment (field-independent basis, Debye):
    X=              0.1979    Y=              0.2492    Z=             -0.4297  Tot=              0.5347

 Test job not archived.
 1\1\GINC-SE029\SP\RHF\Aug-CC-pVDZ\C6H12N2O6\OHZDE\08-Apr-2025\0\\#t hf
  aug-cc-pvdz iop(5/13=1,5/36=2,99/5=2) pseudo=read geom=check guess=(r
 ead,tcheck) scf=(maxcycle=1)\\title\\0,1\C,0,-1.1941,1.41541,-1.03746\
 C,0,1.59882,1.34926,0.644988\C,0,0.798785,-0.69759,1.81198\C,0,-2.1661
 6,-0.180342,0.461272\C,0,-0.98393,-1.04037,-1.50995\C,0,2.0203,-0.7946
 05,-0.455391\H,0,2.94036,-0.271655,-0.769027\H,0,2.32889,-1.80944,-0.0
 147408\H,0,-1.83558,-1.76377,-1.42006\H,0,-0.790948,-0.640781,-2.49051
 \H,0,-2.58229,-1.13286,0.350256\H,0,-2.96542,0.578947,0.594437\H,0,1.3

 Normal termination of Gaussian 16 at Tue Apr  8 19:26:00 2025.
