 Gaussian 16, Revision C.01,

 ----------------------------------------------------------------------
 #t hf aug-cc-pvdz symm=none int=(grid=ultrafine) guess=(read,tcheck) s
 table=(opt,rrhf)
 ----------------------------------------------------------------------
 -----
 title
 -----
 Symbolic Z-matrix:
 Charge =  0 Multiplicity = 1

 SCF Done:  E(RHF) =  -369.531607679     A.U. after   16 cycles
 Normal termination of Gaussian 16 at Tue Apr  8 21:42:10 2025.
 Gaussian 16:  ES64L-G16RevC.01  3-Jul-2019

 ----------------------------------------------------------------------
 #t hf aug-cc-pvdz iop(5/13=1,5/36=2,99/5=2) pseudo=read geom=check gue
 ss=(read,tcheck) scf=(maxcycle=1)
 ----------------------------------------------------------------------
 -----
 title
 -----
 Structure from the checkpoint file:  "ANI1ccx_487_conf3_mol1.chk"
 Charge =  0 Multiplicity = 1

                         Standard orientation:
 ---------------------------------------------------------------------
 Center     Atomic      Atomic             Coordinates (Angstroms)
 Number     Number       Type             X           Y           Z
 ---------------------------------------------------------------------
      1          6           0       -0.969693    0.082223   -0.013680
      2          6           0        1.004311    1.110218    0.056011
      3          1           0        1.522802    2.016498    0.003295
      4          1           0       -0.677436   -1.964550   -0.004239
      5          7           0       -0.289029    1.286099   -0.007014
      6          7           0        1.752880   -0.056808   -0.028976
      7          7           0        1.106979   -1.178832   -0.081130
      8          7           0       -0.244859   -1.082251    0.131797
      9          8           0       -2.166860    0.001992   -0.044472
 ---------------------------------------------------------------------

 SCF Done:  E(RHF) =  -369.638860646     A.U. after    2 cycles

 The electronic state is 1-A.
 Alpha  occ. eigenvalues --  -20.56301 -15.82217 -15.75336 -15.72941 -15.68486
 Alpha  occ. eigenvalues --  -11.42443 -11.38339  -1.44430  -1.38127  -1.25898
 Alpha  occ. eigenvalues --   -1.22254  -1.01293  -0.94946  -0.81749  -0.80315
 Alpha  occ. eigenvalues --   -0.73244  -0.69322  -0.65504  -0.60011  -0.57540
 Alpha  occ. eigenvalues --   -0.53928  -0.51287  -0.49887  -0.44966  -0.41990
 Alpha virt. eigenvalues --    0.01483   0.03019   0.03388   0.06404   0.07780
 Alpha virt. eigenvalues --    0.09785   0.10660   0.11518   0.12035   0.13237
 Alpha virt. eigenvalues --    0.14130   0.15542   0.15831   0.17189   0.17878

 Mulliken charges:
               1
     1  C    0.705589
     2  C    0.947423
     3  H   -0.310621
     4  H    0.015870
     5  N   -0.418824
     6  N   -0.379123
     7  N   -0.064762
     8  N   -0.074255
     9  O   -0.421298
 Sum of Mulliken charges =  -0.00000

 Dipole moment (field-independent basis, Debye):
    X=              2.8114    Y=             -1.2397    Z=              0.0970  Tot=              3.0742

 Test job not archived.
 1\1\GINC-SE331\SP\RHF\Aug-CC-pVDZ\C2H2N4O1\OHZDE\08-Apr-2025\0\\#t hf
 aug-cc-pvdz iop(5/13=1,5/36=2,99/5=2) pseudo=read geom=check guess=(re
 ad,tcheck) scf=(maxcycle=1)\\title\\0,1\C,0,-0.969693,0.0822232,-0.013
 6803\C,0,1.00431,1.11022,0.0560111\H,0,1.5228,2.0165,0.00329458\H,0,-0
 .677435,-1.96455,-0.00423905\N,0,-0.28903,1.2861,-0.00701453\N,0,1.752
 88,-0.056806,-0.0289756\N,0,1.10698,-1.17883,-0.0811305\N,0,-0.244858,
 -1.08225,0.131797\O,0,-2.16686,0.00199132,-0.0444721\\Version=ES64L-G1
 6RevC.01\State=1-A\HF=-369.6388606\RMSD=2.778e-03\Dipole=1.1061093,-0.

 Normal termination of Gaussian 16 at Tue Apr  8 21:42:13 2025.
