 Gaussian 16, Revision C.01,

 ----------------------------------------------------------------------
 #t hf aug-cc-pvdz symm=none int=(grid=ultrafine) guess=(read,tcheck) s
 table=(opt,rrhf)
 ----------------------------------------------------------------------
 -----
 title
 -----
 Symbolic Z-matrix:
 Charge =  0 Multiplicity = 1

 SCF Done:  E(RHF) =  -509.542260283     A.U. after   14 cycles
 Normal termination of Gaussian 16 at Tue Apr  8 22:09:31 2025.
 Gaussian 16:  ES64L-G16RevC.01  3-Jul-2019

 ----------------------------------------------------------------------
 #t hf aug-cc-pvdz iop(5/13=1,5/36=2,99/5=2) pseudo=read geom=check gue
 ss=(read,tcheck) scf=(maxcycle=1)
 ----------------------------------------------------------------------
 -----
 title
 -----
 Structure from the checkpoint file:  "ANI1ccx_939_conf37_mol1.chk"
 Charge =  0 Multiplicity = 1

                         Standard orientation:
 ---------------------------------------------------------------------
 Center     Atomic      Atomic             Coordinates (Angstroms)
 Number     Number       Type             X           Y           Z
 ---------------------------------------------------------------------
      1          6           0       -0.673629    0.657922   -0.703059
      2          6           0       -1.536189   -0.330597    0.067459
      3          6           0        0.742518    0.142550   -1.057890
      4          6           0        1.727901   -0.224046    0.078778
      5          1           0        0.281957    2.361910   -0.178888
      6          1           0       -1.211758    2.124991    0.702850
      7          1           0       -1.128949    0.743148   -1.719520
      8          1           0        0.733034   -0.734206   -1.764310
      9          1           0        1.200721    0.949773   -1.573290
     10          1           0        1.723011   -0.294176    1.962590
     11          1           0       -2.203240   -2.029759   -0.316754
     12          7           0       -0.592194    1.870741   -0.073953
     13          8           0       -2.135689   -0.107443    1.065430
     14          8           0        2.909431   -0.477467   -0.015255
     15          8           0        1.106981   -0.134031    1.204330
     16          8           0       -1.482350   -1.492539   -0.617847
 ---------------------------------------------------------------------

 SCF Done:  E(RHF) =  -509.703485050     A.U. after    2 cycles

 The electronic state is 1-A.
 Alpha  occ. eigenvalues --  -20.63838 -20.63530 -20.58165 -20.56219 -15.60688
 Alpha  occ. eigenvalues --  -11.40720 -11.40506 -11.30052 -11.27164  -1.45320
 Alpha  occ. eigenvalues --   -1.44394  -1.35618  -1.32946  -1.19510  -1.03610
 Alpha  occ. eigenvalues --   -0.95450  -0.87100  -0.81999  -0.74886  -0.73879
 Alpha  occ. eigenvalues --   -0.73102  -0.68572  -0.68039  -0.67641  -0.65265
 Alpha  occ. eigenvalues --   -0.62155  -0.61777  -0.58423  -0.57051  -0.54894
 Alpha  occ. eigenvalues --   -0.52318  -0.49998  -0.47721  -0.47026  -0.37196
 Alpha virt. eigenvalues --    0.03043   0.03719   0.04085   0.05077   0.05760
 Alpha virt. eigenvalues --    0.06739   0.08067   0.10148   0.10494   0.11024
 Alpha virt. eigenvalues --    0.12965   0.13475   0.13757   0.14132   0.14575

 Mulliken charges:
               1
     1  C    0.664461
     2  C    0.681062
     3  C   -0.060501
     4  C    0.534854
     5  H    0.001630
     6  H    0.031144
     7  H    0.036468
     8  H    0.124725
     9  H   -0.035307
    10  H    0.231960
    11  H    0.178467
    12  N   -0.387792
    13  O   -0.449357
    14  O   -0.528094
    15  O   -0.498980
    16  O   -0.524740
 Sum of Mulliken charges =  -0.00000

 Dipole moment (field-independent basis, Debye):
    X=             -1.4560    Y=              0.1792    Z=             -0.5267  Tot=              1.5586

 Test job not archived.
 1\1\GINC-SE095\SP\RHF\Aug-CC-pVDZ\C4H7N1O4\OHZDE\08-Apr-2025\0\\#t hf
 aug-cc-pvdz iop(5/13=1,5/36=2,99/5=2) pseudo=read geom=check guess=(re
 ad,tcheck) scf=(maxcycle=1)\\title\\0,1\C,0,-0.67363,0.657921,-0.70305
 9\C,0,-1.53619,-0.330598,0.067459\C,0,0.742517,0.14255,-1.05789\C,0,1.
 7279,-0.224046,0.0787782\H,0,0.281955,2.36191,-0.178888\H,0,-1.21176,2
 .12499,0.70285\H,0,-1.12895,0.743147,-1.71952\H,0,0.733033,-0.734206,-
 1.76431\H,0,1.20072,0.949773,-1.57329\H,0,1.72301,-0.294176,1.96259\H,
 0,-2.20324,-2.02976,-0.316754\N,0,-0.592196,1.87074,-0.0739525\O,0,-2.

 Normal termination of Gaussian 16 at Tue Apr  8 22:09:38 2025.
