 Gaussian 16, Revision C.01,

 ----------------------------------------------------------------------
 #t hf aug-cc-pvdz symm=none int=(grid=ultrafine) guess=(read,tcheck) s
 table=(opt,rrhf)
 ----------------------------------------------------------------------
 -----
 title
 -----
 Symbolic Z-matrix:
 Charge =  0 Multiplicity = 1

 SCF Done:  E(RHF) =  -456.276401382     A.U. after   11 cycles
 Normal termination of Gaussian 16 at Tue Apr  8 21:08:45 2025.
 Gaussian 16:  ES64L-G16RevC.01  3-Jul-2019

 ----------------------------------------------------------------------
 #t hf aug-cc-pvdz iop(5/13=1,5/36=2,99/5=2) pseudo=read geom=check gue
 ss=(read,tcheck) scf=(maxcycle=1)
 ----------------------------------------------------------------------
 -----
 title
 -----
 Structure from the checkpoint file:  "ANI1ccx_1844_conf69_mol1.chk"
 Charge =  0 Multiplicity = 1

                         Standard orientation:
 ---------------------------------------------------------------------
 Center     Atomic      Atomic             Coordinates (Angstroms)
 Number     Number       Type             X           Y           Z
 ---------------------------------------------------------------------
      1          1           0        2.608019    0.353301   -0.597070
      2          1           0       -2.552029   -1.406101   -1.434230
      3          1           0       -2.571840   -0.176793   -0.432726
      4          1           0        2.249591   -2.158697   -1.055520
      5          1           0        1.411151   -1.604758    0.137604
      6          1           0       -0.401962   -1.858539    1.627890
      7          1           0        3.162458    1.784624   -0.007857
      8          1           0       -0.987719   -1.414510    0.245787
      9          1           0        0.117250    0.342178    1.066770
     10          1           0        0.897955    1.474622    0.433861
     11          1           0       -1.270152    1.488830    0.009885
     12          1           0       -2.694722    2.100099    0.094228
     13          8           0        2.282261   -1.505237   -0.285472
     14          8           0        0.101870    1.335221    0.972403
     15          8           0       -2.521330   -1.179521   -0.491001
     16          8           0       -0.189557   -1.361289    0.807036
     17          8           0        2.483448    1.350613   -0.595472
     18          8           0       -2.152692    1.494679   -0.418572
 ---------------------------------------------------------------------

 SCF Done:  E(RHF) =  -456.427062733     A.U. after    2 cycles

 The electronic state is 1-A.
 Alpha  occ. eigenvalues --  -20.60090 -20.58070 -20.57938 -20.57244 -20.56326
 Alpha  occ. eigenvalues --  -20.55037  -1.34169  -1.31184  -1.30238  -1.29847
 Alpha  occ. eigenvalues --   -1.28692  -1.27494  -0.76277  -0.73739  -0.73288
 Alpha  occ. eigenvalues --   -0.72729  -0.71900  -0.70687  -0.64919  -0.62036
 Alpha  occ. eigenvalues --   -0.60694  -0.59943  -0.57878  -0.56142  -0.54230
 Alpha  occ. eigenvalues --   -0.52928  -0.52684  -0.51671  -0.51266  -0.50030
 Alpha virt. eigenvalues --    0.02690   0.04660   0.04785   0.05058   0.05934
 Alpha virt. eigenvalues --    0.07763   0.08329   0.08868   0.09132   0.10095
 Alpha virt. eigenvalues --    0.10877   0.12356   0.16220   0.18523   0.19509

 Mulliken charges:
               1
     1  H    0.262011
     2  H    0.172164
     3  H    0.297116
     4  H    0.216318
     5  H    0.259417
     6  H    0.250589
     7  H    0.211027
     8  H    0.334058
     9  H    0.295872
    10  H    0.238658
    11  H    0.277279
    12  H    0.157012
    13  O   -0.436014
    14  O   -0.524712
    15  O   -0.462169
    16  O   -0.681857
    17  O   -0.458257
    18  O   -0.408513
 Sum of Mulliken charges =  -0.00000

 Dipole moment (field-independent basis, Debye):
    X=             -0.2476    Y=             -2.6219    Z=              0.2805  Tot=              2.6485

 Test job not archived.
 1\1\GINC-SE038\SP\RHF\Aug-CC-pVDZ\H12O6\OHZDE\08-Apr-2025\0\\#t hf aug
 -cc-pvdz iop(5/13=1,5/36=2,99/5=2) pseudo=read geom=check guess=(read,
 tcheck) scf=(maxcycle=1)\\title\\0,1\H,0,2.60802,0.353297,-0.59707\H,0
 ,-2.55203,-1.4061,-1.43423\H,0,-2.57184,-0.176792,-0.432726\H,0,2.2495
 9,-2.1587,-1.05552\H,0,1.41115,-1.60476,0.137604\H,0,-0.401963,-1.8585
 4,1.62789\H,0,3.16246,1.78462,-0.00785659\H,0,-0.98772,-1.41451,0.2457
 87\H,0,0.117251,0.342177,1.06677\H,0,0.897957,1.47462,0.433861\H,0,-1.
 27015,1.48883,0.00988448\H,0,-2.69472,2.1001,0.0942276\O,0,2.28226,-1.

 Normal termination of Gaussian 16 at Tue Apr  8 21:08:51 2025.
