 Gaussian 16, Revision C.01,

 ----------------------------------------------------------------------
 #t hf aug-cc-pvdz symm=none int=(grid=ultrafine) guess=(read,tcheck) s
 table=(opt,rrhf)
 ----------------------------------------------------------------------
 -----
 title
 -----
 Symbolic Z-matrix:
 Charge =  0 Multiplicity = 1

 SCF Done:  E(RHF) =  -205.849576643     A.U. after   15 cycles
 Normal termination of Gaussian 16 at Tue Apr  8 21:10:16 2025.
 Gaussian 16:  ES64L-G16RevC.01  3-Jul-2019

 ----------------------------------------------------------------------
 #t hf aug-cc-pvdz iop(5/13=1,5/36=2,99/5=2) pseudo=read geom=check gue
 ss=(read,tcheck) scf=(maxcycle=1)
 ----------------------------------------------------------------------
 -----
 title
 -----
 Structure from the checkpoint file:  "ANI1ccx_1869_conf27_mol1.chk"
 Charge =  0 Multiplicity = 1

                         Standard orientation:
 ---------------------------------------------------------------------
 Center     Atomic      Atomic             Coordinates (Angstroms)
 Number     Number       Type             X           Y           Z
 ---------------------------------------------------------------------
      1          1           0        2.341290   -0.228951    0.937954
      2          1           0       -2.868050    0.617683    0.482806
      3          1           0       -1.637840    0.111079   -0.278786
      4          7           0        1.978430   -0.322809   -0.067923
      5          8           0        1.047810    0.399814   -0.070269
      6          8           0       -2.508360   -0.179832   -0.013045
 ---------------------------------------------------------------------

 SCF Done:  E(RHF) =  -205.915856544     A.U. after    2 cycles

 The electronic state is 1-A.
 Alpha  occ. eigenvalues --  -20.67669 -20.57712 -15.78996  -1.52120  -1.29796
 Alpha  occ. eigenvalues --   -0.97341  -0.77490  -0.71107  -0.68987  -0.63349
 Alpha  occ. eigenvalues --   -0.59222  -0.52045  -0.43950
 Alpha virt. eigenvalues --    0.03313   0.04654   0.06153   0.07604   0.11770
 Alpha virt. eigenvalues --    0.14195   0.16566   0.17581   0.19194   0.21327
 Alpha virt. eigenvalues --    0.22321   0.23970   0.24319   0.25910   0.27694

 Mulliken charges:
               1
     1  H    0.147568
     2  H    0.180746
     3  H    0.121306
     4  N    0.173524
     5  O   -0.320777
     6  O   -0.302367
 Sum of Mulliken charges =   0.00000

 Dipole moment (field-independent basis, Debye):
    X=              2.3151    Y=              1.4369    Z=              1.8691  Tot=              3.3043

 Test job not archived.
 1\1\GINC-SE083\SP\RHF\Aug-CC-pVDZ\H3N1O2\OHZDE\08-Apr-2025\0\\#t hf au
 g-cc-pvdz iop(5/13=1,5/36=2,99/5=2) pseudo=read geom=check guess=(read
 ,tcheck) scf=(maxcycle=1)\\title\\0,1\H,0,2.34129,-0.228951,0.937954\H
 ,0,-2.86805,0.617683,0.482806\H,0,-1.63784,0.111079,-0.278786\N,0,1.97
 843,-0.322809,-0.0679225\O,0,1.04781,0.399814,-0.0702693\O,0,-2.50836,
 -0.179832,-0.0130452\\Version=ES64L-G16RevC.01\State=1-A\HF=-205.91585
 65\RMSD=2.604e-03\Dipole=0.9108498,0.5653156,0.7353614\Quadrupole=0.39
 54293,-0.38846,-0.0069693,-3.6364974,0.8717398,-0.0095945\PG=C01 [X(H3

 Normal termination of Gaussian 16 at Tue Apr  8 21:10:17 2025.
