 Gaussian 16, Revision C.01,

 ----------------------------------------------------------------------
 #t hf aug-cc-pvdz symm=none int=(grid=ultrafine) guess=(read,tcheck) s
 table=(opt,rrhf)
 ----------------------------------------------------------------------
 -----
 title
 -----
 Symbolic Z-matrix:
 Charge =  0 Multiplicity = 1

 SCF Done:  E(RHF) =  -465.441696044     A.U. after   14 cycles
 Normal termination of Gaussian 16 at Tue Apr  8 21:42:54 2025.
 Gaussian 16:  ES64L-G16RevC.01  3-Jul-2019

 ----------------------------------------------------------------------
 #t hf aug-cc-pvdz iop(5/13=1,5/36=2,99/5=2) pseudo=read geom=check gue
 ss=(read,tcheck) scf=(maxcycle=1)
 ----------------------------------------------------------------------
 -----
 title
 -----
 Structure from the checkpoint file:  "ANI1ccx_503_conf1_mol1.chk"
 Charge =  0 Multiplicity = 1

                         Standard orientation:
 ---------------------------------------------------------------------
 Center     Atomic      Atomic             Coordinates (Angstroms)
 Number     Number       Type             X           Y           Z
 ---------------------------------------------------------------------
      1          6           0        1.408810    0.022505   -0.044752
      2          6           0       -0.743408    0.773557    0.116304
      3          1           0       -2.333070   -1.627958    0.204655
      4          1           0        0.876808   -1.841670    0.568336
      5          1           0        0.843202    2.075900   -0.324013
      6          7           0       -0.754157   -0.656998    0.388092
      7          7           0        0.537026   -1.064139    0.076838
      8          7           0        0.576056    1.121541   -0.124595
      9          8           0       -1.680150   -1.320008   -0.397457
     10          8           0        2.616050   -0.098637   -0.060219
     11          8           0       -1.672379    1.520462    0.050097
 ---------------------------------------------------------------------

 SCF Done:  E(RHF) =  -465.584214880     A.U. after    2 cycles

 The electronic state is 1-A.
 Alpha  occ. eigenvalues --  -20.65282 -20.59190 -20.57643 -15.77390 -15.71613
 Alpha  occ. eigenvalues --  -15.70686 -11.44406 -11.44220  -1.47283  -1.40630
 Alpha  occ. eigenvalues --   -1.39711  -1.31421  -1.22126  -1.07430  -0.91185
 Alpha  occ. eigenvalues --   -0.88018  -0.78956  -0.78191  -0.72080  -0.70893
 Alpha  occ. eigenvalues --   -0.69573  -0.68033  -0.66392  -0.60563  -0.57631
 Alpha  occ. eigenvalues --   -0.54457  -0.51226  -0.48235  -0.46935  -0.41034
 Alpha virt. eigenvalues --    0.02733   0.03582   0.04477   0.06717   0.09433
 Alpha virt. eigenvalues --    0.11013   0.11865   0.12054   0.12272   0.13119
 Alpha virt. eigenvalues --    0.13633   0.14781   0.16310   0.16577   0.17408

 Mulliken charges:
               1
     1  C    0.802141
     2  C    0.994152
     3  H    0.182046
     4  H   -0.001000
     5  H   -0.046265
     6  N   -0.417896
     7  N    0.010781
     8  N   -0.336667
     9  O   -0.387446
    10  O   -0.417526
    11  O   -0.382320
 Sum of Mulliken charges =  -0.00000

 Dipole moment (field-independent basis, Debye):
    X=             -1.0005    Y=             -1.2101    Z=              1.5263  Tot=              2.1897

 Test job not archived.
 1\1\GINC-SE334\SP\RHF\Aug-CC-pVDZ\C2H3N3O3\OHZDE\08-Apr-2025\0\\#t hf
 aug-cc-pvdz iop(5/13=1,5/36=2,99/5=2) pseudo=read geom=check guess=(re
 ad,tcheck) scf=(maxcycle=1)\\title\\0,1\C,0,1.40881,0.022505,-0.044751
 8\C,0,-0.743409,0.773556,0.116304\H,0,-2.33307,-1.62796,0.204655\H,0,0
 .876808,-1.84167,0.568336\H,0,0.843201,2.0759,-0.324013\N,0,-0.754157,
 -0.656999,0.388092\N,0,0.537026,-1.06414,0.0768379\N,0,0.576055,1.1215
 4,-0.124595\O,0,-1.68015,-1.32001,-0.397457\O,0,2.61605,-0.098637,-0.0
 60219\O,0,-1.67238,1.52046,0.0500973\\Version=ES64L-G16RevC.01\State=1

 Normal termination of Gaussian 16 at Tue Apr  8 21:42:58 2025.
