 Gaussian 16, Revision C.01,

 ----------------------------------------------------------------------
 #t hf aug-cc-pvdz symm=none int=(grid=ultrafine) guess=(read,tcheck) s
 table=(opt,rrhf)
 ----------------------------------------------------------------------
 -----
 title
 -----
 Symbolic Z-matrix:
 Charge =  0 Multiplicity = 1

 SCF Done:  E(RHF) =  -725.300164681     A.U. after   15 cycles
 Normal termination of Gaussian 16 at Tue Apr  8 20:39:36 2025.
 Gaussian 16:  ES64L-G16RevC.01  3-Jul-2019

 ----------------------------------------------------------------------
 #t hf aug-cc-pvdz iop(5/13=1,5/36=2,99/5=2) pseudo=read geom=check gue
 ss=(read,tcheck) scf=(maxcycle=1)
 ----------------------------------------------------------------------
 -----
 title
 -----
 Structure from the checkpoint file:  "ANI1ccx_174_conf1_mol2.chk"
 Charge =  0 Multiplicity = 1

                         Standard orientation:
 ---------------------------------------------------------------------
 Center     Atomic      Atomic             Coordinates (Angstroms)
 Number     Number       Type             X           Y           Z
 ---------------------------------------------------------------------
      1          6           0        2.646830   -3.205641   -0.049167
      2          6           0       -2.958709   -0.977068   -0.711580
      3          6           0       -1.336569   -0.542186    1.296210
      4          6           0        0.546636    0.519288    0.209073
      5          6           0        0.196221    1.849069    0.453166
      6          6           0       -2.690649   -0.244879    0.623486
      7          6           0        2.338762    2.675989   -0.511251
      8          6           0        2.625171    1.331679   -0.800448
      9          6           0        1.767671    0.269422   -0.339916
     10          6           0        2.329891   -1.923971    0.552664
     11          6           0        1.118942    2.879699    0.166618
     12          1           0       -1.335929   -1.513080    1.846920
     13          1           0       -4.316459   -1.017899   -2.063520
     14          1           0       -2.182359   -0.814959   -1.409950
     15          1           0       -3.064729   -2.064250   -0.503742
     16          1           0       -3.373169    1.416190   -0.147683
     17          1           0       -3.591489   -0.640774    1.170600
     18          1           0       -1.013719    0.387240    1.955860
     19          1           0       -0.686324    2.188410    1.053280
     20          1           0        3.118601   -1.597341    1.216630
     21          1           0        3.122112    3.402439   -0.821616
     22          1           0        3.553591    0.919135   -1.137520
     23          1           0        1.343021   -1.907271    1.026980
     24          1           0        1.977940   -3.512611   -0.985852
     25          1           0        2.623370   -4.089361    0.703899
     26          1           0        3.715170   -2.940511   -0.443913
     27          1           0        0.899899    3.871459    0.643522
     28          8           0       -2.709219    1.164090    0.499036
     29          8           0        2.209491   -1.021891   -0.561751
     30          8           0       -0.302081   -0.594185    0.358039
     31          8           0       -4.235029   -0.532417   -1.224950
 ---------------------------------------------------------------------

 SCF Done:  E(RHF) =  -725.519165765     A.U. after    2 cycles

 The electronic state is 1-A.
 Alpha  occ. eigenvalues --  -20.59398 -20.58996 -20.57563 -20.57357 -11.31215
 Alpha  occ. eigenvalues --  -11.30514 -11.30414 -11.29546 -11.29525 -11.27983
 Alpha  occ. eigenvalues --  -11.25205 -11.24890 -11.24691 -11.24497 -11.24254
 Alpha  occ. eigenvalues --   -1.37067  -1.34334  -1.33499  -1.31854  -1.13229
 Alpha  occ. eigenvalues --   -1.04228  -1.03420  -0.99969  -0.97262  -0.92650
 Alpha  occ. eigenvalues --   -0.84828  -0.83080  -0.81272  -0.79050  -0.74495
 Alpha  occ. eigenvalues --   -0.72237  -0.70478  -0.68971  -0.68886  -0.66514
 Alpha  occ. eigenvalues --   -0.64616  -0.64300  -0.63010  -0.61676  -0.59615
 Alpha  occ. eigenvalues --   -0.58933  -0.58868  -0.56823  -0.54706  -0.53613
 Alpha  occ. eigenvalues --   -0.53195  -0.51349  -0.51100  -0.50215  -0.48836
 Alpha  occ. eigenvalues --   -0.47907  -0.47813  -0.45726  -0.44829  -0.44081
 Alpha  occ. eigenvalues --   -0.33019  -0.31355
 Alpha virt. eigenvalues --    0.03035   0.03752   0.03915   0.04262   0.05059
 Alpha virt. eigenvalues --    0.05193   0.05621   0.06089   0.06259   0.07145
 Alpha virt. eigenvalues --    0.07540   0.07705   0.08472   0.08813   0.10278

 Mulliken charges:
               1
     1  C   -0.265175
     2  C    0.885714
     3  C    0.509052
     4  C    0.608765
     5  C    0.293544
     6  C    0.408083
     7  C    0.427554
     8  C    1.169446
     9  C   -0.414922
    10  C    0.780165
    11  C    0.625383
    12  H   -0.230149
    13  H    0.174726
    14  H   -0.318321
    15  H   -0.101687
    16  H    0.231932
    17  H   -0.018393
    18  H    0.251436
    19  H   -0.686304
    20  H   -0.219620
    21  H   -0.350558
    22  H   -0.572788
    23  H   -0.261751
    24  H    0.129665
    25  H    0.054218
    26  H    0.150044
    27  H   -0.391063
    28  O   -0.720740
    29  O   -0.766725
    30  O   -0.743808
    31  O   -0.637722
 Sum of Mulliken charges =  -0.00000

 Dipole moment (field-independent basis, Debye):
    X=             -0.6994    Y=             -1.5938    Z=              0.6579  Tot=              1.8607

 Test job not archived.
 1\1\GINC-SE021\SP\RHF\Aug-CC-pVDZ\C11H16O4\OHZDE\08-Apr-2025\0\\#t hf
 aug-cc-pvdz iop(5/13=1,5/36=2,99/5=2) pseudo=read geom=check guess=(re
 ad,tcheck) scf=(maxcycle=1)\\title\\0,1\C,0,2.64683,-3.20564,-0.049166
 5\C,0,-2.95871,-0.977068,-0.71158\C,0,-1.33657,-0.542186,1.29621\C,0,0
 .546635,0.519289,0.209073\C,0,0.196219,1.84907,0.453166\C,0,-2.69065,-
 0.244879,0.623486\C,0,2.33876,2.67599,-0.511251\C,0,2.62517,1.33168,-0
 .800448\C,0,1.76767,0.269423,-0.339916\C,0,2.32989,-1.92397,0.552664\C
 ,0,1.11894,2.8797,0.166618\H,0,-1.33593,-1.51308,1.84692\H,0,-4.31646,

 Normal termination of Gaussian 16 at Tue Apr  8 20:40:15 2025.
