 Gaussian 16, Revision C.01,

 ----------------------------------------------------------------------
 #t hf aug-cc-pvdz symm=none int=(grid=ultrafine) guess=(read,tcheck) s
 table=(opt,rrhf)
 ----------------------------------------------------------------------
 -----
 title
 -----
 Symbolic Z-matrix:
 Charge =  0 Multiplicity = 1

 SCF Done:  E(RHF) =  -393.469088181     A.U. after   15 cycles
 Normal termination of Gaussian 16 at Tue Apr  8 21:31:37 2025.
 Gaussian 16:  ES64L-G16RevC.01  3-Jul-2019

 ----------------------------------------------------------------------
 #t hf aug-cc-pvdz iop(5/13=1,5/36=2,99/5=2) pseudo=read geom=check gue
 ss=(read,tcheck) scf=(maxcycle=1)
 ----------------------------------------------------------------------
 -----
 title
 -----
 Structure from the checkpoint file:  "ANI1ccx_388_conf4_mol1.chk"
 Charge =  0 Multiplicity = 1

                         Standard orientation:
 ---------------------------------------------------------------------
 Center     Atomic      Atomic             Coordinates (Angstroms)
 Number     Number       Type             X           Y           Z
 ---------------------------------------------------------------------
      1          6           0        2.132653    0.171865   -0.187286
      2          1           0        0.361970    0.096603    0.311330
      3          1           0        1.759982    1.012860   -0.823408
      4          1           0       -1.661158    1.697850    0.433717
      5          7           0       -2.372547   -0.007435    0.355210
      6          8           0        1.184513   -0.371296    0.573161
      7          8           0        3.278123   -0.175087   -0.191714
      8          8           0       -1.460828    0.924638   -0.139288
      9          8           0       -2.582917   -0.851562   -0.402708
 ---------------------------------------------------------------------

 SCF Done:  E(RHF) =  -393.596422570     A.U. after    2 cycles

 The electronic state is 1-A.
 Alpha  occ. eigenvalues --  -20.70685 -20.69263 -20.63608 -20.56822 -15.88652
 Alpha  occ. eigenvalues --  -11.40338  -1.60412  -1.43106  -1.41374  -1.34046
 Alpha  occ. eigenvalues --   -0.96751  -0.86233  -0.83656  -0.80304  -0.77970
 Alpha  occ. eigenvalues --   -0.74185  -0.68189  -0.67273  -0.64892  -0.61375
 Alpha  occ. eigenvalues --   -0.58461  -0.50374  -0.49906  -0.47573
 Alpha virt. eigenvalues --    0.01783   0.04725   0.05775   0.06309   0.08286
 Alpha virt. eigenvalues --    0.10391   0.10703   0.11487   0.14432   0.16180
 Alpha virt. eigenvalues --    0.16367   0.17118   0.17602   0.18695   0.19895

 Mulliken charges:
               1
     1  C    0.748875
     2  H    0.199572
     3  H   -0.139710
     4  H    0.297738
     5  N    0.503359
     6  O   -0.369509
     7  O   -0.404681
     8  O   -0.554292
     9  O   -0.281351
 Sum of Mulliken charges =  -0.00000

 Dipole moment (field-independent basis, Debye):
    X=             -4.7744    Y=              4.0973    Z=              0.4154  Tot=              6.3052

 Test job not archived.
 1\1\GINC-SE458\SP\RHF\Aug-CC-pVDZ\C1H3N1O4\OHZDE\08-Apr-2025\0\\#t hf
 aug-cc-pvdz iop(5/13=1,5/36=2,99/5=2) pseudo=read geom=check guess=(re
 ad,tcheck) scf=(maxcycle=1)\\title\\0,1\C,0,2.13265,0.171865,-0.187286
 \H,0,0.361967,0.096603,0.31133\H,0,1.75998,1.01286,-0.823408\H,0,-1.66
 116,1.69785,0.433717\N,0,-2.37255,-0.00743485,0.35521\O,0,1.18451,-0.3
 71296,0.573161\O,0,3.27812,-0.175087,-0.191714\O,0,-1.46083,0.924638,-
 0.139288\O,0,-2.58292,-0.851562,-0.402708\\Version=ES64L-G16RevC.01\St
 ate=1-A\HF=-393.5964226\RMSD=2.601e-03\Dipole=-1.878391,1.6120084,0.16

 Normal termination of Gaussian 16 at Tue Apr  8 21:31:40 2025.
