 Gaussian 16, Revision C.01,

 ----------------------------------------------------------------------
 #t hf aug-cc-pvdz symm=none int=(grid=ultrafine) guess=(read,tcheck) s
 table=(opt,rrhf)
 ----------------------------------------------------------------------
 -----
 title
 -----
 Symbolic Z-matrix:
 Charge =  0 Multiplicity = 1

 SCF Done:  E(RHF) =  -908.327623232     A.U. after   14 cycles
 Normal termination of Gaussian 16 at Tue Apr  8 20:59:59 2025.
 Gaussian 16:  ES64L-G16RevC.01  3-Jul-2019

 ----------------------------------------------------------------------
 #t hf aug-cc-pvdz iop(5/13=1,5/36=2,99/5=2) pseudo=read geom=check gue
 ss=(read,tcheck) scf=(maxcycle=1)
 ----------------------------------------------------------------------
 -----
 title
 -----
 Structure from the checkpoint file:  "ANI1ccx_1761_conf30_mol1.chk"
 Charge =  0 Multiplicity = 1

                         Standard orientation:
 ---------------------------------------------------------------------
 Center     Atomic      Atomic             Coordinates (Angstroms)
 Number     Number       Type             X           Y           Z
 ---------------------------------------------------------------------
      1          6           0       -2.186111    0.038232    0.549953
      2          6           0        3.035409    0.697326   -1.054900
      3          6           0        2.215159   -0.492880   -1.559720
      4          6           0        1.850679   -1.314170    0.781669
      5          6           0        2.336239    1.741350   -0.252222
      6          6           0       -4.143071   -1.035450   -0.433703
      7          6           0       -3.407361    0.270367   -0.340822
      8          6           0       -1.121851   -0.869286   -0.234803
      9          6           0        1.255439   -1.085330   -0.554188
     10          1           0        0.901962   -2.006220   -0.973640
     11          1           0        3.138559   -2.004100    1.778520
     12          1           0        0.715294    2.894510   -0.342954
     13          1           0        3.869279    0.287355   -0.554437
     14          1           0        3.374109    1.085210   -2.032420
     15          1           0        3.015499   -1.279950   -1.755830
     16          1           0        1.625559   -0.362652   -2.439980
     17          1           0        0.100855    0.595873    0.062226
     18          1           0       -5.258701   -0.958043   -0.279135
     19          1           0       -3.734241   -1.669330    0.357597
     20          1           0       -3.996371   -1.580210   -1.325190
     21          1           0       -4.538411    1.098960    1.012810
     22          1           0       -2.998901    0.659209   -1.257320
     23          1           0       -2.486301   -0.534433    1.447040
     24          1           0       -2.181671    2.111420    0.847223
     25          1           0       -0.991618    1.494860    1.823300
     26          7           0       -1.531051    1.363180    0.915968
     27          7           0        0.049583   -0.271990   -0.420359
     28          8           0       -1.395051   -2.018820   -0.547521
     29          8           0       -4.172541    1.339480    0.167325
     30          8           0        1.505109   -0.697442    1.741870
     31          8           0        2.648569    2.134730    0.847503
     32          8           0        1.098579    2.057170   -0.732954
     33          8           0        2.916359   -2.211590    0.868195
 ---------------------------------------------------------------------

 SCF Done:  E(RHF) =  -908.606873330     A.U. after    2 cycles

 The electronic state is 1-A.
 Alpha  occ. eigenvalues --  -20.63522 -20.62527 -20.58474 -20.58034 -20.57352
 Alpha  occ. eigenvalues --  -20.53247 -15.63295 -15.61841 -11.41116 -11.41085
 Alpha  occ. eigenvalues --  -11.35835 -11.30010 -11.29878 -11.29216 -11.27251
 Alpha  occ. eigenvalues --  -11.27195 -11.21983  -1.44261  -1.42511  -1.35015
 Alpha  occ. eigenvalues --   -1.34374  -1.34071  -1.32471  -1.22010  -1.14540
 Alpha  occ. eigenvalues --   -1.10184  -1.03696  -1.02070  -0.92101  -0.91093
 Alpha  occ. eigenvalues --   -0.85744  -0.84421  -0.80917  -0.79659  -0.74461
 Alpha  occ. eigenvalues --   -0.73092  -0.71950  -0.71446  -0.69256  -0.68360
 Alpha  occ. eigenvalues --   -0.67975  -0.67263  -0.66749  -0.65526  -0.63591
 Alpha  occ. eigenvalues --   -0.62355  -0.61492  -0.61447  -0.60661  -0.58721
 Alpha  occ. eigenvalues --   -0.58188  -0.56244  -0.55657  -0.54684  -0.53716
 Alpha  occ. eigenvalues --   -0.52441  -0.52384  -0.51027  -0.49093  -0.48923
 Alpha  occ. eigenvalues --   -0.48695  -0.47424  -0.46648  -0.43521  -0.40694
 Alpha  occ. eigenvalues --   -0.38612
 Alpha virt. eigenvalues --    0.02732   0.03196   0.03760   0.04091   0.04989
 Alpha virt. eigenvalues --    0.05384   0.05859   0.06262   0.06801   0.07238
 Alpha virt. eigenvalues --    0.07461   0.07969   0.08227   0.08997   0.10192

 Mulliken charges:
               1
     1  C    0.621087
     2  C    0.264622
     3  C    0.433577
     4  C    0.782575
     5  C    0.966796
     6  C    0.718701
     7  C    0.605888
     8  C   -0.077538
     9  C   -0.085539
    10  H   -0.143704
    11  H    0.184192
    12  H    0.293000
    13  H   -0.172090
    14  H    0.135922
    15  H    0.145046
    16  H   -0.247272
    17  H    0.076940
    18  H   -0.012242
    19  H   -0.097137
    20  H   -0.158131
    21  H    0.131407
    22  H   -0.245878
    23  H   -0.075030
    24  H   -0.016038
    25  H    0.090083
    26  N   -0.460456
    27  N   -0.052843
    28  O   -0.592903
    29  O   -0.606756
    30  O   -0.492010
    31  O   -0.523103
    32  O   -0.775955
    33  O   -0.615211
 Sum of Mulliken charges =  -0.00000

 Dipole moment (field-independent basis, Debye):
    X=              0.9871    Y=              1.4285    Z=             -0.8386  Tot=              1.9283

 Test job not archived.
 1\1\GINC-SE021\SP\RHF\Aug-CC-pVDZ\C9H16N2O6\OHZDE\08-Apr-2025\0\\#t hf
  aug-cc-pvdz iop(5/13=1,5/36=2,99/5=2) pseudo=read geom=check guess=(r
 ead,tcheck) scf=(maxcycle=1)\\title\\0,1\C,0,-2.18611,0.0382317,0.5499
 53\C,0,3.03541,0.697326,-1.0549\C,0,2.21516,-0.49288,-1.55972\C,0,1.85
 068,-1.31417,0.781669\C,0,2.33624,1.74135,-0.252222\C,0,-4.14307,-1.03
 545,-0.433703\C,0,-3.40736,0.270367,-0.340822\C,0,-1.12185,-0.869286,-
 0.234803\C,0,1.25544,-1.08533,-0.554188\H,0,0.901963,-2.00622,-0.97364
 \H,0,3.13856,-2.0041,1.77852\H,0,0.715295,2.89451,-0.342954\H,0,3.8692

 Normal termination of Gaussian 16 at Tue Apr  8 21:00:49 2025.
