 Gaussian 16, Revision C.01,

 ----------------------------------------------------------------------
 #t hf aug-cc-pvdz symm=none int=(grid=ultrafine) guess=(read,tcheck) s
 table=(opt,rrhf)
 ----------------------------------------------------------------------
 -----
 title
 -----
 Symbolic Z-matrix:
 Charge =  0 Multiplicity = 1

 SCF Done:  E(RHF) =  -564.573670503     A.U. after   14 cycles
 Normal termination of Gaussian 16 at Tue Apr  8 22:13:34 2025.
 Gaussian 16:  ES64L-G16RevC.01  3-Jul-2019

 ----------------------------------------------------------------------
 #t hf aug-cc-pvdz iop(5/13=1,5/36=2,99/5=2) pseudo=read geom=check gue
 ss=(read,tcheck) scf=(maxcycle=1)
 ----------------------------------------------------------------------
 -----
 title
 -----
 Structure from the checkpoint file:  "ANI1ccx_958_conf7_mol1.chk"
 Charge =  0 Multiplicity = 1

                         Standard orientation:
 ---------------------------------------------------------------------
 Center     Atomic      Atomic             Coordinates (Angstroms)
 Number     Number       Type             X           Y           Z
 ---------------------------------------------------------------------
      1          6           0        2.455731   -1.396259   -0.720838
      2          6           0        0.424159   -0.275971   -0.286831
      3          6           0       -2.060210   -0.276185    0.071881
      4          6           0        0.927204    1.040530    0.156514
      5          1           0        1.850490    0.312761    1.670041
      6          1           0       -1.417701    1.004829   -1.261259
      7          1           0       -3.076341    1.065418   -1.105529
      8          1           0       -0.680048   -1.206001    1.244491
      9          1           0        2.950981   -2.256958   -0.261382
     10          1           0        3.100640   -0.525542   -0.898377
     11          1           0        2.104281   -1.767239   -1.696769
     12          1           0        0.220951   -0.349917   -1.378249
     13          7           0       -0.794599   -0.657825    0.379438
     14          7           0       -2.239741    0.512156   -1.019439
     15          8           0        1.571329    1.151311    1.309281
     16          8           0        1.364671   -1.136349    0.159555
     17          8           0       -2.973800   -0.745098    0.722366
     18          8           0        0.751027    2.003840   -0.585862
 ---------------------------------------------------------------------

 SCF Done:  E(RHF) =  -564.753951629     A.U. after    2 cycles

 The electronic state is 1-A.
 Alpha  occ. eigenvalues --  -20.64974 -20.62941 -20.57992 -20.52072 -15.66395
 Alpha  occ. eigenvalues --  -15.65001 -11.41566 -11.39499 -11.37777 -11.33151
 Alpha  occ. eigenvalues --   -1.46095  -1.41482  -1.36408  -1.34455  -1.22526
 Alpha  occ. eigenvalues --   -1.17641  -1.03647  -0.94864  -0.88217  -0.84641
 Alpha  occ. eigenvalues --   -0.81347  -0.76248  -0.75447  -0.71811  -0.68336
 Alpha  occ. eigenvalues --   -0.67707  -0.66576  -0.65625  -0.63151  -0.62388
 Alpha  occ. eigenvalues --   -0.60838  -0.57927  -0.56146  -0.52806  -0.51244
 Alpha  occ. eigenvalues --   -0.48750  -0.45434  -0.43426  -0.41360
 Alpha virt. eigenvalues --    0.02213   0.03388   0.04222   0.04730   0.05467
 Alpha virt. eigenvalues --    0.06563   0.07411   0.08257   0.09872   0.10709
 Alpha virt. eigenvalues --    0.11204   0.12272   0.12825   0.13286   0.13378

 Mulliken charges:
               1
     1  C    0.741618
     2  C    1.123368
     3  C    0.622832
     4  C    0.674288
     5  H    0.211965
     6  H    0.027040
     7  H    0.021291
     8  H   -0.015949
     9  H   -0.204372
    10  H   -0.055324
    11  H   -0.088182
    12  H   -0.303306
    13  N   -0.470359
    14  N   -0.108851
    15  O   -0.460716
    16  O   -0.676527
    17  O   -0.514246
    18  O   -0.524569
 Sum of Mulliken charges =  -0.00000

 Dipole moment (field-independent basis, Debye):
    X=              4.8573    Y=             -2.0687    Z=             -1.5401  Tot=              5.4995

 Test job not archived.
 1\1\GINC-SE143\SP\RHF\Aug-CC-pVDZ\C4H8N2O4\OHZDE\08-Apr-2025\0\\#t hf
 aug-cc-pvdz iop(5/13=1,5/36=2,99/5=2) pseudo=read geom=check guess=(re
 ad,tcheck) scf=(maxcycle=1)\\title\\0,1\C,0,2.45573,-1.39626,-0.720839
 \C,0,0.424159,-0.275971,-0.286832\C,0,-2.06021,-0.276183,0.0718803\C,0
 ,0.927205,1.04053,0.156513\H,0,1.85049,0.31276,1.67004\H,0,-1.4177,1.0
 0483,-1.26126\H,0,-3.07634,1.06542,-1.10553\H,0,-0.680049,-1.206,1.244
 49\H,0,2.95098,-2.25696,-0.261383\H,0,3.10064,-0.525544,-0.898378\H,0,
 2.10428,-1.76724,-1.69677\H,0,0.220951,-0.349917,-1.37825\N,0,-0.79459

 Normal termination of Gaussian 16 at Tue Apr  8 22:13:44 2025.
