 Gaussian 16, Revision C.01,

 ----------------------------------------------------------------------
 #t hf aug-cc-pvdz symm=none int=(grid=ultrafine) guess=(read,tcheck) s
 table=(opt,rrhf)
 ----------------------------------------------------------------------
 -----
 title
 -----
 Symbolic Z-matrix:
 Charge =  0 Multiplicity = 1

 SCF Done:  E(RHF) =  -465.394330020     A.U. after   15 cycles
 Normal termination of Gaussian 16 at Tue Apr  8 21:42:54 2025.
 Gaussian 16:  ES64L-G16RevC.01  3-Jul-2019

 ----------------------------------------------------------------------
 #t hf aug-cc-pvdz iop(5/13=1,5/36=2,99/5=2) pseudo=read geom=check gue
 ss=(read,tcheck) scf=(maxcycle=1)
 ----------------------------------------------------------------------
 -----
 title
 -----
 Structure from the checkpoint file:  "ANI1ccx_503_conf8_mol1.chk"
 Charge =  0 Multiplicity = 1

                         Standard orientation:
 ---------------------------------------------------------------------
 Center     Atomic      Atomic             Coordinates (Angstroms)
 Number     Number       Type             X           Y           Z
 ---------------------------------------------------------------------
      1          6           0       -1.473950    0.060109    0.102276
      2          6           0        0.826809    0.730417   -0.091835
      3          1           0        1.666663   -0.886585    1.069110
      4          1           0       -1.116855   -1.774043   -0.529835
      5          1           0       -0.794924    2.179028   -0.251976
      6          7           0        0.792500   -0.625953   -0.487756
      7          7           0       -0.615694   -1.034181   -0.065844
      8          7           0       -0.564127    1.117169   -0.150620
      9          8           0        1.688994   -1.375295    0.200877
     10          8           0       -2.663200   -0.024061    0.209746
     11          8           0        1.829106    1.341756    0.161826
 ---------------------------------------------------------------------

 SCF Done:  E(RHF) =  -465.536196523     A.U. after    2 cycles

 The electronic state is 1-A.
 Alpha  occ. eigenvalues --  -20.66199 -20.61524 -20.59147 -15.78642 -15.72271
 Alpha  occ. eigenvalues --  -15.70726 -11.45825 -11.44979  -1.48070  -1.41466
 Alpha  occ. eigenvalues --   -1.40702  -1.30102  -1.17472  -1.09100  -0.87990
 Alpha  occ. eigenvalues --   -0.87315  -0.78052  -0.76675  -0.73167  -0.71069
 Alpha  occ. eigenvalues --   -0.69718  -0.66981  -0.64340  -0.60555  -0.58958
 Alpha  occ. eigenvalues --   -0.53725  -0.51988  -0.48618  -0.47193  -0.42758
 Alpha virt. eigenvalues --    0.02999   0.03731   0.04158   0.06776   0.09512
 Alpha virt. eigenvalues --    0.10288   0.10755   0.11430   0.11739   0.12182
 Alpha virt. eigenvalues --    0.14117   0.14843   0.15825   0.16407   0.17059

 Mulliken charges:
               1
     1  C    0.749271
     2  C    0.975147
     3  H    0.243451
     4  H    0.035365
     5  H    0.056481
     6  N   -0.258897
     7  N   -0.094395
     8  N   -0.530273
     9  O   -0.420541
    10  O   -0.366459
    11  O   -0.389148
 Sum of Mulliken charges =  -0.00000

 Dipole moment (field-independent basis, Debye):
    X=             -0.4258    Y=              0.4791    Z=             -0.0993  Tot=              0.6486

 Test job not archived.
 1\1\GINC-SE340\SP\RHF\Aug-CC-pVDZ\C2H3N3O3\OHZDE\08-Apr-2025\0\\#t hf
 aug-cc-pvdz iop(5/13=1,5/36=2,99/5=2) pseudo=read geom=check guess=(re
 ad,tcheck) scf=(maxcycle=1)\\title\\0,1\C,0,-1.47395,0.0601122,0.10227
 6\C,0,0.826811,0.730414,-0.0918346\H,0,1.66666,-0.88659,1.06911\H,0,-1
 .11686,-1.77404,-0.529835\H,0,-0.794918,2.17903,-0.251976\N,0,0.792498
 ,-0.625956,-0.487756\N,0,-0.615697,-1.03418,-0.065844\N,0,-0.564124,1.
 11717,-0.15062\O,0,1.68899,-1.3753,0.200877\O,0,-2.6632,-0.0240535,0.2
 09746\O,0,1.82911,1.34175,0.161826\\Version=ES64L-G16RevC.01\State=1-A

 Normal termination of Gaussian 16 at Tue Apr  8 21:42:59 2025.
