 Gaussian 16, Revision C.01,

 ----------------------------------------------------------------------
 #t hf aug-cc-pvdz symm=none int=(grid=ultrafine) guess=(read,tcheck) s
 table=(opt,rrhf)
 ----------------------------------------------------------------------
 -----
 title
 -----
 Symbolic Z-matrix:
 Charge =  0 Multiplicity = 1

 SCF Done:  E(RHF) =  -484.039210282     A.U. after   17 cycles
 Normal termination of Gaussian 16 at Tue Apr  8 21:46:53 2025.
 Gaussian 16:  ES64L-G16RevC.01  3-Jul-2019

 ----------------------------------------------------------------------
 #t hf aug-cc-pvdz iop(5/13=1,5/36=2,99/5=2) pseudo=read geom=check gue
 ss=(read,tcheck) scf=(maxcycle=1)
 ----------------------------------------------------------------------
 -----
 title
 -----
 Structure from the checkpoint file:  "ANI1ccx_606_conf3_mol1.chk"
 Charge =  0 Multiplicity = 1

                         Standard orientation:
 ---------------------------------------------------------------------
 Center     Atomic      Atomic             Coordinates (Angstroms)
 Number     Number       Type             X           Y           Z
 ---------------------------------------------------------------------
      1          6           0        1.154279   -0.435184   -0.032025
      2          6           0       -1.207361   -0.321986   -0.003472
      3          7           0        1.170200    0.990840    0.045846
      4          7           0        0.203177    1.726720   -0.041305
      5          8           0        2.245939   -0.942535   -0.113627
      6          8           0       -1.153710    1.031541    0.022819
      7          8           0       -2.217971   -0.917573   -0.124029
      8          8           0       -0.036152   -0.981420    0.237486
 ---------------------------------------------------------------------

 SCF Done:  E(RHF) =  -484.189196638     A.U. after    2 cycles

 The electronic state is 1-A.
 Alpha  occ. eigenvalues --  -20.73081 -20.71117 -20.65606 -20.62356 -15.88187
 Alpha  occ. eigenvalues --  -15.78721 -11.52135 -11.51853  -1.57111  -1.47475
 Alpha  occ. eigenvalues --   -1.46255  -1.41793  -1.36004  -1.06331  -1.00972
 Alpha  occ. eigenvalues --   -0.90019  -0.81243  -0.79523  -0.75510  -0.73391
 Alpha  occ. eigenvalues --   -0.69503  -0.68415  -0.66262  -0.64286  -0.58862
 Alpha  occ. eigenvalues --   -0.56590  -0.55670  -0.54018  -0.50316
 Alpha virt. eigenvalues --   -0.00338   0.05358   0.06342   0.07074   0.07717
 Alpha virt. eigenvalues --    0.10780   0.10902   0.11031   0.11468   0.12111
 Alpha virt. eigenvalues --    0.14464   0.15837   0.17064   0.17928   0.18660

 Mulliken charges:
               1
     1  C    0.842843
     2  C    0.743904
     3  N   -0.136707
     4  N    0.140142
     5  O   -0.304630
     6  O   -0.503666
     7  O   -0.310768
     8  O   -0.471119
 Sum of Mulliken charges =   0.00000

 Dipole moment (field-independent basis, Debye):
    X=              0.9072    Y=              1.5040    Z=              0.0519  Tot=              1.7571

 Test job not archived.
 1\1\GINC-SE363\SP\RHF\Aug-CC-pVDZ\C2N2O4\OHZDE\08-Apr-2025\0\\#t hf au
 g-cc-pvdz iop(5/13=1,5/36=2,99/5=2) pseudo=read geom=check guess=(read
 ,tcheck) scf=(maxcycle=1)\\title\\0,1\C,0,1.15428,-0.435184,-0.0320254
 \C,0,-1.20736,-0.321987,-0.0034722\N,0,1.1702,0.99084,0.0458455\N,0,0.
 203177,1.72672,-0.0413047\O,0,2.24594,-0.942534,-0.113627\O,0,-1.15371
 ,1.03154,0.0228193\O,0,-2.21797,-0.917574,-0.124029\O,0,-0.0361516,-0.
 98142,0.237486\\Version=ES64L-G16RevC.01\State=1-A\HF=-484.1891966\RMS
 D=3.059e-03\Dipole=0.356901,0.5917072,0.0204163\Quadrupole=-6.5388149,

 Normal termination of Gaussian 16 at Tue Apr  8 21:46:56 2025.
