 Gaussian 16, Revision C.01,

 ----------------------------------------------------------------------
 #t hf aug-cc-pvdz symm=none int=(grid=ultrafine) guess=(read,tcheck) s
 table=(opt,rrhf)
 ----------------------------------------------------------------------
 -----
 title
 -----
 Symbolic Z-matrix:
 Charge =  0 Multiplicity = 1

 SCF Done:  E(RHF) =  -489.695641825     A.U. after   14 cycles
 Normal termination of Gaussian 16 at Tue Apr  8 22:12:09 2025.
 Gaussian 16:  ES64L-G16RevC.01  3-Jul-2019

 ----------------------------------------------------------------------
 #t hf aug-cc-pvdz iop(5/13=1,5/36=2,99/5=2) pseudo=read geom=check gue
 ss=(read,tcheck) scf=(maxcycle=1)
 ----------------------------------------------------------------------
 -----
 title
 -----
 Structure from the checkpoint file:  "ANI1ccx_957_conf23_mol1.chk"
 Charge =  0 Multiplicity = 1

                         Standard orientation:
 ---------------------------------------------------------------------
 Center     Atomic      Atomic             Coordinates (Angstroms)
 Number     Number       Type             X           Y           Z
 ---------------------------------------------------------------------
      1          6           0       -0.706998    0.302598   -0.922273
      2          6           0       -1.431509   -0.588670    0.133127
      3          6           0        0.799636   -0.180981   -1.157600
      4          6           0        1.705681   -0.130547    0.056122
      5          1           0       -1.458309    0.998766    0.990206
      6          1           0        2.017041    0.728738    1.856940
      7          1           0        0.528678    1.172669    1.250610
      8          1           0        1.294641    0.457510   -1.950330
      9          1           0       -1.187349    0.152071   -1.908580
     10          1           0       -0.086292    2.281249   -0.841494
     11          1           0       -1.617539    2.169250   -0.830187
     12          1           0        0.838687   -1.186371   -1.607040
     13          7           0       -0.837381    1.688630   -0.570793
     14          7           0        1.373741    0.758864    1.095340
     15          8           0        2.652551   -0.847635    0.126319
     16          8           0       -1.678549   -1.772000   -0.076476
     17          8           0       -1.759619    0.079544    1.289130
 ---------------------------------------------------------------------

 SCF Done:  E(RHF) =  -489.844435191     A.U. after    2 cycles

 The electronic state is 1-A.
 Alpha  occ. eigenvalues --  -20.63183 -20.57117 -20.55283 -15.66231 -15.64667
 Alpha  occ. eigenvalues --  -11.41389 -11.38267 -11.33559 -11.29073  -1.41195
 Alpha  occ. eigenvalues --   -1.37895  -1.32589  -1.23298  -1.18125  -1.04993
 Alpha  occ. eigenvalues --   -0.94372  -0.82242  -0.80247  -0.77504  -0.75512
 Alpha  occ. eigenvalues --   -0.71075  -0.70130  -0.67596  -0.65697  -0.64546
 Alpha  occ. eigenvalues --   -0.62438  -0.61304  -0.58530  -0.56283  -0.54290
 Alpha  occ. eigenvalues --   -0.49923  -0.48103  -0.45544  -0.44087  -0.42738
 Alpha virt. eigenvalues --    0.01445   0.03130   0.03618   0.04460   0.06376
 Alpha virt. eigenvalues --    0.07078   0.07482   0.08787   0.10149   0.11069
 Alpha virt. eigenvalues --    0.11281   0.12088   0.12666   0.13673   0.14158

 Mulliken charges:
               1
     1  C    0.022178
     2  C    0.882466
     3  C    0.205936
     4  C    0.489793
     5  H    0.388539
     6  H   -0.039841
     7  H   -0.110149
     8  H    0.085403
     9  H   -0.039661
    10  H    0.048759
    11  H   -0.204467
    12  H   -0.019540
    13  N   -0.075641
    14  N   -0.068589
    15  O   -0.476452
    16  O   -0.546485
    17  O   -0.542250
 Sum of Mulliken charges =  -0.00000

 Dipole moment (field-independent basis, Debye):
    X=             -1.0386    Y=              7.2068    Z=             -2.4799  Tot=              7.6920

 Test job not archived.
 1\1\GINC-SE099\SP\RHF\Aug-CC-pVDZ\C4H8N2O3\OHZDE\08-Apr-2025\0\\#t hf
 aug-cc-pvdz iop(5/13=1,5/36=2,99/5=2) pseudo=read geom=check guess=(re
 ad,tcheck) scf=(maxcycle=1)\\title\\0,1\C,0,-0.706999,0.302598,-0.9222
 73\C,0,-1.43151,-0.58867,0.133127\C,0,0.799635,-0.18098,-1.1576\C,0,1.
 70568,-0.130546,0.0561221\H,0,-1.45831,0.998766,0.990206\H,0,2.01704,0
 .728739,1.85694\H,0,0.528677,1.17267,1.25061\H,0,1.29464,0.457511,-1.9
 5033\H,0,-1.18735,0.152071,-1.90858\H,0,-0.0862933,2.28125,-0.841494\H
 ,0,-1.61754,2.16925,-0.830187\H,0,0.838686,-1.18637,-1.60704\N,0,-0.83

 Normal termination of Gaussian 16 at Tue Apr  8 22:12:18 2025.
