 Gaussian 16, Revision C.01,

 ----------------------------------------------------------------------
 #t hf aug-cc-pvdz symm=none int=(grid=ultrafine) guess=(read,tcheck) s
 table=(opt,rrhf)
 ----------------------------------------------------------------------
 -----
 title
 -----
 Symbolic Z-matrix:
 Charge =  0 Multiplicity = 1

 SCF Done:  E(RHF) =  -510.378366596     A.U. after   14 cycles
 Normal termination of Gaussian 16 at Tue Apr  8 19:22:10 2025.
 Gaussian 16:  ES64L-G16RevC.01  3-Jul-2019

 ----------------------------------------------------------------------
 #t hf aug-cc-pvdz iop(5/13=1,5/36=2,99/5=2) pseudo=read geom=check gue
 ss=(read,tcheck) scf=(maxcycle=1)
 ----------------------------------------------------------------------
 -----
 title
 -----
 Structure from the checkpoint file:  "ANI1ccx_1332_conf4_mol2.chk"
 Charge =  0 Multiplicity = 1

                         Standard orientation:
 ---------------------------------------------------------------------
 Center     Atomic      Atomic             Coordinates (Angstroms)
 Number     Number       Type             X           Y           Z
 ---------------------------------------------------------------------
      1          6           0       -1.064906    1.136552    0.076892
      2          6           0       -1.105893   -1.110688   -0.072079
      3          6           0        0.316978   -0.657242   -0.365429
      4          6           0        1.634617   -1.252855    0.044169
      5          6           0        1.684194    1.201654   -0.007163
      6          6           0        0.323990    0.677940    0.384891
      7          1           0        0.351257    0.497287    1.461730
      8          1           0        1.614415    1.664275   -1.015020
      9          1           0        2.078666    1.959903    0.671241
     10          1           0        1.675306   -1.572876    1.084720
     11          1           0        1.965754   -2.071976   -0.615199
     12          1           0        0.340581   -0.428407   -1.455220
     13          1           0        3.296240   -0.048339    0.470721
     14          7           0        2.479230   -0.040827   -0.134422
     15          8           0       -1.864400    0.009511   -0.007535
     16          8           0       -1.495273    2.222704   -0.116655
     17          8           0       -1.566666   -2.192996    0.120476
 ---------------------------------------------------------------------

 SCF Done:  E(RHF) =  -510.534239816     A.U. after    2 cycles

 The electronic state is 1-A.
 Alpha  occ. eigenvalues --  -20.66290 -20.59691 -20.59010 -15.63817 -11.42810
 Alpha  occ. eigenvalues --  -11.42457 -11.30082 -11.30050 -11.29524 -11.29078
 Alpha  occ. eigenvalues --   -1.48745  -1.40568  -1.36063  -1.23860  -1.10256
 Alpha  occ. eigenvalues --   -1.02913  -0.94571  -0.89041  -0.86422  -0.78046
 Alpha  occ. eigenvalues --   -0.76096  -0.72287  -0.70625  -0.68561  -0.68299
 Alpha  occ. eigenvalues --   -0.63782  -0.62254  -0.60729  -0.59005  -0.58721
 Alpha  occ. eigenvalues --   -0.56221  -0.53275  -0.52261  -0.51436  -0.48420
 Alpha  occ. eigenvalues --   -0.47106  -0.39042
 Alpha virt. eigenvalues --    0.02293   0.03480   0.03924   0.04314   0.06391
 Alpha virt. eigenvalues --    0.06682   0.07218   0.08057   0.09416   0.11234
 Alpha virt. eigenvalues --    0.11554   0.12212   0.12279   0.13123   0.13536

 Mulliken charges:
               1
     1  C    0.639485
     2  C    0.687573
     3  C   -0.580231
     4  C    1.052082
     5  C    0.854073
     6  C   -0.303078
     7  H   -0.083248
     8  H   -0.019062
     9  H   -0.030721
    10  H   -0.087164
    11  H   -0.048054
    12  H   -0.003005
    13  H   -0.020349
    14  N   -0.543458
    15  O   -0.648294
    16  O   -0.426210
    17  O   -0.440339
 Sum of Mulliken charges =  -0.00000

 Dipole moment (field-independent basis, Debye):
    X=              5.2085    Y=              0.1421    Z=              1.1450  Tot=              5.3348

 Test job not archived.
 1\1\GINC-SE458\SP\RHF\Aug-CC-pVDZ\C6H7N1O3\OHZDE\08-Apr-2025\0\\#t hf
 aug-cc-pvdz iop(5/13=1,5/36=2,99/5=2) pseudo=read geom=check guess=(re
 ad,tcheck) scf=(maxcycle=1)\\title\\0,1\C,0,-1.06491,1.13655,0.0768919
 \C,0,-1.10589,-1.11069,-0.0720794\C,0,0.316979,-0.65724,-0.365429\C,0,
 1.63462,-1.25285,0.0441689\C,0,1.68419,1.20166,-0.00716303\C,0,0.32398
 8,0.677942,0.384891\H,0,0.351255,0.497289,1.46173\H,0,1.61441,1.66428,
 -1.01502\H,0,2.07866,1.95991,0.671241\H,0,1.67531,-1.57287,1.08472\H,0
 ,1.96576,-2.07197,-0.615199\H,0,0.340582,-0.428405,-1.45522\H,0,3.2962

 Normal termination of Gaussian 16 at Tue Apr  8 19:22:19 2025.
