 Gaussian 16, Revision C.01,

 ----------------------------------------------------------------------
 #t hf aug-cc-pvdz symm=none int=(grid=ultrafine) guess=(read,tcheck) s
 table=(opt,rrhf)
 ----------------------------------------------------------------------
 -----
 title
 -----
 Symbolic Z-matrix:
 Charge =  0 Multiplicity = 1

 SCF Done:  E(RHF) =  -1021.09410398     A.U. after   14 cycles
 Normal termination of Gaussian 16 at Tue Apr  8 22:10:35 2025.
 Gaussian 16:  ES64L-G16RevC.01  3-Jul-2019

 ----------------------------------------------------------------------
 #t hf aug-cc-pvdz iop(5/13=1,5/36=2,99/5=2) pseudo=read geom=check gue
 ss=(read,tcheck) scf=(maxcycle=1)
 ----------------------------------------------------------------------
 -----
 title
 -----
 Structure from the checkpoint file:  "ANI1ccx_54_conf10_mol1.chk"
 Charge =  0 Multiplicity = 1

                         Standard orientation:
 ---------------------------------------------------------------------
 Center     Atomic      Atomic             Coordinates (Angstroms)
 Number     Number       Type             X           Y           Z
 ---------------------------------------------------------------------
      1          6           0        1.280869   -0.408657    1.230260
      2          6           0       -4.261481   -0.538907   -0.316521
      3          6           0       -1.874211   -0.592187    0.717896
      4          6           0       -0.969606    1.810030    0.221409
      5          6           0       -1.139691    0.368135   -0.357114
      6          6           0       -3.074431   -1.304089    0.167407
      7          6           0        3.604839    0.191178    0.642198
      8          6           0        2.356389    0.670069    1.288040
      9          6           0        0.994868   -0.935878   -0.193000
     10          6           0        3.731669    0.262447   -0.845320
     11          1           0       -1.882761    0.420177   -1.257320
     12          1           0       -2.986490    1.837261    0.359661
     13          1           0       -5.849501   -0.427146   -1.055040
     14          1           0       -2.816501   -1.875169   -0.744478
     15          1           0       -3.422061   -2.056049    0.841269
     16          1           0       -2.143681   -0.094461    1.613270
     17          1           0       -1.095231   -1.370650    0.966717
     18          1           0        0.133375   -0.433040   -1.924800
     19          1           0        4.871369   -0.268727   -2.171700
     20          1           0        4.509969    0.798888    0.950585
     21          1           0        3.722899   -0.848301    0.850093
     22          1           0        2.582409    0.842876    2.384820
     23          1           0        1.998520    1.626860    0.850200
     24          1           0        0.365625    0.057337    1.797850
     25          1           0        0.869256   -2.143750    2.275080
     26          1           0        2.211869   -2.175520    1.453460
     27          7           0        1.715559   -1.568750    2.071490
     28          7           0        0.103503   -0.224905   -0.888954
     29          8           0        1.576749   -1.922380   -0.586610
     30          8           0        3.235140    1.030420   -1.633670
     31          8           0        4.712599   -0.578946   -1.232000
     32          8           0        0.090698    2.349200    0.277042
     33          8           0       -4.398051    0.669583   -0.206541
     34          8           0       -5.268341   -1.196249   -0.976876
     35          8           0       -2.161020    2.339891    0.508792
 ---------------------------------------------------------------------

 SCF Done:  E(RHF) =  -1021.40492196     A.U. after    2 cycles

 The electronic state is 1-A.
 Alpha  occ. eigenvalues --  -20.66550 -20.62362 -20.61658 -20.61145 -20.57449
 Alpha  occ. eigenvalues --  -20.55928 -20.55147 -15.66841 -15.61105 -11.45379
 Alpha  occ. eigenvalues --  -11.41449 -11.38409 -11.37437 -11.34752 -11.30424
 Alpha  occ. eigenvalues --  -11.29896 -11.29017 -11.24193 -11.23264  -1.47474
 Alpha  occ. eigenvalues --   -1.42763  -1.41442  -1.37587  -1.36423  -1.34759
 Alpha  occ. eigenvalues --   -1.30807  -1.22435  -1.16150  -1.12412  -1.06231
 Alpha  occ. eigenvalues --   -1.01962  -0.96236  -0.93377  -0.88299  -0.86110
 Alpha  occ. eigenvalues --   -0.83058  -0.79486  -0.77348  -0.76566  -0.74895
 Alpha  occ. eigenvalues --   -0.73862  -0.72226  -0.71335  -0.70496  -0.70302
 Alpha  occ. eigenvalues --   -0.68877  -0.68184  -0.66844  -0.66318  -0.65488
 Alpha  occ. eigenvalues --   -0.63970  -0.62947  -0.62607  -0.60978  -0.59582
 Alpha  occ. eigenvalues --   -0.58821  -0.57899  -0.57085  -0.56285  -0.56191
 Alpha  occ. eigenvalues --   -0.55082  -0.53588  -0.52582  -0.51641  -0.50712
 Alpha  occ. eigenvalues --   -0.49260  -0.49084  -0.47905  -0.47247  -0.45768
 Alpha  occ. eigenvalues --   -0.44619  -0.41472  -0.40308
 Alpha virt. eigenvalues --    0.01681   0.02783   0.03567   0.04107   0.04559
 Alpha virt. eigenvalues --    0.05198   0.05662   0.06154   0.06677   0.07091
 Alpha virt. eigenvalues --    0.07535   0.07887   0.08634   0.09184   0.09472

 Mulliken charges:
               1
     1  C   -0.159410
     2  C    0.483223
     3  C    1.132678
     4  C    0.695676
     5  C    0.139925
     6  C    0.089096
     7  C    0.178238
     8  C    0.871285
     9  C    0.480901
    10  C    0.533795
    11  H   -0.120527
    12  H    0.212924
    13  H    0.195144
    14  H    0.109825
    15  H   -0.083341
    16  H   -0.534095
    17  H   -0.072911
    18  H    0.010593
    19  H    0.204151
    20  H    0.091724
    21  H   -0.049077
    22  H    0.089964
    23  H   -0.056740
    24  H   -0.080692
    25  H    0.009887
    26  H    0.103562
    27  N   -0.342585
    28  N   -0.479873
    29  O   -0.560196
    30  O   -0.549128
    31  O   -0.561341
    32  O   -0.422814
    33  O   -0.564177
    34  O   -0.520959
    35  O   -0.474727
 Sum of Mulliken charges =  -0.00000

 Dipole moment (field-independent basis, Debye):
    X=             -6.0987    Y=             -3.4096    Z=              0.2164  Tot=              6.9904

 Test job not archived.
 1\1\GINC-SE083\SP\RHF\Aug-CC-pVDZ\C10H16N2O7\OHZDE\08-Apr-2025\0\\#t h
 f aug-cc-pvdz iop(5/13=1,5/36=2,99/5=2) pseudo=read geom=check guess=(
 read,tcheck) scf=(maxcycle=1)\\title\\0,1\C,0,1.28087,-0.408657,1.2302
 6\C,0,-4.26148,-0.538908,-0.316521\C,0,-1.87421,-0.592188,0.717896\C,0
 ,-0.969606,1.81003,0.221409\C,0,-1.13969,0.368135,-0.357114\C,0,-3.074
 43,-1.30409,0.167407\C,0,3.60484,0.191178,0.642198\C,0,2.35639,0.67006
 9,1.28804\C,0,0.994869,-0.935878,-0.193\C,0,3.73167,0.262447,-0.84532\
 H,0,-1.88276,0.420176,-1.25732\H,0,-2.98649,1.83726,0.359661\H,0,-5.84

 Normal termination of Gaussian 16 at Tue Apr  8 22:11:39 2025.
