 Gaussian 16, Revision C.01,

 ----------------------------------------------------------------------
 #t hf aug-cc-pvdz symm=none int=(grid=ultrafine) guess=(read,tcheck) s
 table=(opt,rrhf)
 ----------------------------------------------------------------------
 -----
 title
 -----
 Symbolic Z-matrix:
 Charge =  0 Multiplicity = 1

 SCF Done:  E(RHF) =  -369.537386454     A.U. after   16 cycles
 Normal termination of Gaussian 16 at Tue Apr  8 21:42:10 2025.
 Gaussian 16:  ES64L-G16RevC.01  3-Jul-2019

 ----------------------------------------------------------------------
 #t hf aug-cc-pvdz iop(5/13=1,5/36=2,99/5=2) pseudo=read geom=check gue
 ss=(read,tcheck) scf=(maxcycle=1)
 ----------------------------------------------------------------------
 -----
 title
 -----
 Structure from the checkpoint file:  "ANI1ccx_487_conf2_mol1.chk"
 Charge =  0 Multiplicity = 1

                         Standard orientation:
 ---------------------------------------------------------------------
 Center     Atomic      Atomic             Coordinates (Angstroms)
 Number     Number       Type             X           Y           Z
 ---------------------------------------------------------------------
      1          6           0        0.985338    0.126417   -0.017431
      2          6           0       -1.077141    1.054068    0.044343
      3          1           0       -1.675182    1.953217    0.155154
      4          1           0        0.844604   -1.910970   -0.002181
      5          7           0        0.227234    1.255419   -0.057303
      6          7           0       -1.757890   -0.089333   -0.022827
      7          7           0       -1.050429   -1.166742   -0.010708
      8          7           0        0.249960   -1.094061    0.023890
      9          8           0        2.212410    0.067232    0.019273
 ---------------------------------------------------------------------

 SCF Done:  E(RHF) =  -369.643731606     A.U. after    2 cycles

 The electronic state is 1-A.
 Alpha  occ. eigenvalues --  -20.56643 -15.81971 -15.77363 -15.71595 -15.67539
 Alpha  occ. eigenvalues --  -11.43135 -11.38634  -1.46117  -1.36969  -1.26612
 Alpha  occ. eigenvalues --   -1.22578  -1.02496  -0.95230  -0.84028  -0.80229
 Alpha  occ. eigenvalues --   -0.72964  -0.70095  -0.65404  -0.59063  -0.57530
 Alpha  occ. eigenvalues --   -0.53892  -0.51218  -0.49858  -0.44266  -0.41422
 Alpha virt. eigenvalues --    0.02104   0.02894   0.03323   0.06429   0.07765
 Alpha virt. eigenvalues --    0.09667   0.10525   0.11469   0.11972   0.13294
 Alpha virt. eigenvalues --    0.13979   0.15649   0.15723   0.16948   0.17465

 Mulliken charges:
               1
     1  C    0.746630
     2  C    0.810973
     3  H   -0.221635
     4  H    0.016053
     5  N   -0.442912
     6  N   -0.328482
     7  N   -0.020116
     8  N   -0.097258
     9  O   -0.463253
 Sum of Mulliken charges =  -0.00000

 Dipole moment (field-independent basis, Debye):
    X=             -2.7555    Y=             -1.6058    Z=              0.1288  Tot=              3.1919

 Test job not archived.
 1\1\GINC-SE250\SP\RHF\Aug-CC-pVDZ\C2H2N4O1\OHZDE\08-Apr-2025\0\\#t hf
 aug-cc-pvdz iop(5/13=1,5/36=2,99/5=2) pseudo=read geom=check guess=(re
 ad,tcheck) scf=(maxcycle=1)\\title\\0,1\C,0,0.985338,0.126417,-0.01743
 06\C,0,-1.07714,1.05407,0.0443433\H,0,-1.67518,1.95322,0.155154\H,0,0.
 844602,-1.91097,-0.00218056\N,0,0.227236,1.25542,-0.0573027\N,0,-1.757
 89,-0.0893298,-0.0228268\N,0,-1.05043,-1.16674,-0.010708\N,0,0.249959,
 -1.09406,0.0238903\O,0,2.21241,0.0672314,0.0192726\\Version=ES64L-G16R
 evC.01\State=1-A\HF=-369.6437316\RMSD=3.229e-03\Dipole=-1.0840905,-0.6

 Normal termination of Gaussian 16 at Tue Apr  8 21:42:13 2025.
