 Gaussian 16, Revision C.01,

 ----------------------------------------------------------------------
 #t hf aug-cc-pvdz symm=none int=(grid=ultrafine) guess=(read,tcheck) s
 table=(opt,rrhf)
 ----------------------------------------------------------------------
 -----
 title
 -----
 Symbolic Z-matrix:
 Charge =  0 Multiplicity = 1

 SCF Done:  E(RHF) =  -833.459706018     A.U. after   15 cycles
 Normal termination of Gaussian 16 at Tue Apr  8 20:47:58 2025.
 Gaussian 16:  ES64L-G16RevC.01  3-Jul-2019

 ----------------------------------------------------------------------
 #t hf aug-cc-pvdz iop(5/13=1,5/36=2,99/5=2) pseudo=read geom=check gue
 ss=(read,tcheck) scf=(maxcycle=1)
 ----------------------------------------------------------------------
 -----
 title
 -----
 Structure from the checkpoint file:  "ANI1ccx_1760_conf15_mol1.chk"
 Charge =  0 Multiplicity = 1

                         Standard orientation:
 ---------------------------------------------------------------------
 Center     Atomic      Atomic             Coordinates (Angstroms)
 Number     Number       Type             X           Y           Z
 ---------------------------------------------------------------------
      1          6           0       -1.780251    0.881703    0.610619
      2          6           0        2.373210   -1.799970   -0.968042
      3          6           0        2.228210   -1.333190    0.453276
      4          6           0        2.466209    1.073270   -0.459025
      5          6           0        3.428810   -1.694809    1.348930
      6          6           0       -3.587110   -0.716034   -0.325839
      7          6           0       -2.836281    0.672566   -0.451998
      8          6           0       -0.539964    0.142867    0.154186
      9          6           0        1.901149    0.163923    0.651008
     10          1           0        1.401930   -1.668360   -1.593080
     11          1           0        2.004009    2.335850   -1.812730
     12          1           0        3.142390   -1.609330    2.387480
     13          1           0        4.292650   -1.066559    1.113940
     14          1           0        3.698960   -2.703189    1.043650
     15          1           0        3.211950   -1.255560   -1.438380
     16          1           0        2.642010   -2.878790   -1.034840
     17          1           0        1.320250   -1.831100    0.873467
     18          1           0        0.385836    1.349340    1.366230
     19          1           0       -4.604111   -0.082533    1.120890
     20          1           0       -3.632841    1.430569   -0.518841
     21          1           0       -2.416421    0.671778   -1.457770
     22          1           0       -2.054511    0.420530    1.636690
     23          1           0       -1.210081    2.812259   -0.040760
     24          1           0       -1.924651    2.842679    1.399630
     25          1           0        2.507999    0.630524    1.450990
     26          7           0       -1.354081    2.260659    0.812635
     27          7           0        0.518959    0.403574    1.003520
     28          8           0        3.622149    0.932113   -0.761436
     29          8           0       -0.593534   -0.663704   -0.780116
     30          8           0       -3.379920   -1.574081   -1.105450
     31          8           0       -4.384300   -0.956360    0.724445
     32          8           0        1.630179    1.963320   -0.988481
 ---------------------------------------------------------------------

 SCF Done:  E(RHF) =  -833.714865891     A.U. after    2 cycles

 The electronic state is 1-A.
 Alpha  occ. eigenvalues --  -20.64498 -20.63324 -20.56542 -20.55332 -20.54916
 Alpha  occ. eigenvalues --  -15.65076 -15.64795 -11.40448 -11.38947 -11.37378
 Alpha  occ. eigenvalues --  -11.32056 -11.30015 -11.27159 -11.24116 -11.21739
 Alpha  occ. eigenvalues --  -11.21187  -1.44124  -1.42892  -1.35251  -1.34127
 Alpha  occ. eigenvalues --   -1.33399  -1.22683  -1.19055  -1.07337  -1.04273
 Alpha  occ. eigenvalues --   -0.98484  -0.91606  -0.91398  -0.86288  -0.83759
 Alpha  occ. eigenvalues --   -0.79868  -0.77126  -0.74338  -0.73089  -0.72694
 Alpha  occ. eigenvalues --   -0.70999  -0.68354  -0.67825  -0.67462  -0.66293
 Alpha  occ. eigenvalues --   -0.64837  -0.62906  -0.61983  -0.60784  -0.60014
 Alpha  occ. eigenvalues --   -0.59333  -0.57810  -0.56951  -0.55217  -0.54448
 Alpha  occ. eigenvalues --   -0.53249  -0.51923  -0.50314  -0.50016  -0.49313
 Alpha  occ. eigenvalues --   -0.48260  -0.47449  -0.46083  -0.45095  -0.44392
 Alpha  occ. eigenvalues --   -0.41486  -0.40033
 Alpha virt. eigenvalues --    0.01242   0.02539   0.02957   0.04064   0.04830
 Alpha virt. eigenvalues --    0.05436   0.05810   0.06473   0.06899   0.07305
 Alpha virt. eigenvalues --    0.07749   0.08160   0.08388   0.08851   0.09749

 Mulliken charges:
               1
     1  C    0.288689
     2  C    0.466480
     3  C   -0.780002
     4  C    0.579394
     5  C    0.860499
     6  C    0.747590
     7  C    0.658959
     8  C    0.092674
     9  C    0.096435
    10  H    0.118507
    11  H    0.226728
    12  H    0.023697
    13  H    0.052230
    14  H   -0.065567
    15  H    0.048646
    16  H   -0.100495
    17  H   -0.144567
    18  H    0.137062
    19  H    0.216998
    20  H   -0.095671
    21  H   -0.001186
    22  H    0.049092
    23  H    0.087096
    24  H   -0.020293
    25  H   -0.125164
    26  N   -0.432653
    27  N   -0.335707
    28  O   -0.545363
    29  O   -0.552942
    30  O   -0.436742
    31  O   -0.515915
    32  O   -0.598507
 Sum of Mulliken charges =   0.00000

 Dipole moment (field-independent basis, Debye):
    X=             -1.9751    Y=              7.7557    Z=              3.4682  Tot=              8.7224

 Test job not archived.
 1\1\GINC-SE364\SP\RHF\Aug-CC-pVDZ\C9H16N2O5\OHZDE\08-Apr-2025\0\\#t hf
  aug-cc-pvdz iop(5/13=1,5/36=2,99/5=2) pseudo=read geom=check guess=(r
 ead,tcheck) scf=(maxcycle=1)\\title\\0,1\C,0,-1.78025,0.881704,0.61061
 9\C,0,2.37321,-1.79997,-0.968042\C,0,2.22821,-1.33319,0.453276\C,0,2.4
 6621,1.07327,-0.459025\C,0,3.42881,-1.69481,1.34893\C,0,-3.58711,-0.71
 6033,-0.325839\C,0,-2.83628,0.672567,-0.451998\C,0,-0.539963,0.142868,
 0.154186\C,0,1.90115,0.163923,0.651008\H,0,1.40193,-1.66836,-1.59308\H
 ,0,2.00401,2.33585,-1.81273\H,0,3.14239,-1.60933,2.38748\H,0,4.29265,-

 Normal termination of Gaussian 16 at Tue Apr  8 20:48:38 2025.
