 Gaussian 16, Revision C.01,

 ----------------------------------------------------------------------
 #t hf aug-cc-pvdz symm=none int=(grid=ultrafine) guess=(read,tcheck) s
 table=(opt,rrhf)
 ----------------------------------------------------------------------
 -----
 title
 -----
 Symbolic Z-matrix:
 Charge =  0 Multiplicity = 1

 SCF Done:  E(RHF) =  -528.671037835     A.U. after   15 cycles
 Normal termination of Gaussian 16 at Tue Apr  8 22:15:54 2025.
 Gaussian 16:  ES64L-G16RevC.01  3-Jul-2019

 ----------------------------------------------------------------------
 #t hf aug-cc-pvdz iop(5/13=1,5/36=2,99/5=2) pseudo=read geom=check gue
 ss=(read,tcheck) scf=(maxcycle=1)
 ----------------------------------------------------------------------
 -----
 title
 -----
 Structure from the checkpoint file:  "ANI1ccx_998_conf121_mol1.chk"
 Charge =  0 Multiplicity = 1

                         Standard orientation:
 ---------------------------------------------------------------------
 Center     Atomic      Atomic             Coordinates (Angstroms)
 Number     Number       Type             X           Y           Z
 ---------------------------------------------------------------------
      1          6           0       -0.776135    0.218867   -0.016379
      2          6           0       -2.196690   -0.410752   -0.349586
      3          6           0        0.064771   -0.539935    0.952470
      4          6           0        1.329020   -1.100219    0.275485
      5          6           0        2.535040   -0.042419   -0.157126
      6          1           0       -2.656341    1.304040   -0.034407
      7          1           0        1.307429    1.679691   -0.101098
      8          1           0        3.145099    1.852392   -0.075560
      9          1           0        1.015650   -1.393249   -0.739990
     10          1           0        1.813520   -2.007829    0.728266
     11          1           0       -0.479256   -1.447770    1.249170
     12          1           0        0.079199   -0.003547    1.972490
     13          1           0       -0.138311    0.459442   -0.936441
     14          1           0       -0.774223    2.174430   -0.074450
     15          1           0       -0.896604    1.566860    1.492920
     16          7           0       -1.204781    1.453460    0.495349
     17          7           0        2.290809    1.282331   -0.158667
     18          8           0       -2.529210   -1.516750   -0.144679
     19          8           0        3.635640   -0.571115   -0.505975
     20          8           0       -3.075730    0.576834   -0.607704
 ---------------------------------------------------------------------

 SCF Done:  E(RHF) =  -528.832567443     A.U. after    2 cycles

 The electronic state is 1-A.
 Alpha  occ. eigenvalues --  -20.58852 -20.56708 -20.54716 -15.68732 -15.67654
 Alpha  occ. eigenvalues --  -11.39296 -11.39279 -11.32278 -11.28617 -11.27776
 Alpha  occ. eigenvalues --   -1.42306  -1.33511  -1.32651  -1.24666  -1.19543
 Alpha  occ. eigenvalues --   -1.07583  -0.95802  -0.88391  -0.81023  -0.79983
 Alpha  occ. eigenvalues --   -0.78407  -0.74286  -0.72755  -0.69603  -0.66717
 Alpha  occ. eigenvalues --   -0.65935  -0.64186  -0.61992  -0.59898  -0.58421
 Alpha  occ. eigenvalues --   -0.56634  -0.54505  -0.53568  -0.51954  -0.49682
 Alpha  occ. eigenvalues --   -0.48888  -0.44032  -0.43012  -0.42691
 Alpha virt. eigenvalues --    0.01094   0.02714   0.03641   0.04183   0.06000
 Alpha virt. eigenvalues --    0.06060   0.06714   0.07360   0.08838   0.09344
 Alpha virt. eigenvalues --    0.10049   0.11188   0.11459   0.12115   0.12598

 Mulliken charges:
               1
     1  C    0.111016
     2  C    0.570003
     3  C    0.645110
     4  C   -0.107478
     5  C    0.546791
     6  H    0.426610
     7  H    0.127812
     8  H    0.021220
     9  H    0.163858
    10  H   -0.094859
    11  H   -0.014247
    12  H    0.049547
    13  H   -0.128601
    14  H    0.114833
    15  H    0.165725
    16  N   -0.732231
    17  N   -0.260817
    18  O   -0.402680
    19  O   -0.628080
    20  O   -0.573532
 Sum of Mulliken charges =  -0.00000

 Dipole moment (field-independent basis, Debye):
    X=              0.7850    Y=              6.0132    Z=              2.8025  Tot=              6.6805

 Test job not archived.
 1\1\GINC-SE082\SP\RHF\Aug-CC-pVDZ\C5H10N2O3\OHZDE\08-Apr-2025\0\\#t hf
  aug-cc-pvdz iop(5/13=1,5/36=2,99/5=2) pseudo=read geom=check guess=(r
 ead,tcheck) scf=(maxcycle=1)\\title\\0,1\C,0,-0.776135,0.218867,-0.016
 3795\C,0,-2.19669,-0.410752,-0.349586\C,0,0.064771,-0.539936,0.95247\C
 ,0,1.32902,-1.10022,0.275485\C,0,2.53504,-0.0424203,-0.157126\H,0,-2.6
 5634,1.30404,-0.0344076\H,0,1.30743,1.67969,-0.101098\H,0,3.1451,1.852
 39,-0.0755605\H,0,1.01565,-1.39325,-0.73999\H,0,1.81352,-2.00783,0.728
 266\H,0,-0.479256,-1.44777,1.24917\H,0,0.0791995,-0.00354791,1.97249\H

 Normal termination of Gaussian 16 at Tue Apr  8 22:16:05 2025.
