 Gaussian 16, Revision C.01,

 ----------------------------------------------------------------------
 #t hf aug-cc-pvdz symm=none int=(grid=ultrafine) guess=(read,tcheck) s
 table=(opt,rrhf)
 ----------------------------------------------------------------------
 -----
 title
 -----
 Symbolic Z-matrix:
 Charge =  0 Multiplicity = 1

 SCF Done:  E(RHF) =  -532.323441568     A.U. after   11 cycles
 Normal termination of Gaussian 16 at Tue Apr  8 21:09:01 2025.
 Gaussian 16:  ES64L-G16RevC.01  3-Jul-2019

 ----------------------------------------------------------------------
 #t hf aug-cc-pvdz iop(5/13=1,5/36=2,99/5=2) pseudo=read geom=check gue
 ss=(read,tcheck) scf=(maxcycle=1)
 ----------------------------------------------------------------------
 -----
 title
 -----
 Structure from the checkpoint file:  "ANI1ccx_1845_conf155_mol1.chk"
 Charge =  0 Multiplicity = 1

                         Standard orientation:
 ---------------------------------------------------------------------
 Center     Atomic      Atomic             Coordinates (Angstroms)
 Number     Number       Type             X           Y           Z
 ---------------------------------------------------------------------
      1          1           0        2.077989   -2.625401   -1.324580
      2          1           0       -0.930119   -1.978101    0.908248
      3          1           0       -0.339293   -1.755311   -0.430205
      4          1           0        3.073199   -0.004317    0.307526
      5          1           0        2.148639   -0.546882    1.418050
      6          1           0        2.313699   -2.081961    0.036944
      7          1           0        1.736639    2.070159   -0.329031
      8          1           0       -2.972071    1.080699    0.243891
      9          1           0        2.754339    2.031549   -1.388630
     10          1           0       -3.091381   -1.348451    0.073385
     11          1           0       -4.002941   -1.225321   -1.082960
     12          1           0       -0.056732    3.052869    0.866780
     13          1           0       -0.766149    2.549279   -0.366016
     14          1           0       -1.524151    0.642055    0.370996
     15          8           0        1.659619   -2.590511   -0.442327
     16          8           0       -2.109141    1.396859    0.466550
     17          8           0        2.973169   -0.781036    0.928543
     18          8           0       -3.930791   -0.913176   -0.166344
     19          8           0       -1.127101   -1.607361    0.056253
     20          8           0        2.435879    1.504109   -0.631089
     21          8           0        0.045659    3.008509   -0.124636
 ---------------------------------------------------------------------

 SCF Done:  E(RHF) =  -532.501369646     A.U. after    2 cycles

 The electronic state is 1-A.
 Alpha  occ. eigenvalues --  -20.59656 -20.58644 -20.58578 -20.58351 -20.57655
 Alpha  occ. eigenvalues --  -20.57384 -20.56610  -1.34718  -1.32960  -1.32166
 Alpha  occ. eigenvalues --   -1.31616  -1.30748  -1.30396  -1.29511  -0.76377
 Alpha  occ. eigenvalues --   -0.74486  -0.73559  -0.73109  -0.71682  -0.71523
 Alpha  occ. eigenvalues --   -0.71458  -0.65155  -0.64408  -0.63026  -0.61304
 Alpha  occ. eigenvalues --   -0.59802  -0.59013  -0.58076  -0.55341  -0.54419
 Alpha  occ. eigenvalues --   -0.53293  -0.53017  -0.52775  -0.52325  -0.51326
 Alpha virt. eigenvalues --    0.02570   0.04166   0.04351   0.04906   0.05900
 Alpha virt. eigenvalues --    0.06822   0.07390   0.07536   0.08606   0.09005
 Alpha virt. eigenvalues --    0.09919   0.10055   0.10356   0.10853   0.15992

 Mulliken charges:
               1
     1  H    0.204072
     2  H    0.219519
     3  H    0.229652
     4  H    0.296206
     5  H    0.194944
     6  H    0.222931
     7  H    0.190169
     8  H    0.216523
     9  H    0.187122
    10  H    0.188265
    11  H    0.195607
    12  H    0.234375
    13  H    0.218996
    14  H    0.195786
    15  O   -0.400553
    16  O   -0.363485
    17  O   -0.526760
    18  O   -0.369310
    19  O   -0.497822
    20  O   -0.348142
    21  O   -0.488098
 Sum of Mulliken charges =  -0.00000

 Dipole moment (field-independent basis, Debye):
    X=              0.9954    Y=             -0.0239    Z=             -1.5122  Tot=              1.8105

 Test job not archived.
 1\1\GINC-SE030\SP\RHF\Aug-CC-pVDZ\H14O7\OHZDE\08-Apr-2025\0\\#t hf aug
 -cc-pvdz iop(5/13=1,5/36=2,99/5=2) pseudo=read geom=check guess=(read,
 tcheck) scf=(maxcycle=1)\\title\\0,1\H,0,2.07799,-2.6254,-1.32458\H,0,
 -0.930118,-1.9781,0.908248\H,0,-0.339292,-1.75531,-0.430205\H,0,3.0732
 ,-0.00431565,0.307526\H,0,2.14864,-0.546881,1.41805\H,0,2.3137,-2.0819
 6,0.0369439\H,0,1.73664,2.07016,-0.329031\H,0,-2.97207,1.0807,0.243891
 \H,0,2.75434,2.03155,-1.38863\H,0,-3.09138,-1.34845,0.0733852\H,0,-4.0
 0294,-1.22532,-1.08296\H,0,-0.0567308,3.05287,0.86678\H,0,-0.766148,2.

 Normal termination of Gaussian 16 at Tue Apr  8 21:09:07 2025.
