 Gaussian 16, Revision C.01,

 ----------------------------------------------------------------------
 #t hf aug-cc-pvdz symm=none int=(grid=ultrafine) guess=(read,tcheck) s
 table=(opt,rrhf)
 ----------------------------------------------------------------------
 -----
 title
 -----
 Symbolic Z-matrix:
 Charge =  0 Multiplicity = 1

 SCF Done:  E(RHF) =  -410.450686809     A.U. after   14 cycles
 Normal termination of Gaussian 16 at Tue Apr  8 21:41:38 2025.
 Gaussian 16:  ES64L-G16RevC.01  3-Jul-2019

 ----------------------------------------------------------------------
 #t hf aug-cc-pvdz iop(5/13=1,5/36=2,99/5=2) pseudo=read geom=check gue
 ss=(read,tcheck) scf=(maxcycle=1)
 ----------------------------------------------------------------------
 -----
 title
 -----
 Structure from the checkpoint file:  "ANI1ccx_483_conf1_mol2.chk"
 Charge =  0 Multiplicity = 1

                         Standard orientation:
 ---------------------------------------------------------------------
 Center     Atomic      Atomic             Coordinates (Angstroms)
 Number     Number       Type             X           Y           Z
 ---------------------------------------------------------------------
      1          6           0        1.122670   -0.164393   -0.053019
      2          6           0       -1.111190   -0.193386    0.039628
      3          1           0        1.156740    1.838901    0.447797
      4          1           0       -1.224990    1.739690   -0.463512
      5          7           0        0.673899    1.160281   -0.143040
      6          7           0       -0.714674    1.140980    0.165644
      7          8           0        2.239541   -0.598658   -0.012595
      8          8           0       -2.218709   -0.613991   -0.070746
      9          8           0        0.014767   -0.979944    0.075571
 ---------------------------------------------------------------------

 SCF Done:  E(RHF) =  -410.578475750     A.U. after    2 cycles

 The electronic state is 1-A.
 Alpha  occ. eigenvalues --  -20.68975 -20.59992 -20.59924 -15.74022 -15.73727
 Alpha  occ. eigenvalues --  -11.47538 -11.47058  -1.52074  -1.41810  -1.37516
 Alpha  occ. eigenvalues --   -1.33271  -1.13063  -0.93130  -0.90510  -0.78480
 Alpha  occ. eigenvalues --   -0.77217  -0.72603  -0.69800  -0.68874  -0.66598
 Alpha  occ. eigenvalues --   -0.61851  -0.60407  -0.54207  -0.52885  -0.50721
 Alpha  occ. eigenvalues --   -0.43614
 Alpha virt. eigenvalues --    0.02124   0.03656   0.06978   0.07803   0.10300
 Alpha virt. eigenvalues --    0.11052   0.11672   0.11943   0.12167   0.14007
 Alpha virt. eigenvalues --    0.14704   0.15319   0.15568   0.16869   0.19078

 Mulliken charges:
               1
     1  C    0.772274
     2  C    0.737536
     3  H    0.128836
     4  H    0.120685
     5  N   -0.267132
     6  N   -0.241432
     7  O   -0.372284
     8  O   -0.365220
     9  O   -0.513264
 Sum of Mulliken charges =  -0.00000

 Dipole moment (field-independent basis, Debye):
    X=             -0.0536    Y=              4.8791    Z=              0.0122  Tot=              4.8794

 Test job not archived.
 1\1\GINC-SE041\SP\RHF\Aug-CC-pVDZ\C2H2N2O3\OHZDE\08-Apr-2025\0\\#t hf
 aug-cc-pvdz iop(5/13=1,5/36=2,99/5=2) pseudo=read geom=check guess=(re
 ad,tcheck) scf=(maxcycle=1)\\title\\0,1\C,0,1.12267,-0.164394,-0.05301
 95\C,0,-1.11119,-0.193386,0.0396276\H,0,1.15674,1.8389,0.447797\H,0,-1
 .22499,1.73969,-0.463512\N,0,0.673899,1.16028,-0.14304\N,0,-0.714674,1
 .14098,0.165644\O,0,2.23954,-0.598659,-0.0125952\O,0,-2.21871,-0.61399
 1,-0.0707463\O,0,0.0147664,-0.979944,0.075571\\Version=ES64L-G16RevC.0
 1\State=1-A\HF=-410.5784757\RMSD=2.768e-03\Dipole=-0.0210781,1.9195663

 Normal termination of Gaussian 16 at Tue Apr  8 21:42:03 2025.
