 Gaussian 16, Revision C.01,

 ----------------------------------------------------------------------
 #t hf aug-cc-pvdz symm=none int=(grid=ultrafine) guess=(read,tcheck) s
 table=(opt,rrhf)
 ----------------------------------------------------------------------
 -----
 title
 -----
 Symbolic Z-matrix:
 Charge =  0 Multiplicity = 1

 SCF Done:  E(RHF) =  -557.492330726     A.U. after   16 cycles
 Normal termination of Gaussian 16 at Tue Apr  8 19:23:05 2025.
 Gaussian 16:  ES64L-G16RevC.01  3-Jul-2019

 ----------------------------------------------------------------------
 #t hf aug-cc-pvdz iop(5/13=1,5/36=2,99/5=2) pseudo=read geom=check gue
 ss=(read,tcheck) scf=(maxcycle=1)
 ----------------------------------------------------------------------
 -----
 title
 -----
 Structure from the checkpoint file:  "ANI1ccx_1322_conf3_mol1.chk"
 Charge =  0 Multiplicity = 1

                         Standard orientation:
 ---------------------------------------------------------------------
 Center     Atomic      Atomic             Coordinates (Angstroms)
 Number     Number       Type             X           Y           Z
 ---------------------------------------------------------------------
      1          6           0       -1.905000   -0.547735   -0.010162
      2          6           0       -0.595206    1.326931   -0.014334
      3          6           0        0.526564    0.468038    0.002083
      4          6           0        2.774270    0.189185    0.017550
      5          6           0        2.587720   -1.195020   -0.019575
      6          6           0        0.367224   -0.899112    0.012778
      7          1           0        3.472459   -1.864710    0.040542
      8          1           0        3.761470    0.576646    0.004257
      9          1           0        0.609771    2.928921    0.305498
     10          1           0       -1.139449    3.229121    0.319124
     11          1           0       -3.360341   -2.038068   -0.014744
     12          1           0       -3.966590   -0.479013   -0.212424
     13          7           0       -3.192900   -1.065488    0.038905
     14          7           0       -1.833040    0.787042   -0.089357
     15          7           0       -0.341695    2.671821   -0.012844
     16          7           0        1.772470    1.022550   -0.054046
     17          7           0        1.403009   -1.776340   -0.016954
     18          7           0       -0.937952   -1.411959    0.081112
 ---------------------------------------------------------------------

 SCF Done:  E(RHF) =  -557.651375741     A.U. after    2 cycles

 The electronic state is 1-A.
 Alpha  occ. eigenvalues --  -15.67755 -15.66659 -15.65904 -15.62627 -15.62451
 Alpha  occ. eigenvalues --  -15.59853 -11.36918 -11.36138 -11.33545 -11.31706
 Alpha  occ. eigenvalues --  -11.29702 -11.28737  -1.31864  -1.27491  -1.23681
 Alpha  occ. eigenvalues --   -1.19333  -1.14206  -1.12516  -1.04604  -0.93888
 Alpha  occ. eigenvalues --   -0.90393  -0.86181  -0.78572  -0.76595  -0.74142
 Alpha  occ. eigenvalues --   -0.70443  -0.68620  -0.65556  -0.63926  -0.63076
 Alpha  occ. eigenvalues --   -0.62509  -0.58689  -0.55890  -0.52598  -0.50537
 Alpha  occ. eigenvalues --   -0.47754  -0.44953  -0.43745  -0.41463  -0.39082
 Alpha  occ. eigenvalues --   -0.37434  -0.31957
 Alpha virt. eigenvalues --    0.02541   0.03100   0.03885   0.03947   0.05163
 Alpha virt. eigenvalues --    0.06131   0.07543   0.07688   0.09492   0.10214
 Alpha virt. eigenvalues --    0.10934   0.11411   0.11874   0.12220   0.12952

 Mulliken charges:
               1
     1  C    0.559565
     2  C    0.409381
     3  C    1.011735
     4  C    0.787114
     5  C    0.515117
     6  C    0.575364
     7  H   -0.302268
     8  H   -0.403519
     9  H    0.095445
    10  H    0.027375
    11  H   -0.082918
    12  H   -0.051440
    13  N   -0.212303
    14  N   -0.649260
    15  N   -0.287286
    16  N   -0.810533
    17  N   -0.493799
    18  N   -0.687768
 Sum of Mulliken charges =  -0.00000

 Dipole moment (field-independent basis, Debye):
    X=              1.4286    Y=              2.7341    Z=              0.5393  Tot=              3.1317

 Test job not archived.
 1\1\GINC-SE060\SP\RHF\Aug-CC-pVDZ\C6H6N6\OHZDE\08-Apr-2025\0\\#t hf au
 g-cc-pvdz iop(5/13=1,5/36=2,99/5=2) pseudo=read geom=check guess=(read
 ,tcheck) scf=(maxcycle=1)\\title\\0,1\C,0,-1.905,-0.547737,-0.0101624\
 C,0,-0.595207,1.32693,-0.0143338\C,0,0.526564,0.468037,0.00208279\C,0,
 2.77427,0.189185,0.0175502\C,0,2.58772,-1.19502,-0.019575\C,0,0.367224
 ,-0.899113,0.0127784\H,0,3.47246,-1.86471,0.0405415\H,0,3.76147,0.5766
 47,0.00425703\H,0,0.60977,2.92892,0.305498\H,0,-1.13945,3.22912,0.3191
 24\H,0,-3.36034,-2.03807,-0.0147444\H,0,-3.96659,-0.479015,-0.212424\N

 Normal termination of Gaussian 16 at Tue Apr  8 19:23:17 2025.
