 Gaussian 16, Revision C.01,

 ----------------------------------------------------------------------
 #t hf aug-cc-pvdz symm=none int=(grid=ultrafine) guess=(read,tcheck) s
 table=(opt,rrhf)
 ----------------------------------------------------------------------
 -----
 title
 -----
 Symbolic Z-matrix:
 Charge =  0 Multiplicity = 1

 SCF Done:  E(RHF) =  -374.744072722     A.U. after   14 cycles
 Normal termination of Gaussian 16 at Tue Apr  8 21:37:47 2025.
 Gaussian 16:  ES64L-G16RevC.01  3-Jul-2019

 ----------------------------------------------------------------------
 #t hf aug-cc-pvdz iop(5/13=1,5/36=2,99/5=2) pseudo=read geom=check gue
 ss=(read,tcheck) scf=(maxcycle=1)
 ----------------------------------------------------------------------
 -----
 title
 -----
 Structure from the checkpoint file:  "ANI1ccx_427_conf1_mol1.chk"
 Charge =  0 Multiplicity = 1

                         Standard orientation:
 ---------------------------------------------------------------------
 Center     Atomic      Atomic             Coordinates (Angstroms)
 Number     Number       Type             X           Y           Z
 ---------------------------------------------------------------------
      1          6           0        1.144251    0.693281   -0.202472
      2          1           0       -3.308199    0.090952    0.181078
      3          1           0       -2.832509   -1.153840   -0.647658
      4          1           0       -0.458185   -0.327300    0.850294
      5          1           0       -0.134972    2.136300   -0.078273
      6          1           0        1.875761    1.337000   -0.685462
      7          1           0        3.248931   -1.184150    0.463775
      8          7           0       -0.102947    1.152420   -0.282760
      9          7           0        1.533891   -0.396315    0.385291
     10          8           0       -3.606899   -0.799148   -0.211910
     11          8           0       -1.009289    0.454344    0.533151
     12          8           0        2.707071   -0.949119   -0.269571
 ---------------------------------------------------------------------

 SCF Done:  E(RHF) =  -374.860343056     A.U. after    2 cycles

 The electronic state is 1-A.
 Alpha  occ. eigenvalues --  -20.64618 -20.62293 -20.56159 -15.73794 -15.68580
 Alpha  occ. eigenvalues --  -11.36002  -1.42330  -1.36924  -1.27915  -1.20340
 Alpha  occ. eigenvalues --   -1.10016  -0.85410  -0.77940  -0.72938  -0.72217
 Alpha  occ. eigenvalues --   -0.69813  -0.66867  -0.62927  -0.61688  -0.57426
 Alpha  occ. eigenvalues --   -0.56622  -0.50669  -0.50395  -0.45477  -0.38073
 Alpha virt. eigenvalues --    0.02299   0.03702   0.04459   0.05889   0.07151
 Alpha virt. eigenvalues --    0.07749   0.09353   0.11606   0.12649   0.13524
 Alpha virt. eigenvalues --    0.15002   0.16241   0.16769   0.18185   0.18688

 Mulliken charges:
               1
     1  C    0.836167
     2  H    0.223395
     3  H    0.134955
     4  H    0.263952
     5  H    0.117285
     6  H   -0.208615
     7  H    0.169230
     8  N    0.113252
     9  N   -0.287461
    10  O   -0.344996
    11  O   -0.565185
    12  O   -0.451979
 Sum of Mulliken charges =  -0.00000

 Dipole moment (field-independent basis, Debye):
    X=              3.7844    Y=              3.4424    Z=              0.8093  Tot=              5.1794

 Test job not archived.
 1\1\GINC-SE094\SP\RHF\Aug-CC-pVDZ\C1H6N2O3\OHZDE\08-Apr-2025\0\\#t hf
 aug-cc-pvdz iop(5/13=1,5/36=2,99/5=2) pseudo=read geom=check guess=(re
 ad,tcheck) scf=(maxcycle=1)\\title\\0,1\C,0,1.14425,0.693281,-0.202472
 \H,0,-3.3082,0.0909518,0.181078\H,0,-2.83251,-1.15384,-0.647658\H,0,-0
 .458186,-0.3273,0.850294\H,0,-0.134973,2.1363,-0.0782734\H,0,1.87576,1
 .337,-0.685462\H,0,3.24893,-1.18415,0.463775\N,0,-0.102948,1.15242,-0.
 28276\N,0,1.53389,-0.396315,0.385291\O,0,-3.6069,-0.799148,-0.21191\O,
 0,-1.00929,0.454344,0.533151\O,0,2.70707,-0.949119,-0.269571\\Version=

 Normal termination of Gaussian 16 at Tue Apr  8 21:37:51 2025.
