 Gaussian 16, Revision C.01,

 ----------------------------------------------------------------------
 #t hf aug-cc-pvdz symm=none int=(grid=ultrafine) guess=(read,tcheck) s
 table=(opt,rrhf)
 ----------------------------------------------------------------------
 -----
 title
 -----
 Symbolic Z-matrix:
 Charge =  0 Multiplicity = 1

 SCF Done:  E(RHF) =  -597.118059740     A.U. after   16 cycles
 Normal termination of Gaussian 16 at Tue Apr  8 19:20:34 2025.
 Gaussian 16:  ES64L-G16RevC.01  3-Jul-2019

 ----------------------------------------------------------------------
 #t hf aug-cc-pvdz iop(5/13=1,5/36=2,99/5=2) pseudo=read geom=check gue
 ss=(read,tcheck) scf=(maxcycle=1)
 ----------------------------------------------------------------------
 -----
 title
 -----
 Structure from the checkpoint file:  "ANI1ccx_1293_conf2_mol1.chk"
 Charge =  0 Multiplicity = 1

                         Standard orientation:
 ---------------------------------------------------------------------
 Center     Atomic      Atomic             Coordinates (Angstroms)
 Number     Number       Type             X           Y           Z
 ---------------------------------------------------------------------
      1          6           0        1.683272   -0.737863    0.103189
      2          6           0       -0.627319   -0.692563   -0.254900
      3          6           0       -2.931889   -0.715877    0.030315
      4          6           0       -1.948891    1.271069    0.152729
      5          6           0       -0.711125    0.705468   -0.103487
      6          6           0        1.768710    0.808596   -0.080951
      7          1           0        3.586512   -0.840360    0.196113
      8          1           0       -3.927888   -1.276933    0.014818
      9          1           0       -1.933712    2.394679    0.317438
     10          1           0        0.508870    2.389282    0.236310
     11          7           0        0.543600   -1.399358   -0.168347
     12          7           0       -1.782638   -1.404110   -0.172642
     13          7           0       -3.108220    0.592828    0.169047
     14          7           0        0.518202    1.353102    0.065241
     15          8           0        2.816452   -1.434566    0.349523
     16          8           0        2.830179    1.372454   -0.236916
 ---------------------------------------------------------------------

 SCF Done:  E(RHF) =  -597.288478763     A.U. after    2 cycles

 The electronic state is 1-A.
 Alpha  occ. eigenvalues --  -20.66334 -20.60360 -15.72745 -15.67243 -15.65975
 Alpha  occ. eigenvalues --  -15.65298 -11.43745 -11.42893 -11.36449 -11.34259
 Alpha  occ. eigenvalues --  -11.33603 -11.33097  -1.43335  -1.40118  -1.32002
 Alpha  occ. eigenvalues --   -1.26833  -1.23005  -1.15528  -1.07564  -0.95192
 Alpha  occ. eigenvalues --   -0.92429  -0.91128  -0.83016  -0.79674  -0.76749
 Alpha  occ. eigenvalues --   -0.73753  -0.70529  -0.69896  -0.67959  -0.65493
 Alpha  occ. eigenvalues --   -0.63213  -0.62488  -0.60088  -0.58787  -0.54073
 Alpha  occ. eigenvalues --   -0.51562  -0.49766  -0.48448  -0.45649  -0.42457
 Alpha  occ. eigenvalues --   -0.39404  -0.34979
 Alpha virt. eigenvalues --    0.02116   0.02785   0.03687   0.04383   0.05768
 Alpha virt. eigenvalues --    0.06126   0.08014   0.08601   0.08940   0.09457
 Alpha virt. eigenvalues --    0.10195   0.10335   0.11309   0.11605   0.12028

 Mulliken charges:
               1
     1  C    0.622327
     2  C    0.644737
     3  C    0.434216
     4  C    0.826931
     5  C    0.698535
     6  C    0.485456
     7  H    0.215917
     8  H   -0.163467
     9  H   -0.243546
    10  H    0.019758
    11  N   -0.636470
    12  N   -0.615163
    13  N   -0.598750
    14  N   -0.630419
    15  O   -0.571179
    16  O   -0.488885
 Sum of Mulliken charges =   0.00000

 Dipole moment (field-independent basis, Debye):
    X=              0.3636    Y=              3.5634    Z=              0.5558  Tot=              3.6248

 Test job not archived.
 1\1\GINC-SE035\SP\RHF\Aug-CC-pVDZ\C6H4N4O2\OHZDE\08-Apr-2025\0\\#t hf
 aug-cc-pvdz iop(5/13=1,5/36=2,99/5=2) pseudo=read geom=check guess=(re
 ad,tcheck) scf=(maxcycle=1)\\title\\0,1\C,0,1.68327,-0.737866,0.103189
 \C,0,-0.62732,-0.692564,-0.2549\C,0,-2.93189,-0.715875,0.0303147\C,0,-
 1.94889,1.27107,0.152729\C,0,-0.711125,0.705467,-0.103487\C,0,1.76871,
 0.808593,-0.0809506\H,0,3.58651,-0.840365,0.196113\H,0,-3.92789,-1.276
 93,0.0148183\H,0,-1.93371,2.39468,0.317438\H,0,0.508872,2.38928,0.2363
 1\N,0,0.543598,-1.39936,-0.168347\N,0,-1.78264,-1.40411,-0.172642\N,0,

 Normal termination of Gaussian 16 at Tue Apr  8 19:20:43 2025.
