 Gaussian 16, Revision C.01,

 ----------------------------------------------------------------------
 #t hf aug-cc-pvdz symm=none int=(grid=ultrafine) guess=(read,tcheck) s
 table=(opt,rrhf)
 ----------------------------------------------------------------------
 -----
 title
 -----
 Symbolic Z-matrix:
 Charge =  0 Multiplicity = 1

 SCF Done:  E(RHF) =  -661.568026440     A.U. after   16 cycles
 Normal termination of Gaussian 16 at Tue Apr  8 19:36:02 2025.
 Gaussian 16:  ES64L-G16RevC.01  3-Jul-2019

 ----------------------------------------------------------------------
 #t hf aug-cc-pvdz iop(5/13=1,5/36=2,99/5=2) pseudo=read geom=check gue
 ss=(read,tcheck) scf=(maxcycle=1)
 ----------------------------------------------------------------------
 -----
 title
 -----
 Structure from the checkpoint file:  "ANI1ccx_1450_conf3_mol1.chk"
 Charge =  0 Multiplicity = 1

                         Standard orientation:
 ---------------------------------------------------------------------
 Center     Atomic      Atomic             Coordinates (Angstroms)
 Number     Number       Type             X           Y           Z
 ---------------------------------------------------------------------
      1          6           0       -1.619780   -0.348017    0.047477
      2          6           0       -0.486610   -0.418729   -0.973727
      3          6           0        0.866360   -0.968048   -0.582488
      4          6           0        2.707490   -1.035990    0.875260
      5          6           0        3.633290   -0.793567   -0.279238
      6          6           0        3.076560    1.492950    0.278245
      7          6           0        1.684010    1.146430    0.619307
      8          1           0        1.006890    1.522130   -0.130509
      9          1           0        1.429590    1.608750    1.602190
     10          1           0        3.144040    2.525870   -0.137823
     11          1           0        3.751910    1.589509    1.194920
     12          1           0        3.291860    0.786134   -1.600590
     13          1           0        4.658550   -1.097461   -0.067249
     14          1           0        3.337010   -1.337331   -1.265850
     15          1           0        3.119530   -0.637102    1.846750
     16          1           0        0.770486   -2.087720   -0.237159
     17          1           0        1.496240   -0.890972   -1.452120
     18          1           0       -0.979558   -0.937698   -1.787610
     19          1           0       -0.432121    0.590235   -1.429450
     20          1           0       -1.245210    0.265120    0.875597
     21          1           0       -1.758960   -1.300950    0.491913
     22          1           0        2.523040   -2.133670    1.206130
     23          7           0       -3.932560    0.220410    0.109175
     24          7           0        1.490050   -0.319302    0.593381
     25          7           0        3.768910    0.653599   -0.709303
     26          8           0       -4.904650    0.606119   -0.439365
     27          8           0       -3.930480   -0.396070    1.194980
     28          8           0       -2.735620    0.190205   -0.626983
 ---------------------------------------------------------------------

 SCF Done:  E(RHF) =  -661.768900512     A.U. after    2 cycles

 The electronic state is 1-A.
 Alpha  occ. eigenvalues --  -20.69526 -20.65747 -20.62919 -15.98899 -15.62100
 Alpha  occ. eigenvalues --  -15.61868 -11.31500 -11.28939 -11.27734 -11.27046
 Alpha  occ. eigenvalues --  -11.26985 -11.26580 -11.25654  -1.61202  -1.42223
 Alpha  occ. eigenvalues --   -1.38017  -1.23614  -1.15386  -1.08301  -1.03389
 Alpha  occ. eigenvalues --   -0.99353  -0.91613  -0.87894  -0.86900  -0.83490
 Alpha  occ. eigenvalues --   -0.81897  -0.79256  -0.77293  -0.74594  -0.69362
 Alpha  occ. eigenvalues --   -0.68684  -0.68157  -0.65858  -0.65398  -0.61609
 Alpha  occ. eigenvalues --   -0.59392  -0.57934  -0.57455  -0.56911  -0.54785
 Alpha  occ. eigenvalues --   -0.53568  -0.53274  -0.53034  -0.51834  -0.50202
 Alpha  occ. eigenvalues --   -0.49759  -0.48516  -0.47882  -0.45898  -0.39211
 Alpha  occ. eigenvalues --   -0.34498
 Alpha virt. eigenvalues --    0.02738   0.03058   0.03253   0.04076   0.05547
 Alpha virt. eigenvalues --    0.05909   0.06092   0.06373   0.06597   0.07372
 Alpha virt. eigenvalues --    0.08039   0.08430   0.08909   0.09083   0.09351

 Mulliken charges:
               1
     1  C    1.125919
     2  C   -0.088050
     3  C    0.694219
     4  C    0.303165
     5  C    0.624761
     6  C    0.473295
     7  C    0.721629
     8  H   -0.311099
     9  H   -0.084713
    10  H   -0.125351
    11  H   -0.072561
    12  H    0.056707
    13  H   -0.343103
    14  H    0.112894
    15  H   -0.124642
    16  H    0.015351
    17  H   -0.276068
    18  H   -0.180303
    19  H   -0.048588
    20  H   -0.117182
    21  H   -0.208889
    22  H   -0.164523
    23  N    0.897032
    24  N   -0.890243
    25  N   -0.542599
    26  O   -0.440758
    27  O   -0.486586
    28  O   -0.519713
 Sum of Mulliken charges =   0.00000

 Dipole moment (field-independent basis, Debye):
    X=              3.3329    Y=             -0.4900    Z=             -0.8566  Tot=              3.4759

 Test job not archived.
 1\1\GINC-SE225\SP\RHF\Aug-CC-pVDZ\C7H15N3O3\OHZDE\08-Apr-2025\0\\#t hf
  aug-cc-pvdz iop(5/13=1,5/36=2,99/5=2) pseudo=read geom=check guess=(r
 ead,tcheck) scf=(maxcycle=1)\\title\\0,1\C,0,-1.61978,-0.348017,0.0474
 769\C,0,-0.48661,-0.418729,-0.973727\C,0,0.86636,-0.968048,-0.582488\C
 ,0,2.70749,-1.03599,0.87526\C,0,3.63329,-0.793566,-0.279238\C,0,3.0765
 6,1.49295,0.278245\C,0,1.68401,1.14643,0.619307\H,0,1.00689,1.52213,-0
 .130509\H,0,1.42959,1.60875,1.60219\H,0,3.14404,2.52587,-0.137823\H,0,
 3.75191,1.58951,1.19492\H,0,3.29186,0.786134,-1.60059\H,0,4.65855,-1.0

 Normal termination of Gaussian 16 at Tue Apr  8 19:36:29 2025.
