 Gaussian 16, Revision C.01,

 ----------------------------------------------------------------------
 #t hf aug-cc-pvdz symm=none int=(grid=ultrafine) guess=(read,tcheck) s
 table=(opt,rrhf)
 ----------------------------------------------------------------------
 -----
 title
 -----
 Symbolic Z-matrix:
 Charge =  0 Multiplicity = 1

 SCF Done:  E(RHF) =  -424.692923968     A.U. after   15 cycles
 Normal termination of Gaussian 16 at Tue Apr  8 21:43:46 2025.
 Gaussian 16:  ES64L-G16RevC.01  3-Jul-2019

 ----------------------------------------------------------------------
 #t hf aug-cc-pvdz iop(5/13=1,5/36=2,99/5=2) pseudo=read geom=check gue
 ss=(read,tcheck) scf=(maxcycle=1)
 ----------------------------------------------------------------------
 -----
 title
 -----
 Structure from the checkpoint file:  "ANI1ccx_507_conf2_mol1.chk"
 Charge =  0 Multiplicity = 1

                         Standard orientation:
 ---------------------------------------------------------------------
 Center     Atomic      Atomic             Coordinates (Angstroms)
 Number     Number       Type             X           Y           Z
 ---------------------------------------------------------------------
      1          6           0       -1.284910   -0.316844    0.140782
      2          6           0        0.128224    1.429370   -0.117476
      3          1           0       -2.871570   -0.295014   -1.156000
      4          1           0       -2.802939   -1.597263   -0.052409
      5          1           0        1.886817    2.180002    0.388873
      6          7           0       -2.585500   -0.654467   -0.221132
      7          7           0       -0.867331    0.817769   -0.593484
      8          7           0        0.911204    2.250021    0.329631
      9          7           0        2.251211   -1.721388   -0.235020
     10          7           0        2.512180   -0.651403   -0.255857
     11          8           0       -0.603068   -0.905825    0.938842
 ---------------------------------------------------------------------

 SCF Done:  E(RHF) =  -424.821725535     A.U. after    2 cycles

 The electronic state is 1-A.
 Alpha  occ. eigenvalues --  -20.55739 -15.75647 -15.75180 -15.67683 -15.66272
 Alpha  occ. eigenvalues --  -15.65682 -11.41884 -11.41736  -1.42215  -1.38841
 Alpha  occ. eigenvalues --   -1.27385  -1.21188  -1.17203  -0.88858  -0.80930
 Alpha  occ. eigenvalues --   -0.75561  -0.74431  -0.70133  -0.65171  -0.64080
 Alpha  occ. eigenvalues --   -0.62518  -0.60909  -0.60532  -0.58844  -0.56123
 Alpha  occ. eigenvalues --   -0.50338  -0.44339  -0.43732  -0.42357
 Alpha virt. eigenvalues --    0.03193   0.03807   0.05436   0.08224   0.08734
 Alpha virt. eigenvalues --    0.10137   0.11034   0.11758   0.12188   0.13308
 Alpha virt. eigenvalues --    0.13504   0.14095   0.14551   0.15047   0.15409

 Mulliken charges:
               1
     1  C    0.837097
     2  C   -0.008334
     3  H    0.098245
     4  H   -0.025665
     5  H    0.039258
     6  N   -0.221680
     7  N   -0.333533
     8  N    0.044410
     9  N   -0.010316
    10  N   -0.006377
    11  O   -0.413105
 Sum of Mulliken charges =  -0.00000

 Dipole moment (field-independent basis, Debye):
    X=              0.1498    Y=              0.2130    Z=             -2.1775  Tot=              2.1930

 Test job not archived.
 1\1\GINC-SE051\SP\RHF\Aug-CC-pVDZ\C2H3N5O1\OHZDE\08-Apr-2025\0\\#t hf
 aug-cc-pvdz iop(5/13=1,5/36=2,99/5=2) pseudo=read geom=check guess=(re
 ad,tcheck) scf=(maxcycle=1)\\title\\0,1\C,0,-1.28491,-0.316842,0.14078
 2\C,0,0.128226,1.42937,-0.117476\H,0,-2.87157,-0.295011,-1.156\H,0,-2.
 80294,-1.59726,-0.0524087\H,0,1.88682,2.18,0.388873\N,0,-2.5855,-0.654
 464,-0.221132\N,0,-0.86733,0.81777,-0.593484\N,0,0.911207,2.25002,0.32
 9631\N,0,2.25121,-1.72139,-0.23502\N,0,2.51218,-0.651405,-0.255857\O,0
 ,-0.603068,-0.905824,0.938842\\Version=ES64L-G16RevC.01\State=1-A\HF=-

 Normal termination of Gaussian 16 at Tue Apr  8 21:43:50 2025.
