 Gaussian 16, Revision C.01,

 ----------------------------------------------------------------------
 #t hf aug-cc-pvdz symm=none int=(grid=ultrafine) guess=(read,tcheck) s
 table=(opt,rrhf)
 ----------------------------------------------------------------------
 -----
 title
 -----
 Symbolic Z-matrix:
 Charge =  0 Multiplicity = 1

 SCF Done:  E(RHF) =  -509.532216747     A.U. after   14 cycles
 Normal termination of Gaussian 16 at Tue Apr  8 22:08:51 2025.
 Gaussian 16:  ES64L-G16RevC.01  3-Jul-2019

 ----------------------------------------------------------------------
 #t hf aug-cc-pvdz iop(5/13=1,5/36=2,99/5=2) pseudo=read geom=check gue
 ss=(read,tcheck) scf=(maxcycle=1)
 ----------------------------------------------------------------------
 -----
 title
 -----
 Structure from the checkpoint file:  "ANI1ccx_939_conf31_mol1.chk"
 Charge =  0 Multiplicity = 1

                         Standard orientation:
 ---------------------------------------------------------------------
 Center     Atomic      Atomic             Coordinates (Angstroms)
 Number     Number       Type             X           Y           Z
 ---------------------------------------------------------------------
      1          6           0       -0.864456    0.575491   -0.747564
      2          6           0       -1.235350   -0.483265    0.233103
      3          6           0        0.587525    0.414510   -1.177920
      4          6           0        1.527690   -0.042833   -0.085302
      5          1           0       -1.897241    1.753949    0.404112
      6          1           0       -0.312858    1.889399    0.493007
      7          1           0       -1.396870    0.427384   -1.672680
      8          1           0        0.627602   -0.248222   -2.029010
      9          1           0        0.995799    1.409400   -1.453440
     10          1           0        2.116070    0.336368    1.691530
     11          1           0       -1.498899   -2.447651    0.062097
     12          7           0       -1.071161    1.881889   -0.195092
     13          8           0       -1.247570   -0.435678    1.474270
     14          8           0        2.245600   -1.028890   -0.200517
     15          8           0        1.438419    0.702080    1.047400
     16          8           0       -1.339940   -1.622171   -0.504138
 ---------------------------------------------------------------------

 SCF Done:  E(RHF) =  -509.687983894     A.U. after    2 cycles

 The electronic state is 1-A.
 Alpha  occ. eigenvalues --  -20.64498 -20.64480 -20.58705 -20.57638 -15.62271
 Alpha  occ. eigenvalues --  -11.41934 -11.41639 -11.30145 -11.27696  -1.43048
 Alpha  occ. eigenvalues --   -1.42213  -1.33071  -1.32750  -1.20550  -1.05616
 Alpha  occ. eigenvalues --   -0.96019  -0.86012  -0.80561  -0.74248  -0.73390
 Alpha  occ. eigenvalues --   -0.72667  -0.69851  -0.67490  -0.66741  -0.63604
 Alpha  occ. eigenvalues --   -0.62688  -0.61222  -0.58584  -0.55005  -0.53664
 Alpha  occ. eigenvalues --   -0.51667  -0.50196  -0.49335  -0.47297  -0.42839
 Alpha virt. eigenvalues --    0.03133   0.03877   0.04325   0.04945   0.05927
 Alpha virt. eigenvalues --    0.06849   0.08220   0.09725   0.10588   0.11368
 Alpha virt. eigenvalues --    0.11713   0.13030   0.13716   0.14176   0.14306

 Mulliken charges:
               1
     1  C    0.517779
     2  C    0.719272
     3  C    0.143542
     4  C    0.736196
     5  H    0.075303
     6  H    0.151807
     7  H   -0.127858
     8  H   -0.145988
     9  H    0.145106
    10  H    0.222428
    11  H    0.237752
    12  N   -0.428497
    13  O   -0.559679
    14  O   -0.528144
    15  O   -0.557545
    16  O   -0.601475
 Sum of Mulliken charges =  -0.00000

 Dipole moment (field-independent basis, Debye):
    X=             -0.8489    Y=             -0.0327    Z=             -0.6896  Tot=              1.0942

 Test job not archived.
 1\1\GINC-SE435\SP\RHF\Aug-CC-pVDZ\C4H7N1O4\OHZDE\08-Apr-2025\0\\#t hf
 aug-cc-pvdz iop(5/13=1,5/36=2,99/5=2) pseudo=read geom=check guess=(re
 ad,tcheck) scf=(maxcycle=1)\\title\\0,1\C,0,-0.864456,0.575492,-0.7475
 64\C,0,-1.23535,-0.483264,0.233103\C,0,0.587525,0.41451,-1.17792\C,0,1
 .52769,-0.0428336,-0.0853026\H,0,-1.89724,1.75395,0.404112\H,0,-0.3128
 57,1.8894,0.493007\H,0,-1.39687,0.427385,-1.67268\H,0,0.627602,-0.2482
 22,-2.02901\H,0,0.9958,1.4094,-1.45344\H,0,2.11607,0.336368,1.69153\H,
 0,-1.4989,-2.44765,0.062097\N,0,-1.07116,1.88189,-0.195092\O,0,-1.2475

 Normal termination of Gaussian 16 at Tue Apr  8 22:08:58 2025.
