 Gaussian 16, Revision C.01,

 ----------------------------------------------------------------------
 #t hf aug-cc-pvdz symm=none int=(grid=ultrafine) guess=(read,tcheck) s
 table=(opt,rrhf)
 ----------------------------------------------------------------------
 -----
 title
 -----
 Symbolic Z-matrix:
 Charge =  0 Multiplicity = 1

 SCF Done:  E(RHF) =  -458.356299621     A.U. after   19 cycles
 Normal termination of Gaussian 16 at Tue Apr  8 21:44:07 2025.
 Gaussian 16:  ES64L-G16RevC.01  3-Jul-2019

 ----------------------------------------------------------------------
 #t hf aug-cc-pvdz iop(5/13=1,5/36=2,99/5=2) pseudo=read geom=check gue
 ss=(read,tcheck) scf=(maxcycle=1)
 ----------------------------------------------------------------------
 -----
 title
 -----
 Structure from the checkpoint file:  "ANI1ccx_509_conf2_mol1.chk"
 Charge =  0 Multiplicity = 1

                         Standard orientation:
 ---------------------------------------------------------------------
 Center     Atomic      Atomic             Coordinates (Angstroms)
 Number     Number       Type             X           Y           Z
 ---------------------------------------------------------------------
      1          6           0       -1.313010   -0.081493   -0.222912
      2          6           0        1.380120   -0.161169    0.332049
      3          1           0       -2.347770   -1.412540    1.011520
      4          1           0       -3.289550    0.339580    0.627115
      5          1           0        2.776040   -1.420281   -0.035218
      6          7           0       -2.342160   -0.346451    0.646745
      7          7           0       -0.790630    1.104850   -0.728583
      8          7           0        0.054726    1.776030   -0.135214
      9          7           0        0.984265    1.171870    0.481355
     10          7           0        2.623310   -0.385796    0.108358
     11          7           0        0.489399   -1.442260   -0.234955
     12          7           0       -0.667679   -1.314070   -0.460312
 ---------------------------------------------------------------------

 SCF Done:  E(RHF) =  -458.482897742     A.U. after    2 cycles

 The electronic state is 1-A.
 Alpha  occ. eigenvalues --  -15.76998 -15.76257 -15.75537 -15.74017 -15.65675
 Alpha  occ. eigenvalues --  -15.64544 -15.64319 -11.48250 -11.37688  -1.43351
 Alpha  occ. eigenvalues --   -1.38594  -1.27496  -1.21224  -1.13456  -1.02427
 Alpha  occ. eigenvalues --   -0.94787  -0.84651  -0.81755  -0.77435  -0.71712
 Alpha  occ. eigenvalues --   -0.68696  -0.66157  -0.62775  -0.61530  -0.57948
 Alpha  occ. eigenvalues --   -0.53788  -0.49331  -0.48341  -0.43219  -0.41485
 Alpha  occ. eigenvalues --   -0.36291  -0.33332
 Alpha virt. eigenvalues --    0.00095   0.01380   0.03189   0.05112   0.06154
 Alpha virt. eigenvalues --    0.07338   0.09562   0.10184   0.10746   0.10869
 Alpha virt. eigenvalues --    0.12123   0.13368   0.13739   0.14472   0.15112

 Mulliken charges:
               1
     1  C    1.164054
     2  C    0.877028
     3  H    0.248051
     4  H    0.262117
     5  H    0.128618
     6  N   -0.583606
     7  N   -0.467123
     8  N    0.002194
     9  N   -0.405320
    10  N   -0.447356
    11  N   -0.428111
    12  N   -0.350546
 Sum of Mulliken charges =  -0.00000

 Dipole moment (field-independent basis, Debye):
    X=             -7.0805    Y=             -4.2008    Z=              1.5869  Tot=              8.3844

 Test job not archived.
 1\1\GINC-SE044\SP\RHF\Aug-CC-pVDZ\C2H3N7\OHZDE\08-Apr-2025\0\\#t hf au
 g-cc-pvdz iop(5/13=1,5/36=2,99/5=2) pseudo=read geom=check guess=(read
 ,tcheck) scf=(maxcycle=1)\\title\\0,1\C,0,-1.31301,-0.0814927,-0.22291
 2\C,0,1.38012,-0.161169,0.332049\H,0,-2.34777,-1.41254,1.01152\H,0,-3.
 28955,0.33958,0.627115\H,0,2.77604,-1.42028,-0.0352182\N,0,-2.34216,-0
 .346451,0.646745\N,0,-0.790631,1.10485,-0.728583\N,0,0.0547254,1.77603
 ,-0.135214\N,0,0.984264,1.17187,0.481355\N,0,2.62331,-0.385795,0.10835
 8\N,0,0.489399,-1.44226,-0.234955\N,0,-0.667679,-1.31407,-0.460312\\Ve

 Normal termination of Gaussian 16 at Tue Apr  8 21:44:13 2025.
