 Gaussian 16, Revision C.01,

 ----------------------------------------------------------------------
 #t hf aug-cc-pvdz symm=none int=(grid=ultrafine) guess=(read,tcheck) s
 table=(opt,rrhf)
 ----------------------------------------------------------------------
 -----
 title
 -----
 Symbolic Z-matrix:
 Charge =  0 Multiplicity = 1

 SCF Done:  E(RHF) =  -596.218619491     A.U. after   17 cycles
 Normal termination of Gaussian 16 at Tue Apr  8 21:58:10 2025.
 Gaussian 16:  ES64L-G16RevC.01  3-Jul-2019

 ----------------------------------------------------------------------
 #t hf aug-cc-pvdz iop(5/13=1,5/36=2,99/5=2) pseudo=read geom=check gue
 ss=(read,tcheck) scf=(maxcycle=1)
 ----------------------------------------------------------------------
 -----
 title
 -----
 Structure from the checkpoint file:  "ANI1ccx_883_conf3_mol1.chk"
 Charge =  0 Multiplicity = 1

                         Standard orientation:
 ---------------------------------------------------------------------
 Center     Atomic      Atomic             Coordinates (Angstroms)
 Number     Number       Type             X           Y           Z
 ---------------------------------------------------------------------
      1          6           0       -1.824220   -0.212091    0.087777
      2          6           0        0.273202   -1.058011   -0.047810
      3          6           0        0.827590    0.216797   -0.041782
      4          6           0       -0.091615    1.233179   -0.026786
      5          1           0       -3.522200   -1.355450   -0.084891
      6          1           0       -3.813929    0.280818   -0.044243
      7          1           0        0.528538   -2.950111   -0.062084
      8          1           0       -0.421650    3.075969   -0.108936
      9          7           0       -3.144800   -0.452287    0.043063
     10          7           0       -1.001650   -1.263551   -0.019352
     11          7           0        2.202231    0.600942    0.069179
     12          7           0       -1.404659    1.068249    0.020539
     13          8           0        1.099460   -2.125301   -0.042408
     14          8           0        2.989750   -0.324531    0.050581
     15          8           0        0.355995    2.474339   -0.048453
 ---------------------------------------------------------------------

 SCF Done:  E(RHF) =  -596.397771490     A.U. after    2 cycles

 The electronic state is 1-A.
 Alpha  occ. eigenvalues --  -20.63462 -20.63365 -20.61326 -15.75749 -15.67242
 Alpha  occ. eigenvalues --  -15.63697 -15.63542 -11.40800 -11.39546 -11.38946
 Alpha  occ. eigenvalues --  -11.26630  -1.44481  -1.42225  -1.40264  -1.32105
 Alpha  occ. eigenvalues --   -1.21043  -1.17674  -1.10217  -0.95752  -0.91691
 Alpha  occ. eigenvalues --   -0.87892  -0.82110  -0.80444  -0.73681  -0.71649
 Alpha  occ. eigenvalues --   -0.70776  -0.68401  -0.68123  -0.63140  -0.62496
 Alpha  occ. eigenvalues --   -0.61692  -0.60657  -0.59131  -0.57659  -0.52369
 Alpha  occ. eigenvalues --   -0.46403  -0.44010  -0.42390  -0.39709  -0.35518
 Alpha virt. eigenvalues --    0.02044   0.03082   0.04128   0.06033   0.06608
 Alpha virt. eigenvalues --    0.07031   0.09660   0.10320   0.11975   0.12525
 Alpha virt. eigenvalues --    0.12820   0.12964   0.13129   0.13540   0.13919

 Mulliken charges:
               1
     1  C    0.927149
     2  C    0.745077
     3  C    0.817751
     4  C    0.510282
     5  H   -0.073746
     6  H   -0.048721
     7  H    0.238274
     8  H    0.206640
     9  N   -0.132670
    10  N   -0.556000
    11  N   -0.486300
    12  N   -0.638239
    13  O   -0.566014
    14  O   -0.431921
    15  O   -0.511563
 Sum of Mulliken charges =  -0.00000

 Dipole moment (field-independent basis, Debye):
    X=             -7.2029    Y=             -0.5729    Z=             -0.4633  Tot=              7.2405

 Test job not archived.
 1\1\GINC-SE097\SP\RHF\Aug-CC-pVDZ\C4H4N4O3\OHZDE\08-Apr-2025\0\\#t hf
 aug-cc-pvdz iop(5/13=1,5/36=2,99/5=2) pseudo=read geom=check guess=(re
 ad,tcheck) scf=(maxcycle=1)\\title\\0,1\C,0,-1.82422,-0.21209,0.087776
 9\C,0,0.273202,-1.05801,-0.0478098\C,0,0.827589,0.216798,-0.0417825\C,
 0,-0.0916154,1.23318,-0.0267859\H,0,-3.5222,-1.35545,-0.0848913\H,0,-3
 .81393,0.280818,-0.0442427\H,0,0.528538,-2.95011,-0.0620844\H,0,-0.421
 651,3.07597,-0.108936\N,0,-3.1448,-0.452287,0.0430631\N,0,-1.00165,-1.
 26355,-0.0193522\N,0,2.20223,0.600943,0.069179\N,0,-1.40466,1.06825,0.

 Normal termination of Gaussian 16 at Tue Apr  8 21:58:18 2025.
