 Gaussian 16, Revision C.01,

 ----------------------------------------------------------------------
 #t hf aug-cc-pvdz symm=none int=(grid=ultrafine) guess=(read,tcheck) s
 table=(opt,rrhf)
 ----------------------------------------------------------------------
 -----
 title
 -----
 Symbolic Z-matrix:
 Charge =  0 Multiplicity = 1

 SCF Done:  E(RHF) =  -830.250681014     A.U. after   14 cycles
 Normal termination of Gaussian 16 at Tue Apr  8 19:35:04 2025.
 Gaussian 16:  ES64L-G16RevC.01  3-Jul-2019

 ----------------------------------------------------------------------
 #t hf aug-cc-pvdz iop(5/13=1,5/36=2,99/5=2) pseudo=read geom=check gue
 ss=(read,tcheck) scf=(maxcycle=1)
 ----------------------------------------------------------------------
 -----
 title
 -----
 Structure from the checkpoint file:  "ANI1ccx_1406_conf15_mol1.chk"
 Charge =  0 Multiplicity = 1

                         Standard orientation:
 ---------------------------------------------------------------------
 Center     Atomic      Atomic             Coordinates (Angstroms)
 Number     Number       Type             X           Y           Z
 ---------------------------------------------------------------------
      1          6           0        2.678300   -0.494643    0.461427
      2          6           0        1.363481   -0.841190   -0.290915
      3          6           0        3.100440    0.902240    0.094125
      4          6           0       -0.717253    0.217800   -0.886814
      5          6           0       -1.274431    1.577779   -0.429423
      6          6           0       -1.843869   -0.832709   -0.886185
      7          6           0       -2.300439   -1.041372    0.523583
      8          1           0       -3.088361    2.315458    0.035590
      9          1           0       -3.684909   -2.055023    1.375350
     10          1           0       -1.479539   -1.853161   -1.159550
     11          1           0       -2.760580   -0.556913   -1.380850
     12          1           0       -0.408456    0.310808   -1.936690
     13          1           0        0.528832    0.770450    0.730450
     14          1           0        3.998899    1.181542    0.607216
     15          1           0        3.129879    1.004522   -1.015790
     16          1           0        2.359731   -0.597179    1.458400
     17          1           0        3.319991   -2.141658   -0.589941
     18          1           0        4.094821   -1.976948    0.769926
     19          1           0        1.585249    2.226441   -0.138382
     20          7           0        3.700461   -1.423208    0.058501
     21          7           0        0.282233   -0.063907    0.093611
     22          8           0       -3.208699   -2.086692    0.491132
     23          8           0        1.170101   -1.815500   -1.005710
     24          8           0        2.158279    1.873301    0.593371
     25          8           0       -0.620874    2.362299    0.231592
     26          8           0       -2.113010   -0.301542    1.485360
     27          8           0       -2.574771    1.824888   -0.712658
 ---------------------------------------------------------------------

 SCF Done:  E(RHF) =  -830.503117592     A.U. after    2 cycles

 The electronic state is 1-A.
 Alpha  occ. eigenvalues --  -20.64048 -20.63775 -20.58421 -20.58103 -20.57329
 Alpha  occ. eigenvalues --  -20.55626 -15.64628 -15.60817 -11.42549 -11.41616
 Alpha  occ. eigenvalues --  -11.37109 -11.32569 -11.29646 -11.28467 -11.27058
 Alpha  occ. eigenvalues --   -1.43307  -1.41617  -1.36369  -1.33747  -1.32900
 Alpha  occ. eigenvalues --   -1.31624  -1.21305  -1.17168  -1.07637  -1.00007
 Alpha  occ. eigenvalues --   -0.96506  -0.88045  -0.84510  -0.81605  -0.78255
 Alpha  occ. eigenvalues --   -0.74782  -0.73364  -0.72957  -0.72371  -0.70572
 Alpha  occ. eigenvalues --   -0.68963  -0.67471  -0.66803  -0.65980  -0.64158
 Alpha  occ. eigenvalues --   -0.63485  -0.63081  -0.60249  -0.59206  -0.58081
 Alpha  occ. eigenvalues --   -0.57682  -0.57253  -0.56079  -0.53286  -0.52391
 Alpha  occ. eigenvalues --   -0.51433  -0.51083  -0.49148  -0.48276  -0.47013
 Alpha  occ. eigenvalues --   -0.44720  -0.40315  -0.39710
 Alpha virt. eigenvalues --    0.02674   0.03458   0.03790   0.04311   0.05015
 Alpha virt. eigenvalues --    0.05610   0.06034   0.06999   0.07684   0.07805
 Alpha virt. eigenvalues --    0.08875   0.10292   0.10689   0.11062   0.11188

 Mulliken charges:
               1
     1  C    0.214094
     2  C    0.302330
     3  C    1.082271
     4  C    0.252425
     5  C    0.807831
     6  C    0.357805
     7  C    0.564297
     8  H    0.300249
     9  H    0.210425
    10  H    0.117729
    11  H    0.004334
    12  H   -0.118198
    13  H    0.312107
    14  H   -0.249383
    15  H   -0.023564
    16  H   -0.072610
    17  H    0.064777
    18  H   -0.038732
    19  H    0.274249
    20  N   -0.275518
    21  N   -0.523037
    22  O   -0.591934
    23  O   -0.599295
    24  O   -0.616888
    25  O   -0.519199
    26  O   -0.536750
    27  O   -0.699813
 Sum of Mulliken charges =  -0.00000

 Dipole moment (field-independent basis, Debye):
    X=             -2.4160    Y=             -0.2405    Z=             -0.6007  Tot=              2.5012

 Test job not archived.
 1\1\GINC-SE049\SP\RHF\Aug-CC-pVDZ\C7H12N2O6\OHZDE\08-Apr-2025\0\\#t hf
  aug-cc-pvdz iop(5/13=1,5/36=2,99/5=2) pseudo=read geom=check guess=(r
 ead,tcheck) scf=(maxcycle=1)\\title\\0,1\C,0,2.6783,-0.494644,0.461427
 \C,0,1.36348,-0.84119,-0.290915\C,0,3.10044,0.902238,0.0941252\C,0,-0.
 717253,0.217801,-0.886814\C,0,-1.27443,1.57778,-0.429423\C,0,-1.84387,
 -0.832707,-0.886185\C,0,-2.30044,-1.04137,0.523583\H,0,-3.08836,2.3154
 6,0.0355895\H,0,-3.68491,-2.05502,1.37535\H,0,-1.47954,-1.85316,-1.159
 55\H,0,-2.76058,-0.556911,-1.38085\H,0,-0.408456,0.310809,-1.93669\H,0

 Normal termination of Gaussian 16 at Tue Apr  8 19:35:37 2025.
