 Gaussian 16, Revision C.01,

 ----------------------------------------------------------------------
 #t hf aug-cc-pvdz symm=none int=(grid=ultrafine) guess=(read,tcheck) s
 table=(opt,rrhf)
 ----------------------------------------------------------------------
 -----
 title
 -----
 Symbolic Z-matrix:
 Charge =  0 Multiplicity = 1

 SCF Done:  E(RHF) =  -724.124415716     A.U. after   15 cycles
 Normal termination of Gaussian 16 at Tue Apr  8 20:12:25 2025.
 Gaussian 16:  ES64L-G16RevC.01  3-Jul-2019

 ----------------------------------------------------------------------
 #t hf aug-cc-pvdz iop(5/13=1,5/36=2,99/5=2) pseudo=read geom=check gue
 ss=(read,tcheck) scf=(maxcycle=1)
 ----------------------------------------------------------------------
 -----
 title
 -----
 Structure from the checkpoint file:  "ANI1ccx_161_conf1_mol2.chk"
 Charge =  0 Multiplicity = 1

                         Standard orientation:
 ---------------------------------------------------------------------
 Center     Atomic      Atomic             Coordinates (Angstroms)
 Number     Number       Type             X           Y           Z
 ---------------------------------------------------------------------
      1          6           0        5.110991   -0.008325    1.003410
      2          6           0       -0.469210    1.387240   -0.251914
      3          6           0       -1.802149    1.581091    0.078381
      4          6           0       -4.057919    0.352920    0.628141
      5          6           0       -4.354650   -1.099758    0.342339
      6          6           0       -2.589489    0.492744    0.239911
      7          6           0       -0.844888   -1.019800   -0.454146
      8          6           0        0.008586    0.130107   -0.444299
      9          6           0        2.274050   -0.253060    0.264057
     10          6           0        3.505400   -0.593550   -0.600389
     11          6           0       -2.170800   -0.717074   -0.089470
     12          1           0       -4.799560   -1.703618    1.214950
     13          1           0       -0.068220    3.245570   -0.258261
     14          1           0       -2.179729    2.614891    0.298687
     15          1           0       -4.231489    0.563292    1.706570
     16          1           0       -4.674449    1.036142    0.133957
     17          1           0       -5.026700   -1.131758   -0.552295
     18          1           0       -0.587645   -1.955140   -0.858429
     19          1           0        3.793001    0.329077   -1.106630
     20          1           0        1.756500   -1.048701    0.832746
     21          1           0        3.308730   -1.371791   -1.341340
     22          1           0        5.922830   -0.474282    1.542970
     23          1           0        5.363001    0.829643    0.521038
     24          1           0        4.486941    0.265175    1.758420
     25          1           0        2.514101    0.613147    0.862760
     26          8           0       -3.131810   -1.635919   -0.136496
     27          8           0        4.630590   -1.072722    0.157119
     28          8           0        1.367681   -0.133196   -0.801737
     29          8           0        0.478933    2.425980   -0.350295
 ---------------------------------------------------------------------

 SCF Done:  E(RHF) =  -724.350758084     A.U. after    2 cycles

 The electronic state is 1-A.
 Alpha  occ. eigenvalues --  -20.60582 -20.59371 -20.57786 -20.56154 -11.31059
 Alpha  occ. eigenvalues --  -11.30607 -11.30470 -11.29566 -11.28248 -11.27476
 Alpha  occ. eigenvalues --  -11.26247 -11.25514 -11.25193 -11.24755 -11.24127
 Alpha  occ. eigenvalues --   -1.39786  -1.35679  -1.33478  -1.30917  -1.15744
 Alpha  occ. eigenvalues --   -1.07348  -1.02392  -1.00831  -0.97420  -0.93547
 Alpha  occ. eigenvalues --   -0.88402  -0.84997  -0.83124  -0.79767  -0.74244
 Alpha  occ. eigenvalues --   -0.72063  -0.70697  -0.69642  -0.67878  -0.66126
 Alpha  occ. eigenvalues --   -0.65841  -0.62905  -0.62451  -0.62041  -0.60575
 Alpha  occ. eigenvalues --   -0.60156  -0.58058  -0.57535  -0.56967  -0.55645
 Alpha  occ. eigenvalues --   -0.53941  -0.52906  -0.52040  -0.51187  -0.49882
 Alpha  occ. eigenvalues --   -0.48393  -0.45347  -0.44907  -0.42597  -0.34460
 Alpha  occ. eigenvalues --   -0.30809
 Alpha virt. eigenvalues --    0.02655   0.03516   0.04138   0.04439   0.05007
 Alpha virt. eigenvalues --    0.05360   0.05715   0.06257   0.06909   0.07174
 Alpha virt. eigenvalues --    0.07568   0.07692   0.08219   0.09183   0.09545

 Mulliken charges:
               1
     1  C    1.264166
     2  C    0.639520
     3  C    1.076193
     4  C    0.044560
     5  C    0.774378
     6  C   -0.155049
     7  C    0.953432
     8  C    0.024141
     9  C    0.706655
    10  C    0.687476
    11  C   -0.456289
    12  H   -0.029205
    13  H    0.186363
    14  H   -0.548071
    15  H    0.159088
    16  H   -0.078477
    17  H   -0.050712
    18  H   -0.626380
    19  H   -0.107470
    20  H   -0.154752
    21  H   -0.260983
    22  H   -0.218081
    23  H   -0.307738
    24  H   -0.347967
    25  H   -0.258820
    26  O   -0.738051
    27  O   -0.724798
    28  O   -0.743784
    29  O   -0.709343
 Sum of Mulliken charges =  -0.00000

 Dipole moment (field-independent basis, Debye):
    X=             -4.0445    Y=              3.4196    Z=              2.1591  Tot=              5.7196

 Test job not archived.
 1\1\GINC-SE365\SP\RHF\Aug-CC-pVDZ\C11H14O4\OHZDE\08-Apr-2025\0\\#t hf
 aug-cc-pvdz iop(5/13=1,5/36=2,99/5=2) pseudo=read geom=check guess=(re
 ad,tcheck) scf=(maxcycle=1)\\title\\0,1\C,0,5.11099,-0.00832287,1.0034
 1\C,0,-0.469211,1.38724,-0.251914\C,0,-1.80215,1.58109,0.0783814\C,0,-
 4.05792,0.352919,0.628141\C,0,-4.35465,-1.09976,0.342339\C,0,-2.58949,
 0.492743,0.239911\C,0,-0.844888,-1.0198,-0.454146\C,0,0.00858544,0.130
 107,-0.444299\C,0,2.27405,-0.253059,0.264057\C,0,3.5054,-0.593549,-0.6
 00389\C,0,-2.1708,-0.717075,-0.0894703\H,0,-4.79956,-1.70362,1.21495\H

 Normal termination of Gaussian 16 at Tue Apr  8 20:12:50 2025.
