 Gaussian 16, Revision C.01,

 ----------------------------------------------------------------------
 #t hf aug-cc-pvdz symm=none int=(grid=ultrafine) guess=(read,tcheck) s
 table=(opt,rrhf)
 ----------------------------------------------------------------------
 -----
 title
 -----
 Symbolic Z-matrix:
 Charge =  0 Multiplicity = 1

 SCF Done:  E(RHF) =  -869.489114513     A.U. after   15 cycles
 Normal termination of Gaussian 16 at Tue Apr  8 21:26:34 2025.
 Gaussian 16:  ES64L-G16RevC.01  3-Jul-2019

 ----------------------------------------------------------------------
 #t hf aug-cc-pvdz iop(5/13=1,5/36=2,99/5=2) pseudo=read geom=check gue
 ss=(read,tcheck) scf=(maxcycle=1)
 ----------------------------------------------------------------------
 -----
 title
 -----
 Structure from the checkpoint file:  "ANI1ccx_185_conf10_mol1.chk"
 Charge =  0 Multiplicity = 1

                         Standard orientation:
 ---------------------------------------------------------------------
 Center     Atomic      Atomic             Coordinates (Angstroms)
 Number     Number       Type             X           Y           Z
 ---------------------------------------------------------------------
      1          6           0        0.079783    1.287769   -0.967255
      2          6           0       -3.685540    0.021903    1.558650
      3          6           0       -3.078620   -0.631429    0.364236
      4          6           0       -0.952068   -1.823611   -0.565834
      5          6           0       -1.611660   -1.077430    0.643491
      6          6           0       -3.191270    0.264471   -0.915157
      7          6           0        3.312160   -0.314943   -0.788314
      8          6           0        2.424020    0.427406   -0.121485
      9          6           0        1.619551    1.563179   -0.809459
     10          6           0       -0.425188    1.156599    0.498452
     11          6           0        3.559540   -0.702565    1.338000
     12          1           0       -3.609050   -1.607270    0.218381
     13          1           0        0.674594   -2.233291   -1.399360
     14          1           0       -4.788560   -0.023124    1.451570
     15          1           0       -3.380970   -0.509687    2.415050
     16          1           0       -3.462869    1.105270    1.654750
     17          1           0       -2.604459    1.204840   -0.920190
     18          1           0       -2.985810   -0.391538   -1.754570
     19          1           0       -4.231969    0.596521   -1.053150
     20          1           0       -1.660530   -1.886200    1.412010
     21          1           0        4.080220   -1.032992    2.249570
     22          1           0        4.921260   -1.457482   -0.030722
     23          1           0        3.500070   -0.517993   -1.821270
     24          1           0        2.140131    1.779869   -1.777800
     25          1           0        1.690201    2.486349   -0.258047
     26          1           0       -0.134224    0.395525   -1.505670
     27          1           0       -1.445909    2.459769   -1.648420
     28          1           0       -0.359070    3.249339   -0.702532
     29          1           0       -0.681625    0.047640    2.071480
     30          7           0       -0.450914    2.550749   -1.520090
     31          7           0        2.570680    0.182256    1.266870
     32          7           0        4.037780   -1.048422    0.167594
     33          7           0       -0.777519    0.003299    1.043580
     34          8           0       -1.590140   -2.515941   -1.358500
     35          8           0       -0.464328    2.230839    1.115600
     36          8           0        0.351233   -1.778501   -0.596941
 ---------------------------------------------------------------------

 SCF Done:  E(RHF) =  -869.747871432     A.U. after    2 cycles

 The electronic state is 1-A.
 Alpha  occ. eigenvalues --  -20.64134 -20.56624 -20.53012 -15.68190 -15.64781
 Alpha  occ. eigenvalues --  -15.61178 -15.60357 -11.41020 -11.35870 -11.32256
 Alpha  occ. eigenvalues --  -11.31479 -11.27780 -11.26562 -11.26133 -11.25819
 Alpha  occ. eigenvalues --  -11.24727 -11.23471 -11.22858  -1.44938  -1.34116
 Alpha  occ. eigenvalues --   -1.32386  -1.31588  -1.22272  -1.14806  -1.12860
 Alpha  occ. eigenvalues --   -1.08336  -1.03455  -0.99301  -0.96753  -0.94120
 Alpha  occ. eigenvalues --   -0.89013  -0.86497  -0.82648  -0.80706  -0.77678
 Alpha  occ. eigenvalues --   -0.76066  -0.74304  -0.72863  -0.72241  -0.71187
 Alpha  occ. eigenvalues --   -0.67791  -0.65718  -0.64672  -0.63645  -0.62710
 Alpha  occ. eigenvalues --   -0.61599  -0.60504  -0.60329  -0.59264  -0.58815
 Alpha  occ. eigenvalues --   -0.56677  -0.56283  -0.55329  -0.53625  -0.52850
 Alpha  occ. eigenvalues --   -0.51833  -0.50555  -0.50265  -0.49613  -0.48703
 Alpha  occ. eigenvalues --   -0.48196  -0.46410  -0.43872  -0.42731  -0.39560
 Alpha  occ. eigenvalues --   -0.39103  -0.37860  -0.32893
 Alpha virt. eigenvalues --    0.01930   0.02954   0.03248   0.04107   0.04695
 Alpha virt. eigenvalues --    0.04858   0.05694   0.06059   0.06504   0.07060
 Alpha virt. eigenvalues --    0.07461   0.07773   0.08471   0.08624   0.09145

 Mulliken charges:
               1
     1  C    0.679966
     2  C    1.012442
     3  C   -1.044672
     4  C    0.758350
     5  C    0.158616
     6  C    1.136944
     7  C    1.242890
     8  C    0.553642
     9  C    0.456934
    10  C    0.439333
    11  C    0.587002
    12  H   -0.154280
    13  H    0.270761
    14  H    0.041135
    15  H   -0.169534
    16  H    0.071582
    17  H   -0.271784
    18  H   -0.093734
    19  H   -0.120361
    20  H   -0.001380
    21  H   -0.320984
    22  H   -0.095107
    23  H   -0.434794
    24  H   -0.083254
    25  H   -0.090224
    26  H   -0.561469
    27  H   -0.080584
    28  H    0.242921
    29  H    0.001222
    30  N   -0.421332
    31  N   -0.863655
    32  N   -0.488705
    33  N   -0.413978
    34  O   -0.601462
    35  O   -0.723691
    36  O   -0.618758
 Sum of Mulliken charges =  -0.00000

 Dipole moment (field-independent basis, Debye):
    X=              2.6939    Y=             -4.3889    Z=             -0.0669  Tot=              5.1501

 Test job not archived.
 1\1\GINC-SE365\SP\RHF\Aug-CC-pVDZ\C11H18N4O3\OHZDE\08-Apr-2025\0\\#t h
 f aug-cc-pvdz iop(5/13=1,5/36=2,99/5=2) pseudo=read geom=check guess=(
 read,tcheck) scf=(maxcycle=1)\\title\\0,1\C,0,0.0797819,1.28777,-0.967
 255\C,0,-3.68554,0.021903,1.55865\C,0,-3.07862,-0.631429,0.364236\C,0,
 -0.952068,-1.82361,-0.565834\C,0,-1.61166,-1.07743,0.643491\C,0,-3.191
 27,0.264471,-0.915157\C,0,3.31216,-0.314941,-0.788314\C,0,2.42402,0.42
 7407,-0.121485\C,0,1.61955,1.56318,-0.809459\C,0,-0.425189,1.1566,0.49
 8452\C,0,3.55954,-0.702563,1.338\H,0,-3.60905,-1.60727,0.218381\H,0,0.

 Normal termination of Gaussian 16 at Tue Apr  8 21:27:30 2025.
