 Gaussian 16, Revision C.01,

 ----------------------------------------------------------------------
 #t hf aug-cc-pvdz symm=none int=(grid=ultrafine) guess=(read,tcheck) s
 table=(opt,rrhf)
 ----------------------------------------------------------------------
 -----
 title
 -----
 Symbolic Z-matrix:
 Charge =  0 Multiplicity = 1

 SCF Done:  E(RHF) =  -565.481591882     A.U. after   14 cycles
 Normal termination of Gaussian 16 at Tue Apr  8 19:23:48 2025.
 Gaussian 16:  ES64L-G16RevC.01  3-Jul-2019

 ----------------------------------------------------------------------
 #t hf aug-cc-pvdz iop(5/13=1,5/36=2,99/5=2) pseudo=read geom=check gue
 ss=(read,tcheck) scf=(maxcycle=1)
 ----------------------------------------------------------------------
 -----
 title
 -----
 Structure from the checkpoint file:  "ANI1ccx_1346_conf1_mol1.chk"
 Charge =  0 Multiplicity = 1

                         Standard orientation:
 ---------------------------------------------------------------------
 Center     Atomic      Atomic             Coordinates (Angstroms)
 Number     Number       Type             X           Y           Z
 ---------------------------------------------------------------------
      1          6           0        2.304980   -0.060709   -0.676933
      2          6           0        1.034870   -0.069916    0.122277
      3          6           0        1.428929   -0.289453    1.631430
      4          6           0        0.333740    1.260380   -0.085515
      5          6           0       -1.802940    0.087307    0.112974
      6          6           0        0.097786   -1.215370   -0.223258
      7          1           0       -1.722941   -1.938349    0.152294
      8          1           0       -1.518480    2.010251   -0.167492
      9          1           0        0.532834   -0.249872    2.280200
     10          1           0        1.858989   -1.280130    1.677200
     11          1           0        2.165850    0.470518    1.978160
     12          1           0        2.121550    0.014230   -1.752580
     13          1           0        2.947749   -0.931214   -0.536264
     14          1           0        2.934420    0.891903   -0.511619
     15          7           0       -1.034010    1.186041    0.104455
     16          7           0       -1.158961   -1.110079    0.318702
     17          8           0        0.845586    2.293130   -0.466841
     18          8           0       -3.037270    0.193797   -0.140649
     19          8           0        0.397514   -2.210990   -0.813487
 ---------------------------------------------------------------------

 SCF Done:  E(RHF) =  -565.652718594     A.U. after    2 cycles

 The electronic state is 1-A.
 Alpha  occ. eigenvalues --  -20.59609 -20.59349 -20.57048 -15.70662 -15.70637
 Alpha  occ. eigenvalues --  -11.44759 -11.41792 -11.41257 -11.31119 -11.28093
 Alpha  occ. eigenvalues --  -11.25468  -1.42974  -1.40610  -1.37846  -1.27240
 Alpha  occ. eigenvalues --   -1.23321  -1.13246  -0.96565  -0.95501  -0.91192
 Alpha  occ. eigenvalues --   -0.89812  -0.79590  -0.78610  -0.71789  -0.71173
 Alpha  occ. eigenvalues --   -0.69392  -0.67692  -0.66131  -0.65703  -0.61390
 Alpha  occ. eigenvalues --   -0.59899  -0.58962  -0.57698  -0.55865  -0.54176
 Alpha  occ. eigenvalues --   -0.52146  -0.51631  -0.48783  -0.46870  -0.46573
 Alpha  occ. eigenvalues --   -0.45555
 Alpha virt. eigenvalues --    0.02862   0.03902   0.04256   0.04339   0.06196
 Alpha virt. eigenvalues --    0.06459   0.06644   0.07369   0.08482   0.08994
 Alpha virt. eigenvalues --    0.10359   0.10979   0.11340   0.12082   0.13005

 Mulliken charges:
               1
     1  C    1.196721
     2  C   -1.966095
     3  C    0.845657
     4  C    0.672682
     5  C    0.665290
     6  C    0.508242
     7  H   -0.020436
     8  H   -0.081842
     9  H   -0.004452
    10  H   -0.004501
    11  H    0.038500
    12  H   -0.075164
    13  H   -0.051391
    14  H    0.130605
    15  N   -0.176706
    16  N   -0.261376
    17  O   -0.434804
    18  O   -0.534905
    19  O   -0.446024
 Sum of Mulliken charges =  -0.00000

 Dipole moment (field-independent basis, Debye):
    X=              2.1077    Y=             -0.6023    Z=              2.5651  Tot=              3.3741

 Test job not archived.
 1\1\GINC-SE195\SP\RHF\Aug-CC-pVDZ\C6H8N2O3\OHZDE\08-Apr-2025\0\\#t hf
 aug-cc-pvdz iop(5/13=1,5/36=2,99/5=2) pseudo=read geom=check guess=(re
 ad,tcheck) scf=(maxcycle=1)\\title\\0,1\C,0,2.30498,-0.0607088,-0.6769
 33\C,0,1.03487,-0.0699157,0.122277\C,0,1.42893,-0.289453,1.63143\C,0,0
 .33374,1.26038,-0.085515\C,0,-1.80294,0.0873057,0.112974\C,0,0.0977871
 ,-1.21537,-0.223258\H,0,-1.72294,-1.93835,0.152294\H,0,-1.51848,2.0102
 5,-0.167492\H,0,0.532835,-0.249872,2.2802\H,0,1.85899,-1.28013,1.6772\
 H,0,2.16585,0.470518,1.97816\H,0,2.12155,0.0142303,-1.75258\H,0,2.9477

 Normal termination of Gaussian 16 at Tue Apr  8 19:24:00 2025.
