 Gaussian 16, Revision C.01,

 ----------------------------------------------------------------------
 #t hf aug-cc-pvdz symm=none int=(grid=ultrafine) guess=(read,tcheck) s
 table=(opt,rrhf)
 ----------------------------------------------------------------------
 -----
 title
 -----
 Symbolic Z-matrix:
 Charge =  0 Multiplicity = 1

 SCF Done:  E(RHF) =  -366.847429298     A.U. after   15 cycles
 Normal termination of Gaussian 16 at Tue Apr  8 21:34:45 2025.
 Gaussian 16:  ES64L-G16RevC.01  3-Jul-2019

 ----------------------------------------------------------------------
 #t hf aug-cc-pvdz iop(5/13=1,5/36=2,99/5=2) pseudo=read geom=check gue
 ss=(read,tcheck) scf=(maxcycle=1)
 ----------------------------------------------------------------------
 -----
 title
 -----
 Structure from the checkpoint file:  "ANI1ccx_404_conf1_mol1.chk"
 Charge =  0 Multiplicity = 1

                         Standard orientation:
 ---------------------------------------------------------------------
 Center     Atomic      Atomic             Coordinates (Angstroms)
 Number     Number       Type             X           Y           Z
 ---------------------------------------------------------------------
      1          6           0       -0.520064   -0.557475   -0.021264
      2          1           0       -2.418610   -0.016117    0.290298
      3          1           0       -2.153622   -1.738743    0.220086
      4          1           0        0.107318    2.428970    0.813094
      5          1           0       -0.453030    2.425554   -0.793058
      6          7           0       -1.881885   -0.790178   -0.073149
      7          7           0        0.455853   -1.448773    0.038082
      8          7           0        1.603925   -0.771582    0.062736
      9          7           0        1.404204    0.473046   -0.072337
     10          7           0        0.073392    0.658169   -0.113432
     11          7           0       -0.507156    1.914344    0.100551
 ---------------------------------------------------------------------

 SCF Done:  E(RHF) =  -366.950698169     A.U. after    2 cycles

 The electronic state is 1-A.
 Alpha  occ. eigenvalues --  -15.75244 -15.71304 -15.70530 -15.70412 -15.67435
 Alpha  occ. eigenvalues --  -15.64335 -11.37971  -1.45784  -1.28425  -1.23339
 Alpha  occ. eigenvalues --   -1.12844  -1.08554  -0.88436  -0.84197  -0.75254
 Alpha  occ. eigenvalues --   -0.73994  -0.70723  -0.68284  -0.63823  -0.56350
 Alpha  occ. eigenvalues --   -0.51631  -0.51100  -0.45623  -0.43335  -0.42688
 Alpha  occ. eigenvalues --   -0.35890
 Alpha virt. eigenvalues --    0.02241   0.03055   0.04209   0.06075   0.10350
 Alpha virt. eigenvalues --    0.10648   0.11163   0.11811   0.14141   0.14687
 Alpha virt. eigenvalues --    0.15927   0.16283   0.16595   0.17296   0.17905

 Mulliken charges:
               1
     1  C    1.030175
     2  H    0.039140
     3  H    0.057389
     4  H    0.197436
     5  H    0.146020
     6  N   -0.312244
     7  N   -0.392344
     8  N   -0.199119
     9  N   -0.289508
    10  N   -0.190044
    11  N   -0.086902
 Sum of Mulliken charges =  -0.00000

 Dipole moment (field-independent basis, Debye):
    X=             -4.3847    Y=              3.4699    Z=              0.6424  Tot=              5.6283

 Test job not archived.
 1\1\GINC-SE455\SP\RHF\Aug-CC-pVDZ\C1H4N6\OHZDE\08-Apr-2025\0\\#t hf au
 g-cc-pvdz iop(5/13=1,5/36=2,99/5=2) pseudo=read geom=check guess=(read
 ,tcheck) scf=(maxcycle=1)\\title\\0,1\C,0,-0.52006,-0.557479,-0.021263
 6\H,0,-2.41861,-0.0161351,0.290298\H,0,-2.15361,-1.73876,0.220086\H,0,
 0.107299,2.42897,0.813094\H,0,-0.453049,2.42555,-0.793058\N,0,-1.88188
 ,-0.790193,-0.0731487\N,0,0.455863,-1.44877,0.0380818\N,0,1.60393,-0.7
 71571,0.0627356\N,0,1.4042,0.473056,-0.0723367\N,0,0.0733867,0.658169,
 -0.113432\N,0,-0.507171,1.91434,0.100551\\Version=ES64L-G16RevC.01\Sta

 Normal termination of Gaussian 16 at Tue Apr  8 21:34:49 2025.
