 Gaussian 16, Revision C.01,

 ----------------------------------------------------------------------
 #t hf aug-cc-pvdz symm=none int=(grid=ultrafine) guess=(read,tcheck) s
 table=(opt,rrhf)
 ----------------------------------------------------------------------
 -----
 title
 -----
 Symbolic Z-matrix:
 Charge =  0 Multiplicity = 1

 SCF Done:  E(RHF) =  -791.399891620     A.U. after   16 cycles
 Normal termination of Gaussian 16 at Tue Apr  8 20:39:56 2025.
 Gaussian 16:  ES64L-G16RevC.01  3-Jul-2019

 ----------------------------------------------------------------------
 #t hf aug-cc-pvdz iop(5/13=1,5/36=2,99/5=2) pseudo=read geom=check gue
 ss=(read,tcheck) scf=(maxcycle=1)
 ----------------------------------------------------------------------
 -----
 title
 -----
 Structure from the checkpoint file:  "ANI1ccx_1745_conf8_mol1.chk"
 Charge =  0 Multiplicity = 1

                         Standard orientation:
 ---------------------------------------------------------------------
 Center     Atomic      Atomic             Coordinates (Angstroms)
 Number     Number       Type             X           Y           Z
 ---------------------------------------------------------------------
      1          6           0        0.452010    2.603530    0.148220
      2          6           0       -0.558436    1.637649   -0.276257
      3          6           0        1.612609    2.523871   -0.799554
      4          6           0       -1.230578   -0.655742   -0.124334
      5          6           0       -2.732188   -0.899145    0.032848
      6          6           0       -0.460329   -1.727950    0.459480
      7          6           0        1.017952   -1.487649    0.149997
      8          6           0        1.714263   -2.390499   -0.682156
      9          6           0        3.029622   -0.893891    0.220656
     10          1           0       -4.403869    0.177892    0.015032
     11          1           0        3.838903   -2.322447   -1.009700
     12          1           0        3.861971   -0.281113    0.492390
     13          1           0        1.475154   -3.433639   -1.048530
     14          1           0       -0.671163   -2.653441   -0.073580
     15          1           0       -0.686986   -1.982191    1.459010
     16          1           0       -1.174279   -0.351985   -1.118590
     17          1           0        2.345919    3.350352   -0.423489
     18          1           0        2.152980    1.613512   -1.018300
     19          1           0        1.381019    2.834651   -1.835410
     20          1           0       -0.003185    3.547010    0.069422
     21          1           0        1.369389    2.941641    2.068800
     22          1           0        1.308800    1.228991    1.565680
     23          1           0       -0.477299    0.607534    1.452840
     24          7           0        0.887461    2.189771    1.532470
     25          7           0       -0.673810    0.554509    0.460762
     26          7           0        1.852622   -0.508906    0.624917
     27          7           0        3.011503   -2.009898   -0.500596
     28          8           0       -3.322827   -1.951473    0.295920
     29          8           0       -1.058930    1.797029   -1.373300
     30          8           0       -3.484659    0.264925   -0.196599
 ---------------------------------------------------------------------

 SCF Done:  E(RHF) =  -791.637563956     A.U. after    2 cycles

 The electronic state is 1-A.
 Alpha  occ. eigenvalues --  -20.60332 -20.57033 -20.51298 -15.70776 -15.63587
 Alpha  occ. eigenvalues --  -15.62908 -15.59569 -11.40645 -11.33232 -11.32328
 Alpha  occ. eigenvalues --  -11.29337 -11.28883 -11.28580 -11.26195 -11.25044
 Alpha  occ. eigenvalues --  -11.22391  -1.39451  -1.34450  -1.34173  -1.30472
 Alpha  occ. eigenvalues --   -1.22352  -1.16465  -1.13991  -1.07438  -1.01493
 Alpha  occ. eigenvalues --   -0.98394  -0.93420  -0.87590  -0.83946  -0.81923
 Alpha  occ. eigenvalues --   -0.80396  -0.79666  -0.76370  -0.72030  -0.70029
 Alpha  occ. eigenvalues --   -0.69768  -0.66926  -0.64480  -0.63561  -0.62577
 Alpha  occ. eigenvalues --   -0.61355  -0.61033  -0.60150  -0.59865  -0.58988
 Alpha  occ. eigenvalues --   -0.58166  -0.56751  -0.53659  -0.52963  -0.52201
 Alpha  occ. eigenvalues --   -0.50463  -0.49838  -0.49187  -0.47065  -0.45418
 Alpha  occ. eigenvalues --   -0.42280  -0.41773  -0.38986  -0.36607  -0.33132
 Alpha virt. eigenvalues --    0.01691   0.02916   0.03525   0.04210   0.05014
 Alpha virt. eigenvalues --    0.05429   0.06199   0.06569   0.07199   0.07627
 Alpha virt. eigenvalues --    0.08135   0.08712   0.08889   0.10069   0.10374

 Mulliken charges:
               1
     1  C    0.606265
     2  C    0.233063
     3  C    0.452101
     4  C    0.034106
     5  C    0.891562
     6  C    0.993700
     7  C    0.000042
     8  C    0.836203
     9  C    0.656818
    10  H    0.180075
    11  H   -0.065987
    12  H   -0.369782
    13  H   -0.269760
    14  H   -0.096892
    15  H   -0.156409
    16  H   -0.299389
    17  H    0.115080
    18  H   -0.329648
    19  H   -0.014489
    20  H   -0.117559
    21  H   -0.040307
    22  H    0.217881
    23  H   -0.031427
    24  N   -0.471850
    25  N   -0.155125
    26  N   -0.567980
    27  N   -0.420920
    28  O   -0.532661
    29  O   -0.661270
    30  O   -0.615443
 Sum of Mulliken charges =  -0.00000

 Dipole moment (field-independent basis, Debye):
    X=              6.3583    Y=             -2.2150    Z=              1.2580  Tot=              6.8496

 Test job not archived.
 1\1\GINC-SE398\SP\RHF\Aug-CC-pVDZ\C9H14N4O3\OHZDE\08-Apr-2025\0\\#t hf
  aug-cc-pvdz iop(5/13=1,5/36=2,99/5=2) pseudo=read geom=check guess=(r
 ead,tcheck) scf=(maxcycle=1)\\title\\0,1\C,0,0.452011,2.60353,0.14822\
 C,0,-0.558436,1.63765,-0.276257\C,0,1.61261,2.52387,-0.799554\C,0,-1.2
 3058,-0.655741,-0.124334\C,0,-2.73219,-0.899143,0.0328485\C,0,-0.46033
 1,-1.72795,0.45948\C,0,1.01795,-1.48765,0.149997\C,0,1.71426,-2.3905,-
 0.682156\C,0,3.02962,-0.893893,0.220656\H,0,-4.40387,0.177895,0.015031
 9\H,0,3.8389,-2.32245,-1.0097\H,0,3.86197,-0.281116,0.49239\H,0,1.4751

 Normal termination of Gaussian 16 at Tue Apr  8 20:40:37 2025.
