 Gaussian 16, Revision C.01,

 ----------------------------------------------------------------------
 #t hf aug-cc-pvdz symm=none int=(grid=ultrafine) guess=(read,tcheck) s
 table=(opt,rrhf)
 ----------------------------------------------------------------------
 -----
 title
 -----
 Symbolic Z-matrix:
 Charge =  0 Multiplicity = 1

 SCF Done:  E(RHF) =  -280.723719144     A.U. after   16 cycles
 Normal termination of Gaussian 16 at Tue Apr  8 21:10:17 2025.
 Gaussian 16:  ES64L-G16RevC.01  3-Jul-2019

 ----------------------------------------------------------------------
 #t hf aug-cc-pvdz iop(5/13=1,5/36=2,99/5=2) pseudo=read geom=check gue
 ss=(read,tcheck) scf=(maxcycle=1)
 ----------------------------------------------------------------------
 -----
 title
 -----
 Structure from the checkpoint file:  "ANI1ccx_1870_conf3_mol2.chk"
 Charge =  0 Multiplicity = 1

                         Standard orientation:
 ---------------------------------------------------------------------
 Center     Atomic      Atomic             Coordinates (Angstroms)
 Number     Number       Type             X           Y           Z
 ---------------------------------------------------------------------
      1          1           0       -0.383666    0.093918   -0.116398
      2          1           0       -3.834250   -0.501231    0.367627
      3          1           0       -3.346250    0.921000    0.299724
      4          7           0        1.425270    0.473753   -0.089987
      5          8           0        0.401151   -0.476879   -0.072796
      6          8           0        2.451540   -0.045648    0.124542
      7          8           0       -3.154280    0.043783   -0.041876
 ---------------------------------------------------------------------

 SCF Done:  E(RHF) =  -280.814301667     A.U. after    2 cycles

 The electronic state is 1-A.
 Alpha  occ. eigenvalues --  -20.66272 -20.64497 -20.60199 -15.85029  -1.55073
 Alpha  occ. eigenvalues --   -1.36310  -1.33482  -0.92670  -0.79174  -0.74882
 Alpha  occ. eigenvalues --   -0.73293  -0.69063  -0.62955  -0.62269  -0.55028
 Alpha  occ. eigenvalues --   -0.53549  -0.46398
 Alpha virt. eigenvalues --    0.02515   0.05010   0.06878   0.09057   0.11989
 Alpha virt. eigenvalues --    0.12998   0.14704   0.17386   0.18747   0.19365
 Alpha virt. eigenvalues --    0.21457   0.22969   0.23382   0.24070   0.25280

 Mulliken charges:
               1
     1  H    0.253475
     2  H    0.158600
     3  H    0.139768
     4  N    0.508369
     5  O   -0.433771
     6  O   -0.327891
     7  O   -0.298550
 Sum of Mulliken charges =  -0.00000

 Dipole moment (field-independent basis, Debye):
    X=             -4.0984    Y=              1.8438    Z=              1.0821  Tot=              4.6225

 Test job not archived.
 1\1\GINC-SE016\SP\RHF\Aug-CC-pVDZ\H3N1O3\OHZDE\08-Apr-2025\0\\#t hf au
 g-cc-pvdz iop(5/13=1,5/36=2,99/5=2) pseudo=read geom=check guess=(read
 ,tcheck) scf=(maxcycle=1)\\title\\0,1\H,0,-0.383666,0.0939182,-0.11639
 8\H,0,-3.83425,-0.501231,0.367627\H,0,-3.34625,0.921,0.299724\N,0,1.42
 527,0.473753,-0.0899865\O,0,0.401151,-0.476879,-0.0727961\O,0,2.45154,
 -0.0456478,0.124542\O,0,-3.15428,0.0437825,-0.0418762\\Version=ES64L-G
 16RevC.01\State=1-A\HF=-280.8143017\RMSD=2.696e-03\Dipole=-1.6124217,0
 .7254094,0.425737\Quadrupole=3.2533202,-1.3936332,-1.859687,-0.6395953

 Normal termination of Gaussian 16 at Tue Apr  8 21:10:18 2025.
