 Gaussian 16, Revision C.01,

 ----------------------------------------------------------------------
 #t hf aug-cc-pvdz symm=none int=(grid=ultrafine) guess=(read,tcheck) s
 table=(opt,rrhf)
 ----------------------------------------------------------------------
 -----
 title
 -----
 Symbolic Z-matrix:
 Charge =  0 Multiplicity = 1

 SCF Done:  E(RHF) =  -962.234741887     A.U. after   14 cycles
 Normal termination of Gaussian 16 at Tue Apr  8 20:48:20 2025.
 Gaussian 16:  ES64L-G16RevC.01  3-Jul-2019

 ----------------------------------------------------------------------
 #t hf aug-cc-pvdz iop(5/13=1,5/36=2,99/5=2) pseudo=read geom=check gue
 ss=(read,tcheck) scf=(maxcycle=1)
 ----------------------------------------------------------------------
 -----
 title
 -----
 Structure from the checkpoint file:  "ANI1ccx_1756_conf16_mol1.chk"
 Charge =  0 Multiplicity = 1

                         Standard orientation:
 ---------------------------------------------------------------------
 Center     Atomic      Atomic             Coordinates (Angstroms)
 Number     Number       Type             X           Y           Z
 ---------------------------------------------------------------------
      1          6           0       -0.788343   -1.003880   -0.051153
      2          6           0        0.448962   -1.467430    0.744678
      3          6           0       -2.052899   -1.664521    0.570956
      4          6           0       -3.242099   -1.182451   -0.229578
      5          6           0       -3.402780    0.316951   -0.285616
      6          6           0        2.072330    0.285587   -0.178137
      7          6           0        3.525730    0.032174   -0.611644
      8          6           0        1.802780    1.564360    0.648623
      9          6           0        0.289085    1.915290    0.517981
     10          1           0        2.935741   -1.687670   -1.108949
     11          1           0       -1.369950    1.551659    1.476361
     12          1           0        2.441800    2.347250    0.261788
     13          1           0        2.048660    1.321850    1.777991
     14          1           0        1.593460    0.329955   -1.178839
     15          1           0        2.200571   -1.181200    1.368701
     16          1           0       -4.460700    1.719379   -1.246119
     17          1           0       -4.579940    0.138775   -1.903749
     18          1           0       -3.243999   -1.547181   -1.233199
     19          1           0       -4.190789   -1.500171    0.160068
     20          1           0       -2.243499   -1.368361    1.629111
     21          1           0       -1.984759   -2.749511    0.589489
     22          1           0       -1.037120    0.036448    0.064538
     23          1           0       -1.225910   -0.772079   -2.053709
     24          1           0       -0.354214   -2.172630   -1.674639
     25          7           0       -0.473845   -1.187650   -1.459359
     26          7           0       -3.999160    0.832611   -1.445349
     27          7           0        1.742590   -0.946270    0.509108
     28          8           0        0.351107   -2.266870    1.652721
     29          8           0       -2.863790    1.088539    0.518690
     30          8           0        4.345890    0.925964   -0.588336
     31          8           0       -0.151327    2.521180   -0.457193
     32          8           0       -0.391270    1.667390    1.615301
     33          8           0        3.792761   -1.202930   -1.105719
 ---------------------------------------------------------------------

 SCF Done:  E(RHF) =  -962.525105807     A.U. after    2 cycles

 The electronic state is 1-A.
 Alpha  occ. eigenvalues --  -20.62948 -20.61770 -20.58349 -20.56495 -20.56284
 Alpha  occ. eigenvalues --  -20.55695 -15.68543 -15.66418 -15.65098 -11.41109
 Alpha  occ. eigenvalues --  -11.40292 -11.40279 -11.38538 -11.32070 -11.30372
 Alpha  occ. eigenvalues --  -11.27972 -11.27585 -11.26480  -1.41980  -1.41722
 Alpha  occ. eigenvalues --   -1.38323  -1.37935  -1.32822  -1.31187  -1.22302
 Alpha  occ. eigenvalues --   -1.20901  -1.19515  -1.08886  -1.05061  -0.98486
 Alpha  occ. eigenvalues --   -0.95475  -0.89002  -0.85166  -0.82714  -0.80584
 Alpha  occ. eigenvalues --   -0.79431  -0.75329  -0.74088  -0.73788  -0.72260
 Alpha  occ. eigenvalues --   -0.70500  -0.70010  -0.68382  -0.67577  -0.67351
 Alpha  occ. eigenvalues --   -0.66364  -0.65938  -0.64654  -0.63588  -0.62229
 Alpha  occ. eigenvalues --   -0.61134  -0.60457  -0.59464  -0.58828  -0.56400
 Alpha  occ. eigenvalues --   -0.55553  -0.55113  -0.54205  -0.53396  -0.51890
 Alpha  occ. eigenvalues --   -0.49739  -0.49355  -0.48317  -0.47826  -0.46388
 Alpha  occ. eigenvalues --   -0.45913  -0.45349  -0.42781  -0.40836
 Alpha virt. eigenvalues --    0.01004   0.02569   0.03084   0.03962   0.05084
 Alpha virt. eigenvalues --    0.05313   0.05547   0.06485   0.06694   0.07418
 Alpha virt. eigenvalues --    0.07855   0.08338   0.09057   0.09275   0.09779

 Mulliken charges:
               1
     1  C    0.448761
     2  C    0.327739
     3  C    0.981257
     4  C    0.630502
     5  C    0.480317
     6  C   -0.265190
     7  C    0.876022
     8  C    0.509495
     9  C    1.017607
    10  H    0.255845
    11  H    0.322543
    12  H   -0.051816
    13  H    0.185198
    14  H   -0.044207
    15  H   -0.052105
    16  H    0.038382
    17  H    0.061501
    18  H   -0.264674
    19  H   -0.072023
    20  H   -0.024852
    21  H   -0.218201
    22  H   -0.700704
    23  H    0.113835
    24  H    0.046480
    25  N   -0.555780
    26  N   -0.232977
    27  N   -0.444982
    28  O   -0.546362
    29  O   -0.635556
    30  O   -0.494396
    31  O   -0.619370
    32  O   -0.542664
    33  O   -0.529625
 Sum of Mulliken charges =  -0.00000

 Dipole moment (field-independent basis, Debye):
    X=             -9.2013    Y=             -3.9673    Z=             -2.3376  Tot=             10.2892

 Test job not archived.
 1\1\GINC-SE179\SP\RHF\Aug-CC-pVDZ\C9H15N3O6\OHZDE\08-Apr-2025\0\\#t hf
  aug-cc-pvdz iop(5/13=1,5/36=2,99/5=2) pseudo=read geom=check guess=(r
 ead,tcheck) scf=(maxcycle=1)\\title\\0,1\C,0,-0.788343,-1.00388,-0.051
 1542\C,0,0.448961,-1.46743,0.744677\C,0,-2.0529,-1.66452,0.570955\C,0,
 -3.2421,-1.18245,-0.229579\C,0,-3.40278,0.316952,-0.285617\C,0,2.07233
 ,0.285587,-0.178138\C,0,3.52573,0.0321733,-0.611645\C,0,1.80278,1.5643
 6,0.648622\C,0,0.289085,1.91529,0.51798\H,0,2.93574,-1.68767,-1.10895\
 H,0,-1.36995,1.55166,1.47636\H,0,2.4418,2.34725,0.261787\H,0,2.04866,1

 Normal termination of Gaussian 16 at Tue Apr  8 20:49:17 2025.
