 Gaussian 16, Revision C.01,

 ----------------------------------------------------------------------
 #t hf aug-cc-pvdz symm=none int=(grid=ultrafine) guess=(read,tcheck) s
 table=(opt,rrhf)
 ----------------------------------------------------------------------
 -----
 title
 -----
 Symbolic Z-matrix:
 Charge =  0 Multiplicity = 1

 SCF Done:  E(RHF) =  -581.854872659     A.U. after   19 cycles
 Normal termination of Gaussian 16 at Tue Apr  8 20:53:31 2025.
 Gaussian 16:  ES64L-G16RevC.01  3-Jul-2019

 ----------------------------------------------------------------------
 #t hf aug-cc-pvdz iop(5/13=1,5/36=2,99/5=2) pseudo=read geom=check gue
 ss=(read,tcheck) scf=(maxcycle=1)
 ----------------------------------------------------------------------
 -----
 title
 -----
 Structure from the checkpoint file:  "ANI1ccx_1808_conf3_mol1.chk"
 Charge =  0 Multiplicity = 1

                         Standard orientation:
 ---------------------------------------------------------------------
 Center     Atomic      Atomic             Coordinates (Angstroms)
 Number     Number       Type             X           Y           Z
 ---------------------------------------------------------------------
      1          6           0       -1.818988    1.691891    0.358705
      2          6           0        2.912260   -0.901977    0.578995
      3          6           0        3.408621    0.271299    0.079981
      4          6           0        2.614591    1.164688   -0.504252
      5          6           0        1.603800   -1.209281    0.387318
      6          6           0        0.731238   -0.291099   -0.196712
      7          6           0       -0.682778   -0.624519   -0.226482
      8          6           0       -1.737409    0.301360    0.080346
      9          6           0        1.260041    0.897195   -0.646621
     10          1           0        0.580080    1.612189   -1.084890
     11          1           0        2.980372    2.172428   -0.904357
     12          1           0        4.482821    0.392268    0.324612
     13          1           0        3.442949   -1.675883    1.290250
     14          1           0        1.084579   -2.089791    0.784305
     15          7           0       -1.179021   -1.836219   -0.306655
     16          7           0       -1.942687    2.847621    0.463979
     17          7           0       -2.883470   -0.326956    0.049103
     18          8           0       -2.535351   -1.624958   -0.165321
 ---------------------------------------------------------------------

 SCF Done:  E(RHF) =  -582.020606181     A.U. after    2 cycles

 The electronic state is 1-A.
 Alpha  occ. eigenvalues --  -20.72565 -15.77402 -15.75301 -15.68527 -11.36466
 Alpha  occ. eigenvalues --  -11.35132 -11.33093 -11.28473 -11.27773 -11.27399
 Alpha  occ. eigenvalues --  -11.27294 -11.27050 -11.26903  -1.52879  -1.24468
 Alpha  occ. eigenvalues --   -1.22869  -1.20128  -1.17886  -1.06323  -1.04578
 Alpha  occ. eigenvalues --   -0.94859  -0.91974  -0.86612  -0.83840  -0.79861
 Alpha  occ. eigenvalues --   -0.74287  -0.73160  -0.69919  -0.67450  -0.64374
 Alpha  occ. eigenvalues --   -0.61861  -0.61200  -0.58428  -0.57696  -0.55993
 Alpha  occ. eigenvalues --   -0.54881  -0.53490  -0.52382  -0.51774  -0.49232
 Alpha  occ. eigenvalues --   -0.47510  -0.43957  -0.37317  -0.36905
 Alpha virt. eigenvalues --    0.02539   0.03518   0.03764   0.04389   0.05599
 Alpha virt. eigenvalues --    0.06080   0.06669   0.07493   0.08525   0.08894
 Alpha virt. eigenvalues --    0.09683   0.10074   0.10616   0.11592   0.12038

 Mulliken charges:
               1
     1  C   -0.767111
     2  C    0.035156
     3  C    0.577899
     4  C    0.159863
     5  C    0.369175
     6  C    1.646085
     7  C   -0.335319
     8  C    1.791425
     9  C   -0.060179
    10  H   -0.584574
    11  H   -0.275277
    12  H   -0.340692
    13  H   -0.244233
    14  H   -0.502191
    15  N   -0.375907
    16  N   -0.151843
    17  N   -0.370579
    18  O   -0.571700
 Sum of Mulliken charges =  -0.00000

 Dipole moment (field-independent basis, Debye):
    X=              4.0541    Y=             -0.5797    Z=              0.0484  Tot=              4.0957

 Test job not archived.
 1\1\GINC-SE338\SP\RHF\Aug-CC-pVDZ\C9H5N3O1\OHZDE\08-Apr-2025\0\\#t hf
 aug-cc-pvdz iop(5/13=1,5/36=2,99/5=2) pseudo=read geom=check guess=(re
 ad,tcheck) scf=(maxcycle=1)\\title\\0,1\C,0,-1.81899,1.69189,0.358705\
 C,0,2.91226,-0.901975,0.578995\C,0,3.40862,0.271302,0.079981\C,0,2.614
 59,1.16469,-0.504252\C,0,1.6038,-1.20928,0.387318\C,0,0.731238,-0.2910
 98,-0.196712\C,0,-0.682778,-0.624519,-0.226482\C,0,-1.73741,0.301359,0
 .0803456\C,0,1.26004,0.897196,-0.646621\H,0,0.580078,1.61219,-1.08489\
 H,0,2.98037,2.17243,-0.904357\H,0,4.48282,0.392271,0.324612\H,0,3.4429

 Normal termination of Gaussian 16 at Tue Apr  8 20:53:42 2025.
