 Gaussian 16, Revision C.01,

 ----------------------------------------------------------------------
 #t hf aug-cc-pvdz symm=none int=(grid=ultrafine) guess=(read,tcheck) s
 table=(opt,rrhf)
 ----------------------------------------------------------------------
 -----
 title
 -----
 Symbolic Z-matrix:
 Charge =  0 Multiplicity = 1

 SCF Done:  E(RHF) =  -979.134184089     A.U. after   14 cycles
 Normal termination of Gaussian 16 at Tue Apr  8 21:33:03 2025.
 Gaussian 16:  ES64L-G16RevC.01  3-Jul-2019

 ----------------------------------------------------------------------
 #t hf aug-cc-pvdz iop(5/13=1,5/36=2,99/5=2) pseudo=read geom=check gue
 ss=(read,tcheck) scf=(maxcycle=1)
 ----------------------------------------------------------------------
 -----
 title
 -----
 Structure from the checkpoint file:  "ANI1ccx_36_conf17_mol2.chk"
 Charge =  0 Multiplicity = 1

                         Standard orientation:
 ---------------------------------------------------------------------
 Center     Atomic      Atomic             Coordinates (Angstroms)
 Number     Number       Type             X           Y           Z
 ---------------------------------------------------------------------
      1          6           0       -3.046031   -0.511187    0.135833
      2          6           0        2.070442    2.629209    0.253873
      3          6           0        1.902240    0.690992   -0.627608
      4          6           0        1.268119   -0.436344   -1.439150
      5          6           0        1.498978   -2.117031    0.471346
      6          6           0        3.079330    0.717619   -0.038037
      7          6           0       -1.875439    1.678152    0.233134
      8          6           0       -3.209319    0.986346   -0.050302
      9          6           0       -1.833241   -1.081388   -0.641436
     10          6           0        0.562612   -1.509170   -0.574761
     11          1           0        2.014319   -0.967723   -2.050080
     12          1           0        3.077037   -3.181962    0.637111
     13          1           0        3.946312    2.322177    1.089720
     14          1           0        1.738383    3.592659    0.683128
     15          1           0        3.910420   -0.002313    0.057761
     16          1           0        0.567171   -0.018866   -2.190280
     17          1           0        0.273290   -2.352120   -1.234600
     18          1           0       -0.574206   -0.613757    0.917724
     19          1           0       -0.389495    2.338601   -0.680578
     20          1           0       -3.969889    1.427764    0.622907
     21          1           0       -3.511069    1.171833   -1.085700
     22          1           0       -3.966581   -1.001756   -0.246584
     23          1           0       -2.344521   -0.329442    2.091170
     24          1           0       -2.857232   -1.880287    1.739130
     25          7           0       -2.994931   -0.884772    1.560740
     26          7           0       -0.652633   -1.074989    0.011416
     27          7           0        1.238121    1.898839   -0.474613
     28          7           0        3.184691    1.957538    0.552711
     29          8           0       -1.974791   -1.516208   -1.765070
     30          8           0       -1.299259    1.628251    1.272020
     31          8           0       -1.354598    2.222271   -0.873783
     32          8           0        1.363778   -2.047121    1.649330
     33          8           0        2.534017   -2.795232   -0.062487
 ---------------------------------------------------------------------

 SCF Done:  E(RHF) =  -979.429856042     A.U. after    2 cycles

 The electronic state is 1-A.
 Alpha  occ. eigenvalues --  -20.63699 -20.58558 -20.57860 -20.55227 -20.53285
 Alpha  occ. eigenvalues --  -15.70883 -15.64647 -15.63515 -15.60219 -11.41137
 Alpha  occ. eigenvalues --  -11.38378 -11.35687 -11.33782 -11.30769 -11.28722
 Alpha  occ. eigenvalues --  -11.28667 -11.27953 -11.26156 -11.25218  -1.44719
 Alpha  occ. eigenvalues --   -1.41330  -1.35203  -1.34620  -1.34481  -1.31464
 Alpha  occ. eigenvalues --   -1.21880  -1.16467  -1.15519  -1.07030  -1.02873
 Alpha  occ. eigenvalues --   -1.01918  -0.93522  -0.90090  -0.85463  -0.84912
 Alpha  occ. eigenvalues --   -0.80739  -0.80231  -0.78561  -0.76156  -0.73819
 Alpha  occ. eigenvalues --   -0.72767  -0.71318  -0.69201  -0.68302  -0.67503
 Alpha  occ. eigenvalues --   -0.66981  -0.65887  -0.64431  -0.63772  -0.63311
 Alpha  occ. eigenvalues --   -0.61507  -0.61452  -0.60797  -0.59433  -0.58770
 Alpha  occ. eigenvalues --   -0.56679  -0.55350  -0.54088  -0.53336  -0.52617
 Alpha  occ. eigenvalues --   -0.52087  -0.51434  -0.48854  -0.48019  -0.47183
 Alpha  occ. eigenvalues --   -0.45544  -0.44422  -0.41970  -0.40122  -0.37164
 Alpha  occ. eigenvalues --   -0.34958
 Alpha virt. eigenvalues --    0.01632   0.02781   0.04112   0.04432   0.04812
 Alpha virt. eigenvalues --    0.05257   0.05960   0.06498   0.07147   0.07312
 Alpha virt. eigenvalues --    0.07803   0.08622   0.09403   0.09758   0.09868

 Mulliken charges:
               1
     1  C    0.429457
     2  C    0.716006
     3  C   -0.112270
     4  C    0.503124
     5  C    0.909092
     6  C    1.204212
     7  C    0.706467
     8  C    0.267637
     9  C    0.470753
    10  C   -0.435295
    11  H   -0.041828
    12  H    0.219540
    13  H   -0.118242
    14  H   -0.276718
    15  H   -0.298411
    16  H   -0.033408
    17  H   -0.035160
    18  H    0.094201
    19  H    0.259564
    20  H    0.057389
    21  H   -0.067890
    22  H   -0.128857
    23  H    0.064955
    24  H    0.023895
    25  N   -0.323383
    26  N   -0.157644
    27  N   -0.643714
    28  N   -0.531342
    29  O   -0.599988
    30  O   -0.564653
    31  O   -0.490815
    32  O   -0.496834
    33  O   -0.569839
 Sum of Mulliken charges =  -0.00000

 Dipole moment (field-independent basis, Debye):
    X=              6.6331    Y=              1.4898    Z=              1.8028  Tot=              7.0333

 Test job not archived.
 1\1\GINC-SE457\SP\RHF\Aug-CC-pVDZ\C10H14N4O5\OHZDE\08-Apr-2025\0\\#t h
 f aug-cc-pvdz iop(5/13=1,5/36=2,99/5=2) pseudo=read geom=check guess=(
 read,tcheck) scf=(maxcycle=1)\\title\\0,1\C,0,-3.04603,-0.51119,0.1358
 33\C,0,2.07044,2.62921,0.253873\C,0,1.90224,0.690993,-0.627608\C,0,1.2
 6812,-0.436343,-1.43915\C,0,1.49898,-2.11703,0.471346\C,0,3.07933,0.71
 7621,-0.0380364\C,0,-1.87544,1.67815,0.233134\C,0,-3.20932,0.986343,-0
 .0503019\C,0,-1.83324,-1.08139,-0.641436\C,0,0.562613,-1.50917,-0.5747
 61\H,0,2.01432,-0.967722,-2.05008\H,0,3.07704,-3.18196,0.637111\H,0,3.

 Normal termination of Gaussian 16 at Tue Apr  8 21:33:55 2025.
