 Gaussian 16, Revision C.01,

 ----------------------------------------------------------------------
 #t hf aug-cc-pvdz symm=none int=(grid=ultrafine) guess=(read,tcheck) s
 table=(opt,rrhf)
 ----------------------------------------------------------------------
 -----
 title
 -----
 Symbolic Z-matrix:
 Charge =  0 Multiplicity = 1

 SCF Done:  E(RHF) =  -456.227366888     A.U. after   11 cycles
 Normal termination of Gaussian 16 at Tue Apr  8 21:07:41 2025.
 Gaussian 16:  ES64L-G16RevC.01  3-Jul-2019

 ----------------------------------------------------------------------
 #t hf aug-cc-pvdz iop(5/13=1,5/36=2,99/5=2) pseudo=read geom=check gue
 ss=(read,tcheck) scf=(maxcycle=1)
 ----------------------------------------------------------------------
 -----
 title
 -----
 Structure from the checkpoint file:  "ANI1ccx_1844_conf546_mol1.chk"
 Charge =  0 Multiplicity = 1

                         Standard orientation:
 ---------------------------------------------------------------------
 Center     Atomic      Atomic             Coordinates (Angstroms)
 Number     Number       Type             X           Y           Z
 ---------------------------------------------------------------------
      1          1           0        2.945090   -1.237669    1.464690
      2          1           0        0.065060   -1.205180   -0.856235
      3          1           0        1.406180   -1.748140   -1.168600
      4          1           0       -2.241601    0.796100    0.627767
      5          1           0       -2.690110    0.448027    2.111020
      6          1           0       -2.336340   -1.686161    0.222207
      7          1           0        2.266540   -0.641879    0.430825
      8          1           0       -2.202060   -0.670237   -0.967887
      9          1           0        2.009479    1.082370    0.147694
     10          1           0        1.206809    0.659758   -1.166040
     11          1           0       -0.121505    1.624160   -0.136419
     12          1           0       -1.365871    2.480289   -0.188264
     13          8           0       -2.451310    0.077670    1.223940
     14          8           0        1.485369    1.489360   -0.590435
     15          8           0        0.966303   -1.136390   -0.558735
     16          8           0       -1.903180   -1.548011   -0.689302
     17          8           0        3.117800   -0.456778    0.961817
     18          8           0       -1.082691    1.586469   -0.412382
 ---------------------------------------------------------------------

 SCF Done:  E(RHF) =  -456.377955189     A.U. after    2 cycles

 The electronic state is 1-A.
 Alpha  occ. eigenvalues --  -20.61124 -20.57907 -20.57616 -20.57240 -20.56960
 Alpha  occ. eigenvalues --  -20.56469  -1.35964  -1.32093  -1.30801  -1.30049
 Alpha  occ. eigenvalues --   -1.28437  -1.28149  -0.77098  -0.74613  -0.73060
 Alpha  occ. eigenvalues --   -0.71512  -0.70547  -0.69797  -0.65171  -0.62509
 Alpha  occ. eigenvalues --   -0.62171  -0.60391  -0.59095  -0.56288  -0.54996
 Alpha  occ. eigenvalues --   -0.53617  -0.52143  -0.51809  -0.51017  -0.50736
 Alpha virt. eigenvalues --    0.02600   0.03743   0.05010   0.05686   0.06668
 Alpha virt. eigenvalues --    0.07394   0.07576   0.08552   0.08908   0.10458
 Alpha virt. eigenvalues --    0.10979   0.12146   0.17696   0.17955   0.19226

 Mulliken charges:
               1
     1  H    0.155296
     2  H    0.176626
     3  H    0.232615
     4  H    0.234657
     5  H    0.184159
     6  H    0.304491
     7  H    0.276272
     8  H    0.207336
     9  H    0.219405
    10  H    0.345761
    11  H    0.301482
    12  H    0.186922
    13  O   -0.379601
    14  O   -0.589530
    15  O   -0.453416
    16  O   -0.534390
    17  O   -0.385160
    18  O   -0.482924
 Sum of Mulliken charges =  -0.00000

 Dipole moment (field-independent basis, Debye):
    X=             -2.0575    Y=             -0.4550    Z=              0.8439  Tot=              2.2699

 Test job not archived.
 1\1\GINC-SE454\SP\RHF\Aug-CC-pVDZ\H12O6\OHZDE\08-Apr-2025\0\\#t hf aug
 -cc-pvdz iop(5/13=1,5/36=2,99/5=2) pseudo=read geom=check guess=(read,
 tcheck) scf=(maxcycle=1)\\title\\0,1\H,0,2.94509,-1.23767,1.46469\H,0,
 0.0650599,-1.20518,-0.856235\H,0,1.40618,-1.74814,-1.1686\H,0,-2.2416,
 0.796101,0.627767\H,0,-2.69011,0.448028,2.11102\H,0,-2.33634,-1.68616,
 0.222207\H,0,2.26654,-0.641879,0.430825\H,0,-2.20206,-0.670236,-0.9678
 87\H,0,2.00948,1.08237,0.147694\H,0,1.20681,0.659758,-1.16604\H,0,-0.1
 21504,1.62416,-0.136419\H,0,-1.36587,2.48029,-0.188264\O,0,-2.45131,0.

 Normal termination of Gaussian 16 at Tue Apr  8 21:07:46 2025.
