 Gaussian 16, Revision C.01,

 ----------------------------------------------------------------------
 #t hf aug-cc-pvdz symm=none int=(grid=ultrafine) guess=(read,tcheck) s
 table=(opt,rrhf)
 ----------------------------------------------------------------------
 -----
 title
 -----
 Symbolic Z-matrix:
 Charge =  0 Multiplicity = 1

 SCF Done:  E(RHF) =  -485.241319496     A.U. after   15 cycles
 Normal termination of Gaussian 16 at Tue Apr  8 21:42:16 2025.
 Gaussian 16:  ES64L-G16RevC.01  3-Jul-2019

 ----------------------------------------------------------------------
 #t hf aug-cc-pvdz iop(5/13=1,5/36=2,99/5=2) pseudo=read geom=check gue
 ss=(read,tcheck) scf=(maxcycle=1)
 ----------------------------------------------------------------------
 -----
 title
 -----
 Structure from the checkpoint file:  "ANI1ccx_484_conf13_mol2.chk"
 Charge =  0 Multiplicity = 1

                         Standard orientation:
 ---------------------------------------------------------------------
 Center     Atomic      Atomic             Coordinates (Angstroms)
 Number     Number       Type             X           Y           Z
 ---------------------------------------------------------------------
      1          6           0       -1.400871   -0.038429   -0.051178
      2          6           0        0.688225    0.774950    0.113629
      3          1           0        2.297829   -0.551045   -0.728660
      4          1           0        2.448101   -1.706758    0.441829
      5          7           0        1.788630   -1.271819   -0.221438
      6          7           0        0.740715   -0.629489    0.475053
      7          8           0       -0.595787   -1.072251   -0.088967
      8          8           0       -2.611861   -0.111579   -0.105758
      9          8           0       -0.618593    1.057369    0.124059
     10          8           0        1.554307    1.519941   -0.162232
 ---------------------------------------------------------------------

 SCF Done:  E(RHF) =  -485.395041034     A.U. after    2 cycles

 The electronic state is 1-A.
 Alpha  occ. eigenvalues --  -20.70465 -20.70029 -20.64265 -20.60269 -15.81395
 Alpha  occ. eigenvalues --  -15.71454 -11.50059 -11.49679  -1.57687  -1.46744
 Alpha  occ. eigenvalues --   -1.42035  -1.38591  -1.29215  -1.08582  -0.96639
 Alpha  occ. eigenvalues --   -0.90732  -0.80467  -0.78250  -0.76367  -0.74214
 Alpha  occ. eigenvalues --   -0.70231  -0.69677  -0.66782  -0.64345  -0.61109
 Alpha  occ. eigenvalues --   -0.57174  -0.54760  -0.53384  -0.50899  -0.46433
 Alpha virt. eigenvalues --    0.02561   0.04405   0.06606   0.07242   0.09379
 Alpha virt. eigenvalues --    0.09998   0.10428   0.11302   0.11999   0.12513
 Alpha virt. eigenvalues --    0.13997   0.15225   0.15815   0.16878   0.18322

 Mulliken charges:
               1
     1  C    0.774170
     2  C    0.888353
     3  H    0.059042
     4  H    0.157535
     5  N    0.074537
     6  N   -0.384982
     7  O   -0.402930
     8  O   -0.389153
     9  O   -0.469360
    10  O   -0.307212
 Sum of Mulliken charges =  -0.00000

 Dipole moment (field-independent basis, Debye):
    X=              4.4248    Y=             -1.0702    Z=              0.7142  Tot=              4.6081

 Test job not archived.
 1\1\GINC-SE226\SP\RHF\Aug-CC-pVDZ\C2H2N2O4\OHZDE\08-Apr-2025\0\\#t hf
 aug-cc-pvdz iop(5/13=1,5/36=2,99/5=2) pseudo=read geom=check guess=(re
 ad,tcheck) scf=(maxcycle=1)\\title\\0,1\C,0,-1.40087,-0.0384269,-0.051
 1776\C,0,0.688227,0.77495,0.113629\H,0,2.29783,-0.551047,-0.72866\H,0,
 2.4481,-1.70676,0.441829\N,0,1.78863,-1.27182,-0.221438\N,0,0.740716,-
 0.629489,0.475053\O,0,-0.595787,-1.07225,-0.0889674\O,0,-2.61186,-0.11
 1575,-0.105758\O,0,-0.618591,1.05737,0.124059\O,0,1.55431,1.51994,-0.1
 62232\\Version=ES64L-G16RevC.01\State=1-A\HF=-485.395041\RMSD=2.624e-0

 Normal termination of Gaussian 16 at Tue Apr  8 21:42:20 2025.
