 Gaussian 16, Revision C.01,

 ----------------------------------------------------------------------
 #t hf aug-cc-pvdz symm=none int=(grid=ultrafine) guess=(read,tcheck) s
 table=(opt,rrhf)
 ----------------------------------------------------------------------
 -----
 title
 -----
 Symbolic Z-matrix:
 Charge =  0 Multiplicity = 1

 SCF Done:  E(RHF) =  -380.133953062     A.U. after   12 cycles
 Normal termination of Gaussian 16 at Tue Apr  8 21:03:28 2025.
 Gaussian 16:  ES64L-G16RevC.01  3-Jul-2019

 ----------------------------------------------------------------------
 #t hf aug-cc-pvdz iop(5/13=1,5/36=2,99/5=2) pseudo=read geom=check gue
 ss=(read,tcheck) scf=(maxcycle=1)
 ----------------------------------------------------------------------
 -----
 title
 -----
 Structure from the checkpoint file:  "ANI1ccx_1843_conf586_mol1.chk"
 Charge =  0 Multiplicity = 1

                         Standard orientation:
 ---------------------------------------------------------------------
 Center     Atomic      Atomic             Coordinates (Angstroms)
 Number     Number       Type             X           Y           Z
 ---------------------------------------------------------------------
      1          1           0       -0.660689    0.319829    1.318690
      2          1           0       -2.026081   -0.690789    1.167280
      3          1           0        0.905782    1.438529    0.280444
      4          1           0       -0.239403    2.683569    0.444222
      5          1           0        0.122945   -1.623391    0.486392
      6          1           0       -0.154564   -1.267541   -1.017910
      7          1           0       -1.640160    0.208680   -2.356970
      8          1           0       -1.040690    0.891739   -0.914265
      9          1           0        1.622819   -0.481486   -0.093599
     10          1           0        2.967120    0.103492    0.484984
     11          8           0       -1.026261   -0.573997    1.611390
     12          8           0       -0.144089    1.699569    0.169911
     13          8           0        0.520926   -1.751441   -0.429120
     14          8           0       -1.608850    0.107764   -1.163000
     15          8           0        2.276140    0.320276   -0.164089
 ---------------------------------------------------------------------

 SCF Done:  E(RHF) =  -380.254269556     A.U. after    2 cycles

 The electronic state is 1-A.
 Alpha  occ. eigenvalues --  -20.61879 -20.58992 -20.58090 -20.57608 -20.56314
 Alpha  occ. eigenvalues --   -1.31893  -1.29875  -1.27907  -1.25902  -1.25826
 Alpha  occ. eigenvalues --   -0.74231  -0.71298  -0.70547  -0.68913  -0.68456
 Alpha  occ. eigenvalues --   -0.61433  -0.60298  -0.59274  -0.59003  -0.55313
 Alpha  occ. eigenvalues --   -0.54479  -0.52485  -0.51329  -0.50587  -0.50088
 Alpha virt. eigenvalues --    0.02344   0.04219   0.04641   0.06090   0.07489
 Alpha virt. eigenvalues --    0.07981   0.08360   0.08950   0.09747   0.11398
 Alpha virt. eigenvalues --    0.15824   0.17047   0.18037   0.19569   0.20854

 Mulliken charges:
               1
     1  H    0.272732
     2  H    0.345361
     3  H    0.413406
     4  H    0.277418
     5  H    0.289199
     6  H    0.274376
     7  H    0.360973
     8  H    0.294470
     9  H    0.289672
    10  H    0.195369
    11  O   -0.590734
    12  O   -0.758536
    13  O   -0.579713
    14  O   -0.615715
    15  O   -0.468281
 Sum of Mulliken charges =   0.00000

 Dipole moment (field-independent basis, Debye):
    X=             -0.2356    Y=              3.7550    Z=             -0.1835  Tot=              3.7669

 Test job not archived.
 1\1\GINC-SE163\SP\RHF\Aug-CC-pVDZ\H10O5\OHZDE\08-Apr-2025\0\\#t hf aug
 -cc-pvdz iop(5/13=1,5/36=2,99/5=2) pseudo=read geom=check guess=(read,
 tcheck) scf=(maxcycle=1)\\title\\0,1\H,0,-0.660689,0.319829,1.31869\H,
 0,-2.02608,-0.690789,1.16728\H,0,0.905782,1.43853,0.280444\H,0,-0.2394
 04,2.68357,0.444222\H,0,0.122946,-1.62339,0.486392\H,0,-0.154563,-1.26
 754,-1.01791\H,0,-1.64016,0.20868,-2.35697\H,0,-1.04069,0.891739,-0.91
 4265\H,0,1.62282,-0.481484,-0.0935992\H,0,2.96712,0.103494,0.484984\O,
 0,-1.02626,-0.573997,1.61139\O,0,-0.144089,1.69957,0.169911\O,0,0.5209

 Normal termination of Gaussian 16 at Tue Apr  8 21:03:32 2025.
