 Gaussian 16, Revision C.01,

 ----------------------------------------------------------------------
 #t hf aug-cc-pvdz symm=none int=(grid=ultrafine) guess=(read,tcheck) s
 table=(opt,rrhf)
 ----------------------------------------------------------------------
 -----
 title
 -----
 Symbolic Z-matrix:
 Charge =  0 Multiplicity = 1

 SCF Done:  E(RHF) =  -689.333451739     A.U. after   14 cycles
 Normal termination of Gaussian 16 at Tue Apr  8 21:52:34 2025.
 Gaussian 16:  ES64L-G16RevC.01  3-Jul-2019

 ----------------------------------------------------------------------
 #t hf aug-cc-pvdz iop(5/13=1,5/36=2,99/5=2) pseudo=read geom=check gue
 ss=(read,tcheck) scf=(maxcycle=1)
 ----------------------------------------------------------------------
 -----
 title
 -----
 Structure from the checkpoint file:  "ANI1ccx_756_conf6_mol1.chk"
 Charge =  0 Multiplicity = 1

                         Standard orientation:
 ---------------------------------------------------------------------
 Center     Atomic      Atomic             Coordinates (Angstroms)
 Number     Number       Type             X           Y           Z
 ---------------------------------------------------------------------
      1          6           0       -2.706700   -0.129279   -0.143549
      2          6           0        0.006742    1.289140    0.496410
      3          6           0        1.926050    0.127310    0.054823
      4          1           0        3.738690    0.783106    0.926097
      5          1           0       -0.498757    1.742600    1.334310
      6          1           0       -0.367610    0.346417   -1.117790
      7          1           0        3.486600   -0.865364   -1.202370
      8          1           0       -2.728860   -1.957550    0.573878
      9          1           0       -0.177051   -1.481840    0.379060
     10          1           0       -2.623430    1.757480   -0.797262
     11          7           0       -2.030950   -1.365750    0.089542
     12          7           0       -2.111990    1.084450   -0.300821
     13          7           0       -0.715627    1.139200   -0.610356
     14          7           0        1.256090    1.085701    0.704590
     15          7           0        3.250380    0.155222    0.322737
     16          8           0        1.486560   -0.765200   -0.678753
     17          8           0       -0.916672   -1.226450    0.964642
     18          8           0       -3.909580   -0.216165   -0.292091
     19          8           0        4.124510   -0.634639   -0.491532
 ---------------------------------------------------------------------

 SCF Done:  E(RHF) =  -689.542489748     A.U. after    2 cycles

 The electronic state is 1-A.
 Alpha  occ. eigenvalues --  -20.63884 -20.63314 -20.56400 -20.56293 -15.73135
 Alpha  occ. eigenvalues --  -15.72737 -15.72466 -15.70878 -15.63480 -11.42517
 Alpha  occ. eigenvalues --  -11.41608 -11.38662  -1.42477  -1.41512  -1.37817
 Alpha  occ. eigenvalues --   -1.35917  -1.33769  -1.24375  -1.15945  -1.12107
 Alpha  occ. eigenvalues --   -1.10758  -0.93202  -0.88086  -0.85448  -0.79346
 Alpha  occ. eigenvalues --   -0.78050  -0.75233  -0.72223  -0.71353  -0.70391
 Alpha  occ. eigenvalues --   -0.67480  -0.66628  -0.65776  -0.64110  -0.62674
 Alpha  occ. eigenvalues --   -0.61621  -0.58488  -0.57065  -0.54442  -0.51928
 Alpha  occ. eigenvalues --   -0.49033  -0.47545  -0.44954  -0.44327  -0.43986
 Alpha  occ. eigenvalues --   -0.39308
 Alpha virt. eigenvalues --    0.02826   0.03436   0.03778   0.04266   0.05934
 Alpha virt. eigenvalues --    0.07041   0.07513   0.08238   0.08943   0.11079
 Alpha virt. eigenvalues --    0.11943   0.12550   0.12971   0.13916   0.14266

 Mulliken charges:
               1
     1  C    0.787722
     2  C    1.098912
     3  C    0.688707
     4  H   -0.013791
     5  H   -0.403560
     6  H    0.087088
     7  H    0.194287
     8  H    0.145117
     9  H    0.300684
    10  H   -0.036757
    11  N   -0.105705
    12  N   -0.151108
    13  N   -0.105388
    14  N   -0.372853
    15  N    0.094746
    16  O   -0.629250
    17  O   -0.567041
    18  O   -0.496546
    19  O   -0.515266
 Sum of Mulliken charges =   0.00000

 Dipole moment (field-independent basis, Debye):
    X=              0.4740    Y=              2.6294    Z=              0.0100  Tot=              2.6718

 Test job not archived.
 1\1\GINC-SE332\SP\RHF\Aug-CC-pVDZ\C3H7N5O4\OHZDE\08-Apr-2025\0\\#t hf
 aug-cc-pvdz iop(5/13=1,5/36=2,99/5=2) pseudo=read geom=check guess=(re
 ad,tcheck) scf=(maxcycle=1)\\title\\0,1\C,0,-2.7067,-0.129279,-0.14354
 9\C,0,0.00674226,1.28914,0.49641\C,0,1.92605,0.127309,0.0548226\H,0,3.
 73869,0.783105,0.926097\H,0,-0.498757,1.7426,1.33431\H,0,-0.36761,0.34
 6417,-1.11779\H,0,3.4866,-0.865365,-1.20237\H,0,-2.72886,-1.95755,0.57
 3878\H,0,-0.177051,-1.48184,0.37906\H,0,-2.62343,1.75748,-0.797262\N,0
 ,-2.03095,-1.36575,0.0895419\N,0,-2.11199,1.08445,-0.300821\N,0,-0.715

 Normal termination of Gaussian 16 at Tue Apr  8 21:52:44 2025.
