 Gaussian 16, Revision C.01,

 ----------------------------------------------------------------------
 #t hf aug-cc-pvdz symm=none int=(grid=ultrafine) guess=(read,tcheck) s
 table=(opt,rrhf)
 ----------------------------------------------------------------------
 -----
 title
 -----
 Symbolic Z-matrix:
 Charge =  0 Multiplicity = 1

 SCF Done:  E(RHF) =  -681.664094651     A.U. after   15 cycles
 Normal termination of Gaussian 16 at Tue Apr  8 19:35:22 2025.
 Gaussian 16:  ES64L-G16RevC.01  3-Jul-2019

 ----------------------------------------------------------------------
 #t hf aug-cc-pvdz iop(5/13=1,5/36=2,99/5=2) pseudo=read geom=check gue
 ss=(read,tcheck) scf=(maxcycle=1)
 ----------------------------------------------------------------------
 -----
 title
 -----
 Structure from the checkpoint file:  "ANI1ccx_1434_conf3_mol1.chk"
 Charge =  0 Multiplicity = 1

                         Standard orientation:
 ---------------------------------------------------------------------
 Center     Atomic      Atomic             Coordinates (Angstroms)
 Number     Number       Type             X           Y           Z
 ---------------------------------------------------------------------
      1          6           0        1.929129    0.656555    0.160494
      2          6           0        0.498376    1.107900   -0.003744
      3          6           0        2.144299   -0.576348   -0.614631
      4          6           0        3.664739   -0.774290   -0.815891
      5          6           0       -1.883911    0.546785    0.151809
      6          6           0       -2.744441   -0.675216    0.262450
      7          6           0       -2.274141    1.315660   -1.180420
      8          1           0       -1.576891   -1.491690   -1.066050
      9          1           0       -3.289591    1.396169   -1.244500
     10          1           0       -1.865371    2.333820   -1.170460
     11          1           0       -1.886261    0.766811   -2.101300
     12          1           0       -2.077861    1.209220    0.999071
     13          1           0       -0.204924   -0.794369    0.511644
     14          1           0        3.910269   -1.749079   -1.175970
     15          1           0        4.101439    0.023188   -1.408040
     16          1           0        4.086709   -0.608797    0.202451
     17          1           0        1.871939   -1.528130    1.002880
     18          1           0        1.677419   -0.514745   -1.648800
     19          1           0        2.489519    1.427281   -0.320082
     20          1           0        3.260099    0.897602    1.637600
     21          1           0        1.642349    0.767464    2.225820
     22          7           0        2.361829    0.395752    1.552840
     23          7           0       -0.474796    0.152026    0.128467
     24          8           0        0.171555    2.290290   -0.067402
     25          8           0        1.646849   -1.722780    0.082129
     26          8           0       -3.616411   -0.800002    1.057940
     27          8           0       -2.371041   -1.714440   -0.569391
 ---------------------------------------------------------------------

 SCF Done:  E(RHF) =  -681.874253539     A.U. after    2 cycles

 The electronic state is 1-A.
 Alpha  occ. eigenvalues --  -20.62412 -20.58836 -20.57297 -20.55909 -15.67220
 Alpha  occ. eigenvalues --  -15.66466 -11.40434 -11.38472 -11.31460 -11.31108
 Alpha  occ. eigenvalues --  -11.30045 -11.24485 -11.24107  -1.42265  -1.37123
 Alpha  occ. eigenvalues --   -1.34827  -1.34096  -1.21671  -1.19339  -1.06018
 Alpha  occ. eigenvalues --   -1.03903  -0.96503  -0.91624  -0.84548  -0.83333
 Alpha  occ. eigenvalues --   -0.79658  -0.77596  -0.73705  -0.71796  -0.69933
 Alpha  occ. eigenvalues --   -0.68092  -0.66925  -0.65929  -0.64387  -0.63245
 Alpha  occ. eigenvalues --   -0.62502  -0.59717  -0.59547  -0.58029  -0.56841
 Alpha  occ. eigenvalues --   -0.56625  -0.55219  -0.54744  -0.52794  -0.50817
 Alpha  occ. eigenvalues --   -0.50359  -0.48502  -0.47044  -0.45941  -0.43399
 Alpha  occ. eigenvalues --   -0.41464
 Alpha virt. eigenvalues --    0.02325   0.03100   0.03846   0.04070   0.05264
 Alpha virt. eigenvalues --    0.05339   0.06388   0.06748   0.06852   0.07524
 Alpha virt. eigenvalues --    0.08135   0.08642   0.09559   0.09898   0.10574

 Mulliken charges:
               1
     1  C    1.311954
     2  C   -0.083518
     3  C    0.053935
     4  C    0.549208
     5  C    0.013983
     6  C    0.640651
     7  C    0.842654
     8  H    0.193856
     9  H   -0.339963
    10  H   -0.001649
    11  H    0.078816
    12  H   -0.332496
    13  H    0.079158
    14  H   -0.039259
    15  H   -0.023093
    16  H   -0.014498
    17  H    0.243911
    18  H   -0.204020
    19  H   -0.182942
    20  H    0.149472
    21  H    0.099177
    22  N   -0.668484
    23  N   -0.259552
    24  O   -0.532449
    25  O   -0.631676
    26  O   -0.432524
    27  O   -0.510652
 Sum of Mulliken charges =  -0.00000

 Dipole moment (field-independent basis, Debye):
    X=              5.5022    Y=              1.4539    Z=             -0.7646  Tot=              5.7422

 Test job not archived.
 1\1\GINC-SE230\SP\RHF\Aug-CC-pVDZ\C7H14N2O4\OHZDE\08-Apr-2025\0\\#t hf
  aug-cc-pvdz iop(5/13=1,5/36=2,99/5=2) pseudo=read geom=check guess=(r
 ead,tcheck) scf=(maxcycle=1)\\title\\0,1\C,0,1.92913,0.656554,0.160494
 \C,0,0.498377,1.1079,-0.00374344\C,0,2.1443,-0.576349,-0.614631\C,0,3.
 66474,-0.774291,-0.815891\C,0,-1.88391,0.546785,0.151809\C,0,-2.74444,
 -0.675216,0.26245\C,0,-2.27414,1.31566,-1.18042\H,0,-1.57689,-1.49169,
 -1.06605\H,0,-3.28959,1.39617,-1.2445\H,0,-1.86537,2.33382,-1.17046\H,
 0,-1.88626,0.766811,-2.1013\H,0,-2.07786,1.20922,0.999071\H,0,-0.20492

 Normal termination of Gaussian 16 at Tue Apr  8 19:35:51 2025.
