 Gaussian 16, Revision C.01,

 ----------------------------------------------------------------------
 #t hf aug-cc-pvdz symm=none int=(grid=ultrafine) guess=(read,tcheck) s
 table=(opt,rrhf)
 ----------------------------------------------------------------------
 -----
 title
 -----
 Symbolic Z-matrix:
 Charge =  0 Multiplicity = 1

 SCF Done:  E(RHF) =  -923.194469492     A.U. after   14 cycles
 Normal termination of Gaussian 16 at Tue Apr  8 20:01:02 2025.
 Gaussian 16:  ES64L-G16RevC.01  3-Jul-2019

 ----------------------------------------------------------------------
 #t hf aug-cc-pvdz iop(5/13=1,5/36=2,99/5=2) pseudo=read geom=check gue
 ss=(read,tcheck) scf=(maxcycle=1)
 ----------------------------------------------------------------------
 -----
 title
 -----
 Structure from the checkpoint file:  "ANI1ccx_1584_conf16_mol1.chk"
 Charge =  0 Multiplicity = 1

                         Standard orientation:
 ---------------------------------------------------------------------
 Center     Atomic      Atomic             Coordinates (Angstroms)
 Number     Number       Type             X           Y           Z
 ---------------------------------------------------------------------
      1          6           0        2.253690   -1.496721    0.418488
      2          6           0        0.817787   -0.739950    0.725091
      3          6           0        3.302520   -0.500492    0.845980
      4          6           0        3.480290    0.557874   -0.201099
      5          6           0       -1.344610   -0.097360   -0.371374
      6          6           0       -1.202940    1.385560   -0.073212
      7          6           0       -2.409720   -0.768689    0.490524
      8          6           0       -3.835290   -0.638327   -0.116762
      9          1           0        0.674776    1.421110   -0.366473
     10          1           0       -3.768080    1.445480    0.236293
     11          1           0       -5.187340    0.628357   -0.689888
     12          1           0       -2.480120   -0.149703    1.398720
     13          1           0       -2.176130   -1.802860    0.733482
     14          1           0       -1.706070   -0.073066   -1.394860
     15          1           0        0.013361   -1.607970   -0.848000
     16          1           0        2.653010    2.094809   -0.777005
     17          1           0        2.977540   -0.104716    1.834190
     18          1           0        4.274820   -0.891766    0.996591
     19          1           0        2.180950   -2.384081    1.069970
     20          1           0        2.749260   -2.820311   -1.053040
     21          1           0        2.582040   -1.131821   -1.512370
     22          7           0        2.252580   -1.963611   -0.959520
     23          7           0       -0.086569   -0.801023   -0.332562
     24          7           0       -4.323130    0.588484   -0.142637
     25          8           0        0.528186   -0.253648    1.755590
     26          8           0        4.253580    0.622687   -1.115510
     27          8           0        2.557860    1.537869    0.048922
     28          8           0       -2.164860    2.032160    0.343546
     29          8           0       -4.338890   -1.634120   -0.633115
     30          8           0       -0.093197    1.994830   -0.385737
 ---------------------------------------------------------------------

 SCF Done:  E(RHF) =  -923.476950463     A.U. after    2 cycles

 The electronic state is 1-A.
 Alpha  occ. eigenvalues --  -20.67114 -20.64285 -20.61698 -20.58147 -20.57527
 Alpha  occ. eigenvalues --  -20.51640 -15.66547 -15.65749 -15.63132 -11.44312
 Alpha  occ. eigenvalues --  -11.42540 -11.39504 -11.34865 -11.33871 -11.32464
 Alpha  occ. eigenvalues --  -11.28868 -11.24939  -1.47144  -1.45429  -1.41459
 Alpha  occ. eigenvalues --   -1.37389  -1.34471  -1.32488  -1.24189  -1.20841
 Alpha  occ. eigenvalues --   -1.16565  -1.08015  -1.06241  -0.95319  -0.92840
 Alpha  occ. eigenvalues --   -0.89066  -0.84918  -0.82693  -0.78041  -0.76825
 Alpha  occ. eigenvalues --   -0.76149  -0.74620  -0.74203  -0.73580  -0.72700
 Alpha  occ. eigenvalues --   -0.70098  -0.68874  -0.67624  -0.66614  -0.65944
 Alpha  occ. eigenvalues --   -0.65369  -0.64087  -0.62658  -0.61881  -0.61081
 Alpha  occ. eigenvalues --   -0.59367  -0.57697  -0.56812  -0.56066  -0.55246
 Alpha  occ. eigenvalues --   -0.54473  -0.52840  -0.51298  -0.51230  -0.49046
 Alpha  occ. eigenvalues --   -0.48326  -0.43555  -0.41643  -0.40982  -0.39851
 Alpha virt. eigenvalues --    0.01702   0.02723   0.03308   0.04111   0.04873
 Alpha virt. eigenvalues --    0.05554   0.05915   0.06605   0.06898   0.07413
 Alpha virt. eigenvalues --    0.08210   0.08900   0.09359   0.09992   0.10318

 Mulliken charges:
               1
     1  C    0.237374
     2  C    0.427485
     3  C    0.457619
     4  C    0.726523
     5  C   -0.114856
     6  C    0.582287
     7  C    0.710034
     8  C    0.598045
     9  H    0.208363
    10  H    0.253247
    11  H    0.011269
    12  H    0.070128
    13  H   -0.231662
    14  H   -0.168555
    15  H   -0.084003
    16  H    0.289229
    17  H    0.058945
    18  H   -0.154621
    19  H    0.023192
    20  H   -0.005961
    21  H    0.183212
    22  N   -0.280656
    23  N   -0.323265
    24  N   -0.250961
    25  O   -0.443718
    26  O   -0.502741
    27  O   -0.686389
    28  O   -0.607394
    29  O   -0.617661
    30  O   -0.364510
 Sum of Mulliken charges =  -0.00000

 Dipole moment (field-independent basis, Debye):
    X=              6.4493    Y=             -1.3924    Z=             -0.9322  Tot=              6.6634

 Test job not archived.
 1\1\GINC-SE368\SP\RHF\Aug-CC-pVDZ\C8H13N3O6\OHZDE\08-Apr-2025\0\\#t hf
  aug-cc-pvdz iop(5/13=1,5/36=2,99/5=2) pseudo=read geom=check guess=(r
 ead,tcheck) scf=(maxcycle=1)\\title\\0,1\C,0,2.25369,-1.49672,0.418488
 \C,0,0.817787,-0.73995,0.725091\C,0,3.30252,-0.500491,0.84598\C,0,3.48
 029,0.557875,-0.201099\C,0,-1.34461,-0.0973598,-0.371374\C,0,-1.20294,
 1.38556,-0.0732121\C,0,-2.40972,-0.768689,0.490524\C,0,-3.83529,-0.638
 327,-0.116762\H,0,0.674776,1.42111,-0.366473\H,0,-3.76808,1.44548,0.23
 6293\H,0,-5.18734,0.628357,-0.689888\H,0,-2.48012,-0.149703,1.39872\H,

 Normal termination of Gaussian 16 at Tue Apr  8 20:01:36 2025.
