 Gaussian 16, Revision C.01,

 ----------------------------------------------------------------------
 #t hf aug-cc-pvdz symm=none int=(grid=ultrafine) guess=(read,tcheck) s
 table=(opt,rrhf)
 ----------------------------------------------------------------------
 -----
 title
 -----
 Symbolic Z-matrix:
 Charge =  0 Multiplicity = 1

 SCF Done:  E(RHF) =  -469.350546287     A.U. after   13 cycles
 Normal termination of Gaussian 16 at Tue Apr  8 21:49:01 2025.
 Gaussian 16:  ES64L-G16RevC.01  3-Jul-2019

 ----------------------------------------------------------------------
 #t hf aug-cc-pvdz iop(5/13=1,5/36=2,99/5=2) pseudo=read geom=check gue
 ss=(read,tcheck) scf=(maxcycle=1)
 ----------------------------------------------------------------------
 -----
 title
 -----
 Structure from the checkpoint file:  "ANI1ccx_672_conf1_mol1.chk"
 Charge =  0 Multiplicity = 1

                         Standard orientation:
 ---------------------------------------------------------------------
 Center     Atomic      Atomic             Coordinates (Angstroms)
 Number     Number       Type             X           Y           Z
 ---------------------------------------------------------------------
      1          6           0       -1.274351   -0.357933    0.015252
      2          6           0        1.269739   -0.376322   -0.020230
      3          6           0        0.024007    1.520130    0.303701
      4          1           0       -0.053489   -1.923520    0.377339
      5          1           0       -0.018340    1.369510    1.392890
      6          1           0       -0.014388    2.586660    0.089697
      7          7           0       -0.028921   -0.907791    0.203215
      8          8           0       -2.276980   -0.985435   -0.089118
      9          8           0        2.303290   -0.984547   -0.037202
     10          8           0        1.190859    0.955934   -0.287138
     11          8           0       -1.195631    0.964877   -0.220888
 ---------------------------------------------------------------------

 SCF Done:  E(RHF) =  -469.501260878     A.U. after    2 cycles

 The electronic state is 1-A.
 Alpha  occ. eigenvalues --  -20.67195 -20.66337 -20.60139 -20.58812 -15.71882
 Alpha  occ. eigenvalues --  -11.47955 -11.46501 -11.41578  -1.50374  -1.45364
 Alpha  occ. eigenvalues --   -1.39386  -1.36548  -1.24784  -1.02268  -0.93610
 Alpha  occ. eigenvalues --   -0.84857  -0.83723  -0.78905  -0.73328  -0.70577
 Alpha  occ. eigenvalues --   -0.69356  -0.68840  -0.66560  -0.61817  -0.60749
 Alpha  occ. eigenvalues --   -0.54484  -0.54075  -0.53758  -0.51110  -0.47396
 Alpha virt. eigenvalues --    0.02637   0.03912   0.04683   0.06822   0.08120
 Alpha virt. eigenvalues --    0.10134   0.10593   0.11228   0.11420   0.11963
 Alpha virt. eigenvalues --    0.13439   0.13522   0.14012   0.15489   0.16426

 Mulliken charges:
               1
     1  C    0.681584
     2  C    0.785755
     3  C    1.068811
     4  H   -0.004702
     5  H   -0.043733
     6  H   -0.254105
     7  N   -0.357674
     8  O   -0.375034
     9  O   -0.377598
    10  O   -0.556427
    11  O   -0.566876
 Sum of Mulliken charges =  -0.00000

 Dipole moment (field-independent basis, Debye):
    X=              0.1515    Y=              2.0635    Z=              2.0686  Tot=              2.9258

 Test job not archived.
 1\1\GINC-SE044\SP\RHF\Aug-CC-pVDZ\C3H3N1O4\OHZDE\08-Apr-2025\0\\#t hf
 aug-cc-pvdz iop(5/13=1,5/36=2,99/5=2) pseudo=read geom=check guess=(re
 ad,tcheck) scf=(maxcycle=1)\\title\\0,1\C,0,-1.27435,-0.357932,0.01525
 17\C,0,1.26974,-0.376323,-0.0202297\C,0,0.0240087,1.52013,0.303701\H,0
 ,-0.0534897,-1.92352,0.377339\H,0,-0.0183387,1.36951,1.39289\H,0,-0.01
 43856,2.58666,0.089697\N,0,-0.0289205,-0.907791,0.203215\O,0,-2.27698,
 -0.985434,-0.0891175\O,0,2.30329,-0.984549,-0.0372016\O,0,1.19086,0.95
 5933,-0.287138\O,0,-1.19563,0.964878,-0.220888\\Version=ES64L-G16RevC.

 Normal termination of Gaussian 16 at Tue Apr  8 21:49:05 2025.
