 Gaussian 16, Revision C.01,

 ----------------------------------------------------------------------
 #t hf aug-cc-pvdz symm=none int=(grid=ultrafine) guess=(read,tcheck) s
 table=(opt,rrhf)
 ----------------------------------------------------------------------
 -----
 title
 -----
 Symbolic Z-matrix:
 Charge =  0 Multiplicity = 1

 SCF Done:  E(RHF) =  -485.198254445     A.U. after   15 cycles
 Normal termination of Gaussian 16 at Tue Apr  8 21:42:16 2025.
 Gaussian 16:  ES64L-G16RevC.01  3-Jul-2019

 ----------------------------------------------------------------------
 #t hf aug-cc-pvdz iop(5/13=1,5/36=2,99/5=2) pseudo=read geom=check gue
 ss=(read,tcheck) scf=(maxcycle=1)
 ----------------------------------------------------------------------
 -----
 title
 -----
 Structure from the checkpoint file:  "ANI1ccx_484_conf8_mol1.chk"
 Charge =  0 Multiplicity = 1

                         Standard orientation:
 ---------------------------------------------------------------------
 Center     Atomic      Atomic             Coordinates (Angstroms)
 Number     Number       Type             X           Y           Z
 ---------------------------------------------------------------------
      1          6           0        1.395380    0.078241   -0.034763
      2          6           0       -0.735864    0.737923   -0.077687
      3          1           0       -1.772819   -0.784280    1.165820
      4          1           0       -2.549878   -1.435212   -0.203241
      5          7           0       -1.720368   -1.340002    0.298451
      6          7           0       -0.598892   -0.588626   -0.402221
      7          8           0        0.571567   -1.080959   -0.186010
      8          8           0        2.606661   -0.130218    0.162586
      9          8           0        0.610046    1.170151    0.104211
     10          8           0       -1.713221    1.393888   -0.025974
 ---------------------------------------------------------------------

 SCF Done:  E(RHF) =  -485.349880385     A.U. after    2 cycles

 The electronic state is 1-A.
 Alpha  occ. eigenvalues --  -20.72620 -20.71389 -20.63264 -20.61783 -15.78956
 Alpha  occ. eigenvalues --  -15.70829 -11.52129 -11.49380  -1.59122  -1.47422
 Alpha  occ. eigenvalues --   -1.44043  -1.37922  -1.24426  -1.09475  -0.95815
 Alpha  occ. eigenvalues --   -0.94094  -0.81854  -0.79286  -0.73880  -0.73030
 Alpha  occ. eigenvalues --   -0.71920  -0.69325  -0.67408  -0.66776  -0.62815
 Alpha  occ. eigenvalues --   -0.56861  -0.54699  -0.53008  -0.48282  -0.44361
 Alpha virt. eigenvalues --    0.02821   0.04183   0.06204   0.07473   0.09347
 Alpha virt. eigenvalues --    0.09574   0.10803   0.11682   0.11833   0.12261
 Alpha virt. eigenvalues --    0.12490   0.15647   0.16536   0.17257   0.18350

 Mulliken charges:
               1
     1  C    0.888135
     2  C    0.840444
     3  H    0.094701
     4  H    0.054206
     5  N    0.105952
     6  N   -0.147510
     7  O   -0.599207
     8  O   -0.415618
     9  O   -0.515724
    10  O   -0.305379
 Sum of Mulliken charges =   0.00000

 Dipole moment (field-independent basis, Debye):
    X=             -3.2602    Y=             -0.6412    Z=              0.0386  Tot=              3.3229

 Test job not archived.
 1\1\GINC-SE095\SP\RHF\Aug-CC-pVDZ\C2H2N2O4\OHZDE\08-Apr-2025\0\\#t hf
 aug-cc-pvdz iop(5/13=1,5/36=2,99/5=2) pseudo=read geom=check guess=(re
 ad,tcheck) scf=(maxcycle=1)\\title\\0,1\C,0,1.39538,0.0782394,-0.03476
 27\C,0,-0.735864,0.737923,-0.0776869\H,0,-1.77282,-0.784278,1.16582\H,
 0,-2.54988,-1.43521,-0.203241\N,0,-1.72037,-1.34,0.298451\N,0,-0.59889
 3,-0.588626,-0.402221\O,0,0.571565,-1.08096,-0.18601\O,0,2.60666,-0.13
 0221,0.162586\O,0,0.610047,1.17015,0.104211\O,0,-1.71322,1.39389,-0.02
 59739\\Version=ES64L-G16RevC.01\State=1-A\HF=-485.3498804\RMSD=2.742e-

 Normal termination of Gaussian 16 at Tue Apr  8 21:42:20 2025.
