 Gaussian 16, Revision C.01,

 ----------------------------------------------------------------------
 #t hf aug-cc-pvdz symm=none int=(grid=ultrafine) guess=(read,tcheck) s
 table=(opt,rrhf)
 ----------------------------------------------------------------------
 -----
 title
 -----
 Symbolic Z-matrix:
 Charge =  0 Multiplicity = 1

 SCF Done:  E(RHF) =  -717.488037323     A.U. after   14 cycles
 Normal termination of Gaussian 16 at Tue Apr  8 19:20:53 2025.
 Gaussian 16:  ES64L-G16RevC.01  3-Jul-2019

 ----------------------------------------------------------------------
 #t hf aug-cc-pvdz iop(5/13=1,5/36=2,99/5=2) pseudo=read geom=check gue
 ss=(read,tcheck) scf=(maxcycle=1)
 ----------------------------------------------------------------------
 -----
 title
 -----
 Structure from the checkpoint file:  "ANI1ccx_1215_conf7_mol1.chk"
 Charge =  0 Multiplicity = 1

                         Standard orientation:
 ---------------------------------------------------------------------
 Center     Atomic      Atomic             Coordinates (Angstroms)
 Number     Number       Type             X           Y           Z
 ---------------------------------------------------------------------
      1          6           0        1.262801   -0.173957   -0.061737
      2          6           0        0.686632    0.069013    1.316490
      3          6           0        2.563811   -0.881716   -0.172544
      4          6           0       -1.773640    0.418826    0.301147
      5          6           0       -2.063598   -1.085173   -0.128496
      6          6           0       -1.544251    1.234378   -0.982731
      7          1           0       -1.209496   -2.855112   -0.150404
      8          1           0       -0.059782    2.339689   -0.409410
      9          1           0       -0.824469    0.787092   -1.707260
     10          1           0       -2.550641    1.395556   -1.413580
     11          1           0       -2.657110    0.825246    0.802362
     12          1           0       -0.999692    0.718299    2.264260
     13          1           0        2.461813   -1.915658    0.006480
     14          1           0        3.406831   -0.462374    0.424378
     15          1           0        0.492452   -0.726860   -0.630353
     16          1           0        1.901619    1.328691   -1.425400
     17          1           0        2.051049    1.695201    0.136411
     18          1           0        2.459912   -1.155178   -2.146020
     19          7           0        1.467299    1.251281   -0.546641
     20          7           0       -0.689541    0.485419    1.326580
     21          8           0       -0.994372    2.511108   -0.650850
     22          8           0        1.348940    0.190614    2.317640
     23          8           0        3.093651   -0.768570   -1.515690
     24          8           0       -3.024148   -1.451314   -0.694668
     25          8           0       -1.012487   -1.934302    0.188095
 ---------------------------------------------------------------------

 SCF Done:  E(RHF) =  -717.707642301     A.U. after    2 cycles

 The electronic state is 1-A.
 Alpha  occ. eigenvalues --  -20.64755 -20.59674 -20.59106 -20.56531 -20.55290
 Alpha  occ. eigenvalues --  -15.65660 -15.63426 -11.42485 -11.39020 -11.33025
 Alpha  occ. eigenvalues --  -11.30837 -11.30413 -11.30305  -1.44947  -1.37696
 Alpha  occ. eigenvalues --   -1.35647  -1.33401  -1.30769  -1.19703  -1.17627
 Alpha  occ. eigenvalues --   -1.02950  -1.01597  -0.91307  -0.89511  -0.83720
 Alpha  occ. eigenvalues --   -0.78156  -0.75163  -0.74139  -0.72602  -0.71291
 Alpha  occ. eigenvalues --   -0.69425  -0.68315  -0.67366  -0.66532  -0.65544
 Alpha  occ. eigenvalues --   -0.63422  -0.62743  -0.61301  -0.59162  -0.58386
 Alpha  occ. eigenvalues --   -0.57418  -0.56256  -0.53848  -0.52448  -0.51645
 Alpha  occ. eigenvalues --   -0.49734  -0.49383  -0.46218  -0.45562  -0.42771
 Alpha  occ. eigenvalues --   -0.39951
 Alpha virt. eigenvalues --    0.01986   0.03443   0.03755   0.04300   0.05402
 Alpha virt. eigenvalues --    0.05915   0.06734   0.06876   0.07387   0.08484
 Alpha virt. eigenvalues --    0.09107   0.09612   0.10196   0.10613   0.11547

 Mulliken charges:
               1
     1  C   -0.284764
     2  C    0.547860
     3  C    1.561725
     4  C   -0.118660
     5  C    0.937951
     6  C    1.119904
     7  H    0.248453
     8  H    0.295299
     9  H   -0.182146
    10  H   -0.108317
    11  H   -0.089981
    12  H   -0.123078
    13  H   -0.208021
    14  H   -0.059110
    15  H   -0.152307
    16  H   -0.013328
    17  H    0.089528
    18  H    0.176073
    19  N   -0.425181
    20  N   -0.375143
    21  O   -0.586457
    22  O   -0.504618
    23  O   -0.611119
    24  O   -0.469752
    25  O   -0.664810
 Sum of Mulliken charges =  -0.00000

 Dipole moment (field-independent basis, Debye):
    X=             -0.3140    Y=             -2.7748    Z=             -1.5016  Tot=              3.1706

 Test job not archived.
 1\1\GINC-SE163\SP\RHF\Aug-CC-pVDZ\C6H12N2O5\OHZDE\08-Apr-2025\0\\#t hf
  aug-cc-pvdz iop(5/13=1,5/36=2,99/5=2) pseudo=read geom=check guess=(r
 ead,tcheck) scf=(maxcycle=1)\\title\\0,1\C,0,1.2628,-0.173958,-0.06173
 65\C,0,0.686632,0.0690133,1.31649\C,0,2.56381,-0.881718,-0.172544\C,0,
 -1.77364,0.418829,0.301147\C,0,-2.0636,-1.08517,-0.128496\C,0,-1.54425
 ,1.23438,-0.982731\H,0,-1.2095,-2.85511,-0.150404\H,0,-0.0597798,2.339
 69,-0.40941\H,0,-0.824469,0.787094,-1.70726\H,0,-2.55064,1.39556,-1.41
 358\H,0,-2.65711,0.82525,0.802362\H,0,-0.999692,0.718301,2.26426\H,0,2

 Normal termination of Gaussian 16 at Tue Apr  8 19:21:16 2025.
