 Gaussian 16, Revision C.01,

 ----------------------------------------------------------------------
 #t hf aug-cc-pvdz symm=none int=(grid=ultrafine) guess=(read,tcheck) s
 table=(opt,rrhf)
 ----------------------------------------------------------------------
 -----
 title
 -----
 Symbolic Z-matrix:
 Charge =  0 Multiplicity = 1

 SCF Done:  E(RHF) =  -489.702976037     A.U. after   14 cycles
 Normal termination of Gaussian 16 at Tue Apr  8 22:11:02 2025.
 Gaussian 16:  ES64L-G16RevC.01  3-Jul-2019

 ----------------------------------------------------------------------
 #t hf aug-cc-pvdz iop(5/13=1,5/36=2,99/5=2) pseudo=read geom=check gue
 ss=(read,tcheck) scf=(maxcycle=1)
 ----------------------------------------------------------------------
 -----
 title
 -----
 Structure from the checkpoint file:  "ANI1ccx_957_conf11_mol1.chk"
 Charge =  0 Multiplicity = 1

                         Standard orientation:
 ---------------------------------------------------------------------
 Center     Atomic      Atomic             Coordinates (Angstroms)
 Number     Number       Type             X           Y           Z
 ---------------------------------------------------------------------
      1          6           0        0.729403    0.656612    0.330619
      2          6           0        1.167721   -0.791151    0.205919
      3          6           0       -0.498875    0.946900   -0.530346
      4          6           0       -1.734709    0.096985   -0.289216
      5          1           0        2.593431   -0.032459   -0.710732
      6          1           0       -3.076979   -0.297676    1.176710
      7          1           0       -0.275290    0.867581   -1.604200
      8          1           0       -0.788926    1.991040   -0.231945
      9          1           0       -2.081659    1.057740    1.558460
     10          1           0        2.539551    1.552269    0.618852
     11          1           0        1.866101    1.942419   -0.843523
     12          1           0        0.354759    0.736610    1.357700
     13          7           0        1.697421    1.697749    0.134869
     14          7           0       -2.271749    0.251932    0.946580
     15          8           0       -2.304379   -0.656393   -1.070610
     16          8           0        0.640037   -1.752290    0.709301
     17          8           0        2.277851   -0.956488   -0.537858
 ---------------------------------------------------------------------

 SCF Done:  E(RHF) =  -489.854122640     A.U. after    2 cycles

 The electronic state is 1-A.
 Alpha  occ. eigenvalues --  -20.63477 -20.56556 -20.54056 -15.66223 -15.64957
 Alpha  occ. eigenvalues --  -11.40281 -11.37570 -11.32243 -11.28538  -1.43026
 Alpha  occ. eigenvalues --   -1.34860  -1.33233  -1.22313  -1.17756  -1.05777
 Alpha  occ. eigenvalues --   -0.94065  -0.83514  -0.81222  -0.77068  -0.74660
 Alpha  occ. eigenvalues --   -0.70777  -0.69141  -0.66820  -0.66061  -0.63932
 Alpha  occ. eigenvalues --   -0.61572  -0.59971  -0.58800  -0.54539  -0.54255
 Alpha  occ. eigenvalues --   -0.50145  -0.49088  -0.44892  -0.43258  -0.41484
 Alpha virt. eigenvalues --    0.01882   0.02739   0.03550   0.04673   0.06027
 Alpha virt. eigenvalues --    0.06479   0.06688   0.08371   0.10616   0.10899
 Alpha virt. eigenvalues --    0.11520   0.12087   0.13353   0.13381   0.14294

 Mulliken charges:
               1
     1  C    0.411407
     2  C    0.742252
     3  C    0.013109
     4  C    0.650360
     5  H    0.220926
     6  H   -0.051362
     7  H   -0.059444
     8  H    0.145216
     9  H    0.021996
    10  H   -0.063832
    11  H    0.074698
    12  H   -0.095661
    13  N   -0.282819
    14  N   -0.177943
    15  O   -0.558189
    16  O   -0.473694
    17  O   -0.517020
 Sum of Mulliken charges =  -0.00000

 Dipole moment (field-independent basis, Debye):
    X=              2.4801    Y=              6.9643    Z=              1.8213  Tot=              7.6137

 Test job not archived.
 1\1\GINC-SE435\SP\RHF\Aug-CC-pVDZ\C4H8N2O3\OHZDE\08-Apr-2025\0\\#t hf
 aug-cc-pvdz iop(5/13=1,5/36=2,99/5=2) pseudo=read geom=check guess=(re
 ad,tcheck) scf=(maxcycle=1)\\title\\0,1\C,0,0.729402,0.656612,0.330619
 \C,0,1.16772,-0.79115,0.205919\C,0,-0.498876,0.9469,-0.530346\C,0,-1.7
 3471,0.0969852,-0.289216\H,0,2.59343,-0.0324579,-0.710732\H,0,-3.07698
 ,-0.297676,1.17671\H,0,-0.275291,0.867581,-1.6042\H,0,-0.788927,1.9910
 4,-0.231945\H,0,-2.08166,1.05774,1.55846\H,0,2.53955,1.55227,0.618852\
 H,0,1.8661,1.94242,-0.843523\H,0,0.354758,0.73661,1.3577\N,0,1.69742,1

 Normal termination of Gaussian 16 at Tue Apr  8 22:11:09 2025.
