 Gaussian 16, Revision C.01,

 ----------------------------------------------------------------------
 #t hf aug-cc-pvdz symm=none int=(grid=ultrafine) guess=(read,tcheck) s
 table=(opt,rrhf)
 ----------------------------------------------------------------------
 -----
 title
 -----
 Symbolic Z-matrix:
 Charge =  0 Multiplicity = 1

 SCF Done:  E(RHF) =  -532.282942731     A.U. after   11 cycles
 Normal termination of Gaussian 16 at Tue Apr  8 21:09:08 2025.
 Gaussian 16:  ES64L-G16RevC.01  3-Jul-2019

 ----------------------------------------------------------------------
 #t hf aug-cc-pvdz iop(5/13=1,5/36=2,99/5=2) pseudo=read geom=check gue
 ss=(read,tcheck) scf=(maxcycle=1)
 ----------------------------------------------------------------------
 -----
 title
 -----
 Structure from the checkpoint file:  "ANI1ccx_1845_conf409_mol1.chk"
 Charge =  0 Multiplicity = 1

                         Standard orientation:
 ---------------------------------------------------------------------
 Center     Atomic      Atomic             Coordinates (Angstroms)
 Number     Number       Type             X           Y           Z
 ---------------------------------------------------------------------
      1          1           0       -3.742950   -0.705168   -0.186107
      2          1           0        0.521343   -3.452970   -1.094110
      3          1           0        1.225160   -2.069770   -0.698719
      4          1           0        1.039850    3.516010   -0.937061
      5          1           0       -0.040314    2.054990   -1.003050
      6          1           0       -2.817490   -0.393493    0.999882
      7          1           0       -0.685924   -1.580800    0.747348
      8          1           0        2.633980   -0.266632   -1.117290
      9          1           0       -0.349143   -0.259898    1.508820
     10          1           0        1.553860    1.557090    0.666923
     11          1           0        1.820650    1.297280    2.201940
     12          1           0       -0.716393    0.230613   -0.738765
     13          1           0       -2.072450    0.659756   -0.544229
     14          1           0        2.984390   -0.519398    0.341997
     15          8           0       -3.368670   -0.025273    0.348946
     16          8           0        2.773430   -0.938171   -0.448479
     17          8           0        0.710139    2.640480   -0.560665
     18          8           0        1.762930    0.852404    1.354640
     19          8           0        0.402101   -2.641650   -0.505294
     20          8           0       -1.008880   -0.681296    0.987361
     21          8           0       -1.440370    0.785055   -1.194960
 ---------------------------------------------------------------------

 SCF Done:  E(RHF) =  -532.458772386     A.U. after    2 cycles

 The electronic state is 1-A.
 Alpha  occ. eigenvalues --  -20.58237 -20.58177 -20.58075 -20.57889 -20.57255
 Alpha  occ. eigenvalues --  -20.55321 -20.53775  -1.33286  -1.32864  -1.30830
 Alpha  occ. eigenvalues --   -1.30604  -1.28573  -1.28419  -1.27357  -0.76204
 Alpha  occ. eigenvalues --   -0.75518  -0.74602  -0.74383  -0.73112  -0.70699
 Alpha  occ. eigenvalues --   -0.68657  -0.63462  -0.62281  -0.61140  -0.60148
 Alpha  occ. eigenvalues --   -0.58433  -0.56567  -0.55227  -0.53503  -0.53144
 Alpha  occ. eigenvalues --   -0.52518  -0.52437  -0.51744  -0.51149  -0.48967
 Alpha virt. eigenvalues --    0.02691   0.04002   0.04570   0.05482   0.06297
 Alpha virt. eigenvalues --    0.06861   0.07352   0.07899   0.08834   0.09963
 Alpha virt. eigenvalues --    0.10236   0.10612   0.11160   0.12541   0.16994

 Mulliken charges:
               1
     1  H    0.185184
     2  H    0.219899
     3  H    0.257248
     4  H    0.229401
     5  H    0.329605
     6  H    0.174674
     7  H    0.373963
     8  H    0.186445
     9  H    0.282277
    10  H    0.324132
    11  H    0.193749
    12  H    0.259141
    13  H    0.204178
    14  H    0.200530
    15  O   -0.350915
    16  O   -0.413513
    17  O   -0.540944
    18  O   -0.529241
    19  O   -0.429894
    20  O   -0.737568
    21  O   -0.418352
 Sum of Mulliken charges =  -0.00000

 Dipole moment (field-independent basis, Debye):
    X=              2.9026    Y=             -0.0188    Z=              0.4998  Tot=              2.9454

 Test job not archived.
 1\1\GINC-SE328\SP\RHF\Aug-CC-pVDZ\H14O7\OHZDE\08-Apr-2025\0\\#t hf aug
 -cc-pvdz iop(5/13=1,5/36=2,99/5=2) pseudo=read geom=check guess=(read,
 tcheck) scf=(maxcycle=1)\\title\\0,1\H,0,-3.74295,-0.705168,-0.186107\
 H,0,0.521343,-3.45297,-1.09411\H,0,1.22516,-2.06977,-0.698719\H,0,1.03
 985,3.51601,-0.937061\H,0,-0.0403138,2.05499,-1.00305\H,0,-2.81749,-0.
 393493,0.999882\H,0,-0.685924,-1.5808,0.747348\H,0,2.63398,-0.266632,-
 1.11729\H,0,-0.349143,-0.259898,1.50882\H,0,1.55386,1.55709,0.666923\H
 ,0,1.82065,1.29728,2.20194\H,0,-0.716393,0.230613,-0.738765\H,0,-2.072

 Normal termination of Gaussian 16 at Tue Apr  8 21:09:15 2025.
