 Gaussian 16, Revision C.01,

 ----------------------------------------------------------------------
 #t hf aug-cc-pvdz symm=none int=(grid=ultrafine) guess=(read,tcheck) s
 table=(opt,rrhf)
 ----------------------------------------------------------------------
 -----
 title
 -----
 Symbolic Z-matrix:
 Charge =  0 Multiplicity = 1

 SCF Done:  E(RHF) =  -697.983717347     A.U. after   17 cycles
 Normal termination of Gaussian 16 at Tue Apr  8 19:43:24 2025.
 Gaussian 16:  ES64L-G16RevC.01  3-Jul-2019

 ----------------------------------------------------------------------
 #t hf aug-cc-pvdz iop(5/13=1,5/36=2,99/5=2) pseudo=read geom=check gue
 ss=(read,tcheck) scf=(maxcycle=1)
 ----------------------------------------------------------------------
 -----
 title
 -----
 Structure from the checkpoint file:  "ANI1ccx_1468_conf4_mol2.chk"
 Charge =  0 Multiplicity = 1

                         Standard orientation:
 ---------------------------------------------------------------------
 Center     Atomic      Atomic             Coordinates (Angstroms)
 Number     Number       Type             X           Y           Z
 ---------------------------------------------------------------------
      1          6           0        2.878162   -1.946577   -0.024580
      2          6           0        1.364372   -1.670848    0.238988
      3          6           0        1.175671   -0.629786    1.359470
      4          6           0       -0.264089   -0.205530    1.408950
      5          6           0       -2.208430    0.947945    0.310479
      6          6           0       -3.248109   -0.118035    0.375695
      7          6           0       -3.337119   -0.978752   -0.872321
      8          1           0        1.178829    2.678742    0.347771
      9          1           0       -1.374269   -1.469580   -0.986055
     10          1           0       -2.306448   -2.571541   -0.220880
     11          1           0       -3.346309   -0.307417   -1.733630
     12          1           0       -4.279958   -1.530042   -0.904073
     13          1           0       -4.212910    0.384968    0.460904
     14          1           0       -3.127269   -0.693656    1.293420
     15          1           0       -2.318581    1.530649    1.220990
     16          1           0       -2.375981    1.639239   -0.515591
     17          1           0       -0.948089   -1.070980    1.569590
     18          1           0       -0.459975    0.470995    2.229430
     19          1           0        1.865880    0.212848    1.282030
     20          1           0        1.455131   -1.104868    2.298180
     21          1           0        0.946526   -1.322928   -0.730669
     22          1           0        0.800870   -2.576258    0.508069
     23          1           0        3.415332   -2.369696    0.826097
     24          1           0        2.911972   -2.708787   -0.796365
     25          1           0        3.794551   -0.176093    0.272552
     26          1           0        3.083871   -0.307056   -1.190420
     27          7           0        3.619251   -0.813827   -0.485846
     28          7           0       -0.829395    0.444171    0.213162
     29          7           0       -2.257888   -1.942371   -1.010770
     30          7           0       -0.012835    1.477831   -0.211985
     31          7           0        0.933863    1.214432   -1.141450
     32          8           0        0.313281    2.442511    0.723072
     33          8           0        1.807109    2.087402   -1.167220
 ---------------------------------------------------------------------

 SCF Done:  E(RHF) =  -698.194177199     A.U. after    2 cycles

 The electronic state is 1-A.
 Alpha  occ. eigenvalues --  -20.64476 -20.63468 -15.83009 -15.78846 -15.68928
 Alpha  occ. eigenvalues --  -15.59726 -15.59659 -11.28324 -11.28062 -11.25989
 Alpha  occ. eigenvalues --  -11.25387 -11.24782 -11.23978 -11.23705  -1.51741
 Alpha  occ. eigenvalues --   -1.41028  -1.27997  -1.16186  -1.15787  -1.13643
 Alpha  occ. eigenvalues --   -1.07339  -1.02916  -0.96118  -0.91585  -0.88717
 Alpha  occ. eigenvalues --   -0.84104  -0.81859  -0.80719  -0.79457  -0.72832
 Alpha  occ. eigenvalues --   -0.72801  -0.69256  -0.67277  -0.66879  -0.64873
 Alpha  occ. eigenvalues --   -0.64534  -0.62582  -0.62228  -0.60921  -0.60000
 Alpha  occ. eigenvalues --   -0.58629  -0.58361  -0.56241  -0.55748  -0.53950
 Alpha  occ. eigenvalues --   -0.53562  -0.51040  -0.51021  -0.49603  -0.48826
 Alpha  occ. eigenvalues --   -0.47782  -0.46776  -0.41708  -0.41070  -0.37602
 Alpha  occ. eigenvalues --   -0.37322
 Alpha virt. eigenvalues --    0.02418   0.03109   0.03553   0.04303   0.05247
 Alpha virt. eigenvalues --    0.05494   0.05822   0.06423   0.06625   0.07411
 Alpha virt. eigenvalues --    0.07572   0.08104   0.08282   0.08671   0.08787

 Mulliken charges:
               1
     1  C    1.053407
     2  C    0.273482
     3  C    0.448099
     4  C    0.780550
     5  C    0.852420
     6  C    0.303213
     7  C    0.696875
     8  H    0.279213
     9  H    0.085395
    10  H    0.082557
    11  H   -0.144210
    12  H   -0.200521
    13  H   -0.052172
    14  H   -0.094836
    15  H   -0.151192
    16  H   -0.265115
    17  H   -0.282816
    18  H   -0.226411
    19  H   -0.210100
    20  H   -0.151700
    21  H   -0.301072
    22  H   -0.193140
    23  H   -0.203835
    24  H   -0.154939
    25  H    0.018564
    26  H    0.073113
    27  N   -0.413585
    28  N   -0.816723
    29  N   -0.312616
    30  N    0.223300
    31  N    0.247311
    32  O   -0.600606
    33  O   -0.641909
 Sum of Mulliken charges =  -0.00000

 Dipole moment (field-independent basis, Debye):
    X=             -3.0786    Y=             -0.1738    Z=              3.7647  Tot=              4.8663

 Test job not archived.
 1\1\GINC-SE456\SP\RHF\Aug-CC-pVDZ\C7H19N5O2\OHZDE\08-Apr-2025\0\\#t hf
  aug-cc-pvdz iop(5/13=1,5/36=2,99/5=2) pseudo=read geom=check guess=(r
 ead,tcheck) scf=(maxcycle=1)\\title\\0,1\C,0,2.87816,-1.94658,-0.02458
 02\C,0,1.36437,-1.67085,0.238988\C,0,1.17567,-0.629788,1.35947\C,0,-0.
 26409,-0.205531,1.40895\C,0,-2.20843,0.947945,0.310479\C,0,-3.24811,-0
 .118034,0.375695\C,0,-3.33712,-0.978751,-0.872321\H,0,1.17883,2.67874,
 0.347771\H,0,-1.37427,-1.46958,-0.986055\H,0,-2.30645,-2.57154,-0.2208
 8\H,0,-3.34631,-0.307416,-1.73363\H,0,-4.27996,-1.53004,-0.904073\H,0,

 Normal termination of Gaussian 16 at Tue Apr  8 19:43:57 2025.
