 Gaussian 16, Revision C.01,

 ----------------------------------------------------------------------
 #t hf aug-cc-pvdz symm=none int=(grid=ultrafine) guess=(read,tcheck) s
 table=(opt,rrhf)
 ----------------------------------------------------------------------
 -----
 title
 -----
 Symbolic Z-matrix:
 Charge =  0 Multiplicity = 1

 SCF Done:  E(RHF) =  -444.555786180     A.U. after   15 cycles
 Normal termination of Gaussian 16 at Tue Apr  8 21:42:14 2025.
 Gaussian 16:  ES64L-G16RevC.01  3-Jul-2019

 ----------------------------------------------------------------------
 #t hf aug-cc-pvdz iop(5/13=1,5/36=2,99/5=2) pseudo=read geom=check gue
 ss=(read,tcheck) scf=(maxcycle=1)
 ----------------------------------------------------------------------
 -----
 title
 -----
 Structure from the checkpoint file:  "ANI1ccx_488_conf2_mol2.chk"
 Charge =  0 Multiplicity = 1

                         Standard orientation:
 ---------------------------------------------------------------------
 Center     Atomic      Atomic             Coordinates (Angstroms)
 Number     Number       Type             X           Y           Z
 ---------------------------------------------------------------------
      1          6           0       -1.290970   -0.394416    0.161544
      2          6           0        0.071536    1.528269   -0.068616
      3          1           0       -2.857009   -0.173009   -1.043090
      4          1           0       -2.850502   -1.712766   -0.225328
      5          7           0       -2.466280   -0.785060   -0.362001
      6          7           0       -0.981400    0.950266   -0.289545
      7          7           0        2.006390   -0.738472   -0.451863
      8          7           0        2.802429   -1.420466   -0.115495
      9          8           0        0.995264    2.186187    0.256801
     10          8           0       -0.558246   -1.056340    0.898596
 ---------------------------------------------------------------------

 SCF Done:  E(RHF) =  -444.692795092     A.U. after    2 cycles

 The electronic state is 1-A.
 Alpha  occ. eigenvalues --  -20.66160 -20.56471 -15.74562 -15.74245 -15.68097
 Alpha  occ. eigenvalues --  -15.67990 -11.45853 -11.44542  -1.45054  -1.41286
 Alpha  occ. eigenvalues --   -1.38031  -1.25717  -1.21259  -0.91494  -0.78881
 Alpha  occ. eigenvalues --   -0.76613  -0.74867  -0.72912  -0.68838  -0.66458
 Alpha  occ. eigenvalues --   -0.65953  -0.61919  -0.61237  -0.59580  -0.59381
 Alpha  occ. eigenvalues --   -0.53754  -0.46726  -0.46374  -0.44843
 Alpha virt. eigenvalues --    0.02371   0.04453   0.07133   0.07858   0.09775
 Alpha virt. eigenvalues --    0.10093   0.11241   0.12207   0.12491   0.12795
 Alpha virt. eigenvalues --    0.13348   0.14080   0.14619   0.14954   0.15987

 Mulliken charges:
               1
     1  C    0.983741
     2  C   -0.005489
     3  H    0.020648
     4  H    0.007947
     5  N   -0.090923
     6  N   -0.246034
     7  N    0.040126
     8  N   -0.056733
     9  O   -0.185282
    10  O   -0.468001
 Sum of Mulliken charges =  -0.00000

 Dipole moment (field-independent basis, Debye):
    X=             -3.8836    Y=             -0.4104    Z=             -2.7344  Tot=              4.7673

 Test job not archived.
 1\1\GINC-SE339\SP\RHF\Aug-CC-pVDZ\C2H2N4O2\OHZDE\08-Apr-2025\0\\#t hf
 aug-cc-pvdz iop(5/13=1,5/36=2,99/5=2) pseudo=read geom=check guess=(re
 ad,tcheck) scf=(maxcycle=1)\\title\\0,1\C,0,-1.29097,-0.394417,0.16154
 4\C,0,0.0715321,1.52827,-0.0686157\H,0,-2.85701,-0.173013,-1.04309\H,0
 ,-2.8505,-1.71277,-0.225328\N,0,-2.46628,-0.785064,-0.362001\N,0,-0.98
 1403,0.950265,-0.289545\N,0,2.00639,-0.738468,-0.451863\N,0,2.80243,-1
 .42046,-0.115495\O,0,0.995259,2.18619,0.256801\O,0,-0.558245,-1.05634,
 0.898596\\Version=ES64L-G16RevC.01\State=1-A\HF=-444.6927951\RMSD=2.44

 Normal termination of Gaussian 16 at Tue Apr  8 21:42:18 2025.
