 Gaussian 16, Revision C.01,

 ----------------------------------------------------------------------
 #t hf aug-cc-pvdz symm=none int=(grid=ultrafine) guess=(read,tcheck) s
 table=(opt,rrhf)
 ----------------------------------------------------------------------
 -----
 title
 -----
 Symbolic Z-matrix:
 Charge =  0 Multiplicity = 1

 SCF Done:  E(RHF) =  -506.636490395     A.U. after   17 cycles
 Normal termination of Gaussian 16 at Tue Apr  8 21:54:08 2025.
 Gaussian 16:  ES64L-G16RevC.01  3-Jul-2019

 ----------------------------------------------------------------------
 #t hf aug-cc-pvdz iop(5/13=1,5/36=2,99/5=2) pseudo=read geom=check gue
 ss=(read,tcheck) scf=(maxcycle=1)
 ----------------------------------------------------------------------
 -----
 title
 -----
 Structure from the checkpoint file:  "ANI1ccx_787_conf1_mol1.chk"
 Charge =  0 Multiplicity = 1

                         Standard orientation:
 ---------------------------------------------------------------------
 Center     Atomic      Atomic             Coordinates (Angstroms)
 Number     Number       Type             X           Y           Z
 ---------------------------------------------------------------------
      1          6           0        0.376273    1.635950   -0.760868
      2          6           0        1.160140    0.229455    1.123221
      3          6           0        1.928070   -0.908490    0.407373
      4          1           0       -1.741460   -1.242130   -0.964753
      5          1           0        3.136540   -0.956370   -1.106719
      6          1           0        2.637370   -1.301150    1.128981
      7          1           0        0.835587   -0.071265    2.136511
      8          1           0        1.240850   -1.700190    0.063528
      9          1           0       -0.520174    2.190090   -1.089139
     10          1           0        1.112190    2.386360   -0.480534
     11          1           0        0.848226    1.064750   -1.602779
     12          1           0        1.952210    1.004900    1.297101
     13          7           0        0.024282    0.815590    0.423769
     14          7           0       -0.929846   -0.069019    0.188803
     15          7           0       -2.166530    0.262486    0.508128
     16          8           0       -0.763970   -1.055420   -0.779351
     17          8           0        2.660930   -0.286453   -0.613795
     18          8           0       -2.994910   -0.430611   -0.087533
 ---------------------------------------------------------------------

 SCF Done:  E(RHF) =  -506.791763508     A.U. after    2 cycles

 The electronic state is 1-A.
 Alpha  occ. eigenvalues --  -20.64015 -20.61376 -20.58285 -15.81298 -15.78323
 Alpha  occ. eigenvalues --  -15.68374 -11.29375 -11.28266 -11.27126  -1.51156
 Alpha  occ. eigenvalues --   -1.39608  -1.34270  -1.28592  -1.13370  -1.00962
 Alpha  occ. eigenvalues --   -0.95198  -0.88384  -0.80983  -0.79534  -0.73916
 Alpha  occ. eigenvalues --   -0.72341  -0.71860  -0.66627  -0.65798  -0.61697
 Alpha  occ. eigenvalues --   -0.60713  -0.60127  -0.58627  -0.56348  -0.55784
 Alpha  occ. eigenvalues --   -0.54085  -0.51224  -0.47338  -0.45718  -0.40261
 Alpha  occ. eigenvalues --   -0.39866
 Alpha virt. eigenvalues --    0.02931   0.03931   0.04109   0.05061   0.06323
 Alpha virt. eigenvalues --    0.06733   0.07121   0.07628   0.08869   0.10274
 Alpha virt. eigenvalues --    0.11954   0.12206   0.13048   0.14063   0.14278

 Mulliken charges:
               1
     1  C    0.781940
     2  C    0.451687
     3  C    0.854929
     4  H    0.329069
     5  H    0.144604
     6  H   -0.168761
     7  H   -0.241755
     8  H   -0.083480
     9  H   -0.191581
    10  H   -0.185950
    11  H    0.077930
    12  H   -0.089778
    13  N   -0.328235
    14  N    0.294780
    15  N    0.245364
    16  O   -0.732073
    17  O   -0.542470
    18  O   -0.616221
 Sum of Mulliken charges =   0.00000

 Dipole moment (field-independent basis, Debye):
    X=              3.5703    Y=             -0.6947    Z=             -0.1471  Tot=              3.6403

 Test job not archived.
 1\1\GINC-SE187\SP\RHF\Aug-CC-pVDZ\C3H9N3O3\OHZDE\08-Apr-2025\0\\#t hf
 aug-cc-pvdz iop(5/13=1,5/36=2,99/5=2) pseudo=read geom=check guess=(re
 ad,tcheck) scf=(maxcycle=1)\\title\\0,1\C,0,0.376273,1.63595,-0.760869
 \C,0,1.16014,0.229455,1.12322\C,0,1.92807,-0.90849,0.407372\H,0,-1.741
 46,-1.24213,-0.964754\H,0,3.13654,-0.95637,-1.10672\H,0,2.63737,-1.301
 15,1.12898\H,0,0.835587,-0.0712648,2.13651\H,0,1.24085,-1.70019,0.0635
 277\H,0,-0.520174,2.19009,-1.08914\H,0,1.11219,2.38636,-0.480535\H,0,0
 .848226,1.06475,-1.60278\H,0,1.95221,1.0049,1.2971\N,0,0.0242816,0.815

 Normal termination of Gaussian 16 at Tue Apr  8 21:54:17 2025.
