 Gaussian 16, Revision C.01,

 ----------------------------------------------------------------------
 #t hf aug-cc-pvdz symm=none int=(grid=ultrafine) guess=(read,tcheck) s
 table=(opt,rrhf)
 ----------------------------------------------------------------------
 -----
 title
 -----
 Symbolic Z-matrix:
 Charge =  0 Multiplicity = 1

 SCF Done:  E(RHF) =  -375.792177425     A.U. after   14 cycles
 Normal termination of Gaussian 16 at Tue Apr  8 21:50:09 2025.
 Gaussian 16:  ES64L-G16RevC.01  3-Jul-2019

 ----------------------------------------------------------------------
 #t hf aug-cc-pvdz iop(5/13=1,5/36=2,99/5=2) pseudo=read geom=check gue
 ss=(read,tcheck) scf=(maxcycle=1)
 ----------------------------------------------------------------------
 -----
 title
 -----
 Structure from the checkpoint file:  "ANI1ccx_723_conf3_mol1.chk"
 Charge =  0 Multiplicity = 1

                         Standard orientation:
 ---------------------------------------------------------------------
 Center     Atomic      Atomic             Coordinates (Angstroms)
 Number     Number       Type             X           Y           Z
 ---------------------------------------------------------------------
      1          6           0        1.216341    0.015897    0.052443
      2          6           0       -0.035308   -0.809276    0.307220
      3          6           0       -1.380099   -0.139092   -0.022342
      4          1           0        2.399933   -1.747809   -0.160913
      5          1           0        3.250971   -0.195061   -0.313123
      6          1           0        2.037880    1.769840   -0.230761
      7          1           0       -0.064514   -1.122021    1.355380
      8          1           0       -0.022961   -1.679331   -0.303645
      9          1           0       -0.534435    1.601638    0.024643
     10          7           0        2.374782   -0.705309   -0.118848
     11          7           0        1.141100    1.299080   -0.027173
     12          8           0       -1.463000    1.197768    0.061367
     13          8           0       -2.347458   -0.846370   -0.233036
 ---------------------------------------------------------------------

 SCF Done:  E(RHF) =  -375.908514130     A.U. after    2 cycles

 The electronic state is 1-A.
 Alpha  occ. eigenvalues --  -20.59047 -20.54545 -15.68531 -15.62785 -11.39398
 Alpha  occ. eigenvalues --  -11.37830 -11.28277  -1.39089  -1.30380  -1.26421
 Alpha  occ. eigenvalues --   -1.13754  -1.04043  -0.83887  -0.81246  -0.74008
 Alpha  occ. eigenvalues --   -0.73674  -0.69822  -0.66156  -0.65313  -0.61291
 Alpha  occ. eigenvalues --   -0.58317  -0.55533  -0.53706  -0.47397  -0.45917
 Alpha  occ. eigenvalues --   -0.45114  -0.39957
 Alpha virt. eigenvalues --    0.01449   0.03113   0.04277   0.05027   0.07026
 Alpha virt. eigenvalues --    0.07743   0.10457   0.11073   0.11730   0.12682
 Alpha virt. eigenvalues --    0.12878   0.13597   0.14745   0.14932   0.15582

 Mulliken charges:
               1
     1  C    0.777392
     2  C    0.150971
     3  C    0.542496
     4  H    0.029853
     5  H   -0.008277
     6  H   -0.070918
     7  H    0.119932
     8  H   -0.036787
     9  H    0.318418
    10  N   -0.320220
    11  N   -0.506513
    12  O   -0.502657
    13  O   -0.493691
 Sum of Mulliken charges =  -0.00000

 Dipole moment (field-independent basis, Debye):
    X=              8.0694    Y=             -1.5541    Z=              0.2498  Tot=              8.2215

 Test job not archived.
 1\1\GINC-SE402\SP\RHF\Aug-CC-pVDZ\C3H6N2O2\OHZDE\08-Apr-2025\0\\#t hf
 aug-cc-pvdz iop(5/13=1,5/36=2,99/5=2) pseudo=read geom=check guess=(re
 ad,tcheck) scf=(maxcycle=1)\\title\\0,1\C,0,1.21634,0.0158969,0.052442
 7\C,0,-0.0353095,-0.809275,0.30722\C,0,-1.3801,-0.13909,-0.0223418\H,0
 ,2.39993,-1.74781,-0.160913\H,0,3.25097,-0.195062,-0.313123\H,0,2.0378
 8,1.76984,-0.230761\H,0,-0.0645163,-1.12202,1.35538\H,0,-0.022964,-1.6
 7933,-0.303645\H,0,-0.534435,1.60164,0.0246433\N,0,2.37478,-0.70531,-0
 .118848\N,0,1.1411,1.29908,-0.0271733\O,0,-1.463,1.19777,0.0613667\O,0

 Normal termination of Gaussian 16 at Tue Apr  8 21:50:13 2025.
