 Gaussian 16, Revision C.01,

 ----------------------------------------------------------------------
 #t hf aug-cc-pvdz symm=none int=(grid=ultrafine) guess=(read,tcheck) s
 table=(opt,rrhf)
 ----------------------------------------------------------------------
 -----
 title
 -----
 Symbolic Z-matrix:
 Charge =  0 Multiplicity = 1

 SCF Done:  E(RHF) =  -413.898351035     A.U. after   13 cycles
 Normal termination of Gaussian 16 at Tue Apr  8 21:46:59 2025.
 Gaussian 16:  ES64L-G16RevC.01  3-Jul-2019

 ----------------------------------------------------------------------
 #t hf aug-cc-pvdz iop(5/13=1,5/36=2,99/5=2) pseudo=read geom=check gue
 ss=(read,tcheck) scf=(maxcycle=1)
 ----------------------------------------------------------------------
 -----
 title
 -----
 Structure from the checkpoint file:  "ANI1ccx_583_conf1_mol1.chk"
 Charge =  0 Multiplicity = 1

                         Standard orientation:
 ---------------------------------------------------------------------
 Center     Atomic      Atomic             Coordinates (Angstroms)
 Number     Number       Type             X           Y           Z
 ---------------------------------------------------------------------
      1          6           0       -1.217940    1.812091    0.303271
      2          6           0       -0.915858   -0.413296   -0.192816
      3          1           0        3.099969    0.346514   -0.024303
      4          1           0        1.789869    1.239280   -0.067207
      5          1           0       -1.724870    1.949371   -0.693278
      6          1           0       -0.675711    2.747691    0.566020
      7          1           0       -1.882540    1.563161    1.128130
      8          1           0       -0.609161   -2.369039   -0.328183
      9          1           0        1.885168   -2.183530    0.021794
     10          1           0        1.109998   -1.742360    1.454150
     11          7           0       -0.085501   -1.470169   -0.165810
     12          7           0        1.148908   -1.576420    0.407939
     13          8           0        2.736339    1.181209   -0.390462
     14          8           0       -0.292431    0.709962    0.215663
     15          8           0       -2.148131   -0.468388   -0.377046
 ---------------------------------------------------------------------

 SCF Done:  E(RHF) =  -414.031789941     A.U. after    2 cycles

 The electronic state is 1-A.
 Alpha  occ. eigenvalues --  -20.62939 -20.55560 -20.55044 -15.70295 -15.68318
 Alpha  occ. eigenvalues --  -11.43439 -11.30707  -1.43475  -1.31482  -1.28304
 Alpha  occ. eigenvalues --   -1.26982  -1.07687  -0.96399  -0.81400  -0.76177
 Alpha  occ. eigenvalues --   -0.74248  -0.71814  -0.69137  -0.67874  -0.65936
 Alpha  occ. eigenvalues --   -0.61728  -0.57242  -0.56768  -0.53364  -0.49959
 Alpha  occ. eigenvalues --   -0.49542  -0.48511  -0.45679  -0.40425
 Alpha virt. eigenvalues --    0.02235   0.03693   0.04231   0.04488   0.06822
 Alpha virt. eigenvalues --    0.06909   0.07510   0.09209   0.12152   0.12757
 Alpha virt. eigenvalues --    0.13127   0.13976   0.14499   0.15256   0.16057

 Mulliken charges:
               1
     1  C    0.573801
     2  C    0.796096
     3  H    0.165551
     4  H    0.212774
     5  H    0.083511
     6  H   -0.213565
     7  H   -0.036648
     8  H    0.024104
     9  H    0.044871
    10  H    0.145054
    11  N   -0.157218
    12  N   -0.190282
    13  O   -0.337841
    14  O   -0.603475
    15  O   -0.506734
 Sum of Mulliken charges =  -0.00000

 Dipole moment (field-independent basis, Debye):
    X=              0.9776    Y=             -2.9111    Z=              2.4246  Tot=              3.9126

 Test job not archived.
 1\1\GINC-SE116\SP\RHF\Aug-CC-pVDZ\C2H8N2O3\OHZDE\08-Apr-2025\0\\#t hf
 aug-cc-pvdz iop(5/13=1,5/36=2,99/5=2) pseudo=read geom=check guess=(re
 ad,tcheck) scf=(maxcycle=1)\\title\\0,1\C,0,-1.21794,1.81209,0.303271\
 C,0,-0.915857,-0.413297,-0.192816\H,0,3.09997,0.346515,-0.0243026\H,0,
 1.78987,1.23928,-0.0672072\H,0,-1.72487,1.94937,-0.693278\H,0,-0.67571
 1,2.74769,0.56602\H,0,-1.88254,1.56316,1.12813\H,0,-0.609159,-2.36904,
 -0.328183\H,0,1.88517,-2.18353,0.0217939\H,0,1.11,-1.74236,1.45415\N,0
 ,-0.0854994,-1.47017,-0.16581\N,0,1.14891,-1.57642,0.407939\O,0,2.7363

 Normal termination of Gaussian 16 at Tue Apr  8 21:47:05 2025.
