 Gaussian 16, Revision C.01,

 ----------------------------------------------------------------------
 #t hf aug-cc-pvdz symm=none int=(grid=ultrafine) guess=(read,tcheck) s
 table=(opt,rrhf)
 ----------------------------------------------------------------------
 -----
 title
 -----
 Symbolic Z-matrix:
 Charge =  0 Multiplicity = 1

 SCF Done:  E(RHF) =  -376.949205201     A.U. after   13 cycles
 Normal termination of Gaussian 16 at Tue Apr  8 21:51:15 2025.
 Gaussian 16:  ES64L-G16RevC.01  3-Jul-2019

 ----------------------------------------------------------------------
 #t hf aug-cc-pvdz iop(5/13=1,5/36=2,99/5=2) pseudo=read geom=check gue
 ss=(read,tcheck) scf=(maxcycle=1)
 ----------------------------------------------------------------------
 -----
 title
 -----
 Structure from the checkpoint file:  "ANI1ccx_763_conf1_mol1.chk"
 Charge =  0 Multiplicity = 1

                         Standard orientation:
 ---------------------------------------------------------------------
 Center     Atomic      Atomic             Coordinates (Angstroms)
 Number     Number       Type             X           Y           Z
 ---------------------------------------------------------------------
      1          6           0        0.085090   -0.307681   -0.180750
      2          6           0        2.423671   -0.341109    0.129255
      3          6           0        1.820051    1.095479    0.248103
      4          1           0       -3.109509    0.350596    0.195713
      5          1           0       -4.468419   -0.590342    0.274103
      6          1           0        1.096081   -2.094531    0.101608
      7          1           0        3.106451   -0.523596    0.975949
      8          1           0        2.945701   -0.528027   -0.876541
      9          1           0        2.499201    1.832939   -0.237700
     10          1           0        1.666401    1.474919    1.257960
     11          1           0       -0.245611    1.573520   -0.208268
     12          7           0        1.163531   -1.097481    0.129115
     13          7           0        0.565020    0.969651   -0.470244
     14          8           0       -4.097479    0.336136    0.177981
     15          8           0       -1.097899   -0.746237   -0.212302
 ---------------------------------------------------------------------

 SCF Done:  E(RHF) =  -377.064974945     A.U. after    2 cycles

 The electronic state is 1-A.
 Alpha  occ. eigenvalues --  -20.54518 -20.54087 -15.66767 -15.65956 -11.40400
 Alpha  occ. eigenvalues --  -11.31663 -11.30753  -1.35209  -1.25745  -1.25425
 Alpha  occ. eigenvalues --   -1.16371  -1.01032  -0.87230  -0.82979  -0.72286
 Alpha  occ. eigenvalues --   -0.69989  -0.68987  -0.65564  -0.62058  -0.61094
 Alpha  occ. eigenvalues --   -0.58021  -0.56931  -0.54371  -0.53721  -0.48802
 Alpha  occ. eigenvalues --   -0.46154  -0.42748  -0.40486
 Alpha virt. eigenvalues --    0.02291   0.03231   0.03780   0.04533   0.06418
 Alpha virt. eigenvalues --    0.06619   0.07052   0.09918   0.10325   0.10990
 Alpha virt. eigenvalues --    0.11726   0.13111   0.13831   0.14626   0.14807

 Mulliken charges:
               1
     1  C    0.692223
     2  C    0.590486
     3  C    0.733212
     4  H    0.189547
     5  H    0.180118
     6  H   -0.133460
     7  H   -0.076945
     8  H   -0.043869
     9  H   -0.090173
    10  H   -0.252736
    11  H    0.056528
    12  N   -0.386786
    13  N   -0.520544
    14  O   -0.365952
    15  O   -0.571650
 Sum of Mulliken charges =  -0.00000

 Dipole moment (field-independent basis, Debye):
    X=              6.6790    Y=             -0.2015    Z=              1.3798  Tot=              6.8230

 Test job not archived.
 1\1\GINC-SE460\SP\RHF\Aug-CC-pVDZ\C3H8N2O2\OHZDE\08-Apr-2025\0\\#t hf
 aug-cc-pvdz iop(5/13=1,5/36=2,99/5=2) pseudo=read geom=check guess=(re
 ad,tcheck) scf=(maxcycle=1)\\title\\0,1\C,0,0.0850894,-0.307681,-0.180
 75\C,0,2.42367,-0.341108,0.129255\C,0,1.82005,1.09548,0.248103\H,0,-3.
 10951,0.350596,0.195713\H,0,-4.46842,-0.590342,0.274103\H,0,1.09608,-2
 .09453,0.101608\H,0,3.10645,-0.523595,0.975949\H,0,2.9457,-0.528026,-0
 .876541\H,0,2.4992,1.83294,-0.2377\H,0,1.6664,1.47492,1.25796\H,0,-0.2
 45612,1.57352,-0.208268\N,0,1.16353,-1.09748,0.129115\N,0,0.565019,0.9

 Normal termination of Gaussian 16 at Tue Apr  8 21:51:20 2025.
