 Gaussian 16, Revision C.01,

 ----------------------------------------------------------------------
 #t hf aug-cc-pvdz symm=none int=(grid=ultrafine) guess=(read,tcheck) s
 table=(opt,rrhf)
 ----------------------------------------------------------------------
 -----
 title
 -----
 Symbolic Z-matrix:
 Charge =  0 Multiplicity = 1

 SCF Done:  E(RHF) =  -569.553375142     A.U. after   13 cycles

 1\1\GINC-SE035\Stability\RHF\Aug-CC-pVDZ\C5H10O5\OHZDE\08-Apr-2025\0\\
 #t hf aug-cc-pvdz symm=none int=(grid=ultrafine) guess=(read,tcheck) s
 table=(opt,rrhf)\\title\\0,1\C,0,2.07088,-0.248411,-1.05787\C,0,1.0737
 ,0.172141,-0.00726973\C,0,-0.710914,1.70026,-0.0747229\C,0,-1.27277,0.
 343552,-0.557255\C,0,-0.266095,-0.652538,-0.00822544\H,0,-0.995268,-2.
 25122,-0.69581\H,0,0.0962307,-0.952714,1.87797\H,0,-2.521,-0.185523,0.
 743168\H,0,-1.2491,0.428739,-1.64895\H,0,-0.951816,2.60207,-0.636191\H
 ,0,-0.939107,1.82583,1.00162\H,0,2.16195,0.815558,1.46655\H,0,2.34231,

 Normal termination of Gaussian 16 at Tue Apr  8 19:13:31 2025.
 Gaussian 16:  ES64L-G16RevC.01  3-Jul-2019

 ----------------------------------------------------------------------
 #t hf aug-cc-pvdz iop(5/13=1,5/36=2,99/5=2) pseudo=read geom=check gue
 ss=(read,tcheck) scf=(maxcycle=1)
 ----------------------------------------------------------------------
 -----
 title
 -----
 Structure from the checkpoint file:  "ANI1ccx_1010_conf10_mol2.chk"
 Charge =  0 Multiplicity = 1

                         Standard orientation:
 ---------------------------------------------------------------------
 Center     Atomic      Atomic             Coordinates (Angstroms)
 Number     Number       Type             X           Y           Z
 ---------------------------------------------------------------------
      1          6           0        2.070880   -0.248410   -1.057871
      2          6           0        1.073700    0.172142   -0.007270
      3          6           0       -0.710915    1.700260   -0.074724
      4          6           0       -1.272770    0.343552   -0.557256
      5          6           0       -0.266095   -0.652538   -0.008226
      6          1           0       -0.995268   -2.251220   -0.695811
      7          1           0        0.096231   -0.952714    1.877969
      8          1           0       -2.521000   -0.185523    0.743167
      9          1           0       -1.249101    0.428739   -1.648951
     10          1           0       -0.951817    2.602070   -0.636192
     11          1           0       -0.939108    1.825830    1.001619
     12          1           0        2.161949    0.815559    1.466549
     13          1           0        2.342310   -1.305459   -0.912747
     14          1           0        1.608170   -0.241667   -2.054181
     15          1           0        2.934199    0.416264   -0.951976
     16          8           0        1.675120   -0.000932    1.270749
     17          8           0        0.739362    1.490961   -0.192426
     18          8           0       -2.579340    0.103267   -0.179326
     19          8           0       -0.695336   -0.883925    1.320009
     20          8           0       -0.121725   -1.839610   -0.713678
 ---------------------------------------------------------------------

 SCF Done:  E(RHF) =  -569.728970537     A.U. after    2 cycles

 The electronic state is 1-A.
 Alpha  occ. eigenvalues --  -20.59634 -20.59029 -20.58931 -20.58901 -20.58440
 Alpha  occ. eigenvalues --  -11.36423 -11.36070 -11.30322 -11.30271 -11.22876
 Alpha  occ. eigenvalues --   -1.41680  -1.37865  -1.34719  -1.32011  -1.30706
 Alpha  occ. eigenvalues --   -1.03363  -1.03006  -0.92722  -0.85598  -0.82590
 Alpha  occ. eigenvalues --   -0.78457  -0.74524  -0.72006  -0.69160  -0.67685
 Alpha  occ. eigenvalues --   -0.65228  -0.63535  -0.62806  -0.61323  -0.60193
 Alpha  occ. eigenvalues --   -0.58268  -0.56899  -0.56266  -0.53422  -0.52251
 Alpha  occ. eigenvalues --   -0.50621  -0.50059  -0.48957  -0.45073  -0.43809
 Alpha virt. eigenvalues --    0.03378   0.04380   0.04599   0.04656   0.06089
 Alpha virt. eigenvalues --    0.06435   0.06602   0.06724   0.07655   0.08940
 Alpha virt. eigenvalues --    0.11062   0.13007   0.13266   0.13384   0.14329

 Mulliken charges:
               1
     1  C    0.659774
     2  C    0.131337
     3  C    0.883211
     4  C    0.338208
     5  C    0.858625
     6  H    0.149791
     7  H    0.189284
     8  H    0.172436
     9  H   -0.124434
    10  H   -0.206747
    11  H   -0.060927
    12  H    0.139195
    13  H    0.093639
    14  H    0.077471
    15  H    0.007519
    16  O   -0.654330
    17  O   -0.735534
    18  O   -0.553820
    19  O   -0.688274
    20  O   -0.676423
 Sum of Mulliken charges =  -0.00000

 Dipole moment (field-independent basis, Debye):
    X=              0.5906    Y=              0.9433    Z=              0.4658  Tot=              1.2065

 Test job not archived.
 1\1\GINC-SE035\SP\RHF\Aug-CC-pVDZ\C5H10O5\OHZDE\08-Apr-2025\0\\#t hf a
 ug-cc-pvdz iop(5/13=1,5/36=2,99/5=2) pseudo=read geom=check guess=(rea
 d,tcheck) scf=(maxcycle=1)\\title\\0,1\C,0,2.07088,-0.248411,-1.05787\
 C,0,1.0737,0.172141,-0.00726973\C,0,-0.710914,1.70026,-0.0747229\C,0,-
 1.27277,0.343552,-0.557255\C,0,-0.266095,-0.652538,-0.00822544\H,0,-0.
 995268,-2.25122,-0.69581\H,0,0.0962307,-0.952714,1.87797\H,0,-2.521,-0
 .185523,0.743168\H,0,-1.2491,0.428739,-1.64895\H,0,-0.951816,2.60207,-
 0.636191\H,0,-0.939107,1.82583,1.00162\H,0,2.16195,0.815558,1.46655\H,

 Normal termination of Gaussian 16 at Tue Apr  8 19:13:43 2025.
