 Gaussian 16, Revision C.01,

 ----------------------------------------------------------------------
 #t hf aug-cc-pvdz symm=none int=(grid=ultrafine) guess=(read,tcheck) s
 table=(opt,rrhf)
 ----------------------------------------------------------------------
 -----
 title
 -----
 Symbolic Z-matrix:
 Charge =  0 Multiplicity = 1

 SCF Done:  E(RHF) =  -1036.51048935     A.U. after   14 cycles
 Normal termination of Gaussian 16 at Tue Apr  8 22:17:51 2025.
 Gaussian 16:  ES64L-G16RevC.01  3-Jul-2019

 ----------------------------------------------------------------------
 #t hf aug-cc-pvdz iop(5/13=1,5/36=2,99/5=2) pseudo=read geom=check gue
 ss=(read,tcheck) scf=(maxcycle=1)
 ----------------------------------------------------------------------
 -----
 title
 -----
 Structure from the checkpoint file:  "ANI1ccx_81_conf4_mol2.chk"
 Charge =  0 Multiplicity = 1

                         Standard orientation:
 ---------------------------------------------------------------------
 Center     Atomic      Atomic             Coordinates (Angstroms)
 Number     Number       Type             X           Y           Z
 ---------------------------------------------------------------------
      1          6           0       -1.386641   -1.874329    1.179280
      2          6           0        1.384761    2.323330    0.036357
      3          6           0        2.326911    1.791249   -1.042330
      4          6           0        2.001610    0.439918   -1.664090
      5          6           0        2.902190   -0.849120    0.341240
      6          6           0       -1.033768    2.746411    0.404472
      7          6           0       -2.769641   -1.147958   -0.917334
      8          6           0       -2.500761   -2.161508    0.169713
      9          6           0       -0.053867   -1.971150    0.383674
     10          6           0        1.794580   -0.795645   -0.704004
     11          1           0        3.343411    1.795099   -0.582716
     12          1           0        4.728049   -1.106072    0.528154
     13          1           0       -2.401839    2.139092   -0.957216
     14          1           0       -2.992688    3.230532    0.177743
     15          1           0       -1.795358    3.346291    2.004060
     16          1           0       -0.106913    2.522480   -1.350070
     17          1           0        1.410961    1.735310    0.958290
     18          1           0        1.667932    3.344889    0.351794
     19          1           0        2.315971    2.549389   -1.844870
     20          1           0        1.095450    0.496389   -2.285870
     21          1           0        2.847790    0.167298   -2.309550
     22          1           0        1.977099   -1.726941   -1.240380
     23          1           0        0.148146    0.078444    0.232848
     24          1           0       -2.256950    0.184639    0.399314
     25          1           0       -2.324002   -3.137388   -0.289019
     26          1           0       -3.442051   -2.239778    0.721339
     27          1           0       -1.295341   -2.624239    1.968190
     28          1           0       -0.719080   -0.196097    2.238860
     29          1           0       -2.276980   -0.555738    2.489000
     30          7           0       -2.169758    2.918521   -0.326350
     31          7           0       -0.902571    2.994631    1.654980
     32          7           0       -1.548980   -0.529808    1.771640
     33          7           0        0.459224   -0.800814   -0.125574
     34          7           0       -0.004481    2.230930   -0.391716
     35          8           0        2.764680   -0.598909    1.496450
     36          8           0        0.490076   -3.034320    0.215341
     37          8           0       -3.054811   -1.487828   -2.037910
     38          8           0       -2.650870    0.127083   -0.523860
     39          8           0        4.107189   -1.094152   -0.201601
 ---------------------------------------------------------------------

 SCF Done:  E(RHF) =  -1036.82349426     A.U. after    2 cycles

 The electronic state is 1-A.
 Alpha  occ. eigenvalues --  -20.63537 -20.60906 -20.57442 -20.55720 -20.55391
 Alpha  occ. eigenvalues --  -15.66299 -15.65645 -15.64422 -15.63800 -15.58696
 Alpha  occ. eigenvalues --  -11.40387 -11.39859 -11.37907 -11.36164 -11.31958
 Alpha  occ. eigenvalues --  -11.30750 -11.27524 -11.27193 -11.26386 -11.25827
 Alpha  occ. eigenvalues --   -1.44617  -1.41300  -1.37369  -1.34509  -1.32569
 Alpha  occ. eigenvalues --   -1.27975  -1.22494  -1.20060  -1.16799  -1.11006
 Alpha  occ. eigenvalues --   -1.07539  -1.05558  -1.00704  -0.93161  -0.92120
 Alpha  occ. eigenvalues --   -0.85868  -0.83984  -0.81779  -0.80236  -0.79433
 Alpha  occ. eigenvalues --   -0.75409  -0.73851  -0.73292  -0.72140  -0.70990
 Alpha  occ. eigenvalues --   -0.69369  -0.69194  -0.68243  -0.67268  -0.66766
 Alpha  occ. eigenvalues --   -0.65491  -0.64887  -0.64094  -0.63060  -0.62326
 Alpha  occ. eigenvalues --   -0.61025  -0.60890  -0.60004  -0.58602  -0.57294
 Alpha  occ. eigenvalues --   -0.56935  -0.55613  -0.54544  -0.54389  -0.51968
 Alpha  occ. eigenvalues --   -0.51871  -0.50077  -0.49190  -0.48833  -0.47539
 Alpha  occ. eigenvalues --   -0.46868  -0.44810  -0.44535  -0.43109  -0.41492
 Alpha  occ. eigenvalues --   -0.40294  -0.36290
 Alpha virt. eigenvalues --    0.01887   0.02792   0.03166   0.03802   0.04521
 Alpha virt. eigenvalues --    0.05211   0.05435   0.05948   0.06474   0.06959
 Alpha virt. eigenvalues --    0.07399   0.07734   0.08146   0.08494   0.09274

 Mulliken charges:
               1
     1  C    0.715004
     2  C    1.048490
     3  C    0.155632
     4  C    0.685498
     5  C    0.668551
     6  C    0.484316
     7  C    0.735707
     8  C    0.174633
     9  C    0.229336
    10  C   -0.099093
    11  H    0.016325
    12  H    0.194102
    13  H    0.079787
    14  H   -0.006753
    15  H   -0.044191
    16  H   -0.057097
    17  H   -0.258407
    18  H   -0.280252
    19  H   -0.030931
    20  H   -0.058168
    21  H   -0.064801
    22  H   -0.098949
    23  H   -0.068798
    24  H    0.521305
    25  H   -0.047665
    26  H    0.024711
    27  H   -0.210274
    28  H    0.086411
    29  H   -0.006452
    30  N   -0.201492
    31  N   -0.332135
    32  N   -0.506174
    33  N   -0.030772
    34  N   -0.615019
    35  O   -0.520912
    36  O   -0.565004
    37  O   -0.520688
    38  O   -0.627975
    39  O   -0.567807
 Sum of Mulliken charges =   0.00000

 Dipole moment (field-independent basis, Debye):
    X=             -0.0600    Y=              2.3038    Z=              2.3968  Tot=              3.3250

 Test job not archived.
 1\1\GINC-SE048\SP\RHF\Aug-CC-pVDZ\C10H19N5O5\OHZDE\08-Apr-2025\0\\#t h
 f aug-cc-pvdz iop(5/13=1,5/36=2,99/5=2) pseudo=read geom=check guess=(
 read,tcheck) scf=(maxcycle=1)\\title\\0,1\C,0,-1.38664,-1.87433,1.1792
 8\C,0,1.38476,2.32333,0.0363574\C,0,2.32691,1.79125,-1.04233\C,0,2.001
 61,0.439919,-1.66409\C,0,2.90219,-0.849119,0.34124\C,0,-1.03377,2.7464
 1,0.404472\C,0,-2.76964,-1.14796,-0.917334\C,0,-2.50076,-2.16151,0.169
 713\C,0,-0.0538659,-1.97115,0.383674\C,0,1.79458,-0.795644,-0.704004\H
 ,0,3.34341,1.7951,-0.582716\H,0,4.72805,-1.10607,0.528154\H,0,-2.40184

 Normal termination of Gaussian 16 at Tue Apr  8 22:19:23 2025.
