 Gaussian 16, Revision C.01,

 ----------------------------------------------------------------------
 #t hf aug-cc-pvdz symm=none int=(grid=ultrafine) guess=(read,tcheck) s
 table=(opt,rrhf)
 ----------------------------------------------------------------------
 -----
 title
 -----
 Symbolic Z-matrix:
 Charge =  0 Multiplicity = 1

 SCF Done:  E(RHF) =  -818.440749491     A.U. after   14 cycles
 Normal termination of Gaussian 16 at Tue Apr  8 21:50:39 2025.
 Gaussian 16:  ES64L-G16RevC.01  3-Jul-2019

 ----------------------------------------------------------------------
 #t hf aug-cc-pvdz iop(5/13=1,5/36=2,99/5=2) pseudo=read geom=check gue
 ss=(read,tcheck) scf=(maxcycle=1)
 ----------------------------------------------------------------------
 -----
 title
 -----
 Structure from the checkpoint file:  "ANI1ccx_298_conf3_mol1.chk"
 Charge =  0 Multiplicity = 1

                         Standard orientation:
 ---------------------------------------------------------------------
 Center     Atomic      Atomic             Coordinates (Angstroms)
 Number     Number       Type             X           Y           Z
 ---------------------------------------------------------------------
      1          6           0       -3.195360    0.131696   -1.726410
      2          6           0        2.317338   -2.474962    0.485976
      3          6           0        3.046389   -1.290643   -0.237146
      4          6           0        2.796921    0.889463   -1.289060
      5          6           0        0.881858    2.452099   -1.063650
      6          6           0        0.146122    2.246500    1.303310
      7          6           0        2.346432    2.215338   -0.828732
      8          6           0       -0.610139    0.157957    2.583040
      9          6           0       -1.703001   -0.752412    2.014070
     10          6           0       -2.486751   -1.541099   -0.111235
     11          6           0       -2.525431   -1.175508   -1.604450
     12          6           0       -0.826836    1.598630    2.282490
     13          1           0        2.569632    2.340698    0.242390
     14          1           0       -0.906702    1.739510   -0.331663
     15          1           0        0.561013    2.003909   -1.982390
     16          1           0        0.672037    3.527079   -1.114580
     17          1           0        2.977542    3.026027   -1.318330
     18          1           0        3.897131    0.811813   -1.246600
     19          1           0        0.668561   -2.358911   -0.757356
     20          1           0        1.260630   -0.391489   -0.412473
     21          1           0        2.504618   -2.518582    1.595470
     22          1           0        2.759308   -3.353302    0.071529
     23          1           0        0.309259   -2.795331    0.820426
     24          1           0       -0.132897    3.334580    1.217910
     25          1           0        2.608081    0.682942   -2.363510
     26          1           0        1.136932    2.159279    1.697740
     27          1           0        0.399683   -0.075907    2.145220
     28          1           0       -1.831219    1.626561    1.810850
     29          1           0       -5.264070   -0.480277   -1.822740
     30          1           0       -4.818420    0.503597   -0.517389
     31          1           0       -3.012530    0.491924   -2.794370
     32          1           0       -2.644189    0.782572   -1.057380
     33          1           0       -0.900772    2.216190    3.174900
     34          1           0       -3.067221   -1.903428   -2.239000
     35          1           0       -1.516631   -1.127529   -2.082850
     36          1           0       -2.021942   -2.486459   -0.011738
     37          1           0       -0.902169   -0.347828    0.164090
     38          1           0       -1.508301   -1.808059    2.345990
     39          1           0       -2.696360   -0.563108    2.480050
     40          1           0       -0.566138   -0.000589    3.693410
     41          1           0       -3.498671   -1.668008    0.329598
     42          7           0        0.901642   -2.237111    0.245568
     43          7           0       -4.578010    0.148899   -1.421830
     44          7           0       -1.787050   -0.499973    0.579884
     45          7           0        0.068565    1.732270   -0.093126
     46          7           0        2.231070   -0.201964   -0.501518
     47          8           0        4.248129   -1.338134   -0.531153
 ---------------------------------------------------------------------

 SCF Done:  E(RHF) =  -818.688644725     A.U. after    2 cycles

 The electronic state is 1-A.
 Alpha  occ. eigenvalues --  -20.52313 -15.62795 -15.62470 -15.60541 -15.59442
 Alpha  occ. eigenvalues --  -15.59268 -11.35211 -11.28301 -11.26283 -11.25767
 Alpha  occ. eigenvalues --  -11.25711 -11.25488 -11.25085 -11.24976 -11.23020
 Alpha  occ. eigenvalues --  -11.22901 -11.22661 -11.22251  -1.32091  -1.19991
 Alpha  occ. eigenvalues --   -1.19116  -1.17848  -1.15409  -1.14717  -1.06722
 Alpha  occ. eigenvalues --   -1.03249  -1.00532  -0.95379  -0.93499  -0.89857
 Alpha  occ. eigenvalues --   -0.87558  -0.85262  -0.80504  -0.79073  -0.77614
 Alpha  occ. eigenvalues --   -0.76633  -0.71669  -0.68409  -0.67735  -0.66877
 Alpha  occ. eigenvalues --   -0.65950  -0.65362  -0.64748  -0.63288  -0.62518
 Alpha  occ. eigenvalues --   -0.61996  -0.61325  -0.60164  -0.59351  -0.58607
 Alpha  occ. eigenvalues --   -0.58603  -0.57017  -0.56507  -0.54954  -0.53617
 Alpha  occ. eigenvalues --   -0.52329  -0.51307  -0.50656  -0.50056  -0.49963
 Alpha  occ. eigenvalues --   -0.48912  -0.48400  -0.47195  -0.46764  -0.46151
 Alpha  occ. eigenvalues --   -0.44341  -0.43180  -0.40194  -0.37908  -0.36363
 Alpha  occ. eigenvalues --   -0.35839  -0.35513
 Alpha virt. eigenvalues --    0.02352   0.02813   0.03072   0.03470   0.04877
 Alpha virt. eigenvalues --    0.05119   0.05217   0.05342   0.05424   0.06918
 Alpha virt. eigenvalues --    0.06971   0.07039   0.07295   0.07362   0.07515

 Mulliken charges:
               1
     1  C    1.246253
     2  C    0.665487
     3  C    0.387673
     4  C    0.365935
     5  C    0.863176
     6  C    0.500972
     7  C    0.574085
     8  C    0.399493
     9  C    0.791048
    10  C    1.211676
    11  C    0.364972
    12  C    0.548401
    13  H   -0.191745
    14  H   -0.079812
    15  H   -0.419322
    16  H   -0.232950
    17  H   -0.046480
    18  H   -0.185177
    19  H    0.144907
    20  H   -0.137420
    21  H   -0.061741
    22  H   -0.191898
    23  H   -0.089061
    24  H   -0.077721
    25  H   -0.177566
    26  H   -0.480329
    27  H   -0.150713
    28  H    0.050455
    29  H   -0.050702
    30  H    0.003941
    31  H   -0.026628
    32  H   -0.423483
    33  H   -0.209772
    34  H   -0.223173
    35  H   -0.106967
    36  H   -0.346545
    37  H   -0.865195
    38  H   -0.117644
    39  H   -0.227698
    40  H   -0.092028
    41  H   -0.112345
    42  N   -0.290928
    43  N   -0.462261
    44  N   -0.894542
    45  N   -0.342675
    46  N   -0.191108
    47  O   -0.612847
 Sum of Mulliken charges =  -0.00000

 Dipole moment (field-independent basis, Debye):
    X=             -4.2864    Y=             -0.5785    Z=              1.0596  Tot=              4.4531

 Test job not archived.
 1\1\GINC-SE163\SP\RHF\Aug-CC-pVDZ\C12H29N5O1\OHZDE\08-Apr-2025\0\\#t h
 f aug-cc-pvdz iop(5/13=1,5/36=2,99/5=2) pseudo=read geom=check guess=(
 read,tcheck) scf=(maxcycle=1)\\title\\0,1\C,0,-3.19536,0.131694,-1.726
 41\C,0,2.31734,-2.47496,0.485976\C,0,3.04639,-1.29064,-0.237146\C,0,2.
 79692,0.889465,-1.28906\C,0,0.881856,2.4521,-1.06365\C,0,0.14612,2.246
 5,1.30331\C,0,2.34643,2.21534,-0.828732\C,0,-0.610139,0.157957,2.58304
 \C,0,-1.703,-0.752413,2.01407\C,0,-2.48675,-1.5411,-0.111235\C,0,-2.52
 543,-1.17551,-1.60445\C,0,-0.826837,1.59863,2.28249\H,0,2.56963,2.3407

 Normal termination of Gaussian 16 at Tue Apr  8 21:52:37 2025.
