 Gaussian 16, Revision C.01,

 ----------------------------------------------------------------------
 #t hf aug-cc-pvdz symm=none int=(grid=ultrafine) guess=(read,tcheck) s
 table=(opt,rrhf)
 ----------------------------------------------------------------------
 -----
 title
 -----
 Symbolic Z-matrix:
 Charge =  0 Multiplicity = 1

 SCF Done:  E(RHF) =  -371.278671053     A.U. after   15 cycles
 Normal termination of Gaussian 16 at Tue Apr  8 21:38:41 2025.
 Gaussian 16:  ES64L-G16RevC.01  3-Jul-2019

 ----------------------------------------------------------------------
 #t hf aug-cc-pvdz iop(5/13=1,5/36=2,99/5=2) pseudo=read geom=check gue
 ss=(read,tcheck) scf=(maxcycle=1)
 ----------------------------------------------------------------------
 -----
 title
 -----
 Structure from the checkpoint file:  "ANI1ccx_455_conf27_mol1.chk"
 Charge =  0 Multiplicity = 1

                         Standard orientation:
 ---------------------------------------------------------------------
 Center     Atomic      Atomic             Coordinates (Angstroms)
 Number     Number       Type             X           Y           Z
 ---------------------------------------------------------------------
      1          6           0       -0.748608    0.022440   -0.065383
      2          7           0        1.371481   -0.640570    0.064088
      3          7           0        1.362170    0.569171   -0.005072
      4          8           0       -1.953650   -0.062145    0.053046
      5          8           0        0.073434   -1.006090   -0.049449
      6          8           0        0.049727    1.113880   -0.006200
 ---------------------------------------------------------------------

 SCF Done:  E(RHF) =  -371.392976185     A.U. after    2 cycles

 The electronic state is 1-A.
 Alpha  occ. eigenvalues --  -20.74404 -20.73450 -20.61187 -15.84720 -15.83517
 Alpha  occ. eigenvalues --  -11.51005  -1.64426  -1.45820  -1.42425  -1.32685
 Alpha  occ. eigenvalues --   -1.01411  -0.96165  -0.82385  -0.81906  -0.71466
 Alpha  occ. eigenvalues --   -0.69466  -0.66720  -0.64197  -0.61863  -0.60175
 Alpha  occ. eigenvalues --   -0.52279  -0.50536
 Alpha virt. eigenvalues --    0.06228   0.07470   0.07649   0.07884   0.08900
 Alpha virt. eigenvalues --    0.12273   0.12570   0.14462   0.15808   0.16308
 Alpha virt. eigenvalues --    0.19239   0.19856   0.20688   0.23305   0.25217

 Mulliken charges:
               1
     1  C    0.814875
     2  N    0.296028
     3  N    0.241993
     4  O   -0.388544
     5  O   -0.460642
     6  O   -0.503709
 Sum of Mulliken charges =  -0.00000

 Dipole moment (field-independent basis, Debye):
    X=              2.4049    Y=             -0.0654    Z=             -0.2998  Tot=              2.4244

 Test job not archived.
 1\1\GINC-SE453\SP\RHF\Aug-CC-pVDZ\C1N2O3\OHZDE\08-Apr-2025\0\\#t hf au
 g-cc-pvdz iop(5/13=1,5/36=2,99/5=2) pseudo=read geom=check guess=(read
 ,tcheck) scf=(maxcycle=1)\\title\\0,1\C,0,-0.748608,0.02244,-0.0653825
 \N,0,1.37148,-0.640571,0.0640881\N,0,1.36217,0.56917,-0.00507174\O,0,-
 1.95365,-0.0621444,0.053046\O,0,0.0734337,-1.00609,-0.0494488\O,0,0.04
 97273,1.11388,-0.00619963\\Version=ES64L-G16RevC.01\State=1-A\HF=-371.
 3929762\RMSD=3.433e-03\Dipole=0.9461656,-0.02574,-0.1179559\Quadrupole
 =-3.5647084,0.2494293,3.3152791,-0.5286668,0.2580918,-0.0611891\PG=C01

 Normal termination of Gaussian 16 at Tue Apr  8 21:38:43 2025.
