 Gaussian 16, Revision C.01,

 ----------------------------------------------------------------------
 #t hf aug-cc-pvdz symm=none int=(grid=ultrafine) guess=(read,tcheck) s
 table=(opt,rrhf)
 ----------------------------------------------------------------------
 -----
 title
 -----
 Symbolic Z-matrix:
 Charge =  0 Multiplicity = 1

 SCF Done:  E(RHF) =  -490.346043838     A.U. after   13 cycles
 Normal termination of Gaussian 16 at Tue Apr  8 21:49:49 2025.
 Gaussian 16:  ES64L-G16RevC.01  3-Jul-2019

 ----------------------------------------------------------------------
 #t hf aug-cc-pvdz iop(5/13=1,5/36=2,99/5=2) pseudo=read geom=check gue
 ss=(read,tcheck) scf=(maxcycle=1)
 ----------------------------------------------------------------------
 -----
 title
 -----
 Structure from the checkpoint file:  "ANI1ccx_703_conf2_mol1.chk"
 Charge =  0 Multiplicity = 1

                         Standard orientation:
 ---------------------------------------------------------------------
 Center     Atomic      Atomic             Coordinates (Angstroms)
 Number     Number       Type             X           Y           Z
 ---------------------------------------------------------------------
      1          6           0        0.004011   -0.443976    0.586764
      2          6           0        1.122520    0.383372    0.006385
      3          6           0       -1.271380    0.090085   -0.028337
      4          1           0       -0.552755   -1.974480   -0.278844
      5          1           0       -0.008684   -0.358096    1.664520
      6          1           0        1.917100   -1.234210   -0.464390
      7          1           0       -0.563207    1.756440    0.202574
      8          8           0        0.237600   -1.791750    0.224489
      9          8           0        2.179870   -0.314250   -0.408580
     10          8           0        1.165590    1.571610    0.032010
     11          8           0       -1.476040    1.408250    0.015706
     12          8           0       -2.097440   -0.669678   -0.427717
 ---------------------------------------------------------------------

 SCF Done:  E(RHF) =  -490.502239974     A.U. after    2 cycles

 The electronic state is 1-A.
 Alpha  occ. eigenvalues --  -20.65183 -20.64510 -20.63907 -20.61168 -20.60061
 Alpha  occ. eigenvalues --  -11.44278 -11.43537 -11.37327  -1.48390  -1.45720
 Alpha  occ. eigenvalues --   -1.40943  -1.37834  -1.36592  -1.07282  -0.89000
 Alpha  occ. eigenvalues --   -0.87029  -0.83629  -0.80903  -0.75192  -0.71691
 Alpha  occ. eigenvalues --   -0.70413  -0.69352  -0.67793  -0.65832  -0.63137
 Alpha  occ. eigenvalues --   -0.61211  -0.57799  -0.54641  -0.53243  -0.51355
 Alpha  occ. eigenvalues --   -0.49958
 Alpha virt. eigenvalues --    0.02754   0.04033   0.05691   0.05741   0.08602
 Alpha virt. eigenvalues --    0.08833   0.09667   0.10682   0.11022   0.11465
 Alpha virt. eigenvalues --    0.13711   0.14241   0.14415   0.14515   0.15995

 Mulliken charges:
               1
     1  C    0.482227
     2  C    0.539724
     3  C    0.567067
     4  H    0.235765
     5  H    0.080018
     6  H    0.212354
     7  H    0.288773
     8  O   -0.608390
     9  O   -0.422126
    10  O   -0.475166
    11  O   -0.469858
    12  O   -0.430388
 Sum of Mulliken charges =  -0.00000

 Dipole moment (field-independent basis, Debye):
    X=              1.2088    Y=             -1.9259    Z=              1.4721  Tot=              2.7088

 Test job not archived.
 1\1\GINC-SE109\SP\RHF\Aug-CC-pVDZ\C3H4O5\OHZDE\08-Apr-2025\0\\#t hf au
 g-cc-pvdz iop(5/13=1,5/36=2,99/5=2) pseudo=read geom=check guess=(read
 ,tcheck) scf=(maxcycle=1)\\title\\0,1\C,0,0.00401155,-0.443976,0.58676
 4\C,0,1.12252,0.383372,0.00638463\C,0,-1.27138,0.0900852,-0.0283371\H,
 0,-0.552754,-1.97448,-0.278844\H,0,-0.00868347,-0.358096,1.66452\H,0,1
 .9171,-1.23421,-0.46439\H,0,-0.563207,1.75644,0.202574\O,0,0.237601,-1
 .79175,0.224489\O,0,2.17987,-0.31425,-0.40858\O,0,1.16559,1.57161,0.03
 201\O,0,-1.47604,1.40825,0.0157062\O,0,-2.09744,-0.669678,-0.427717\\V

 Normal termination of Gaussian 16 at Tue Apr  8 21:49:55 2025.
