 Gaussian 16, Revision C.01,

 ----------------------------------------------------------------------
 #t hf aug-cc-pvdz symm=none int=(grid=ultrafine) guess=(read,tcheck) s
 table=(opt,rrhf)
 ----------------------------------------------------------------------
 -----
 title
 -----
 Symbolic Z-matrix:
 Charge =  0 Multiplicity = 1

 SCF Done:  E(RHF) =  -509.547086136     A.U. after   14 cycles
 Normal termination of Gaussian 16 at Tue Apr  8 22:08:26 2025.
 Gaussian 16:  ES64L-G16RevC.01  3-Jul-2019

 ----------------------------------------------------------------------
 #t hf aug-cc-pvdz iop(5/13=1,5/36=2,99/5=2) pseudo=read geom=check gue
 ss=(read,tcheck) scf=(maxcycle=1)
 ----------------------------------------------------------------------
 -----
 title
 -----
 Structure from the checkpoint file:  "ANI1ccx_939_conf12_mol1.chk"
 Charge =  0 Multiplicity = 1

                         Standard orientation:
 ---------------------------------------------------------------------
 Center     Atomic      Atomic             Coordinates (Angstroms)
 Number     Number       Type             X           Y           Z
 ---------------------------------------------------------------------
      1          6           0        0.833892   -0.596628   -0.767260
      2          6           0        1.159231    0.644901    0.101996
      3          6           0       -0.691689   -0.500827   -1.088451
      4          6           0       -1.526759   -0.031523    0.044929
      5          1           0        2.248631   -2.004119   -0.292022
      6          1           0        1.076301   -1.695739    0.840671
      7          1           0        1.310861   -0.342477   -1.709101
      8          1           0       -0.952419    0.315104   -1.825661
      9          1           0       -1.003689   -1.495259   -1.403141
     10          1           0       -1.868709   -0.556905    1.759049
     11          1           0        0.982530    2.551471   -0.055796
     12          7           0        1.266981   -1.778539   -0.133539
     13          8           0        1.791971    0.670544    1.137859
     14          8           0       -2.525509    0.637905   -0.002343
     15          8           0       -1.172179   -0.730989    1.143979
     16          8           0        0.741916    1.745311   -0.545311
 ---------------------------------------------------------------------

 SCF Done:  E(RHF) =  -509.705718149     A.U. after    2 cycles

 The electronic state is 1-A.
 Alpha  occ. eigenvalues --  -20.63973 -20.63126 -20.57682 -20.57649 -15.61813
 Alpha  occ. eigenvalues --  -11.40676 -11.40639 -11.31060 -11.26960  -1.44535
 Alpha  occ. eigenvalues --   -1.43594  -1.34135  -1.33602  -1.19336  -1.05854
 Alpha  occ. eigenvalues --   -0.95148  -0.85793  -0.81599  -0.74753  -0.73516
 Alpha  occ. eigenvalues --   -0.72733  -0.69852  -0.68287  -0.67234  -0.64443
 Alpha  occ. eigenvalues --   -0.62479  -0.61765  -0.58776  -0.55780  -0.53642
 Alpha  occ. eigenvalues --   -0.52090  -0.50374  -0.48789  -0.47100  -0.40354
 Alpha virt. eigenvalues --    0.03037   0.03989   0.04190   0.04826   0.05939
 Alpha virt. eigenvalues --    0.06800   0.08250   0.09745   0.10479   0.11159
 Alpha virt. eigenvalues --    0.12286   0.13099   0.13844   0.14059   0.14698

 Mulliken charges:
               1
     1  C    0.183691
     2  C    0.777667
     3  C    0.148568
     4  C    0.534486
     5  H    0.014042
     6  H    0.060758
     7  H    0.042692
     8  H    0.126983
     9  H    0.034521
    10  H    0.153683
    11  H    0.202470
    12  N   -0.225412
    13  O   -0.510436
    14  O   -0.500935
    15  O   -0.505551
    16  O   -0.537228
 Sum of Mulliken charges =  -0.00000

 Dipole moment (field-independent basis, Debye):
    X=              1.2757    Y=             -0.3239    Z=             -1.2005  Tot=              1.7815

 Test job not archived.
 1\1\GINC-SE343\SP\RHF\Aug-CC-pVDZ\C4H7N1O4\OHZDE\08-Apr-2025\0\\#t hf
 aug-cc-pvdz iop(5/13=1,5/36=2,99/5=2) pseudo=read geom=check guess=(re
 ad,tcheck) scf=(maxcycle=1)\\title\\0,1\C,0,0.833891,-0.596629,-0.7672
 59\C,0,1.15923,0.6449,0.101997\C,0,-0.69169,-0.500828,-1.08845\C,0,-1.
 52676,-0.0315236,0.0449293\H,0,2.24863,-2.00412,-0.292021\H,0,1.0763,-
 1.69574,0.840672\H,0,1.31086,-0.342478,-1.7091\H,0,-0.95242,0.315103,-
 1.82566\H,0,-1.00369,-1.49526,-1.40314\H,0,-1.86871,-0.556906,1.75905\
 H,0,0.98253,2.55147,-0.0557956\N,0,1.26698,-1.77854,-0.133538\O,0,1.79

 Normal termination of Gaussian 16 at Tue Apr  8 22:08:33 2025.
