 Gaussian 16, Revision C.01,

 ----------------------------------------------------------------------
 #t hf aug-cc-pvdz symm=none int=(grid=ultrafine) guess=(read,tcheck) s
 table=(opt,rrhf)
 ----------------------------------------------------------------------
 -----
 title
 -----
 Symbolic Z-matrix:
 Charge =  0 Multiplicity = 1

 SCF Done:  E(RHF) =  -743.658167070     A.U. after   14 cycles
 Normal termination of Gaussian 16 at Tue Apr  8 22:05:13 2025.
 Gaussian 16:  ES64L-G16RevC.01  3-Jul-2019

 ----------------------------------------------------------------------
 #t hf aug-cc-pvdz iop(5/13=1,5/36=2,99/5=2) pseudo=read geom=check gue
 ss=(read,tcheck) scf=(maxcycle=1)
 ----------------------------------------------------------------------
 -----
 title
 -----
 Structure from the checkpoint file:  "ANI1ccx_77_conf1_mol1.chk"
 Charge =  0 Multiplicity = 1

                         Standard orientation:
 ---------------------------------------------------------------------
 Center     Atomic      Atomic             Coordinates (Angstroms)
 Number     Number       Type             X           Y           Z
 ---------------------------------------------------------------------
      1          6           0       -3.450210    1.496279    0.295957
      2          6           0       -0.219492   -2.012190    0.028892
      3          6           0        2.122560   -1.772640   -0.550349
      4          6           0        2.702460   -1.316820    0.812899
      5          6           0        2.935780    0.926374    0.116589
      6          6           0       -1.563450   -1.627760   -0.574495
      7          6           0        0.010991    1.360680    0.049152
      8          6           0       -1.054290    0.784690   -0.914181
      9          6           0       -3.031820    0.060484    0.343582
     10          6           0        2.187130    2.216730    0.048433
     11          1           0        2.307730   -1.876010    1.671670
     12          1           0       -1.521500   -1.822710   -1.624910
     13          1           0       -2.344130   -2.175200   -0.078354
     14          1           0       -0.045672   -3.131670    0.014267
     15          1           0       -0.184804   -1.695340    1.089630
     16          1           0        2.309170   -2.917790   -0.449907
     17          1           0        2.763440   -1.420990   -1.396320
     18          1           0        3.777040   -1.554930    0.863735
     19          1           0        2.824410    0.491483   -0.918129
     20          1           0        0.469876    0.496720    0.527252
     21          1           0        2.089180    2.698380    1.100800
     22          1           0        2.796510    2.896460   -0.548814
     23          1           0       -0.526735    1.969720    0.748376
     24          1           0       -0.539906    0.511358   -1.884800
     25          1           0       -1.744270    1.529380   -1.254080
     26          1           0       -3.928050    1.768979   -0.686336
     27          1           0       -2.558810    2.239330    0.425597
     28          1           0       -4.119310    1.656679    1.178280
     29          1           0        3.998750    1.083790    0.267409
     30          7           0       -1.864390   -0.267770   -0.305989
     31          8           0        2.446570    0.043431    1.095060
     32          8           0       -3.726690   -0.745247    0.922620
     33          8           0        0.928023    2.156150   -0.615810
     34          8           0        0.775829   -1.400360   -0.757163
 ---------------------------------------------------------------------

 SCF Done:  E(RHF) =  -743.888890973     A.U. after    2 cycles

 The electronic state is 1-A.
 Alpha  occ. eigenvalues --  -20.58597 -20.58106 -20.57262 -20.52725 -15.64077
 Alpha  occ. eigenvalues --  -11.35497 -11.31454 -11.30147 -11.29740 -11.29700
 Alpha  occ. eigenvalues --  -11.29303 -11.26638 -11.26373 -11.26079 -11.25020
 Alpha  occ. eigenvalues --   -1.36431  -1.34844  -1.34645  -1.33710  -1.21792
 Alpha  occ. eigenvalues --   -1.05854  -1.03012  -1.01051  -0.98185  -0.94106
 Alpha  occ. eigenvalues --   -0.89449  -0.85651  -0.82716  -0.80958  -0.74650
 Alpha  occ. eigenvalues --   -0.72295  -0.70931  -0.70023  -0.68292  -0.67554
 Alpha  occ. eigenvalues --   -0.66601  -0.65789  -0.64908  -0.63777  -0.61950
 Alpha  occ. eigenvalues --   -0.61282  -0.59562  -0.58336  -0.57126  -0.56692
 Alpha  occ. eigenvalues --   -0.54393  -0.52652  -0.52195  -0.51944  -0.51336
 Alpha  occ. eigenvalues --   -0.50195  -0.49426  -0.49082  -0.47545  -0.45822
 Alpha  occ. eigenvalues --   -0.43640  -0.42909  -0.41680  -0.36667
 Alpha virt. eigenvalues --    0.02724   0.03673   0.03929   0.04132   0.04844
 Alpha virt. eigenvalues --    0.05230   0.05594   0.05851   0.06120   0.07304
 Alpha virt. eigenvalues --    0.07457   0.07760   0.08501   0.08778   0.09376

 Mulliken charges:
               1
     1  C    0.071502
     2  C    0.680345
     3  C    0.270634
     4  C    0.817948
     5  C    0.636041
     6  C    0.827551
     7  C    1.555230
     8  C    0.113971
     9  C    0.163608
    10  C    0.505112
    11  H   -0.285439
    12  H   -0.300918
    13  H   -0.205891
    14  H   -0.179674
    15  H   -0.199177
    16  H    0.019681
    17  H   -0.244765
    18  H   -0.175422
    19  H    0.044416
    20  H   -0.283877
    21  H    0.065063
    22  H   -0.253821
    23  H   -0.422917
    24  H   -0.107951
    25  H   -0.388351
    26  H    0.153838
    27  H    0.142408
    28  H   -0.093683
    29  H   -0.298889
    30  N    0.025886
    31  O   -0.736438
    32  O   -0.551737
    33  O   -0.710496
    34  O   -0.653785
 Sum of Mulliken charges =  -0.00000

 Dipole moment (field-independent basis, Debye):
    X=              4.6280    Y=             -0.1618    Z=             -1.4246  Tot=              4.8450

 Test job not archived.
 1\1\GINC-SE460\SP\RHF\Aug-CC-pVDZ\C10H19N1O4\OHZDE\08-Apr-2025\0\\#t h
 f aug-cc-pvdz iop(5/13=1,5/36=2,99/5=2) pseudo=read geom=check guess=(
 read,tcheck) scf=(maxcycle=1)\\title\\0,1\C,0,-3.45021,1.49628,0.29595
 7\C,0,-0.219492,-2.01219,0.0288919\C,0,2.12256,-1.77264,-0.550349\C,0,
 2.70246,-1.31682,0.812899\C,0,2.93578,0.926374,0.116589\C,0,-1.56345,-
 1.62776,-0.574495\C,0,0.0109907,1.36068,0.0491516\C,0,-1.05429,0.78469
 ,-0.914181\C,0,-3.03182,0.0604842,0.343582\C,0,2.18713,2.21673,0.04843
 22\H,0,2.30773,-1.87601,1.67167\H,0,-1.5215,-1.82271,-1.62491\H,0,-2.3

 Normal termination of Gaussian 16 at Tue Apr  8 22:05:58 2025.
