 Gaussian 16, Revision C.01,

 ----------------------------------------------------------------------
 #t hf aug-cc-pvdz symm=none int=(grid=ultrafine) guess=(read,tcheck) s
 table=(opt,rrhf)
 ----------------------------------------------------------------------
 -----
 title
 -----
 Symbolic Z-matrix:
 Charge =  0 Multiplicity = 1

 SCF Done:  E(RHF) =  -617.817325259     A.U. after   14 cycles
 Normal termination of Gaussian 16 at Tue Apr  8 19:15:52 2025.
 Gaussian 16:  ES64L-G16RevC.01  3-Jul-2019

 ----------------------------------------------------------------------
 #t hf aug-cc-pvdz iop(5/13=1,5/36=2,99/5=2) pseudo=read geom=check gue
 ss=(read,tcheck) scf=(maxcycle=1)
 ----------------------------------------------------------------------
 -----
 title
 -----
 Structure from the checkpoint file:  "ANI1ccx_1023_conf1_mol1.chk"
 Charge =  0 Multiplicity = 1

                         Standard orientation:
 ---------------------------------------------------------------------
 Center     Atomic      Atomic             Coordinates (Angstroms)
 Number     Number       Type             X           Y           Z
 ---------------------------------------------------------------------
      1          6           0       -1.701391   -0.820256   -0.099032
      2          6           0       -0.761155    1.292611   -0.030248
      3          6           0        1.674823    1.589336   -0.491594
      4          6           0        2.393201    0.515738    0.367719
      5          6           0        1.735658   -0.913607    0.274975
      6          1           0        1.042396   -2.063383   -1.084780
      7          1           0        2.448012    0.789792    1.399550
      8          1           0        3.452851    0.593405   -0.007787
      9          1           0        1.629313    1.165086   -1.479710
     10          1           0        0.346034    2.898309    0.512932
     11          1           0        2.328445    2.477965   -0.570830
     12          1           0       -2.752237    1.397675    0.273719
     13          1           0       -3.602782   -1.307644    0.000706
     14          1           0       -1.911685   -2.850057   -0.085902
     15          1           0       -0.524174   -2.276210    0.533628
     16          1           0       -2.071104    2.955653    0.032069
     17          7           0       -1.252154   -2.127378   -0.132497
     18          7           0       -2.945261   -0.495560   -0.121320
     19          7           0       -0.673915   -0.011575   -0.267835
     20          7           0       -1.895766    1.990003    0.384719
     21          7           0        0.351449    2.041799   -0.043867
     22          8           0        1.777747   -1.404264   -0.983043
     23          8           0        1.281957   -1.538803    1.184430
 ---------------------------------------------------------------------

 SCF Done:  E(RHF) =  -618.004723818     A.U. after    2 cycles

 The electronic state is 1-A.
 Alpha  occ. eigenvalues --  -20.60339 -20.55387 -15.66485 -15.64209 -15.60787
 Alpha  occ. eigenvalues --  -15.58254 -15.56848 -11.39834 -11.39125 -11.33579
 Alpha  occ. eigenvalues --  -11.30009 -11.26658  -1.41200  -1.31544  -1.29765
 Alpha  occ. eigenvalues --   -1.24137  -1.15766  -1.11305  -1.08272  -1.04000
 Alpha  occ. eigenvalues --   -0.92031  -0.86713  -0.81701  -0.76083  -0.74113
 Alpha  occ. eigenvalues --   -0.70856  -0.69974  -0.68285  -0.67254  -0.66500
 Alpha  occ. eigenvalues --   -0.64359  -0.62183  -0.61755  -0.60656  -0.58132
 Alpha  occ. eigenvalues --   -0.55998  -0.54673  -0.53464  -0.50662  -0.49480
 Alpha  occ. eigenvalues --   -0.45834  -0.43049  -0.40774  -0.40133  -0.37808
 Alpha  occ. eigenvalues --   -0.33046
 Alpha virt. eigenvalues --    0.02125   0.03460   0.03833   0.04436   0.05710
 Alpha virt. eigenvalues --    0.05835   0.07054   0.07744   0.07957   0.08211
 Alpha virt. eigenvalues --    0.09312   0.11124   0.11429   0.12318   0.12741

 Mulliken charges:
               1
     1  C    0.726850
     2  C    0.325231
     3  C    0.699641
     4  C    0.184478
     5  C    0.832473
     6  H    0.235526
     7  H   -0.178085
     8  H    0.139147
     9  H   -0.212359
    10  H   -0.074475
    11  H   -0.148448
    12  H    0.192363
    13  H   -0.006836
    14  H   -0.065253
    15  H    0.034653
    16  H    0.013166
    17  N   -0.137325
    18  N   -0.509377
    19  N   -0.376060
    20  N   -0.299058
    21  N   -0.216469
    22  O   -0.610128
    23  O   -0.549656
 Sum of Mulliken charges =   0.00000

 Dipole moment (field-independent basis, Debye):
    X=              1.3534    Y=              3.5216    Z=             -0.3887  Tot=              3.7927

 Test job not archived.
 1\1\GINC-SE049\SP\RHF\Aug-CC-pVDZ\C5H11N5O2\OHZDE\08-Apr-2025\0\\#t hf
  aug-cc-pvdz iop(5/13=1,5/36=2,99/5=2) pseudo=read geom=check guess=(r
 ead,tcheck) scf=(maxcycle=1)\\title\\0,1\C,0,-1.70139,-0.820259,-0.099
 0319\C,0,-0.761158,1.29261,-0.0302478\C,0,1.67482,1.58934,-0.491594\C,
 0,2.3932,0.515744,0.367719\C,0,1.73566,-0.913603,0.274975\H,0,1.0424,-
 2.06338,-1.08478\H,0,2.44801,0.789798,1.39955\H,0,3.45285,0.593413,-0.
 00778692\H,0,1.62931,1.16509,-1.47971\H,0,0.346028,2.89831,0.512932\H,
 0,2.32844,2.47797,-0.57083\H,0,-2.75224,1.39767,0.273719\H,0,-3.60278,

 Normal termination of Gaussian 16 at Tue Apr  8 19:16:10 2025.
