 Gaussian 16, Revision C.01,

 ----------------------------------------------------------------------
 #t hf aug-cc-pvdz symm=none int=(grid=ultrafine) guess=(read,tcheck) s
 table=(opt,rrhf)
 ----------------------------------------------------------------------
 -----
 title
 -----
 Symbolic Z-matrix:
 Charge =  0 Multiplicity = 1

 SCF Done:  E(RHF) =  -456.250898423     A.U. after   12 cycles
 Normal termination of Gaussian 16 at Tue Apr  8 21:05:41 2025.
 Gaussian 16:  ES64L-G16RevC.01  3-Jul-2019

 ----------------------------------------------------------------------
 #t hf aug-cc-pvdz iop(5/13=1,5/36=2,99/5=2) pseudo=read geom=check gue
 ss=(read,tcheck) scf=(maxcycle=1)
 ----------------------------------------------------------------------
 -----
 title
 -----
 Structure from the checkpoint file:  "ANI1ccx_1844_conf180_mol1.chk"
 Charge =  0 Multiplicity = 1

                         Standard orientation:
 ---------------------------------------------------------------------
 Center     Atomic      Atomic             Coordinates (Angstroms)
 Number     Number       Type             X           Y           Z
 ---------------------------------------------------------------------
      1          1           0       -2.632939   -0.226492   -0.327986
      2          1           0        2.583599    1.247001   -1.424640
      3          1           0        2.495810    0.065535   -0.495409
      4          1           0       -2.380361    1.769067   -1.098910
      5          1           0       -1.346181    1.534128    0.057109
      6          1           0        0.346867    2.353099    1.289820
      7          1           0       -3.313138   -1.770734   -0.311135
      8          1           0        1.136979    1.519270    0.140663
      9          1           0       -0.040834   -0.307669    1.220810
     10          1           0       -1.078258   -1.302462    0.528171
     11          1           0        1.253372   -1.576590    0.029870
     12          1           0        2.721092   -2.018588    0.304143
     13          8           0       -2.284741    1.297307   -0.253777
     14          8           0       -0.186388   -1.274761    0.999288
     15          8           0        2.499269    1.052231   -0.497255
     16          8           0        0.269405    1.548309    0.686335
     17          8           0       -2.440828   -1.240573   -0.569156
     18          8           0        2.175032   -1.543209   -0.354499
 ---------------------------------------------------------------------

 SCF Done:  E(RHF) =  -456.400234582     A.U. after    2 cycles

 The electronic state is 1-A.
 Alpha  occ. eigenvalues --  -20.59018 -20.58746 -20.58066 -20.57183 -20.56201
 Alpha  occ. eigenvalues --  -20.54482  -1.33373  -1.31888  -1.30063  -1.29515
 Alpha  occ. eigenvalues --   -1.26523  -1.24588  -0.75081  -0.74258  -0.72967
 Alpha  occ. eigenvalues --   -0.71848  -0.70450  -0.69114  -0.64912  -0.62045
 Alpha  occ. eigenvalues --   -0.59929  -0.59270  -0.57199  -0.54955  -0.53230
 Alpha  occ. eigenvalues --   -0.53084  -0.52262  -0.52035  -0.49412  -0.49113
 Alpha virt. eigenvalues --    0.02646   0.04606   0.04849   0.05167   0.05990
 Alpha virt. eigenvalues --    0.07835   0.08364   0.08888   0.09773   0.10019
 Alpha virt. eigenvalues --    0.10912   0.11832   0.16484   0.18549   0.19140

 Mulliken charges:
               1
     1  H    0.378065
     2  H    0.149667
     3  H    0.275849
     4  H    0.181872
     5  H    0.313132
     6  H    0.243631
     7  H    0.249323
     8  H    0.419932
     9  H    0.260196
    10  H    0.289203
    11  H    0.287476
    12  H    0.192088
    13  O   -0.490220
    14  O   -0.570423
    15  O   -0.412281
    16  O   -0.702447
    17  O   -0.594682
    18  O   -0.470381
 Sum of Mulliken charges =  -0.00000

 Dipole moment (field-independent basis, Debye):
    X=              0.0116    Y=              3.2442    Z=             -0.4469  Tot=              3.2748

 Test job not archived.
 1\1\GINC-SE016\SP\RHF\Aug-CC-pVDZ\H12O6\OHZDE\08-Apr-2025\0\\#t hf aug
 -cc-pvdz iop(5/13=1,5/36=2,99/5=2) pseudo=read geom=check guess=(read,
 tcheck) scf=(maxcycle=1)\\title\\0,1\H,0,-2.63294,-0.226489,-0.327986\
 H,0,2.5836,1.247,-1.42464\H,0,2.49581,0.065534,-0.495409\H,0,-2.38036,
 1.76907,-1.09891\H,0,-1.34618,1.53413,0.057109\H,0,0.346869,2.3531,1.2
 8982\H,0,-3.31314,-1.77073,-0.311135\H,0,1.13698,1.51927,0.140663\H,0,
 -0.0408344,-0.307668,1.22081\H,0,-1.07826,-1.30246,0.528171\H,0,1.2533
 7,-1.57659,0.0298701\H,0,2.72109,-2.01859,0.304143\O,0,-2.28474,1.2973

 Normal termination of Gaussian 16 at Tue Apr  8 21:05:46 2025.
