 Gaussian 16, Revision C.01,

 ----------------------------------------------------------------------
 #t hf aug-cc-pvdz symm=none int=(grid=ultrafine) guess=(read,tcheck) s
 table=(opt,rrhf)
 ----------------------------------------------------------------------
 -----
 title
 -----
 Symbolic Z-matrix:
 Charge =  0 Multiplicity = 1

 SCF Done:  E(RHF) =  -205.853034637     A.U. after   14 cycles
 Normal termination of Gaussian 16 at Tue Apr  8 21:10:16 2025.
 Gaussian 16:  ES64L-G16RevC.01  3-Jul-2019

 ----------------------------------------------------------------------
 #t hf aug-cc-pvdz iop(5/13=1,5/36=2,99/5=2) pseudo=read geom=check gue
 ss=(read,tcheck) scf=(maxcycle=1)
 ----------------------------------------------------------------------
 -----
 title
 -----
 Structure from the checkpoint file:  "ANI1ccx_1869_conf32_mol2.chk"
 Charge =  0 Multiplicity = 1

                         Standard orientation:
 ---------------------------------------------------------------------
 Center     Atomic      Atomic             Coordinates (Angstroms)
 Number     Number       Type             X           Y           Z
 ---------------------------------------------------------------------
      1          1           0        1.038811    1.307900    0.146138
      2          1           0       -1.438959   -0.104038    0.010597
      3          1           0       -2.742539   -0.612818    0.545437
      4          7           0        0.893810    0.233598    0.041148
      5          8           0        1.984411   -0.284957   -0.035811
      6          8           0       -2.373659    0.006678   -0.087965
 ---------------------------------------------------------------------

 SCF Done:  E(RHF) =  -205.918697977     A.U. after    2 cycles

 The electronic state is 1-A.
 Alpha  occ. eigenvalues --  -20.68677 -20.57060 -15.80064  -1.49547  -1.31051
 Alpha  occ. eigenvalues --   -0.98372  -0.76563  -0.72984  -0.68769  -0.61998
 Alpha  occ. eigenvalues --   -0.59639  -0.52183  -0.45190
 Alpha virt. eigenvalues --    0.03330   0.04589   0.04945   0.08293   0.10315
 Alpha virt. eigenvalues --    0.14469   0.17379   0.18213   0.19866   0.22156
 Alpha virt. eigenvalues --    0.23289   0.23995   0.25653   0.26607   0.28583

 Mulliken charges:
               1
     1  H    0.166595
     2  H    0.126014
     3  H    0.143122
     4  N    0.166377
     5  O   -0.357938
     6  O   -0.244171
 Sum of Mulliken charges =  -0.00000

 Dipole moment (field-independent basis, Debye):
    X=              0.6867    Y=              0.7648    Z=              1.4858  Tot=              1.8066

 Test job not archived.
 1\1\GINC-SE177\SP\RHF\Aug-CC-pVDZ\H3N1O2\OHZDE\08-Apr-2025\0\\#t hf au
 g-cc-pvdz iop(5/13=1,5/36=2,99/5=2) pseudo=read geom=check guess=(read
 ,tcheck) scf=(maxcycle=1)\\title\\0,1\H,0,1.03881,1.3079,0.146138\H,0,
 -1.43896,-0.104038,0.0105966\H,0,-2.74254,-0.612818,0.545437\N,0,0.893
 809,0.233598,0.0411479\O,0,1.98441,-0.284956,-0.0358112\O,0,-2.37366,0
 .00667799,-0.0879647\\Version=ES64L-G16RevC.01\State=1-A\HF=-205.91869
 8\RMSD=2.711e-03\Dipole=0.2701585,0.3008933,0.5845477\Quadrupole=-3.74
 5308,2.3658472,1.3794607,4.3560539,-2.4750702,-0.6158739\PG=C01 [X(H3N

 Normal termination of Gaussian 16 at Tue Apr  8 21:10:18 2025.
