 Gaussian 16, Revision C.01,

 ----------------------------------------------------------------------
 #t hf aug-cc-pvdz symm=none int=(grid=ultrafine) guess=(read,tcheck) s
 table=(opt,rrhf)
 ----------------------------------------------------------------------
 -----
 title
 -----
 Symbolic Z-matrix:
 Charge =  0 Multiplicity = 1

 SCF Done:  E(RHF) =  -541.266378392     A.U. after   15 cycles
 Normal termination of Gaussian 16 at Tue Apr  8 21:56:18 2025.
 Gaussian 16:  ES64L-G16RevC.01  3-Jul-2019

 ----------------------------------------------------------------------
 #t hf aug-cc-pvdz iop(5/13=1,5/36=2,99/5=2) pseudo=read geom=check gue
 ss=(read,tcheck) scf=(maxcycle=1)
 ----------------------------------------------------------------------
 -----
 title
 -----
 Structure from the checkpoint file:  "ANI1ccx_869_conf13_mol2.chk"
 Charge =  0 Multiplicity = 1

                         Standard orientation:
 ---------------------------------------------------------------------
 Center     Atomic      Atomic             Coordinates (Angstroms)
 Number     Number       Type             X           Y           Z
 ---------------------------------------------------------------------
      1          6           0       -1.200010    0.143994   -0.022742
      2          6           0       -0.331203    1.349759   -0.043097
      3          6           0        1.682771   -0.161715    0.034427
      4          6           0       -0.565341   -1.233661   -0.024884
      5          1           0       -2.845228   -0.687550    0.007991
      6          1           0        1.654957    1.838903    0.095266
      7          1           0        1.190285   -2.243208   -0.093833
      8          7           0       -2.470070    0.258503    0.054260
      9          7           0        1.031729    1.063301    0.043296
     10          7           0        0.813929   -1.283179   -0.046441
     11          8           0       -0.714290    2.496578   -0.032006
     12          8           0        2.888961   -0.261873    0.008950
     13          8           0       -1.317976   -2.205803    0.019374
 ---------------------------------------------------------------------

 SCF Done:  E(RHF) =  -541.428301716     A.U. after    2 cycles

 The electronic state is 1-A.
 Alpha  occ. eigenvalues --  -20.60820 -20.60254 -20.59961 -15.73559 -15.72119
 Alpha  occ. eigenvalues --  -15.69923 -11.47356 -11.44077 -11.42956 -11.35521
 Alpha  occ. eigenvalues --   -1.43535  -1.40828  -1.40594  -1.28696  -1.24454
 Alpha  occ. eigenvalues --   -1.23436  -1.01149  -0.92985  -0.91596  -0.83200
 Alpha  occ. eigenvalues --   -0.79071  -0.72637  -0.71991  -0.70768  -0.70179
 Alpha  occ. eigenvalues --   -0.69231  -0.66390  -0.62708  -0.61430  -0.54556
 Alpha  occ. eigenvalues --   -0.53390  -0.51200  -0.48759  -0.47945  -0.47592
 Alpha  occ. eigenvalues --   -0.47086
 Alpha virt. eigenvalues --    0.00459   0.03025   0.03994   0.04672   0.05694
 Alpha virt. eigenvalues --    0.08352   0.08906   0.09180   0.11741   0.12242
 Alpha virt. eigenvalues --    0.12564   0.12739   0.13095   0.13383   0.13723

 Mulliken charges:
               1
     1  C    0.405663
     2  C    0.570328
     3  C    0.796399
     4  C    0.776606
     5  H    0.115576
     6  H   -0.030858
     7  H    0.021353
     8  N   -0.385212
     9  N   -0.374621
    10  N   -0.529468
    11  O   -0.434147
    12  O   -0.408289
    13  O   -0.523331
 Sum of Mulliken charges =  -0.00000

 Dipole moment (field-independent basis, Debye):
    X=              1.1165    Y=             -1.7074    Z=             -0.1319  Tot=              2.0443

 Test job not archived.
 1\1\GINC-SE044\SP\RHF\Aug-CC-pVDZ\C4H3N3O3\OHZDE\08-Apr-2025\0\\#t hf
 aug-cc-pvdz iop(5/13=1,5/36=2,99/5=2) pseudo=read geom=check guess=(re
 ad,tcheck) scf=(maxcycle=1)\\title\\0,1\C,0,-1.20001,0.143996,-0.02274
 21\C,0,-0.331201,1.34976,-0.043097\C,0,1.68277,-0.161718,0.0344273\C,0
 ,-0.565344,-1.23366,-0.024884\H,0,-2.84523,-0.687545,0.00799089\H,0,1.
 65496,1.8389,0.0952658\H,0,1.19028,-2.24321,-0.093833\N,0,-2.47007,0.2
 58508,0.0542597\N,0,1.03173,1.0633,0.043296\N,0,0.813926,-1.28318,-0.0
 464407\O,0,-0.714286,2.49658,-0.0320057\O,0,2.88896,-0.261878,0.008949

 Normal termination of Gaussian 16 at Tue Apr  8 21:56:24 2025.
