 Gaussian 16, Revision C.01,

 ----------------------------------------------------------------------
 #t hf aug-cc-pvdz symm=none int=(grid=ultrafine) guess=(read,tcheck) s
 table=(opt,rrhf)
 ----------------------------------------------------------------------
 -----
 title
 -----
 Symbolic Z-matrix:
 Charge =  0 Multiplicity = 1

 SCF Done:  E(RHF) =  -276.586256319     A.U. after   15 cycles
 Normal termination of Gaussian 16 at Tue Apr  8 21:16:21 2025.
 Gaussian 16:  ES64L-G16RevC.01  3-Jul-2019

 ----------------------------------------------------------------------
 #t hf aug-cc-pvdz iop(5/13=1,5/36=2,99/5=2) pseudo=read geom=check gue
 ss=(read,tcheck) scf=(maxcycle=1)
 ----------------------------------------------------------------------
 -----
 title
 -----
 Structure from the checkpoint file:  "ANI1ccx_370_conf87_mol1.chk"
 Charge =  0 Multiplicity = 1

                         Standard orientation:
 ---------------------------------------------------------------------
 Center     Atomic      Atomic             Coordinates (Angstroms)
 Number     Number       Type             X           Y           Z
 ---------------------------------------------------------------------
      1          6           0        1.027531    0.040259    0.048657
      2          1           0        2.120121   -0.132279    0.026782
      3          7           0        0.371573    1.113781   -0.041422
      4          7           0       -0.934813    0.635688    0.023866
      5          7           0       -1.031499   -0.589379    0.002301
      6          8           0        0.359733   -1.028739   -0.026492
 ---------------------------------------------------------------------

 SCF Done:  E(RHF) =  -276.667180265     A.U. after    2 cycles

 The electronic state is 1-A.
 Alpha  occ. eigenvalues --  -20.70313 -15.79146 -15.76032 -15.69265 -11.39478
 Alpha  occ. eigenvalues --   -1.55752  -1.34568  -1.22940  -0.92773  -0.90480
 Alpha  occ. eigenvalues --   -0.78792  -0.74489  -0.65223  -0.60942  -0.54727
 Alpha  occ. eigenvalues --   -0.51298  -0.50500  -0.46222
 Alpha virt. eigenvalues --    0.02797   0.06753   0.07639   0.09198   0.10599
 Alpha virt. eigenvalues --    0.12900   0.12945   0.14877   0.15833   0.17567
 Alpha virt. eigenvalues --    0.19010   0.19809   0.21096   0.23232   0.23856

 Mulliken charges:
               1
     1  C    0.774309
     2  H   -0.118738
     3  N   -0.290795
     4  N   -0.039427
     5  N    0.092546
     6  O   -0.417896
 Sum of Mulliken charges =   0.00000

 Dipole moment (field-independent basis, Debye):
    X=              2.5175    Y=             -0.8687    Z=              0.1426  Tot=              2.6670

 Test job not archived.
 1\1\GINC-SE460\SP\RHF\Aug-CC-pVDZ\C1H1N3O1\OHZDE\08-Apr-2025\0\\#t hf
 aug-cc-pvdz iop(5/13=1,5/36=2,99/5=2) pseudo=read geom=check guess=(re
 ad,tcheck) scf=(maxcycle=1)\\title\\0,1\C,0,1.02753,0.0402577,0.048656
 9\H,0,2.12012,-0.132281,0.0267816\N,0,0.371573,1.11378,-0.0414216\N,0,
 -0.934813,0.635688,0.0238656\N,0,-1.0315,-0.589379,0.00230075\O,0,0.35
 9732,-1.02874,-0.026492\\Version=ES64L-G16RevC.01\State=1-A\HF=-276.66
 71803\RMSD=3.266e-03\Dipole=0.9904764,-0.3417686,0.0561145\Quadrupole=
 2.6128193,-3.5130474,0.9002281,-0.66529,0.1598445,-0.0013954\PG=C01 [X

 Normal termination of Gaussian 16 at Tue Apr  8 21:16:23 2025.
