 Gaussian 16, Revision C.01,

 ----------------------------------------------------------------------
 #t hf aug-cc-pvdz symm=none int=(grid=ultrafine) guess=(read,tcheck) s
 table=(opt,rrhf)
 ----------------------------------------------------------------------
 -----
 title
 -----
 Symbolic Z-matrix:
 Charge =  0 Multiplicity = 1

 SCF Done:  E(RHF) =  -758.503230858     A.U. after   15 cycles
 Normal termination of Gaussian 16 at Tue Apr  8 20:46:05 2025.
 Gaussian 16:  ES64L-G16RevC.01  3-Jul-2019

 ----------------------------------------------------------------------
 #t hf aug-cc-pvdz iop(5/13=1,5/36=2,99/5=2) pseudo=read geom=check gue
 ss=(read,tcheck) scf=(maxcycle=1)
 ----------------------------------------------------------------------
 -----
 title
 -----
 Structure from the checkpoint file:  "ANI1ccx_1759_conf39_mol1.chk"
 Charge =  0 Multiplicity = 1

                         Standard orientation:
 ---------------------------------------------------------------------
 Center     Atomic      Atomic             Coordinates (Angstroms)
 Number     Number       Type             X           Y           Z
 ---------------------------------------------------------------------
      1          6           0       -1.978120    0.340762   -0.544146
      2          6           0        2.000551    2.300949    0.293564
      3          6           0        2.917161    1.187829   -0.342135
      4          6           0        2.349150   -1.211301    0.177846
      5          6           0        0.709008    1.514129    0.748766
      6          6           0       -2.252000   -0.302596    2.113460
      7          6           0       -2.675470   -0.373869    0.644975
      8          6           0       -0.548106   -0.143741   -0.806526
      9          6           0        1.900990    0.026403   -0.672644
     10          1           0        3.404001    1.552559   -1.242070
     11          1           0        0.860929   -2.182261   -0.535921
     12          1           0       -0.197022    2.215889    0.823490
     13          1           0        0.894152    1.097569    1.766760
     14          1           0        1.617041    2.828869   -0.559837
     15          1           0        2.521701    2.812309    1.022710
     16          1           0        3.763091    0.839344    0.231007
     17          1           0        1.829010   -0.341279   -1.735770
     18          1           0       -1.925739    0.739990    2.285720
     19          1           0       -1.339920   -0.896440    2.177540
     20          1           0       -4.274700    0.258084   -0.363562
     21          1           0       -2.662670   -1.398660    0.305802
     22          1           0       -1.894139    1.407690   -0.124633
     23          1           0       -2.537389    1.068740   -2.234420
     24          1           0       -2.084180   -0.521508   -2.215710
     25          1           0       -3.088890   -0.475741    2.771360
     26          7           0       -2.675830    0.204908   -1.685990
     27          7           0        0.588761    0.562160   -0.286073
     28          8           0        3.417550   -1.105631    0.848554
     29          8           0       -0.202130   -1.121031   -1.495570
     30          8           0       -4.036290    0.181920    0.532060
     31          8           0        1.469020   -2.256011    0.334077
 ---------------------------------------------------------------------

 SCF Done:  E(RHF) =  -758.728049589     A.U. after    2 cycles

 The electronic state is 1-A.
 Alpha  occ. eigenvalues --  -20.62378 -20.59102 -20.56364 -20.55963 -15.68467
 Alpha  occ. eigenvalues --  -15.65060 -11.41528 -11.40604 -11.31803 -11.31482
 Alpha  occ. eigenvalues --  -11.31278 -11.30516 -11.25079 -11.24788 -11.24381
 Alpha  occ. eigenvalues --   -1.40115  -1.37858  -1.32336  -1.29498  -1.25070
 Alpha  occ. eigenvalues --   -1.23351  -1.06171  -1.03925  -1.01931  -0.95742
 Alpha  occ. eigenvalues --   -0.89868  -0.84700  -0.83923  -0.79907  -0.77369
 Alpha  occ. eigenvalues --   -0.76809  -0.73458  -0.72146  -0.70985  -0.68560
 Alpha  occ. eigenvalues --   -0.67483  -0.65845  -0.64758  -0.62766  -0.62236
 Alpha  occ. eigenvalues --   -0.60364  -0.59499  -0.57895  -0.57148  -0.56183
 Alpha  occ. eigenvalues --   -0.55836  -0.54428  -0.53580  -0.53063  -0.51659
 Alpha  occ. eigenvalues --   -0.49607  -0.48923  -0.48303  -0.47120  -0.46868
 Alpha  occ. eigenvalues --   -0.46470  -0.42355  -0.39567
 Alpha virt. eigenvalues --    0.01991   0.03197   0.03662   0.03963   0.05253
 Alpha virt. eigenvalues --    0.05568   0.05912   0.06207   0.06626   0.07391
 Alpha virt. eigenvalues --    0.07756   0.08166   0.08441   0.09018   0.09197

 Mulliken charges:
               1
     1  C    0.138896
     2  C    0.408306
     3  C    0.817823
     4  C    0.790309
     5  C    0.516158
     6  C    0.543169
     7  C    0.467250
     8  C    0.484304
     9  C   -0.031408
    10  H   -0.084582
    11  H    0.360094
    12  H   -0.176274
    13  H   -0.268050
    14  H   -0.009229
    15  H   -0.223875
    16  H   -0.321991
    17  H   -0.043217
    18  H    0.031567
    19  H    0.044928
    20  H    0.145039
    21  H   -0.184646
    22  H   -0.058126
    23  H    0.130094
    24  H    0.201310
    25  H   -0.019567
    26  N   -0.445361
    27  N   -0.601503
    28  O   -0.580990
    29  O   -0.753789
    30  O   -0.636697
    31  O   -0.639945
 Sum of Mulliken charges =  -0.00000

 Dipole moment (field-independent basis, Debye):
    X=             -1.5015    Y=              4.5907    Z=             -2.7966  Tot=              5.5812

 Test job not archived.
 1\1\GINC-SE212\SP\RHF\Aug-CC-pVDZ\C9H16N2O4\OHZDE\08-Apr-2025\0\\#t hf
  aug-cc-pvdz iop(5/13=1,5/36=2,99/5=2) pseudo=read geom=check guess=(r
 ead,tcheck) scf=(maxcycle=1)\\title\\0,1\C,0,-1.97812,0.340762,-0.5441
 46\C,0,2.00055,2.30095,0.293564\C,0,2.91716,1.18783,-0.342135\C,0,2.34
 915,-1.2113,0.177846\C,0,0.709007,1.51413,0.748766\C,0,-2.252,-0.30259
 6,2.11346\C,0,-2.67547,-0.373869,0.644975\C,0,-0.548106,-0.143741,-0.8
 06526\C,0,1.90099,0.0264033,-0.672644\H,0,3.404,1.55256,-1.24207\H,0,0
 .860929,-2.18226,-0.535921\H,0,-0.197023,2.21589,0.82349\H,0,0.894151,

 Normal termination of Gaussian 16 at Tue Apr  8 20:46:48 2025.
