 Gaussian 16, Revision C.01,

 ----------------------------------------------------------------------
 #t hf aug-cc-pvdz symm=none int=(grid=ultrafine) guess=(read,tcheck) s
 table=(opt,rrhf)
 ----------------------------------------------------------------------
 -----
 title
 -----
 Symbolic Z-matrix:
 Charge =  0 Multiplicity = 1

 SCF Done:  E(RHF) =  -506.644507681     A.U. after   17 cycles
 Normal termination of Gaussian 16 at Tue Apr  8 21:53:51 2025.
 Gaussian 16:  ES64L-G16RevC.01  3-Jul-2019

 ----------------------------------------------------------------------
 #t hf aug-cc-pvdz iop(5/13=1,5/36=2,99/5=2) pseudo=read geom=check gue
 ss=(read,tcheck) scf=(maxcycle=1)
 ----------------------------------------------------------------------
 -----
 title
 -----
 Structure from the checkpoint file:  "ANI1ccx_787_conf15_mol2.chk"
 Charge =  0 Multiplicity = 1

                         Standard orientation:
 ---------------------------------------------------------------------
 Center     Atomic      Atomic             Coordinates (Angstroms)
 Number     Number       Type             X           Y           Z
 ---------------------------------------------------------------------
      1          6           0        0.410628    1.635450   -0.647593
      2          6           0        1.180380    0.061843    1.161280
      3          6           0        1.993880   -0.909511    0.335659
      4          1           0       -1.820521   -1.146430   -0.991687
      5          1           0        3.150770   -0.776667   -1.244860
      6          1           0        2.676689   -1.433301    1.000210
      7          1           0        0.720190   -0.464160    2.034610
      8          1           0        1.305739   -1.654081   -0.092279
      9          1           0       -0.499587    2.183990   -0.894050
     10          1           0        1.191140    2.302769   -0.266993
     11          1           0        0.812989    1.124270   -1.510400
     12          1           0        1.831510    0.856583    1.518770
     13          7           0        0.086595    0.706180    0.439568
     14          7           0       -0.959691   -0.124413    0.195990
     15          7           0       -2.181270    0.278887    0.519017
     16          8           0       -0.868158   -0.963794   -0.885729
     17          8           0        2.729340   -0.152027   -0.619160
     18          8           0       -3.048390   -0.352209   -0.086540
 ---------------------------------------------------------------------

 SCF Done:  E(RHF) =  -506.800920046     A.U. after    2 cycles

 The electronic state is 1-A.
 Alpha  occ. eigenvalues --  -20.63472 -20.61913 -20.58748 -15.81429 -15.78258
 Alpha  occ. eigenvalues --  -15.67364 -11.29353 -11.28184 -11.26610  -1.51619
 Alpha  occ. eigenvalues --   -1.40213  -1.33276  -1.27420  -1.13436  -1.01847
 Alpha  occ. eigenvalues --   -0.95153  -0.88443  -0.80862  -0.79952  -0.73564
 Alpha  occ. eigenvalues --   -0.72167  -0.71491  -0.66959  -0.65983  -0.61638
 Alpha  occ. eigenvalues --   -0.60978  -0.60243  -0.58890  -0.56951  -0.56289
 Alpha  occ. eigenvalues --   -0.54252  -0.52506  -0.47528  -0.45995  -0.40322
 Alpha  occ. eigenvalues --   -0.39101
 Alpha virt. eigenvalues --    0.02924   0.03962   0.04126   0.05062   0.06311
 Alpha virt. eigenvalues --    0.06810   0.07210   0.07652   0.08620   0.09782
 Alpha virt. eigenvalues --    0.11975   0.12495   0.13098   0.13928   0.14255

 Mulliken charges:
               1
     1  C    0.852168
     2  C    0.483211
     3  C    0.849499
     4  H    0.270897
     5  H    0.179197
     6  H   -0.167287
     7  H   -0.111696
     8  H   -0.093021
     9  H   -0.201107
    10  H   -0.104727
    11  H   -0.028999
    12  H   -0.222304
    13  N   -0.380729
    14  N    0.231520
    15  N    0.242980
    16  O   -0.610264
    17  O   -0.587144
    18  O   -0.602194
 Sum of Mulliken charges =  -0.00000

 Dipole moment (field-independent basis, Debye):
    X=              3.3987    Y=             -0.9079    Z=             -0.1312  Tot=              3.5203

 Test job not archived.
 1\1\GINC-SE179\SP\RHF\Aug-CC-pVDZ\C3H9N3O3\OHZDE\08-Apr-2025\0\\#t hf
 aug-cc-pvdz iop(5/13=1,5/36=2,99/5=2) pseudo=read geom=check guess=(re
 ad,tcheck) scf=(maxcycle=1)\\title\\0,1\C,0,0.410628,1.63545,-0.647593
 \C,0,1.18038,0.0618436,1.16128\C,0,1.99388,-0.90951,0.335659\H,0,-1.82
 052,-1.14643,-0.991687\H,0,3.15077,-0.776666,-1.24486\H,0,2.67669,-1.4
 333,1.00021\H,0,0.72019,-0.46416,2.03461\H,0,1.30574,-1.65408,-0.09227
 9\H,0,-0.499587,2.18399,-0.89405\H,0,1.19114,2.30277,-0.266993\H,0,0.8
 12989,1.12427,-1.5104\H,0,1.83151,0.856584,1.51877\N,0,0.0865952,0.706

 Normal termination of Gaussian 16 at Tue Apr  8 21:54:00 2025.
