 Gaussian 16, Revision C.01,

 ----------------------------------------------------------------------
 #t hf aug-cc-pvdz symm=none int=(grid=ultrafine) guess=(read,tcheck) s
 table=(opt,rrhf)
 ----------------------------------------------------------------------
 -----
 title
 -----
 Symbolic Z-matrix:
 Charge =  0 Multiplicity = 1

 SCF Done:  E(RHF) =  -596.173480502     A.U. after   18 cycles
 Normal termination of Gaussian 16 at Tue Apr  8 21:58:11 2025.
 Gaussian 16:  ES64L-G16RevC.01  3-Jul-2019

 ----------------------------------------------------------------------
 #t hf aug-cc-pvdz iop(5/13=1,5/36=2,99/5=2) pseudo=read geom=check gue
 ss=(read,tcheck) scf=(maxcycle=1)
 ----------------------------------------------------------------------
 -----
 title
 -----
 Structure from the checkpoint file:  "ANI1ccx_883_conf5_mol1.chk"
 Charge =  0 Multiplicity = 1

                         Standard orientation:
 ---------------------------------------------------------------------
 Center     Atomic      Atomic             Coordinates (Angstroms)
 Number     Number       Type             X           Y           Z
 ---------------------------------------------------------------------
      1          6           0       -1.764731   -0.105534    0.073129
      2          6           0        0.259934   -1.140010    0.044333
      3          6           0        0.843825    0.213578   -0.073631
      4          6           0       -0.046991    1.313110    0.037284
      5          1           0       -3.328370   -1.536681   -0.311336
      6          1           0       -3.826021    0.149395    0.129948
      7          1           0        0.622006   -3.109810    0.299066
      8          1           0       -0.354612    3.119690    0.107525
      9          7           0       -3.051600   -0.521762   -0.239859
     10          7           0       -1.054900   -1.214500   -0.041510
     11          7           0        2.216599    0.596475   -0.117949
     12          7           0       -1.411771    1.161850    0.293069
     13          8           0        0.991470   -2.224360    0.102370
     14          8           0        2.954809   -0.362297   -0.040597
     15          8           0        0.334531    2.528670   -0.057791
 ---------------------------------------------------------------------

 SCF Done:  E(RHF) =  -596.350633768     A.U. after    2 cycles

 The electronic state is 1-A.
 Alpha  occ. eigenvalues --  -20.64621 -20.64582 -20.60658 -15.75731 -15.66437
 Alpha  occ. eigenvalues --  -15.64323 -15.62742 -11.41610 -11.40853 -11.39562
 Alpha  occ. eigenvalues --  -11.28123  -1.46332  -1.44445  -1.42415  -1.31021
 Alpha  occ. eigenvalues --   -1.17419  -1.16525  -1.08465  -0.94934  -0.93473
 Alpha  occ. eigenvalues --   -0.85568  -0.84502  -0.80924  -0.72777  -0.71144
 Alpha  occ. eigenvalues --   -0.70395  -0.68478  -0.65324  -0.64888  -0.62514
 Alpha  occ. eigenvalues --   -0.61038  -0.59234  -0.58481  -0.57908  -0.50767
 Alpha  occ. eigenvalues --   -0.44903  -0.43616  -0.41449  -0.39594  -0.34837
 Alpha virt. eigenvalues --    0.02432   0.03055   0.03918   0.05812   0.06978
 Alpha virt. eigenvalues --    0.07585   0.09496   0.10345   0.11310   0.11992
 Alpha virt. eigenvalues --    0.12179   0.12499   0.12870   0.13712   0.14041

 Mulliken charges:
               1
     1  C    0.923498
     2  C    0.738046
     3  C    0.771109
     4  C    0.555705
     5  H    0.068789
     6  H    0.110494
     7  H    0.226887
     8  H    0.148050
     9  N   -0.511023
    10  N   -0.540977
    11  N   -0.428816
    12  N   -0.674492
    13  O   -0.539805
    14  O   -0.448205
    15  O   -0.399260
 Sum of Mulliken charges =  -0.00000

 Dipole moment (field-independent basis, Debye):
    X=             -5.5977    Y=             -1.1480    Z=              0.9791  Tot=              5.7974

 Test job not archived.
 1\1\GINC-SE402\SP\RHF\Aug-CC-pVDZ\C4H4N4O3\OHZDE\08-Apr-2025\0\\#t hf
 aug-cc-pvdz iop(5/13=1,5/36=2,99/5=2) pseudo=read geom=check guess=(re
 ad,tcheck) scf=(maxcycle=1)\\title\\0,1\C,0,-1.76473,-0.105534,0.07312
 9\C,0,0.259934,-1.14001,0.0443326\C,0,0.843826,0.213578,-0.073631\C,0,
 -0.0469906,1.31311,0.037284\H,0,-3.32837,-1.53668,-0.311336\H,0,-3.826
 02,0.149396,0.129948\H,0,0.622006,-3.10981,0.299066\H,0,-0.354611,3.11
 969,0.107525\N,0,-3.0516,-0.521761,-0.239859\N,0,-1.0549,-1.2145,-0.04
 15103\N,0,2.2166,0.596475,-0.117949\N,0,-1.41177,1.16185,0.293069\O,0,

 Normal termination of Gaussian 16 at Tue Apr  8 21:58:18 2025.
