 Gaussian 16, Revision C.01,

 ----------------------------------------------------------------------
 #t hf aug-cc-pvdz symm=none int=(grid=ultrafine) guess=(read,tcheck) s
 table=(opt,rrhf)
 ----------------------------------------------------------------------
 -----
 title
 -----
 Symbolic Z-matrix:
 Charge =  0 Multiplicity = 1

 SCF Done:  E(RHF) =  -814.734103703     A.U. after   15 cycles
 Normal termination of Gaussian 16 at Tue Apr  8 21:05:18 2025.
 Gaussian 16:  ES64L-G16RevC.01  3-Jul-2019

 ----------------------------------------------------------------------
 #t hf aug-cc-pvdz iop(5/13=1,5/36=2,99/5=2) pseudo=read geom=check gue
 ss=(read,tcheck) scf=(maxcycle=1)
 ----------------------------------------------------------------------
 -----
 title
 -----
 Structure from the checkpoint file:  "ANI1ccx_1785_conf17_mol1.chk"
 Charge =  0 Multiplicity = 1

                         Standard orientation:
 ---------------------------------------------------------------------
 Center     Atomic      Atomic             Coordinates (Angstroms)
 Number     Number       Type             X           Y           Z
 ---------------------------------------------------------------------
      1          6           0       -3.052550    0.760843    0.161040
      2          6           0        2.898540    0.986976    0.663373
      3          6           0        1.738510    1.881000    0.221778
      4          6           0        0.728090    1.271730   -0.777349
      5          6           0        3.772700    0.431127   -0.455236
      6          6           0       -0.091118    0.132455   -0.251923
      7          6           0       -3.781510   -0.266146   -0.692780
      8          6           0       -2.117750   -0.081265    1.122691
      9          6           0        0.855806   -1.065850   -0.116940
     10          1           0        1.252110    2.311040    1.103541
     11          1           0        1.808121   -2.251530   -1.030239
     12          1           0        4.919420   -0.758252    0.786977
     13          1           0        3.836651   -1.544759    0.007919
     14          1           0        3.140840    0.081242   -1.298919
     15          1           0        4.483680    1.136791   -0.825830
     16          1           0        2.604940    0.053491    1.210981
     17          1           0        3.497060    1.646981    1.291701
     18          1           0        2.108070    2.833430   -0.250688
     19          1           0        0.051562    1.951380   -1.320439
     20          1           0       -0.740900   -0.257157   -1.072669
     21          1           0       -0.279013   -0.355674    1.783141
     22          1           0       -3.130969   -1.471501   -2.053839
     23          1           0       -4.273510    0.291894   -1.544109
     24          1           0       -4.617770   -0.663415   -0.085432
     25          1           0       -3.732300    1.199869    0.903177
     26          1           0       -2.847270    2.394749   -1.108509
     27          1           0       -1.572080    2.155979   -0.154811
     28          1           0        1.221650    0.771930   -1.667889
     29          7           0       -2.269790    1.665569   -0.666329
     30          7           0       -0.782468    0.252249    1.102221
     31          7           0        4.566100   -0.845717   -0.120528
     32          8           0        1.244591   -1.441710    1.002151
     33          8           0       -2.548140   -0.877441    1.891761
     34          8           0       -2.828389   -1.197191   -1.169659
     35          8           0        1.128001   -1.650710   -1.240439
 ---------------------------------------------------------------------

 SCF Done:  E(RHF) =  -814.979841951     A.U. after    2 cycles

 The electronic state is 1-A.
 Alpha  occ. eigenvalues --  -20.65633 -20.59299 -20.57028 -20.54179 -15.63605
 Alpha  occ. eigenvalues --  -15.62213 -15.60394 -11.41194 -11.35709 -11.30590
 Alpha  occ. eigenvalues --  -11.29729 -11.28858 -11.25774 -11.24989 -11.24506
 Alpha  occ. eigenvalues --  -11.22680  -1.47347  -1.36997  -1.34077  -1.33577
 Alpha  occ. eigenvalues --   -1.19925  -1.16133  -1.14141  -1.07893  -1.01822
 Alpha  occ. eigenvalues --   -0.99801  -0.94105  -0.88253  -0.87114  -0.83375
 Alpha  occ. eigenvalues --   -0.78977  -0.76226  -0.75279  -0.72523  -0.71857
 Alpha  occ. eigenvalues --   -0.70612  -0.69597  -0.67033  -0.65922  -0.65072
 Alpha  occ. eigenvalues --   -0.63313  -0.62845  -0.62015  -0.61289  -0.59762
 Alpha  occ. eigenvalues --   -0.59112  -0.58565  -0.56590  -0.55813  -0.54103
 Alpha  occ. eigenvalues --   -0.52887  -0.52339  -0.51502  -0.51410  -0.49486
 Alpha  occ. eigenvalues --   -0.47477  -0.46888  -0.45620  -0.44654  -0.43110
 Alpha  occ. eigenvalues --   -0.40508  -0.40334  -0.39585
 Alpha virt. eigenvalues --    0.02224   0.03078   0.03495   0.04055   0.04644
 Alpha virt. eigenvalues --    0.05204   0.05305   0.06488   0.06619   0.06801
 Alpha virt. eigenvalues --    0.07397   0.07750   0.08077   0.09401   0.09740

 Mulliken charges:
               1
     1  C    0.317170
     2  C    0.323644
     3  C    0.415730
     4  C    0.397601
     5  C    0.903542
     6  C    0.672770
     7  C    0.782309
     8  C    0.530436
     9  C    0.162317
    10  H   -0.191487
    11  H    0.170173
    12  H   -0.005428
    13  H   -0.014664
    14  H   -0.259954
    15  H   -0.244579
    16  H   -0.036976
    17  H   -0.103230
    18  H   -0.064756
    19  H   -0.245048
    20  H    0.234590
    21  H    0.025537
    22  H    0.197174
    23  H   -0.058120
    24  H   -0.073469
    25  H   -0.018952
    26  H   -0.032820
    27  H    0.095544
    28  H    0.097096
    29  N   -0.489701
    30  N   -0.785937
    31  N   -0.451063
    32  O   -0.638741
    33  O   -0.573082
    34  O   -0.606584
    35  O   -0.431042
 Sum of Mulliken charges =  -0.00000

 Dipole moment (field-independent basis, Debye):
    X=             -1.9729    Y=              3.6199    Z=             -4.1039  Tot=              5.8171

 Test job not archived.
 1\1\GINC-SE095\SP\RHF\Aug-CC-pVDZ\C9H19N3O4\OHZDE\08-Apr-2025\0\\#t hf
  aug-cc-pvdz iop(5/13=1,5/36=2,99/5=2) pseudo=read geom=check guess=(r
 ead,tcheck) scf=(maxcycle=1)\\title\\0,1\C,0,-3.05255,0.760844,0.16103
 9\C,0,2.89854,0.986976,0.663372\C,0,1.73851,1.881,0.221777\C,0,0.72809
 ,1.27173,-0.77735\C,0,3.7727,0.431126,-0.455237\C,0,-0.0911186,0.13245
 5,-0.251924\C,0,-3.78151,-0.266145,-0.692781\C,0,-2.11775,-0.0812641,1
 .12269\C,0,0.855806,-1.06585,-0.116941\H,0,1.25211,2.31104,1.10354\H,0
 ,1.80812,-2.25153,-1.03024\H,0,4.91942,-0.758253,0.786976\H,0,3.83665,

 Normal termination of Gaussian 16 at Tue Apr  8 21:06:11 2025.
