 Gaussian 16, Revision C.01,

 ----------------------------------------------------------------------
 #t hf aug-cc-pvdz symm=none int=(grid=ultrafine) guess=(read,tcheck) s
 table=(opt,rrhf)
 ----------------------------------------------------------------------
 -----
 title
 -----
 Symbolic Z-matrix:
 Charge =  0 Multiplicity = 1

 SCF Done:  E(RHF) =  -465.395662638     A.U. after   14 cycles
 Normal termination of Gaussian 16 at Tue Apr  8 21:42:55 2025.
 Gaussian 16:  ES64L-G16RevC.01  3-Jul-2019

 ----------------------------------------------------------------------
 #t hf aug-cc-pvdz iop(5/13=1,5/36=2,99/5=2) pseudo=read geom=check gue
 ss=(read,tcheck) scf=(maxcycle=1)
 ----------------------------------------------------------------------
 -----
 title
 -----
 Structure from the checkpoint file:  "ANI1ccx_503_conf11_mol1.chk"
 Charge =  0 Multiplicity = 1

                         Standard orientation:
 ---------------------------------------------------------------------
 Center     Atomic      Atomic             Coordinates (Angstroms)
 Number     Number       Type             X           Y           Z
 ---------------------------------------------------------------------
      1          6           0       -1.392031   -0.123623    0.070855
      2          6           0        0.662094    0.743713   -0.226258
      3          1           0        1.557829   -0.738461    1.153050
      4          1           0       -0.862351   -1.977391   -0.411040
      5          1           0       -1.072140    2.000449    0.407411
      6          7           0        0.784928   -0.609591   -0.502924
      7          7           0       -0.485835   -1.137881   -0.025107
      8          7           0       -0.699714    1.043179   -0.017544
      9          8           0        1.871229   -1.101672    0.278530
     10          8           0       -2.539861   -0.040792    0.120912
     11          8           0        1.613710    1.383078    0.050811
 ---------------------------------------------------------------------

 SCF Done:  E(RHF) =  -465.540607644     A.U. after    2 cycles

 The electronic state is 1-A.
 Alpha  occ. eigenvalues --  -20.66216 -20.58750 -20.57309 -15.78123 -15.72464
 Alpha  occ. eigenvalues --  -15.70509 -11.43440 -11.42643  -1.48230  -1.43950
 Alpha  occ. eigenvalues --   -1.39245  -1.31783  -1.20253  -1.09643  -0.88820
 Alpha  occ. eigenvalues --   -0.86775  -0.78981  -0.76208  -0.74400  -0.70712
 Alpha  occ. eigenvalues --   -0.69598  -0.67756  -0.64951  -0.61269  -0.56957
 Alpha  occ. eigenvalues --   -0.55117  -0.52746  -0.47885  -0.46104  -0.43849
 Alpha virt. eigenvalues --    0.03012   0.03382   0.04395   0.06718   0.09519
 Alpha virt. eigenvalues --    0.10492   0.11129   0.11690   0.12320   0.12583
 Alpha virt. eigenvalues --    0.14235   0.14764   0.15668   0.16660   0.17090

 Mulliken charges:
               1
     1  C    0.563062
     2  C    0.953811
     3  H    0.245072
     4  H    0.034913
     5  H    0.125979
     6  N   -0.240510
     7  N   -0.032601
     8  N   -0.494295
     9  O   -0.438688
    10  O   -0.332457
    11  O   -0.384286
 Sum of Mulliken charges =  -0.00000

 Dipole moment (field-independent basis, Debye):
    X=             -1.1835    Y=             -0.6210    Z=              0.7998  Tot=              1.5576

 Test job not archived.
 1\1\GINC-SE250\SP\RHF\Aug-CC-pVDZ\C2H3N3O3\OHZDE\08-Apr-2025\0\\#t hf
 aug-cc-pvdz iop(5/13=1,5/36=2,99/5=2) pseudo=read geom=check guess=(re
 ad,tcheck) scf=(maxcycle=1)\\title\\0,1\C,0,-1.39203,-0.123622,0.07085
 52\C,0,0.662094,0.743715,-0.226258\H,0,1.55783,-0.738459,1.15305\H,0,-
 0.86235,-1.97739,-0.41104\H,0,-1.07214,2.00045,0.407411\N,0,0.784929,-
 0.609589,-0.502924\N,0,-0.485834,-1.13788,-0.0251074\N,0,-0.699714,1.0
 4318,-0.0175439\O,0,1.87123,-1.10167,0.27853\O,0,-2.53986,-0.0407915,0
 .120912\O,0,1.61371,1.38308,0.0508112\\Version=ES64L-G16RevC.01\State=

 Normal termination of Gaussian 16 at Tue Apr  8 21:42:59 2025.
