 Gaussian 16, Revision C.01,

 ----------------------------------------------------------------------
 #t hf aug-cc-pvdz symm=none int=(grid=ultrafine) guess=(read,tcheck) s
 table=(opt,rrhf)
 ----------------------------------------------------------------------
 -----
 title
 -----
 Symbolic Z-matrix:
 Charge =  0 Multiplicity = 1

 SCF Done:  E(RHF) =  -588.436676314     A.U. after   15 cycles
 Normal termination of Gaussian 16 at Tue Apr  8 19:49:31 2025.
 Gaussian 16:  ES64L-G16RevC.01  3-Jul-2019

 ----------------------------------------------------------------------
 #t hf aug-cc-pvdz iop(5/13=1,5/36=2,99/5=2) pseudo=read geom=check gue
 ss=(read,tcheck) scf=(maxcycle=1)
 ----------------------------------------------------------------------
 -----
 title
 -----
 Structure from the checkpoint file:  "ANI1ccx_1556_conf1_mol1.chk"
 Charge =  0 Multiplicity = 1

                         Standard orientation:
 ---------------------------------------------------------------------
 Center     Atomic      Atomic             Coordinates (Angstroms)
 Number     Number       Type             X           Y           Z
 ---------------------------------------------------------------------
      1          6           0       -0.149760    2.381660    0.481800
      2          6           0        0.358796    0.911372    0.632363
      3          6           0        1.563909    0.616608   -0.270894
      4          6           0        2.121702   -0.798636   -0.054077
      5          6           0       -0.771025   -0.066053    0.439101
      6          6           0       -1.692178   -0.600456    1.279830
      7          6           0       -2.611686   -1.355696    0.469423
      8          6           0       -2.152117   -1.278405   -0.817134
      9          1           0       -2.491716   -1.707576   -1.735090
     10          1           0       -3.524345   -1.835669    0.810424
     11          1           0       -1.785408   -0.537671    2.363110
     12          1           0        0.703420   -1.438298   -1.169530
     13          1           0        2.364997    1.335086   -0.101148
     14          1           0        0.669979    2.999142    0.829279
     15          1           0        0.705394    0.814164    1.671230
     16          1           0       -0.900988    2.560138    1.253680
     17          1           0        0.291649    2.965261   -1.409650
     18          1           0       -1.098885    2.007397   -1.314230
     19          1           0        1.248048    0.727730   -1.344900
     20          7           0       -0.568477    2.788509   -0.811606
     21          8           0        3.082393   -1.030822    0.622498
     22          8           0        1.440605   -1.790536   -0.667880
     23          8           0       -1.049079   -0.462595   -0.846421
 ---------------------------------------------------------------------

 SCF Done:  E(RHF) =  -588.615361966     A.U. after    2 cycles

 The electronic state is 1-A.
 Alpha  occ. eigenvalues --  -20.66284 -20.61508 -20.55719 -15.63128 -11.39663
 Alpha  occ. eigenvalues --  -11.32404 -11.31804 -11.27993 -11.27776 -11.27374
 Alpha  occ. eigenvalues --  -11.26169 -11.25596  -1.44225  -1.41557  -1.32859
 Alpha  occ. eigenvalues --   -1.17627  -1.09843  -1.08750  -1.01367  -0.94731
 Alpha  occ. eigenvalues --   -0.85527  -0.84212  -0.83197  -0.78699  -0.75121
 Alpha  occ. eigenvalues --   -0.72173  -0.69564  -0.68082  -0.65815  -0.64511
 Alpha  occ. eigenvalues --   -0.63820  -0.62591  -0.61005  -0.59337  -0.59169
 Alpha  occ. eigenvalues --   -0.57328  -0.56888  -0.54770  -0.51943  -0.50361
 Alpha  occ. eigenvalues --   -0.48910  -0.45870  -0.42556  -0.40077  -0.33321
 Alpha virt. eigenvalues --    0.02637   0.03195   0.03429   0.04732   0.05016
 Alpha virt. eigenvalues --    0.05407   0.06612   0.07171   0.07481   0.07930
 Alpha virt. eigenvalues --    0.08501   0.09818   0.11011   0.11568   0.12196

 Mulliken charges:
               1
     1  C    1.145421
     2  C   -1.128238
     3  C    0.736858
     4  C    0.748339
     5  C   -0.243403
     6  C    0.735842
     7  C    0.387438
     8  C    0.798174
     9  H   -0.484638
    10  H   -0.351722
    11  H   -0.393141
    12  H    0.222198
    13  H   -0.123134
    14  H   -0.135542
    15  H   -0.037154
    16  H   -0.139039
    17  H    0.112929
    18  H    0.139098
    19  H    0.085066
    20  N   -0.532131
    21  O   -0.483153
    22  O   -0.489632
    23  O   -0.570437
 Sum of Mulliken charges =  -0.00000

 Dipole moment (field-independent basis, Debye):
    X=             -3.8206    Y=              1.6848    Z=             -1.1540  Tot=              4.3321

 Test job not archived.
 1\1\GINC-SE365\SP\RHF\Aug-CC-pVDZ\C8H11N1O3\OHZDE\08-Apr-2025\0\\#t hf
  aug-cc-pvdz iop(5/13=1,5/36=2,99/5=2) pseudo=read geom=check guess=(r
 ead,tcheck) scf=(maxcycle=1)\\title\\0,1\C,0,-0.149754,2.38166,0.4818\
 C,0,0.358798,0.911371,0.632363\C,0,1.56391,0.616604,-0.270894\C,0,2.12
 17,-0.798642,-0.0540772\C,0,-0.771025,-0.066051,0.439101\C,0,-1.69218,
 -0.600452,1.27983\C,0,-2.61169,-1.35569,0.469423\C,0,-2.15212,-1.2784,
 -0.817134\H,0,-2.49172,-1.70757,-1.73509\H,0,-3.52435,-1.83566,0.81042
 4\H,0,-1.78541,-0.537667,2.36311\H,0,0.703416,-1.4383,-1.16953\H,0,2.3

 Normal termination of Gaussian 16 at Tue Apr  8 19:49:46 2025.
