 Gaussian 16, Revision C.01,

 ----------------------------------------------------------------------
 #t hf aug-cc-pvdz symm=none int=(grid=ultrafine) guess=(read,tcheck) s
 table=(opt,rrhf)
 ----------------------------------------------------------------------
 -----
 title
 -----
 Symbolic Z-matrix:
 Charge =  0 Multiplicity = 1

 SCF Done:  E(RHF) =  -555.311282356     A.U. after   18 cycles
 Normal termination of Gaussian 16 at Tue Apr  8 21:59:04 2025.
 Gaussian 16:  ES64L-G16RevC.01  3-Jul-2019

 ----------------------------------------------------------------------
 #t hf aug-cc-pvdz iop(5/13=1,5/36=2,99/5=2) pseudo=read geom=check gue
 ss=(read,tcheck) scf=(maxcycle=1)
 ----------------------------------------------------------------------
 -----
 title
 -----
 Structure from the checkpoint file:  "ANI1ccx_886_conf6_mol1.chk"
 Charge =  0 Multiplicity = 1

                         Standard orientation:
 ---------------------------------------------------------------------
 Center     Atomic      Atomic             Coordinates (Angstroms)
 Number     Number       Type             X           Y           Z
 ---------------------------------------------------------------------
      1          6           0       -1.304720    0.701324   -0.008759
      2          6           0        0.936266    0.697622    0.039963
      3          6           0        0.937183   -0.732657    0.003379
      4          6           0       -1.299228   -0.719562    0.040702
      5          1           0       -3.182620    1.088926    0.613314
      6          1           0       -2.504222    2.310487   -0.224615
      7          1           0       -3.147658   -0.836750   -0.571395
      8          1           0       -2.500876   -2.367413   -0.075914
      9          7           0       -2.514111    1.307417   -0.098359
     10          7           0       -0.181804    1.459519    0.017752
     11          7           0        2.151680    1.164062    0.045875
     12          7           0        2.180272   -1.134288   -0.049710
     13          7           0       -0.216349   -1.424011   -0.006385
     14          7           0       -2.536928   -1.334223    0.092469
     15          8           0        2.942381   -0.018117   -0.025574
 ---------------------------------------------------------------------

 SCF Done:  E(RHF) =  -555.467870813     A.U. after    2 cycles

 The electronic state is 1-A.
 Alpha  occ. eigenvalues --  -20.68950 -15.71581 -15.70654 -15.68627 -15.68525
 Alpha  occ. eigenvalues --  -15.67540 -15.66975 -11.39330 -11.38388 -11.32998
 Alpha  occ. eigenvalues --  -11.32827  -1.47845  -1.34285  -1.26542  -1.24119
 Alpha  occ. eigenvalues --   -1.19810  -1.13719  -1.11693  -0.96590  -0.88721
 Alpha  occ. eigenvalues --   -0.86269  -0.79920  -0.77322  -0.72875  -0.71240
 Alpha  occ. eigenvalues --   -0.69645  -0.68708  -0.67464  -0.61439  -0.60671
 Alpha  occ. eigenvalues --   -0.55085  -0.54216  -0.52432  -0.50284  -0.47657
 Alpha  occ. eigenvalues --   -0.47339  -0.43166  -0.37198  -0.36226
 Alpha virt. eigenvalues --    0.01298   0.01342   0.02887   0.04304   0.05698
 Alpha virt. eigenvalues --    0.08142   0.08298   0.09897   0.10278   0.11201
 Alpha virt. eigenvalues --    0.12635   0.12879   0.12925   0.13196   0.13266

 Mulliken charges:
               1
     1  C    0.780622
     2  C    0.878587
     3  C    0.719571
     4  C    0.498556
     5  H    0.021467
     6  H    0.019480
     7  H    0.111778
     8  H    0.082991
     9  N   -0.315870
    10  N   -0.609843
    11  N   -0.413208
    12  N   -0.276388
    13  N   -0.411134
    14  N   -0.472568
    15  O   -0.614040
 Sum of Mulliken charges =  -0.00000

 Dipole moment (field-independent basis, Debye):
    X=             -8.4551    Y=              0.1878    Z=             -0.1936  Tot=              8.4594

 Test job not archived.
 1\1\GINC-SE366\SP\RHF\Aug-CC-pVDZ\C4H4N6O1\OHZDE\08-Apr-2025\0\\#t hf
 aug-cc-pvdz iop(5/13=1,5/36=2,99/5=2) pseudo=read geom=check guess=(re
 ad,tcheck) scf=(maxcycle=1)\\title\\0,1\C,0,-1.30472,0.701326,-0.00875
 873\C,0,0.936266,0.697621,0.0399631\C,0,0.937181,-0.732658,0.0033791\C
 ,0,-1.29923,-0.71956,0.0407019\H,0,-3.18262,1.08893,0.613314\H,0,-2.50
 422,2.31049,-0.224615\H,0,-3.14766,-0.836746,-0.571395\H,0,-2.50088,-2
 .36741,-0.0759143\N,0,-2.51411,1.30742,-0.098359\N,0,-0.181803,1.45952
 ,0.0177522\N,0,2.15168,1.16406,0.0458751\N,0,2.18027,-1.13429,-0.04970

 Normal termination of Gaussian 16 at Tue Apr  8 21:59:11 2025.
