 Gaussian 16, Revision C.01,

 ----------------------------------------------------------------------
 #t hf aug-cc-pvdz symm=none int=(grid=ultrafine) guess=(read,tcheck) s
 table=(opt,rrhf)
 ----------------------------------------------------------------------
 -----
 title
 -----
 Symbolic Z-matrix:
 Charge =  0 Multiplicity = 1

 SCF Done:  E(RHF) =  -370.772534740     A.U. after   14 cycles
 Normal termination of Gaussian 16 at Tue Apr  8 21:43:56 2025.
 Gaussian 16:  ES64L-G16RevC.01  3-Jul-2019

 ----------------------------------------------------------------------
 #t hf aug-cc-pvdz iop(5/13=1,5/36=2,99/5=2) pseudo=read geom=check gue
 ss=(read,tcheck) scf=(maxcycle=1)
 ----------------------------------------------------------------------
 -----
 title
 -----
 Structure from the checkpoint file:  "ANI1ccx_520_conf1_mol2.chk"
 Charge =  0 Multiplicity = 1

                         Standard orientation:
 ---------------------------------------------------------------------
 Center     Atomic      Atomic             Coordinates (Angstroms)
 Number     Number       Type             X           Y           Z
 ---------------------------------------------------------------------
      1          6           0        1.143320   -0.196706   -0.025596
      2          6           0       -1.187140   -0.188430    0.028782
      3          1           0        2.945010    0.184607   -0.056936
      4          1           0        1.115489    1.726230    0.622240
      5          1           0       -1.156071    1.708509   -0.599261
      6          1           0       -0.037957   -1.987000   -0.080554
      7          7           0        2.346050   -0.623187    0.017577
      8          7           0        0.703858    1.130880   -0.109473
      9          7           0       -0.707380    1.132589    0.097928
     10          7           0       -0.032555   -0.965751    0.001156
     11          8           0       -2.346670   -0.505406    0.005635
 ---------------------------------------------------------------------

 SCF Done:  E(RHF) =  -370.882142793     A.U. after    2 cycles

 The electronic state is 1-A.
 Alpha  occ. eigenvalues --  -20.57158 -15.70994 -15.70326 -15.70000 -15.61650
 Alpha  occ. eigenvalues --  -11.42991 -11.39895  -1.41381  -1.34977  -1.22521
 Alpha  occ. eigenvalues --   -1.18594  -1.07685  -0.87861  -0.86696  -0.74324
 Alpha  occ. eigenvalues --   -0.73494  -0.69314  -0.66579  -0.65285  -0.64056
 Alpha  occ. eigenvalues --   -0.56914  -0.52715  -0.48673  -0.45457  -0.43592
 Alpha  occ. eigenvalues --   -0.37845
 Alpha virt. eigenvalues --    0.02533   0.03847   0.04131   0.05246   0.08525
 Alpha virt. eigenvalues --    0.10441   0.11053   0.11983   0.12842   0.13925
 Alpha virt. eigenvalues --    0.14432   0.15232   0.15774   0.16828   0.17148

 Mulliken charges:
               1
     1  C    0.823512
     2  C    0.721865
     3  H   -0.029478
     4  H    0.124595
     5  H    0.091100
     6  H   -0.044531
     7  N   -0.305727
     8  N   -0.282469
     9  N   -0.234816
    10  N   -0.454165
    11  O   -0.409886
 Sum of Mulliken charges =  -0.00000

 Dipole moment (field-independent basis, Debye):
    X=              1.7280    Y=              2.4467    Z=             -0.2417  Tot=              3.0051

 Test job not archived.
 1\1\GINC-SE074\SP\RHF\Aug-CC-pVDZ\C2H4N4O1\OHZDE\08-Apr-2025\0\\#t hf
 aug-cc-pvdz iop(5/13=1,5/36=2,99/5=2) pseudo=read geom=check guess=(re
 ad,tcheck) scf=(maxcycle=1)\\title\\0,1\C,0,1.14332,-0.196706,-0.02559
 64\C,0,-1.18714,-0.188429,0.0287825\H,0,2.94501,0.184606,-0.0569359\H,
 0,1.11549,1.72623,0.62224\H,0,-1.15607,1.70851,-0.599261\H,0,-0.037957
 8,-1.987,-0.0805541\N,0,2.34605,-0.623188,0.0175773\N,0,0.703859,1.130
 88,-0.109473\N,0,-0.707379,1.13259,0.0979277\N,0,-0.0325555,-0.965751,
 0.00115635\O,0,-2.34667,-0.505404,0.00563482\\Version=ES64L-G16RevC.01

 Normal termination of Gaussian 16 at Tue Apr  8 21:44:00 2025.
