 Gaussian 16, Revision C.01,

 ----------------------------------------------------------------------
 #t hf aug-cc-pvdz symm=none int=(grid=ultrafine) guess=(read,tcheck) s
 table=(opt,rrhf)
 ----------------------------------------------------------------------
 -----
 title
 -----
 Symbolic Z-matrix:
 Charge =  0 Multiplicity = 1

 SCF Done:  E(RHF) =  -555.302134303     A.U. after   16 cycles
 Normal termination of Gaussian 16 at Tue Apr  8 21:59:08 2025.
 Gaussian 16:  ES64L-G16RevC.01  3-Jul-2019

 ----------------------------------------------------------------------
 #t hf aug-cc-pvdz iop(5/13=1,5/36=2,99/5=2) pseudo=read geom=check gue
 ss=(read,tcheck) scf=(maxcycle=1)
 ----------------------------------------------------------------------
 -----
 title
 -----
 Structure from the checkpoint file:  "ANI1ccx_886_conf20_mol1.chk"
 Charge =  0 Multiplicity = 1

                         Standard orientation:
 ---------------------------------------------------------------------
 Center     Atomic      Atomic             Coordinates (Angstroms)
 Number     Number       Type             X           Y           Z
 ---------------------------------------------------------------------
      1          6           0       -1.320699   -0.707438   -0.066749
      2          6           0        0.921231   -0.707448    0.062667
      3          6           0        0.957882    0.667162    0.092503
      4          6           0       -1.276259    0.720011   -0.012648
      5          1           0       -2.705768   -2.365720   -0.160087
      6          1           0       -3.320549   -0.783224   -0.379197
      7          1           0       -2.420729    2.447260   -0.164255
      8          1           0       -3.235199    1.019140    0.419557
      9          7           0       -2.549949   -1.340330    0.087162
     10          7           0       -0.224205   -1.432410    0.009643
     11          7           0        2.181961   -1.113159    0.011282
     12          7           0        2.171041    1.089921    0.006461
     13          7           0       -0.176914    1.403210    0.094280
     14          7           0       -2.475519    1.372040   -0.104949
     15          8           0        2.938051   -0.000760   -0.112226
 ---------------------------------------------------------------------

 SCF Done:  E(RHF) =  -555.461306592     A.U. after    2 cycles

 The electronic state is 1-A.
 Alpha  occ. eigenvalues --  -20.70359 -15.70522 -15.70180 -15.69604 -15.68473
 Alpha  occ. eigenvalues --  -15.66647 -15.66336 -11.38880 -11.38433 -11.32240
 Alpha  occ. eigenvalues --  -11.31632  -1.51384  -1.33971  -1.25571  -1.23594
 Alpha  occ. eigenvalues --   -1.19060  -1.13761  -1.12468  -0.95668  -0.89338
 Alpha  occ. eigenvalues --   -0.86969  -0.79781  -0.78034  -0.73708  -0.71405
 Alpha  occ. eigenvalues --   -0.69193  -0.69049  -0.66256  -0.63156  -0.61501
 Alpha  occ. eigenvalues --   -0.54699  -0.53935  -0.51631  -0.50179  -0.47076
 Alpha  occ. eigenvalues --   -0.46114  -0.42643  -0.37024  -0.35831
 Alpha virt. eigenvalues --    0.01150   0.02325   0.02880   0.04753   0.05480
 Alpha virt. eigenvalues --    0.07942   0.08529   0.09905   0.10473   0.11111
 Alpha virt. eigenvalues --    0.12584   0.12822   0.13005   0.13250   0.13369

 Mulliken charges:
               1
     1  C    0.721946
     2  C    0.791229
     3  C    0.825738
     4  C    0.614259
     5  H    0.090743
     6  H    0.108772
     7  H    0.124218
     8  H   -0.031942
     9  N   -0.514927
    10  N   -0.569746
    11  N   -0.325925
    12  N   -0.323673
    13  N   -0.484518
    14  N   -0.425931
    15  O   -0.600245
 Sum of Mulliken charges =  -0.00000

 Dipole moment (field-independent basis, Debye):
    X=             -8.6415    Y=              0.2984    Z=             -0.3268  Tot=              8.6528

 Test job not archived.
 1\1\GINC-SE454\SP\RHF\Aug-CC-pVDZ\C4H4N6O1\OHZDE\08-Apr-2025\0\\#t hf
 aug-cc-pvdz iop(5/13=1,5/36=2,99/5=2) pseudo=read geom=check guess=(re
 ad,tcheck) scf=(maxcycle=1)\\title\\0,1\C,0,-1.3207,-0.707438,-0.06674
 9\C,0,0.92123,-0.707448,0.0626673\C,0,0.957881,0.667162,0.0925026\C,0,
 -1.27626,0.720011,-0.0126482\H,0,-2.70577,-2.36572,-0.160087\H,0,-3.32
 055,-0.783224,-0.379197\H,0,-2.42073,2.44726,-0.164255\H,0,-3.2352,1.0
 1914,0.419557\N,0,-2.54995,-1.34033,0.0871618\N,0,-0.224206,-1.43241,0
 .0096432\N,0,2.18196,-1.11316,0.0112821\N,0,2.17104,1.08992,0.00646111

 Normal termination of Gaussian 16 at Tue Apr  8 21:59:16 2025.
