 Gaussian 16, Revision C.01,

 ----------------------------------------------------------------------
 #t hf aug-cc-pvdz symm=none int=(grid=ultrafine) guess=(read,tcheck) s
 table=(opt,rrhf)
 ----------------------------------------------------------------------
 -----
 title
 -----
 Symbolic Z-matrix:
 Charge =  0 Multiplicity = 1

 SCF Done:  E(RHF) =  -739.899334804     A.U. after   14 cycles
 Normal termination of Gaussian 16 at Tue Apr  8 20:56:09 2025.
 Gaussian 16:  ES64L-G16RevC.01  3-Jul-2019

 ----------------------------------------------------------------------
 #t hf aug-cc-pvdz iop(5/13=1,5/36=2,99/5=2) pseudo=read geom=check gue
 ss=(read,tcheck) scf=(maxcycle=1)
 ----------------------------------------------------------------------
 -----
 title
 -----
 Structure from the checkpoint file:  "ANI1ccx_1784_conf3_mol1.chk"
 Charge =  0 Multiplicity = 1

                         Standard orientation:
 ---------------------------------------------------------------------
 Center     Atomic      Atomic             Coordinates (Angstroms)
 Number     Number       Type             X           Y           Z
 ---------------------------------------------------------------------
      1          6           0        2.637410   -1.038299    0.673544
      2          6           0       -3.257431    0.592020    0.049643
      3          6           0       -2.192581    1.114299    0.953278
      4          6           0       -0.805265    0.423558    0.912230
      5          6           0       -3.593560   -0.865978    0.277151
      6          6           0       -0.064922    0.514642   -0.422371
      7          6           0        2.210179   -0.310324    1.946960
      8          6           0        1.521770   -1.514369   -0.279796
      9          6           0        0.811821    1.762510   -0.597940
     10          1           0       -2.162462    2.182459    0.693673
     11          1           0        1.761049    0.665756   -1.842670
     12          1           0       -5.572100   -0.897347   -0.276869
     13          1           0       -4.591890   -1.050752   -1.529220
     14          1           0       -3.887630   -1.032672    1.320880
     15          1           0       -2.679560   -1.455331    0.125834
     16          1           0       -4.116111    1.260408    0.259878
     17          1           0       -3.120771    0.717414   -1.054580
     18          1           0       -2.559421    0.996550    1.977890
     19          1           0       -0.826676    0.620020   -1.193780
     20          1           0       -0.183670    0.918511    1.685150
     21          1           0       -0.007354   -1.334520   -1.418560
     22          1           0        1.385380   -0.873058    2.398720
     23          1           0        3.040889   -0.242534    2.653750
     24          1           0        1.865149    0.719607    1.808130
     25          1           0        3.170190   -1.912078    1.057760
     26          1           0        4.066650   -0.750954   -0.835490
     27          1           0        3.343839    0.649485   -0.347035
     28          1           0       -0.911051   -0.664254    1.083270
     29          7           0        3.643269   -0.259143   -0.055567
     30          7           0        0.573235   -0.705211   -0.871668
     31          7           0       -4.695120   -1.340292   -0.554243
     32          8           0        0.638598    2.828410   -0.044194
     33          8           0        1.514931   -2.681949   -0.649888
     34          8           0        1.812889    1.546971   -1.464990
 ---------------------------------------------------------------------

 SCF Done:  E(RHF) =  -740.124509000     A.U. after    2 cycles

 The electronic state is 1-A.
 Alpha  occ. eigenvalues --  -20.63888 -20.58074 -20.55614 -15.67575 -15.61784
 Alpha  occ. eigenvalues --  -15.61507 -11.42086 -11.38097 -11.32450 -11.29927
 Alpha  occ. eigenvalues --  -11.26953 -11.26216 -11.24751 -11.24748 -11.24322
 Alpha  occ. eigenvalues --   -1.44116  -1.37050  -1.34681  -1.23012  -1.17248
 Alpha  occ. eigenvalues --   -1.16261  -1.09079  -1.02902  -1.01375  -0.94727
 Alpha  occ. eigenvalues --   -0.89548  -0.88536  -0.86354  -0.81475  -0.80205
 Alpha  occ. eigenvalues --   -0.74446  -0.72451  -0.69800  -0.68849  -0.67996
 Alpha  occ. eigenvalues --   -0.67441  -0.66467  -0.65043  -0.63460  -0.63274
 Alpha  occ. eigenvalues --   -0.62342  -0.60915  -0.59061  -0.58225  -0.56888
 Alpha  occ. eigenvalues --   -0.56583  -0.54789  -0.53433  -0.52484  -0.52011
 Alpha  occ. eigenvalues --   -0.51471  -0.50511  -0.49118  -0.48213  -0.47714
 Alpha  occ. eigenvalues --   -0.46875  -0.42254  -0.39257  -0.38984
 Alpha virt. eigenvalues --    0.02357   0.02945   0.03467   0.04315   0.04575
 Alpha virt. eigenvalues --    0.04677   0.05604   0.06304   0.06925   0.07024
 Alpha virt. eigenvalues --    0.07224   0.07560   0.08487   0.08823   0.09432

 Mulliken charges:
               1
     1  C    0.042272
     2  C    0.408669
     3  C   -0.083762
     4  C    0.583168
     5  C    0.939212
     6  C    0.390397
     7  C    1.078356
     8  C    0.607158
     9  C    0.611762
    10  H   -0.024717
    11  H    0.318313
    12  H    0.019020
    13  H    0.000220
    14  H   -0.118907
    15  H   -0.269856
    16  H   -0.088716
    17  H   -0.112305
    18  H   -0.047914
    19  H   -0.363761
    20  H   -0.233829
    21  H    0.024564
    22  H   -0.023434
    23  H   -0.176527
    24  H   -0.141740
    25  H   -0.189395
    26  H   -0.015401
    27  H    0.011716
    28  H   -0.126393
    29  N   -0.255505
    30  N   -0.648608
    31  N   -0.446904
    32  O   -0.527125
    33  O   -0.571307
    34  O   -0.568724
 Sum of Mulliken charges =  -0.00000

 Dipole moment (field-independent basis, Debye):
    X=             -2.5745    Y=              0.5189    Z=             -0.2612  Tot=              2.6393

 Test job not archived.
 1\1\GINC-SE362\SP\RHF\Aug-CC-pVDZ\C9H19N3O3\OHZDE\08-Apr-2025\0\\#t hf
  aug-cc-pvdz iop(5/13=1,5/36=2,99/5=2) pseudo=read geom=check guess=(r
 ead,tcheck) scf=(maxcycle=1)\\title\\0,1\C,0,2.63741,-1.0383,0.673544\
 C,0,-3.25743,0.592021,0.049643\C,0,-2.19258,1.1143,0.953278\C,0,-0.805
 264,0.423558,0.91223\C,0,-3.59356,-0.865976,0.277151\C,0,-0.0649206,0.
 514642,-0.422371\C,0,2.21018,-0.310325,1.94696\C,0,1.52177,-1.51437,-0
 .279796\C,0,0.811823,1.76251,-0.59794\H,0,-2.16246,2.18246,0.693673\H,
 0,1.76105,0.665755,-1.84267\H,0,-5.5721,-0.897345,-0.276869\H,0,-4.591

 Normal termination of Gaussian 16 at Tue Apr  8 20:56:48 2025.
