 Gaussian 16, Revision C.01,

 ----------------------------------------------------------------------
 #t hf aug-cc-pvdz symm=none int=(grid=ultrafine) guess=(read,tcheck) s
 table=(opt,rrhf)
 ----------------------------------------------------------------------
 -----
 title
 -----
 Symbolic Z-matrix:
 Charge =  0 Multiplicity = 1

 SCF Done:  E(RHF) =  -558.627972302     A.U. after   15 cycles
 Normal termination of Gaussian 16 at Tue Apr  8 19:26:23 2025.
 Gaussian 16:  ES64L-G16RevC.01  3-Jul-2019

 ----------------------------------------------------------------------
 #t hf aug-cc-pvdz iop(5/13=1,5/36=2,99/5=2) pseudo=read geom=check gue
 ss=(read,tcheck) scf=(maxcycle=1)
 ----------------------------------------------------------------------
 -----
 title
 -----
 Structure from the checkpoint file:  "ANI1ccx_1352_conf1_mol1.chk"
 Charge =  0 Multiplicity = 1

                         Standard orientation:
 ---------------------------------------------------------------------
 Center     Atomic      Atomic             Coordinates (Angstroms)
 Number     Number       Type             X           Y           Z
 ---------------------------------------------------------------------
      1          6           0        2.853331   -1.483727    0.016525
      2          6           0        2.297548    1.025683    0.019806
      3          6           0        0.172681    0.985093   -0.025323
      4          6           0       -1.229812    1.162778   -0.011289
      5          6           0       -1.468669   -1.162562   -0.004551
      6          6           0        0.588678   -0.350339   -0.030609
      7          1           0       -3.410938   -1.900854    0.356141
      8          1           0       -2.156077   -3.095913   -0.390977
      9          1           0       -1.240045    3.313808   -0.251209
     10          1           0       -2.751054    2.450566    0.090480
     11          1           0        3.325988    1.351664    0.239256
     12          1           0        3.386141   -1.638356    1.018410
     13          1           0        2.127712   -2.333177    0.034753
     14          1           0        3.576991   -1.634306   -0.780835
     15          7           0        1.956020   -0.303189   -0.115424
     16          7           0        1.237707    1.862211    0.121231
     17          7           0       -1.780684    2.378398   -0.082051
     18          7           0       -2.052031    0.057633    0.085759
     19          7           0       -2.351058   -2.193413    0.068944
     20          7           0       -0.172993   -1.455210   -0.093226
 ---------------------------------------------------------------------

 SCF Done:  E(RHF) =  -558.789273596     A.U. after    2 cycles

 The electronic state is 1-A.
 Alpha  occ. eigenvalues --  -15.68943 -15.65374 -15.63494 -15.62944 -15.60150
 Alpha  occ. eigenvalues --  -15.59918 -11.35281 -11.34894 -11.32181 -11.31756
 Alpha  occ. eigenvalues --  -11.29793 -11.24416  -1.32187  -1.26801  -1.21900
 Alpha  occ. eigenvalues --   -1.15305  -1.13201  -1.09753  -0.99293  -0.96170
 Alpha  occ. eigenvalues --   -0.87725  -0.83585  -0.79200  -0.75454  -0.72229
 Alpha  occ. eigenvalues --   -0.67994  -0.67739  -0.64856  -0.62106  -0.61442
 Alpha  occ. eigenvalues --   -0.59267  -0.58718  -0.58236  -0.55473  -0.53110
 Alpha  occ. eigenvalues --   -0.50991  -0.48121  -0.44021  -0.41614  -0.39255
 Alpha  occ. eigenvalues --   -0.39000  -0.35006  -0.27767
 Alpha virt. eigenvalues --    0.02940   0.03398   0.03519   0.04980   0.05395
 Alpha virt. eigenvalues --    0.05968   0.07530   0.08227   0.09509   0.09762
 Alpha virt. eigenvalues --    0.10614   0.11596   0.12351   0.13189   0.13475

 Mulliken charges:
               1
     1  C    0.722328
     2  C    0.834834
     3  C    0.842116
     4  C    0.557111
     5  C    0.719211
     6  C    0.308804
     7  H    0.167020
     8  H   -0.004610
     9  H    0.111410
    10  H   -0.045152
    11  H   -0.295804
    12  H    0.015388
    13  H   -0.163032
    14  H   -0.203955
    15  N   -0.442400
    16  N   -0.973935
    17  N   -0.302668
    18  N   -0.709696
    19  N   -0.543288
    20  N   -0.593682
 Sum of Mulliken charges =  -0.00000

 Dipole moment (field-independent basis, Debye):
    X=              0.8338    Y=             -0.5487    Z=             -0.2376  Tot=              1.0260

 Test job not archived.
 1\1\GINC-SE048\SP\RHF\Aug-CC-pVDZ\C6H8N6\OHZDE\08-Apr-2025\0\\#t hf au
 g-cc-pvdz iop(5/13=1,5/36=2,99/5=2) pseudo=read geom=check guess=(read
 ,tcheck) scf=(maxcycle=1)\\title\\0,1\C,0,2.85333,-1.48373,0.016525\C,
 0,2.29755,1.02568,0.0198061\C,0,0.172683,0.985093,-0.0253234\C,0,-1.22
 981,1.16278,-0.0112889\C,0,-1.46867,-1.16256,-0.00455096\C,0,0.588678,
 -0.35034,-0.0306092\H,0,-3.41094,-1.90085,0.356141\H,0,-2.15608,-3.095
 91,-0.390977\H,0,-1.24004,3.31381,-0.251209\H,0,-2.75105,2.45057,0.090
 4803\H,0,3.32599,1.35166,0.239256\H,0,3.38614,-1.63836,1.01841\H,0,2.1

 Normal termination of Gaussian 16 at Tue Apr  8 19:26:37 2025.
