 Gaussian 16, Revision C.01,

 ----------------------------------------------------------------------
 #t hf aug-cc-pvdz symm=none int=(grid=ultrafine) guess=(read,tcheck) s
 table=(opt,rrhf)
 ----------------------------------------------------------------------
 -----
 title
 -----
 Symbolic Z-matrix:
 Charge =  0 Multiplicity = 1

 SCF Done:  E(RHF) =  -408.776416157     A.U. after   13 cycles
 Normal termination of Gaussian 16 at Tue Apr  8 21:37:58 2025.
 Gaussian 16:  ES64L-G16RevC.01  3-Jul-2019

 ----------------------------------------------------------------------
 #t hf aug-cc-pvdz iop(5/13=1,5/36=2,99/5=2) pseudo=read geom=check gue
 ss=(read,tcheck) scf=(maxcycle=1)
 ----------------------------------------------------------------------
 -----
 title
 -----
 Structure from the checkpoint file:  "ANI1ccx_432_conf2_mol1.chk"
 Charge =  0 Multiplicity = 1

                         Standard orientation:
 ---------------------------------------------------------------------
 Center     Atomic      Atomic             Coordinates (Angstroms)
 Number     Number       Type             X           Y           Z
 ---------------------------------------------------------------------
      1          6           0       -0.274051   -0.247492    0.097193
      2          1           0        1.119748    1.808711    1.216250
      3          1           0        1.454827    2.452252   -0.291089
      4          1           0       -0.735078    1.602719   -0.416263
      5          1           0        0.524862   -2.069160    0.499029
      6          1           0        2.484611   -0.532257   -0.015462
      7          1           0       -3.242249   -0.202595   -0.053072
      8          7           0        1.247498    1.583112    0.223608
      9          7           0        0.044876    0.992276   -0.238579
     10          7           0        0.776427   -1.119799    0.437897
     11          7           0       -1.437698   -0.759465    0.180378
     12          8           0        1.829212   -1.013078   -0.522430
     13          8           0       -2.376730    0.207130   -0.195781
 ---------------------------------------------------------------------

 SCF Done:  E(RHF) =  -408.900168151     A.U. after    2 cycles

 The electronic state is 1-A.
 Alpha  occ. eigenvalues --  -20.60509 -20.59705 -15.67991 -15.67656 -15.67475
 Alpha  occ. eigenvalues --  -15.64332 -11.35075  -1.38478  -1.36210  -1.28244
 Alpha  occ. eigenvalues --   -1.17140  -1.05901  -1.02740  -0.83236  -0.73194
 Alpha  occ. eigenvalues --   -0.72004  -0.71177  -0.68703  -0.66551  -0.64778
 Alpha  occ. eigenvalues --   -0.61245  -0.60818  -0.54007  -0.49718  -0.46360
 Alpha  occ. eigenvalues --   -0.44044  -0.40051  -0.33011
 Alpha virt. eigenvalues --    0.02672   0.03867   0.04392   0.05071   0.06995
 Alpha virt. eigenvalues --    0.07526   0.11400   0.13264   0.14132   0.14563
 Alpha virt. eigenvalues --    0.15736   0.16516   0.17475   0.17662   0.18565

 Mulliken charges:
               1
     1  C    1.233635
     2  H    0.132856
     3  H    0.093834
     4  H    0.019142
     5  H    0.006890
     6  H    0.241729
     7  H    0.186868
     8  N   -0.400942
     9  N   -0.029448
    10  N   -0.154034
    11  N   -0.239236
    12  O   -0.527164
    13  O   -0.564130
 Sum of Mulliken charges =  -0.00000

 Dipole moment (field-independent basis, Debye):
    X=              0.5227    Y=              2.9381    Z=              1.4264  Tot=              3.3076

 Test job not archived.
 1\1\GINC-SE457\SP\RHF\Aug-CC-pVDZ\C1H6N4O2\OHZDE\08-Apr-2025\0\\#t hf
 aug-cc-pvdz iop(5/13=1,5/36=2,99/5=2) pseudo=read geom=check guess=(re
 ad,tcheck) scf=(maxcycle=1)\\title\\0,1\C,0,-0.274052,-0.247491,0.0971
 933\H,0,1.11975,1.80871,1.21625\H,0,1.45483,2.45225,-0.291089\H,0,-0.7
 35076,1.60272,-0.416263\H,0,0.524858,-2.06916,0.499029\H,0,2.48461,-0.
 53226,-0.0154626\H,0,-3.24225,-0.20259,-0.0530721\N,0,1.2475,1.58311,0
 .223608\N,0,0.0448772,0.992276,-0.238579\N,0,0.776425,-1.1198,0.437897
 \N,0,-1.4377,-0.759463,0.180378\O,0,1.82921,-1.01308,-0.52243\O,0,-2.3

 Normal termination of Gaussian 16 at Tue Apr  8 21:38:02 2025.
