 Gaussian 16, Revision C.01,

 ----------------------------------------------------------------------
 #t hf aug-cc-pvdz symm=none int=(grid=ultrafine) guess=(read,tcheck) s
 table=(opt,rrhf)
 ----------------------------------------------------------------------
 -----
 title
 -----
 Symbolic Z-matrix:
 Charge =  0 Multiplicity = 1

 SCF Done:  E(RHF) =  -872.528505231     A.U. after   14 cycles
 Normal termination of Gaussian 16 at Tue Apr  8 22:09:32 2025.
 Gaussian 16:  ES64L-G16RevC.01  3-Jul-2019

 ----------------------------------------------------------------------
 #t hf aug-cc-pvdz iop(5/13=1,5/36=2,99/5=2) pseudo=read geom=check gue
 ss=(read,tcheck) scf=(maxcycle=1)
 ----------------------------------------------------------------------
 -----
 title
 -----
 Structure from the checkpoint file:  "ANI1ccx_68_conf3_mol1.chk"
 Charge =  0 Multiplicity = 1

                         Standard orientation:
 ---------------------------------------------------------------------
 Center     Atomic      Atomic             Coordinates (Angstroms)
 Number     Number       Type             X           Y           Z
 ---------------------------------------------------------------------
      1          6           0       -0.862938    2.010280    0.529723
      2          6           0        4.093641    0.950054    0.014600
      3          6           0        3.233170   -0.364877    0.172142
      4          6           0        1.165740   -1.521581   -0.554620
      5          6           0        1.859900   -0.239710   -0.380360
      6          6           0        3.242550   -0.861547    1.595330
      7          6           0       -2.530189    0.291438   -0.187597
      8          6           0       -1.741909    0.810880    0.978152
      9          6           0        0.245881    1.577259   -0.371589
     10          6           0       -3.167500   -1.042029    0.025723
     11          1           0        3.750320   -1.138443   -0.416979
     12          1           0       -0.352298   -2.624750   -0.357752
     13          1           0        4.293280   -1.013403    1.946770
     14          1           0        2.817030   -0.136624    2.286630
     15          1           0        2.636439   -1.744592    1.696930
     16          1           0        3.667081    1.764787    0.646755
     17          1           0        4.116771    1.313697   -1.036030
     18          1           0        5.107111    0.817009    0.382915
     19          1           0        1.977280    0.071331   -1.430550
     20          1           0       -4.713791   -1.887638    0.501512
     21          1           0       -3.375039    1.004682   -0.415326
     22          1           0       -1.926199    0.242760   -1.104690
     23          1           0       -2.480939    1.185841    1.716920
     24          1           0       -1.167180    0.002087    1.393320
     25          1           0       -0.395379    2.438090    1.437490
     26          1           0       -2.416778    3.457601    0.263908
     27          1           0       -1.616228    2.981921   -1.156700
     28          1           0        0.937964    0.611011    1.282840
     29          7           0       -1.519118    3.106200   -0.161918
     30          7           0        1.112991    0.752807    0.293923
     31          8           0        1.703999   -2.401981   -1.186950
     32          8           0        0.241929    1.760479   -1.572180
     33          8           0       -2.640181   -2.125259   -0.166619
     34          8           0       -4.461410   -0.968556    0.447730
     35          8           0       -0.000166   -1.767110    0.041642
 ---------------------------------------------------------------------

 SCF Done:  E(RHF) =  -872.797339377     A.U. after    2 cycles

 The electronic state is 1-A.
 Alpha  occ. eigenvalues --  -20.63690 -20.62666 -20.57553 -20.55717 -20.55280
 Alpha  occ. eigenvalues --  -15.65806 -15.61591 -11.41429 -11.39263 -11.37498
 Alpha  occ. eigenvalues --  -11.29753 -11.29177 -11.26614 -11.26548 -11.25114
 Alpha  occ. eigenvalues --  -11.23715 -11.23639  -1.43712  -1.42929  -1.37167
 Alpha  occ. eigenvalues --   -1.33292  -1.31722  -1.23712  -1.17279  -1.09476
 Alpha  occ. eigenvalues --   -1.07894  -1.00674  -0.96346  -0.93703  -0.89445
 Alpha  occ. eigenvalues --   -0.85285  -0.82647  -0.80156  -0.78672  -0.74755
 Alpha  occ. eigenvalues --   -0.73705  -0.72555  -0.71489  -0.70725  -0.67860
 Alpha  occ. eigenvalues --   -0.66172  -0.65851  -0.64852  -0.63932  -0.63215
 Alpha  occ. eigenvalues --   -0.62241  -0.61234  -0.60006  -0.59006  -0.58697
 Alpha  occ. eigenvalues --   -0.57651  -0.55585  -0.54463  -0.53930  -0.53537
 Alpha  occ. eigenvalues --   -0.51809  -0.51351  -0.50555  -0.49802  -0.48905
 Alpha  occ. eigenvalues --   -0.47493  -0.47227  -0.47192  -0.45125  -0.41268
 Alpha  occ. eigenvalues --   -0.38620
 Alpha virt. eigenvalues --    0.02262   0.03182   0.03713   0.04016   0.04816
 Alpha virt. eigenvalues --    0.05294   0.05623   0.06400   0.06723   0.07029
 Alpha virt. eigenvalues --    0.07525   0.07617   0.07935   0.08643   0.09358

 Mulliken charges:
               1
     1  C    0.438545
     2  C    0.879553
     3  C   -0.870670
     4  C    0.733220
     5  C   -0.030424
     6  C    0.864710
     7  C    0.354363
     8  C    0.327308
     9  C    0.722775
    10  C    0.681985
    11  H   -0.157615
    12  H    0.329345
    13  H   -0.040139
    14  H   -0.115082
    15  H   -0.084271
    16  H    0.060296
    17  H   -0.027536
    18  H   -0.139086
    19  H    0.051184
    20  H    0.169433
    21  H    0.062235
    22  H   -0.116358
    23  H   -0.050263
    24  H   -0.232410
    25  H   -0.156831
    26  H    0.010611
    27  H    0.033085
    28  H    0.041746
    29  N   -0.379516
    30  N   -0.441277
    31  O   -0.595022
    32  O   -0.623304
    33  O   -0.535927
    34  O   -0.518847
    35  O   -0.645814
 Sum of Mulliken charges =   0.00000

 Dipole moment (field-independent basis, Debye):
    X=             -1.9734    Y=              1.2517    Z=              4.4785  Tot=              5.0515

 Test job not archived.
 1\1\GINC-SE071\SP\RHF\Aug-CC-pVDZ\C10H18N2O5\OHZDE\08-Apr-2025\0\\#t h
 f aug-cc-pvdz iop(5/13=1,5/36=2,99/5=2) pseudo=read geom=check guess=(
 read,tcheck) scf=(maxcycle=1)\\title\\0,1\C,0,-0.86294,2.01028,0.52972
 3\C,0,4.09364,0.950057,0.0146001\C,0,3.23317,-0.364875,0.172142\C,0,1.
 16574,-1.52158,-0.55462\C,0,1.8599,-0.239709,-0.38036\C,0,3.24255,-0.8
 61545,1.59533\C,0,-2.53019,0.291437,-0.187597\C,0,-1.74191,0.810879,0.
 978152\C,0,0.24588,1.57726,-0.371589\C,0,-3.1675,-1.04203,0.0257229\H,
 0,3.75032,-1.13844,-0.416979\H,0,-0.352297,-2.62475,-0.357752\H,0,4.29

 Normal termination of Gaussian 16 at Tue Apr  8 22:10:28 2025.
