 Gaussian 16, Revision C.01,

 ----------------------------------------------------------------------
 #t hf aug-cc-pvdz symm=none int=(grid=ultrafine) guess=(read,tcheck) s
 table=(opt,rrhf)
 ----------------------------------------------------------------------
 -----
 title
 -----
 Symbolic Z-matrix:
 Charge =  0 Multiplicity = 1

 SCF Done:  E(RHF) =  -489.157286379     A.U. after   13 cycles
 Normal termination of Gaussian 16 at Tue Apr  8 21:47:57 2025.
 Gaussian 16:  ES64L-G16RevC.01  3-Jul-2019

 ----------------------------------------------------------------------
 #t hf aug-cc-pvdz iop(5/13=1,5/36=2,99/5=2) pseudo=read geom=check gue
 ss=(read,tcheck) scf=(maxcycle=1)
 ----------------------------------------------------------------------
 -----
 title
 -----
 Structure from the checkpoint file:  "ANI1ccx_667_conf1_mol1.chk"
 Charge =  0 Multiplicity = 1

                         Standard orientation:
 ---------------------------------------------------------------------
 Center     Atomic      Atomic             Coordinates (Angstroms)
 Number     Number       Type             X           Y           Z
 ---------------------------------------------------------------------
      1          6           0        1.240670   -0.353810   -0.000984
      2          6           0        0.008188    1.519829    0.284994
      3          6           0       -1.241060   -0.380784   -0.023126
      4          1           0        0.138341    1.461019    1.385120
      5          1           0       -0.068186    2.590939    0.002664
      6          8           0        2.210129   -1.009594   -0.120802
      7          8           0        1.129972    0.955434   -0.328529
      8          8           0       -1.174088    0.945007   -0.169867
      9          8           0       -2.213551   -1.018888   -0.171049
     10          8           0        0.032919   -0.967380    0.421110
 ---------------------------------------------------------------------

 SCF Done:  E(RHF) =  -489.316207036     A.U. after    2 cycles

 The electronic state is 1-A.
 Alpha  occ. eigenvalues --  -20.69184 -20.68941 -20.68676 -20.62017 -20.61115
 Alpha  occ. eigenvalues --  -11.50687 -11.49948 -11.42775  -1.54612  -1.48032
 Alpha  occ. eigenvalues --   -1.43551  -1.39724  -1.37484  -1.04861  -0.94229
 Alpha  occ. eigenvalues --   -0.87172  -0.84918  -0.80615  -0.75844  -0.72622
 Alpha  occ. eigenvalues --   -0.71016  -0.70861  -0.65941  -0.64122  -0.63572
 Alpha  occ. eigenvalues --   -0.57656  -0.56425  -0.55734  -0.53152  -0.52516
 Alpha virt. eigenvalues --    0.02298   0.04047   0.06422   0.06723   0.09699
 Alpha virt. eigenvalues --    0.10354   0.10544   0.10918   0.11172   0.12654
 Alpha virt. eigenvalues --    0.13631   0.14126   0.14189   0.14752   0.17259

 Mulliken charges:
               1
     1  C    0.758876
     2  C    1.025006
     3  C    0.771706
     4  H   -0.067169
     5  H   -0.215113
     6  O   -0.321032
     7  O   -0.528334
     8  O   -0.462090
     9  O   -0.306270
    10  O   -0.655581
 Sum of Mulliken charges =  -0.00000

 Dipole moment (field-independent basis, Debye):
    X=             -0.1627    Y=              4.4971    Z=              1.4365  Tot=              4.7238

 Test job not archived.
 1\1\GINC-SE461\SP\RHF\Aug-CC-pVDZ\C3H2O5\OHZDE\08-Apr-2025\0\\#t hf au
 g-cc-pvdz iop(5/13=1,5/36=2,99/5=2) pseudo=read geom=check guess=(read
 ,tcheck) scf=(maxcycle=1)\\title\\0,1\C,0,1.24067,-0.353807,-0.0009840
 7\C,0,0.00818565,1.51983,0.284994\C,0,-1.24106,-0.380785,-0.0231259\H,
 0,0.138338,1.46102,1.38512\H,0,-0.0681905,2.59094,0.0026634\O,0,2.2101
 3,-1.00959,-0.120802\O,0,1.12997,0.955437,-0.328529\O,0,-1.17409,0.945
 007,-0.169867\O,0,-2.21355,-1.01889,-0.171049\O,0,0.0329198,-0.967379,
 0.42111\\Version=ES64L-G16RevC.01\State=1-A\HF=-489.316207\RMSD=2.799e

 Normal termination of Gaussian 16 at Tue Apr  8 21:48:01 2025.
