 Gaussian 16, Revision C.01,

 ----------------------------------------------------------------------
 #t hf aug-cc-pvdz symm=none int=(grid=ultrafine) guess=(read,tcheck) s
 table=(opt,rrhf)
 ----------------------------------------------------------------------
 -----
 title
 -----
 Symbolic Z-matrix:
 Charge =  0 Multiplicity = 1

 SCF Done:  E(RHF) =  -645.341911163     A.U. after   17 cycles
 Normal termination of Gaussian 16 at Tue Apr  8 21:21:55 2025.
 Gaussian 16:  ES64L-G16RevC.01  3-Jul-2019

 ----------------------------------------------------------------------
 #t hf aug-cc-pvdz iop(5/13=1,5/36=2,99/5=2) pseudo=read geom=check gue
 ss=(read,tcheck) scf=(maxcycle=1)
 ----------------------------------------------------------------------
 -----
 title
 -----
 Structure from the checkpoint file:  "ANI1ccx_33_conf1_mol2.chk"
 Charge =  0 Multiplicity = 1

                         Standard orientation:
 ---------------------------------------------------------------------
 Center     Atomic      Atomic             Coordinates (Angstroms)
 Number     Number       Type             X           Y           Z
 ---------------------------------------------------------------------
      1          6           0        3.894119    1.163369    1.334210
      2          6           0       -3.746911   -0.230489   -0.125858
      3          6           0       -0.617251   -1.703371    0.824748
      4          6           0       -1.488051   -0.824813    0.117516
      5          6           0       -1.008131   -0.104742   -0.966287
      6          6           0        0.747511   -1.778311    0.601256
      7          6           0        1.334409   -0.898774   -0.335044
      8          6           0        3.297719    0.221547   -0.909402
      9          6           0        3.143479    1.418279    0.032474
     10          6           0        0.413086   -0.000319   -1.042950
     11          1           0       -1.659661    0.690508   -1.544810
     12          1           0       -3.087451    2.200329    1.326000
     13          1           0       -4.268391    1.545859   -0.924857
     14          1           0       -4.623771   -0.756425   -0.481882
     15          1           0        1.466639   -2.436291    1.155970
     16          1           0       -0.970724   -2.323161    1.676570
     17          1           0        0.634168    0.814277   -1.801460
     18          1           0        1.974089    1.435409    0.260535
     19          1           0        4.325879   -0.104781   -0.934251
     20          1           0        3.439459    2.422869   -0.450242
     21          1           0        3.376129    0.303485    1.971040
     22          1           0        3.971099    1.970329    2.036700
     23          1           0        4.870659    0.797584    0.964207
     24          1           0        3.036729    0.572489   -1.913400
     25          7           0       -2.834831   -0.893665    0.420170
     26          7           0       -3.869531    1.129639   -0.105085
     27          8           0        2.619799   -0.965065   -0.565041
     28          8           0       -2.791571    1.920249    0.473833
 ---------------------------------------------------------------------

 SCF Done:  E(RHF) =  -645.533351660     A.U. after    2 cycles

 The electronic state is 1-A.
 Alpha  occ. eigenvalues --  -20.64275 -20.58788 -15.72226 -15.58871 -11.35076
 Alpha  occ. eigenvalues --  -11.29675 -11.28597 -11.27334 -11.24475 -11.24360
 Alpha  occ. eigenvalues --  -11.24061 -11.23205 -11.22993 -11.22775  -1.38943
 Alpha  occ. eigenvalues --   -1.38290  -1.23430  -1.14334  -1.09488  -1.04797
 Alpha  occ. eigenvalues --   -0.99499  -0.97672  -0.92419  -0.85765  -0.81597
 Alpha  occ. eigenvalues --   -0.81094  -0.77012  -0.76194  -0.72509  -0.70136
 Alpha  occ. eigenvalues --   -0.68800  -0.68084  -0.65835  -0.63982  -0.61085
 Alpha  occ. eigenvalues --   -0.58719  -0.56685  -0.56502  -0.55931  -0.55446
 Alpha  occ. eigenvalues --   -0.53805  -0.52768  -0.52025  -0.49425  -0.47995
 Alpha  occ. eigenvalues --   -0.47177  -0.45653  -0.45281  -0.39600  -0.38775
 Alpha  occ. eigenvalues --   -0.32755  -0.25320
 Alpha virt. eigenvalues --    0.02538   0.03465   0.03911   0.04262   0.05137
 Alpha virt. eigenvalues --    0.05260   0.05391   0.06516   0.07233   0.07344
 Alpha virt. eigenvalues --    0.07709   0.08617   0.08779   0.10026   0.10546

 Mulliken charges:
               1
     1  C    0.226514
     2  C    0.766997
     3  C    1.253867
     4  C   -0.081933
     5  C    0.014347
     6  C    0.375054
     7  C    0.550357
     8  C    0.924531
     9  C   -0.241193
    10  C    0.455384
    11  H   -0.310659
    12  H    0.199114
    13  H    0.054738
    14  H   -0.377914
    15  H   -0.495143
    16  H   -0.528410
    17  H   -0.600309
    18  H    0.164114
    19  H   -0.402220
    20  H   -0.061196
    21  H    0.116406
    22  H   -0.191307
    23  H    0.013944
    24  H   -0.112011
    25  N   -0.456158
    26  N   -0.017229
    27  O   -0.722944
    28  O   -0.516741
 Sum of Mulliken charges =  -0.00000

 Dipole moment (field-independent basis, Debye):
    X=             -2.6580    Y=              3.8886    Z=             -0.7149  Tot=              4.7641

 Test job not archived.
 1\1\GINC-SE363\SP\RHF\Aug-CC-pVDZ\C10H14N2O2\OHZDE\08-Apr-2025\0\\#t h
 f aug-cc-pvdz iop(5/13=1,5/36=2,99/5=2) pseudo=read geom=check guess=(
 read,tcheck) scf=(maxcycle=1)\\title\\0,1\C,0,3.89412,1.16337,1.33421\
 C,0,-3.74691,-0.230488,-0.125858\C,0,-0.61725,-1.70337,0.824748\C,0,-1
 .48805,-0.824812,0.117516\C,0,-1.00813,-0.104741,-0.966287\C,0,0.74751
 2,-1.77831,0.601256\C,0,1.33441,-0.898773,-0.335044\C,0,3.29772,0.2215
 48,-0.909402\C,0,3.14348,1.41828,0.0324744\C,0,0.413087,-0.00031816,-1
 .04295\H,0,-1.65966,0.690509,-1.54481\H,0,-3.08745,2.20033,1.326\H,0,-

 Normal termination of Gaussian 16 at Tue Apr  8 21:22:23 2025.
