 Gaussian 16, Revision C.01,

 ----------------------------------------------------------------------
 #t hf aug-cc-pvdz symm=none int=(grid=ultrafine) guess=(read,tcheck) s
 table=(opt,rrhf)
 ----------------------------------------------------------------------
 -----
 title
 -----
 Symbolic Z-matrix:
 Charge =  0 Multiplicity = 1

 SCF Done:  E(RHF) =  -380.209160094     A.U. after   11 cycles
 Normal termination of Gaussian 16 at Tue Apr  8 21:00:24 2025.
 Gaussian 16:  ES64L-G16RevC.01  3-Jul-2019

 ----------------------------------------------------------------------
 #t hf aug-cc-pvdz iop(5/13=1,5/36=2,99/5=2) pseudo=read geom=check gue
 ss=(read,tcheck) scf=(maxcycle=1)
 ----------------------------------------------------------------------
 -----
 title
 -----
 Structure from the checkpoint file:  "ANI1ccx_1843_conf253_mol1.chk"
 Charge =  0 Multiplicity = 1

                         Standard orientation:
 ---------------------------------------------------------------------
 Center     Atomic      Atomic             Coordinates (Angstroms)
 Number     Number       Type             X           Y           Z
 ---------------------------------------------------------------------
      1          1           0       -3.729311    0.043090    1.144210
      2          1           0       -3.700911   -0.835177   -0.057805
      3          1           0        0.944692    1.617741   -0.209359
      4          1           0        0.601876    2.995361   -0.626282
      5          1           0        2.235659   -0.293666    2.048760
      6          1           0        2.267979   -0.432996    0.507657
      7          1           0        0.886392   -1.282079   -0.438269
      8          1           0        2.032269   -1.121179   -1.344380
      9          1           0       -0.811083    0.658874   -1.098660
     10          1           0       -1.697071   -0.403506   -0.386176
     11          8           0       -3.134961   -0.565717    0.746869
     12          8           0        0.154544    2.215180   -0.394420
     13          8           0        2.193309    0.190026    1.221870
     14          8           0        1.783779   -1.660769   -0.581626
     15          8           0       -0.875483   -0.297028   -0.935156
 ---------------------------------------------------------------------

 SCF Done:  E(RHF) =  -380.336325311     A.U. after    2 cycles

 The electronic state is 1-A.
 Alpha  occ. eigenvalues --  -20.61454 -20.58272 -20.57835 -20.55204 -20.54550
 Alpha  occ. eigenvalues --   -1.34239  -1.32009  -1.31783  -1.28491  -1.27759
 Alpha  occ. eigenvalues --   -0.75106  -0.73257  -0.72599  -0.71002  -0.69578
 Alpha  occ. eigenvalues --   -0.64035  -0.62415  -0.61093  -0.58493  -0.57834
 Alpha  occ. eigenvalues --   -0.54711  -0.53183  -0.51817  -0.50348  -0.49939
 Alpha virt. eigenvalues --    0.02520   0.03882   0.05489   0.05568   0.06319
 Alpha virt. eigenvalues --    0.07950   0.08804   0.09772   0.10385   0.11458
 Alpha virt. eigenvalues --    0.16818   0.17930   0.19069   0.20076   0.20537

 Mulliken charges:
               1
     1  H    0.138101
     2  H    0.223490
     3  H    0.227789
     4  H    0.141754
     5  H    0.170500
     6  H    0.176522
     7  H    0.238205
     8  H    0.206562
     9  H    0.201555
    10  H    0.268121
    11  O   -0.370677
    12  O   -0.370796
    13  O   -0.333637
    14  O   -0.473703
    15  O   -0.443787
 Sum of Mulliken charges =  -0.00000

 Dipole moment (field-independent basis, Debye):
    X=             -2.9619    Y=              1.9109    Z=             -0.7328  Tot=              3.6002

 Test job not archived.
 1\1\GINC-SE021\SP\RHF\Aug-CC-pVDZ\H10O5\OHZDE\08-Apr-2025\0\\#t hf aug
 -cc-pvdz iop(5/13=1,5/36=2,99/5=2) pseudo=read geom=check guess=(read,
 tcheck) scf=(maxcycle=1)\\title\\0,1\H,0,-3.72931,0.0430907,1.14421\H,
 0,-3.70091,-0.835177,-0.057805\H,0,0.944693,1.61774,-0.209359\H,0,0.60
 1878,2.99536,-0.626282\H,0,2.23566,-0.293667,2.04876\H,0,2.26798,-0.43
 2997,0.507657\H,0,0.886393,-1.28208,-0.438269\H,0,2.03227,-1.12118,-1.
 34438\H,0,-0.811082,0.658874,-1.09866\H,0,-1.69707,-0.403506,-0.386176
 \O,0,-3.13496,-0.565717,0.746869\O,0,0.154546,2.21518,-0.39442\O,0,2.1

 Normal termination of Gaussian 16 at Tue Apr  8 21:00:27 2025.
