 Gaussian 16, Revision C.01,

 ----------------------------------------------------------------------
 #t hf aug-cc-pvdz symm=none int=(grid=ultrafine) guess=(read,tcheck) s
 table=(opt,rrhf)
 ----------------------------------------------------------------------
 -----
 title
 -----
 Symbolic Z-matrix:
 Charge =  0 Multiplicity = 1

 SCF Done:  E(RHF) =  -298.815135234     A.U. after   14 cycles
 Normal termination of Gaussian 16 at Tue Apr  8 21:34:37 2025.
 Gaussian 16:  ES64L-G16RevC.01  3-Jul-2019

 ----------------------------------------------------------------------
 #t hf aug-cc-pvdz iop(5/13=1,5/36=2,99/5=2) pseudo=read geom=check gue
 ss=(read,tcheck) scf=(maxcycle=1)
 ----------------------------------------------------------------------
 -----
 title
 -----
 Structure from the checkpoint file:  "ANI1ccx_398_conf43_mol1.chk"
 Charge =  0 Multiplicity = 1

                         Standard orientation:
 ---------------------------------------------------------------------
 Center     Atomic      Atomic             Coordinates (Angstroms)
 Number     Number       Type             X           Y           Z
 ---------------------------------------------------------------------
      1          6           0       -0.449114    0.087133    0.064718
      2          1           0       -1.738970   -1.230420   -0.716905
      3          1           0       -2.504660    0.216252    0.041924
      4          1           0        0.709661   -1.344340    0.877563
      5          1           0        1.499200    0.804093    0.222441
      6          7           0       -1.723390   -0.442358   -0.002533
      7          7           0        0.613941   -0.780321    0.027725
      8          8           0       -0.272010    1.257500    0.015327
      9          8           0        1.833960   -0.058703   -0.139036
 ---------------------------------------------------------------------

 SCF Done:  E(RHF) =  -298.910156073     A.U. after    2 cycles

 The electronic state is 1-A.
 Alpha  occ. eigenvalues --  -20.61769 -20.56355 -15.70669 -15.66563 -11.40740
 Alpha  occ. eigenvalues --   -1.43365  -1.35408  -1.19688  -1.10371  -0.83215
 Alpha  occ. eigenvalues --   -0.76798  -0.72666  -0.72084  -0.65761  -0.60708
 Alpha  occ. eigenvalues --   -0.60579  -0.54540  -0.49767  -0.44549  -0.43268
 Alpha virt. eigenvalues --    0.02876   0.04069   0.04883   0.06405   0.10471
 Alpha virt. eigenvalues --    0.11868   0.12985   0.14365   0.15479   0.16258
 Alpha virt. eigenvalues --    0.16633   0.17952   0.18992   0.19504   0.20497

 Mulliken charges:
               1
     1  C    0.732965
     2  H    0.122503
     3  H    0.034239
     4  H    0.142282
     5  H    0.219518
     6  N   -0.317246
     7  N    0.001465
     8  O   -0.425514
     9  O   -0.510212
 Sum of Mulliken charges =  -0.00000

 Dipole moment (field-independent basis, Debye):
    X=             -2.6925    Y=             -2.0429    Z=              1.0230  Tot=              3.5312

 Test job not archived.
 1\1\GINC-SE365\SP\RHF\Aug-CC-pVDZ\C1H4N2O2\OHZDE\08-Apr-2025\0\\#t hf
 aug-cc-pvdz iop(5/13=1,5/36=2,99/5=2) pseudo=read geom=check guess=(re
 ad,tcheck) scf=(maxcycle=1)\\title\\0,1\C,0,-0.449114,0.0871327,0.0647
 176\H,0,-1.73897,-1.23042,-0.716905\H,0,-2.50466,0.216253,0.0419238\H,
 0,0.709661,-1.34434,0.877563\H,0,1.4992,0.804093,0.222441\N,0,-1.72339
 ,-0.442358,-0.00253284\N,0,0.613941,-0.780321,0.0277251\O,0,-0.27201,1
 .2575,0.0153266\O,0,1.83396,-0.0587033,-0.139036\\Version=ES64L-G16Rev
 C.01\State=1-A\HF=-298.9101561\RMSD=2.381e-03\Dipole=-1.059306,-0.8037

 Normal termination of Gaussian 16 at Tue Apr  8 21:34:40 2025.
