 Gaussian 16, Revision C.01,

 ----------------------------------------------------------------------
 #t hf aug-cc-pvdz symm=none int=(grid=ultrafine) guess=(read,tcheck) s
 table=(opt,rrhf)
 ----------------------------------------------------------------------
 -----
 title
 -----
 Symbolic Z-matrix:
 Charge =  0 Multiplicity = 1

 SCF Done:  E(RHF) =  -351.492883508     A.U. after   15 cycles
 Normal termination of Gaussian 16 at Tue Apr  8 21:18:26 2025.
 Gaussian 16:  ES64L-G16RevC.01  3-Jul-2019

 ----------------------------------------------------------------------
 #t hf aug-cc-pvdz iop(5/13=1,5/36=2,99/5=2) pseudo=read geom=check gue
 ss=(read,tcheck) scf=(maxcycle=1)
 ----------------------------------------------------------------------
 -----
 title
 -----
 Structure from the checkpoint file:  "ANI1ccx_371_conf10_mol2.chk"
 Charge =  0 Multiplicity = 1

                         Standard orientation:
 ---------------------------------------------------------------------
 Center     Atomic      Atomic             Coordinates (Angstroms)
 Number     Number       Type             X           Y           Z
 ---------------------------------------------------------------------
      1          6           0        0.777060   -0.003833    0.004663
      2          1           0        0.070347    2.031271   -0.003123
      3          7           0       -0.118747    1.039441    0.004818
      4          7           0       -1.384420    0.592013   -0.003907
      5          7           0       -1.371260   -0.655319   -0.002400
      6          8           0        1.973830   -0.015983   -0.004897
      7          8           0       -0.050295   -1.089169    0.003093
 ---------------------------------------------------------------------

 SCF Done:  E(RHF) =  -351.598015200     A.U. after    2 cycles

 The electronic state is 1-A.
 Alpha  occ. eigenvalues --  -20.70356 -20.58967 -15.79912 -15.79241 -15.75629
 Alpha  occ. eigenvalues --  -11.46971  -1.56087  -1.40407  -1.35620  -1.22604
 Alpha  occ. eigenvalues --   -0.95521  -0.93845  -0.82011  -0.76454  -0.71204
 Alpha  occ. eigenvalues --   -0.68095  -0.60211  -0.59426  -0.58496  -0.57738
 Alpha  occ. eigenvalues --   -0.49118  -0.43682
 Alpha virt. eigenvalues --    0.02362   0.07842   0.08050   0.08854   0.09680
 Alpha virt. eigenvalues --    0.11736   0.12380   0.12807   0.15660   0.16760
 Alpha virt. eigenvalues --    0.17006   0.18902   0.19060   0.20850   0.24248

 Mulliken charges:
               1
     1  C    0.821061
     2  H    0.006022
     3  N   -0.089206
     4  N    0.047196
     5  N    0.114586
     6  O   -0.365020
     7  O   -0.534640
 Sum of Mulliken charges =  -0.00000

 Dipole moment (field-independent basis, Debye):
    X=             -1.6514    Y=              3.2310    Z=              0.0132  Tot=              3.6286

 Test job not archived.
 1\1\GINC-SE043\SP\RHF\Aug-CC-pVDZ\C1H1N3O2\OHZDE\08-Apr-2025\0\\#t hf
 aug-cc-pvdz iop(5/13=1,5/36=2,99/5=2) pseudo=read geom=check guess=(re
 ad,tcheck) scf=(maxcycle=1)\\title\\0,1\C,0,-0.77706,-0.00383295,-0.00
 466277\H,0,-0.0703458,2.03127,0.00312273\N,0,0.118748,1.03944,-0.00481
 847\N,0,1.38442,0.592012,0.00390733\N,0,1.37126,-0.65532,0.00240003\O,
 0,-1.97383,-0.0159825,0.00489723\O,0,0.0502951,-1.08917,-0.00309327\\V
 ersion=ES64L-G16RevC.01\State=1-A\HF=-351.5980152\RMSD=3.377e-03\Dipol
 e=0.6496948,1.2711656,-0.0051959\Quadrupole=-6.4231943,4.3390177,2.084

 Normal termination of Gaussian 16 at Tue Apr  8 21:18:30 2025.
