 Gaussian 16, Revision C.01,

 ----------------------------------------------------------------------
 #t hf aug-cc-pvdz symm=none int=(grid=ultrafine) guess=(read,tcheck) s
 table=(opt,rrhf)
 ----------------------------------------------------------------------
 -----
 title
 -----
 Symbolic Z-matrix:
 Charge =  0 Multiplicity = 1

 SCF Done:  E(RHF) =  -481.290038302     A.U. after   15 cycles
 Normal termination of Gaussian 16 at Tue Apr  8 21:29:39 2025.
 Gaussian 16:  ES64L-G16RevC.01  3-Jul-2019

 ----------------------------------------------------------------------
 #t hf aug-cc-pvdz iop(5/13=1,5/36=2,99/5=2) pseudo=read geom=check gue
 ss=(read,tcheck) scf=(maxcycle=1)
 ----------------------------------------------------------------------
 -----
 title
 -----
 Structure from the checkpoint file:  "ANI1ccx_380_conf1_mol1.chk"
 Charge =  0 Multiplicity = 1

                         Standard orientation:
 ---------------------------------------------------------------------
 Center     Atomic      Atomic             Coordinates (Angstroms)
 Number     Number       Type             X           Y           Z
 ---------------------------------------------------------------------
      1          6           0       -0.006566    0.718478    0.024169
      2          1           0        2.747520    0.188590   -0.755798
      3          1           0       -2.771670    0.148184    0.772740
      4          7           0        1.064540   -0.170329   -0.016824
      5          7           0        0.648250   -1.428520    0.004523
      6          7           0       -0.616938   -1.443260   -0.010715
      7          7           0       -1.040050   -0.189686    0.016268
      8          8           0        2.333280    0.166398    0.114794
      9          8           0       -2.356720    0.147327   -0.119456
     10          8           0       -0.017444    1.933140   -0.009678
 ---------------------------------------------------------------------

 SCF Done:  E(RHF) =  -481.432982225     A.U. after    2 cycles

 The electronic state is 1-A.
 Alpha  occ. eigenvalues --  -20.68899 -20.68507 -20.56326 -15.79448 -15.79394
 Alpha  occ. eigenvalues --  -15.76329 -15.76210 -11.43642  -1.54175  -1.47612
 Alpha  occ. eigenvalues --   -1.41081  -1.36586  -1.19947  -1.15986  -0.94633
 Alpha  occ. eigenvalues --   -0.92443  -0.84521  -0.82056  -0.75115  -0.73554
 Alpha  occ. eigenvalues --   -0.68438  -0.65933  -0.60996  -0.60872  -0.58717
 Alpha  occ. eigenvalues --   -0.57005  -0.54729  -0.48877  -0.45903  -0.38438
 Alpha virt. eigenvalues --    0.02416   0.03151   0.07729   0.09152   0.10243
 Alpha virt. eigenvalues --    0.11454   0.12533   0.12592   0.12998   0.14843
 Alpha virt. eigenvalues --    0.15972   0.17131   0.17312   0.19353   0.19656

 Mulliken charges:
               1
     1  C    0.818248
     2  H    0.206310
     3  H    0.230706
     4  N    0.114722
     5  N   -0.092808
     6  N   -0.088558
     7  N    0.135592
     8  O   -0.441544
     9  O   -0.475732
    10  O   -0.406935
 Sum of Mulliken charges =  -0.00000

 Dipole moment (field-independent basis, Debye):
    X=              0.0486    Y=             -1.6685    Z=              0.1210  Tot=              1.6736

 Test job not archived.
 1\1\GINC-SE365\SP\RHF\Aug-CC-pVDZ\C1H2N4O3\OHZDE\08-Apr-2025\0\\#t hf
 aug-cc-pvdz iop(5/13=1,5/36=2,99/5=2) pseudo=read geom=check guess=(re
 ad,tcheck) scf=(maxcycle=1)\\title\\0,1\C,0,-0.00656598,0.718478,0.024
 1692\H,0,2.74752,0.188591,-0.755798\H,0,-2.77167,0.148183,0.77274\N,0,
 1.06454,-0.170329,-0.016824\N,0,0.64825,-1.42852,0.00452253\N,0,-0.616
 938,-1.44326,-0.0107152\N,0,-1.04005,-0.189687,0.0162681\O,0,2.33328,0
 .166399,0.114794\O,0,-2.35672,0.147326,-0.119456\O,0,-0.0174452,1.9331
 4,-0.00967793\\Version=ES64L-G16RevC.01\State=1-A\HF=-481.4329822\RMSD

 Normal termination of Gaussian 16 at Tue Apr  8 21:29:42 2025.
