 Gaussian 16, Revision C.01,

 ----------------------------------------------------------------------
 #t hf aug-cc-pvdz symm=none int=(grid=ultrafine) guess=(read,tcheck) s
 table=(opt,rrhf)
 ----------------------------------------------------------------------
 -----
 title
 -----
 Symbolic Z-matrix:
 Charge =  0 Multiplicity = 1

 SCF Done:  E(RHF) =  -758.518404607     A.U. after   14 cycles
 Normal termination of Gaussian 16 at Tue Apr  8 20:47:52 2025.
 Gaussian 16:  ES64L-G16RevC.01  3-Jul-2019

 ----------------------------------------------------------------------
 #t hf aug-cc-pvdz iop(5/13=1,5/36=2,99/5=2) pseudo=read geom=check gue
 ss=(read,tcheck) scf=(maxcycle=1)
 ----------------------------------------------------------------------
 -----
 title
 -----
 Structure from the checkpoint file:  "ANI1ccx_1759_conf38_mol1.chk"
 Charge =  0 Multiplicity = 1

                         Standard orientation:
 ---------------------------------------------------------------------
 Center     Atomic      Atomic             Coordinates (Angstroms)
 Number     Number       Type             X           Y           Z
 ---------------------------------------------------------------------
      1          6           0       -2.124499    0.051209   -0.621517
      2          6           0        1.640700    2.163630   -0.004081
      3          6           0        2.516650    1.117890   -0.842098
      4          6           0        2.145901   -1.060710    0.509910
      5          6           0        0.222784    1.793120   -0.600094
      6          6           0       -1.542159   -0.535801    1.845879
      7          6           0       -2.256700    0.427842    0.853740
      8          6           0       -0.696352   -0.517710   -0.921028
      9          6           0        1.724371   -0.170068   -0.702249
     10          1           0        3.495240    0.928898   -0.302274
     11          1           0        0.522746   -2.015900    0.294951
     12          1           0       -0.610880    2.005830   -0.026521
     13          1           0        0.010306    2.236690   -1.553411
     14          1           0        1.869400    1.663420    0.975915
     15          1           0        1.875020    3.238020   -0.094336
     16          1           0        2.597940    1.400310   -1.922291
     17          1           0        1.764981   -0.756211   -1.525091
     18          1           0       -1.435659   -1.562210    1.551399
     19          1           0       -2.152189   -0.486079    2.717799
     20          1           0       -1.893300    1.924990    2.112989
     21          1           0       -3.277139    0.153478    1.090849
     22          1           0       -2.311190    0.995929   -1.080341
     23          1           0       -3.861909   -1.045521   -0.507880
     24          1           0       -2.785709   -1.935581   -1.314161
     25          1           0       -0.587663   -0.023105    2.031649
     26          7           0       -3.025939   -0.970385   -1.063461
     27          7           0        0.289207    0.316542   -0.708854
     28          8           0        3.180271   -0.938158    1.073249
     29          8           0       -0.548072   -1.574510   -1.455841
     30          8           0       -1.925920    1.800120    1.114189
     31          8           0        1.312841   -2.007760    0.874171
 ---------------------------------------------------------------------

 SCF Done:  E(RHF) =  -758.750698801     A.U. after    2 cycles

 The electronic state is 1-A.
 Alpha  occ. eigenvalues --  -20.62164 -20.61123 -20.55819 -20.55428 -15.65738
 Alpha  occ. eigenvalues --  -15.60985 -11.39512 -11.36895 -11.31556 -11.29616
 Alpha  occ. eigenvalues --  -11.29312 -11.26981 -11.26476 -11.25704 -11.24445
 Alpha  occ. eigenvalues --   -1.43654  -1.39210  -1.34928  -1.33800  -1.24204
 Alpha  occ. eigenvalues --   -1.17116  -1.07630  -1.03576  -1.02051  -0.95273
 Alpha  occ. eigenvalues --   -0.90300  -0.85784  -0.84651  -0.82041  -0.78044
 Alpha  occ. eigenvalues --   -0.74694  -0.73579  -0.72425  -0.68756  -0.68575
 Alpha  occ. eigenvalues --   -0.67773  -0.65779  -0.65585  -0.64785  -0.62273
 Alpha  occ. eigenvalues --   -0.60624  -0.59889  -0.59674  -0.58569  -0.57488
 Alpha  occ. eigenvalues --   -0.56272  -0.55575  -0.53739  -0.52143  -0.51166
 Alpha  occ. eigenvalues --   -0.50263  -0.49639  -0.48200  -0.47979  -0.45689
 Alpha  occ. eigenvalues --   -0.43544  -0.39695  -0.37387
 Alpha virt. eigenvalues --    0.02314   0.03122   0.03723   0.04298   0.04961
 Alpha virt. eigenvalues --    0.05414   0.05785   0.06574   0.06863   0.07833
 Alpha virt. eigenvalues --    0.07916   0.08260   0.08617   0.08953   0.09957

 Mulliken charges:
               1
     1  C    0.954442
     2  C    0.167884
     3  C    0.311841
     4  C    0.483590
     5  C    1.932432
     6  C    0.878647
     7  C    0.217867
     8  C   -0.553354
     9  C    0.710677
    10  H   -0.021175
    11  H    0.217828
    12  H   -0.666290
    13  H   -0.367086
    14  H    0.045967
    15  H   -0.162443
    16  H   -0.092409
    17  H   -0.575341
    18  H   -0.187392
    19  H   -0.276039
    20  H    0.236779
    21  H   -0.284683
    22  H   -0.092100
    23  H   -0.025515
    24  H   -0.011361
    25  H    0.083650
    26  N   -0.380388
    27  N   -0.347651
    28  O   -0.460063
    29  O   -0.583909
    30  O   -0.691350
    31  O   -0.463055
 Sum of Mulliken charges =  -0.00000

 Dipole moment (field-independent basis, Debye):
    X=             -3.7113    Y=              3.3833    Z=              0.8928  Tot=              5.1008

 Test job not archived.
 1\1\GINC-SE044\SP\RHF\Aug-CC-pVDZ\C9H16N2O4\OHZDE\08-Apr-2025\0\\#t hf
  aug-cc-pvdz iop(5/13=1,5/36=2,99/5=2) pseudo=read geom=check guess=(r
 ead,tcheck) scf=(maxcycle=1)\\title\\0,1\C,0,-2.1245,0.0512097,-0.6215
 16\C,0,1.6407,2.16363,-0.00408093\C,0,2.51665,1.11789,-0.842097\C,0,2.
 1459,-1.06071,0.509911\C,0,0.222784,1.79312,-0.600093\C,0,-1.54216,-0.
 535801,1.84588\C,0,-2.2567,0.427842,0.853741\C,0,-0.696353,-0.51771,-0
 .921027\C,0,1.72437,-0.170068,-0.702248\H,0,3.49524,0.928898,-0.302273
 \H,0,0.522745,-2.0159,0.294952\H,0,-0.61088,2.00583,-0.0265206\H,0,0.0

 Normal termination of Gaussian 16 at Tue Apr  8 20:48:35 2025.
