 Gaussian 16, Revision C.01,

 ----------------------------------------------------------------------
 #t hf aug-cc-pvdz symm=none int=(grid=ultrafine) guess=(read,tcheck) s
 table=(opt,rrhf)
 ----------------------------------------------------------------------
 -----
 title
 -----
 Symbolic Z-matrix:
 Charge =  0 Multiplicity = 1

 SCF Done:  E(RHF) =  -456.201549665     A.U. after   12 cycles
 Normal termination of Gaussian 16 at Tue Apr  8 21:07:41 2025.
 Gaussian 16:  ES64L-G16RevC.01  3-Jul-2019

 ----------------------------------------------------------------------
 #t hf aug-cc-pvdz iop(5/13=1,5/36=2,99/5=2) pseudo=read geom=check gue
 ss=(read,tcheck) scf=(maxcycle=1)
 ----------------------------------------------------------------------
 -----
 title
 -----
 Structure from the checkpoint file:  "ANI1ccx_1844_conf642_mol1.chk"
 Charge =  0 Multiplicity = 1

                         Standard orientation:
 ---------------------------------------------------------------------
 Center     Atomic      Atomic             Coordinates (Angstroms)
 Number     Number       Type             X           Y           Z
 ---------------------------------------------------------------------
      1          1           0       -2.349890   -0.075318   -0.205854
      2          1           0       -1.098087   -1.892535   -0.060757
      3          1           0       -0.356039   -2.972978   -0.950307
      4          1           0        2.364552   -2.218598    0.774410
      5          1           0        1.094024   -1.743964   -0.031884
      6          1           0        0.785359    3.280028    0.655790
      7          1           0       -2.705763   -0.947966    1.150630
      8          1           0        1.032017    1.778747    0.016162
      9          1           0        3.181245    1.290758   -0.504054
     10          1           0        2.552330   -0.050586    0.011652
     11          1           0       -1.160342    2.100885   -0.110054
     12          1           0       -2.621821    2.259901   -0.586797
     13          8           0        2.148104   -1.707738   -0.012267
     14          8           0        2.341864    1.013922    0.047811
     15          8           0       -0.331702   -2.575998   -0.044846
     16          8           0        0.482443    2.582589   -0.045423
     17          8           0       -2.641224   -1.040349    0.054764
     18          8           0       -2.089184    1.626528   -0.019906
 ---------------------------------------------------------------------

 SCF Done:  E(RHF) =  -456.350148991     A.U. after    2 cycles

 The electronic state is 1-A.
 Alpha  occ. eigenvalues --  -20.58442 -20.58328 -20.58278 -20.57685 -20.57205
 Alpha  occ. eigenvalues --  -20.56043  -1.30867  -1.29827  -1.28949  -1.28134
 Alpha  occ. eigenvalues --   -1.26254  -1.25720  -0.73574  -0.71836  -0.71274
 Alpha  occ. eigenvalues --   -0.69586  -0.68253  -0.68097  -0.63410  -0.62001
 Alpha  occ. eigenvalues --   -0.61434  -0.57969  -0.56609  -0.54365  -0.52607
 Alpha  occ. eigenvalues --   -0.52368  -0.51767  -0.51442  -0.50809  -0.49858
 Alpha virt. eigenvalues --    0.03019   0.04463   0.04553   0.05782   0.06142
 Alpha virt. eigenvalues --    0.06239   0.08937   0.09161   0.09437   0.09972
 Alpha virt. eigenvalues --    0.11350   0.11790   0.16331   0.18537   0.18937

 Mulliken charges:
               1
     1  H    0.329438
     2  H    0.312774
     3  H    0.195167
     4  H    0.139305
     5  H    0.372490
     6  H    0.220776
     7  H    0.303073
     8  H    0.268198
     9  H    0.243512
    10  H    0.384476
    11  H    0.346490
    12  H    0.201066
    13  O   -0.507249
    14  O   -0.630675
    15  O   -0.512996
    16  O   -0.492884
    17  O   -0.639835
    18  O   -0.533126
 Sum of Mulliken charges =  -0.00000

 Dipole moment (field-independent basis, Debye):
    X=              1.5662    Y=              1.3112    Z=              0.3171  Tot=              2.0671

 Test job not archived.
 1\1\GINC-SE364\SP\RHF\Aug-CC-pVDZ\H12O6\OHZDE\08-Apr-2025\0\\#t hf aug
 -cc-pvdz iop(5/13=1,5/36=2,99/5=2) pseudo=read geom=check guess=(read,
 tcheck) scf=(maxcycle=1)\\title\\0,1\H,0,-2.34989,-0.0753274,-0.205854
 \H,0,-1.09808,-1.89254,-0.0607574\H,0,-0.356028,-2.97298,-0.950307\H,0
 ,2.36456,-2.21859,0.77441\H,0,1.09403,-1.74396,-0.0318839\H,0,0.785346
 ,3.28003,0.65579\H,0,-2.70576,-0.947977,1.15063\H,0,1.03201,1.77875,0.
 0161624\H,0,3.18124,1.29077,-0.504054\H,0,2.55233,-0.0505771,0.0116522
 \H,0,-1.16035,2.10088,-0.110054\H,0,-2.62183,2.25989,-0.586797\O,0,2.1

 Normal termination of Gaussian 16 at Tue Apr  8 21:07:46 2025.
