 Gaussian 16, Revision C.01,

 ----------------------------------------------------------------------
 #t hf aug-cc-pvdz symm=none int=(grid=ultrafine) guess=(read,tcheck) s
 table=(opt,rrhf)
 ----------------------------------------------------------------------
 -----
 title
 -----
 Symbolic Z-matrix:
 Charge =  0 Multiplicity = 1

 SCF Done:  E(RHF) =  -207.048389380     A.U. after   12 cycles
 Normal termination of Gaussian 16 at Tue Apr  8 21:11:18 2025.
 Gaussian 16:  ES64L-G16RevC.01  3-Jul-2019

 ----------------------------------------------------------------------
 #t hf aug-cc-pvdz iop(5/13=1,5/36=2,99/5=2) pseudo=read geom=check gue
 ss=(read,tcheck) scf=(maxcycle=1)
 ----------------------------------------------------------------------
 -----
 title
 -----
 Structure from the checkpoint file:  "ANI1ccx_1888_conf25_mol1.chk"
 Charge =  0 Multiplicity = 1

                         Standard orientation:
 ---------------------------------------------------------------------
 Center     Atomic      Atomic             Coordinates (Angstroms)
 Number     Number       Type             X           Y           Z
 ---------------------------------------------------------------------
      1          1           0       -2.535771    0.518185    0.298587
      2          1           0       -1.747891   -0.808480    0.582798
      3          1           0       -0.108434    0.332907   -0.321937
      4          1           0        2.516739   -0.045720    0.092139
      5          1           0        1.408689   -1.089140    0.618941
      6          7           0        1.546429   -0.417727   -0.157694
      7          8           0       -1.982631   -0.156601   -0.115092
      8          8           0        0.687840    0.658643    0.094258
 ---------------------------------------------------------------------

 SCF Done:  E(RHF) =  -207.115739487     A.U. after    2 cycles

 The electronic state is 1-A.
 Alpha  occ. eigenvalues --  -20.60358 -20.57975 -15.66757  -1.35490  -1.32841
 Alpha  occ. eigenvalues --   -1.03271  -0.75387  -0.70943  -0.63548  -0.62739
 Alpha  occ. eigenvalues --   -0.61342  -0.55265  -0.49383  -0.39891
 Alpha virt. eigenvalues --    0.02880   0.04580   0.05436   0.07640   0.08560
 Alpha virt. eigenvalues --    0.12399   0.16850   0.17744   0.19285   0.20314
 Alpha virt. eigenvalues --    0.21647   0.23378   0.24047   0.25107   0.25854

 Mulliken charges:
               1
     1  H    0.178165
     2  H    0.184690
     3  H    0.234570
     4  H    0.135836
     5  H    0.083843
     6  N    0.004605
     7  O   -0.376562
     8  O   -0.445148
 Sum of Mulliken charges =   0.00000

 Dipole moment (field-independent basis, Debye):
    X=             -1.1624    Y=             -1.0903    Z=              2.6127  Tot=              3.0604

 Test job not archived.
 1\1\GINC-SE186\SP\RHF\Aug-CC-pVDZ\H5N1O2\OHZDE\08-Apr-2025\0\\#t hf au
 g-cc-pvdz iop(5/13=1,5/36=2,99/5=2) pseudo=read geom=check guess=(read
 ,tcheck) scf=(maxcycle=1)\\title\\0,1\H,0,-2.53577,0.518185,0.298587\H
 ,0,-1.74789,-0.80848,0.582798\H,0,-0.108433,0.332907,-0.321937\H,0,2.5
 1674,-0.0457203,0.0921386\H,0,1.40869,-1.08914,0.618941\N,0,1.54643,-0
 .417727,-0.157694\O,0,-1.98263,-0.156601,-0.115092\O,0,0.687841,0.6586
 43,0.094258\\Version=ES64L-G16RevC.01\State=1-A\HF=-207.1157395\RMSD=1
 .946e-03\Dipole=-0.4573155,-0.4289665,1.0279239\Quadrupole=3.3749802,-

 Normal termination of Gaussian 16 at Tue Apr  8 21:11:21 2025.
