 Gaussian 16, Revision C.01,

 ----------------------------------------------------------------------
 #t hf aug-cc-pvdz symm=none int=(grid=ultrafine) guess=(read,tcheck) s
 table=(opt,rrhf)
 ----------------------------------------------------------------------
 -----
 title
 -----
 Symbolic Z-matrix:
 Charge =  0 Multiplicity = 1

 SCF Done:  E(RHF) =  -735.593079126     A.U. after   14 cycles
 Normal termination of Gaussian 16 at Tue Apr  8 19:35:27 2025.
 Gaussian 16:  ES64L-G16RevC.01  3-Jul-2019

 ----------------------------------------------------------------------
 #t hf aug-cc-pvdz iop(5/13=1,5/36=2,99/5=2) pseudo=read geom=check gue
 ss=(read,tcheck) scf=(maxcycle=1)
 ----------------------------------------------------------------------
 -----
 title
 -----
 Structure from the checkpoint file:  "ANI1ccx_1426_conf3_mol2.chk"
 Charge =  0 Multiplicity = 1

                         Standard orientation:
 ---------------------------------------------------------------------
 Center     Atomic      Atomic             Coordinates (Angstroms)
 Number     Number       Type             X           Y           Z
 ---------------------------------------------------------------------
      1          6           0        1.680769   -1.526281   -0.073765
      2          6           0        0.386630   -1.197910    0.695854
      3          6           0        2.688249   -0.390167    0.036880
      4          6           0        2.353510    0.934177   -0.692741
      5          6           0        1.221741    1.716399   -0.101701
      6          6           0       -2.091891   -0.898620    0.612634
      7          6           0       -2.981890    0.116170   -0.114959
      8          1           0       -1.392260    0.889806   -0.905190
      9          1           0       -1.911981   -0.460817    1.597941
     10          1           0       -2.575851   -1.845059    0.704194
     11          1           0       -0.711960   -1.068550   -1.019529
     12          1           0        2.307721    2.171018    1.559811
     13          1           0        0.668332    2.676639    1.604311
     14          1           0        2.071320    0.782098   -1.709799
     15          1           0        3.265571    1.512218   -0.710169
     16          1           0        3.608399   -0.807415   -0.390296
     17          1           0        2.907510   -0.126242    1.087601
     18          1           0        2.038578   -2.401251    0.536853
     19          1           0        0.838175   -2.729671   -1.497089
     20          1           0        2.352898   -2.095612   -1.922209
     21          7           0        1.415859   -1.879031   -1.433699
     22          7           0        1.450101    2.372769    1.055751
     23          7           0       -0.772206   -0.988295   -0.027195
     24          8           0        0.411677   -1.103420    1.916161
     25          8           0        0.139164    1.792920   -0.707927
     26          8           0       -4.180950    0.135879   -0.069872
     27          8           0       -2.328070    0.979888   -0.922565
 ---------------------------------------------------------------------

 SCF Done:  E(RHF) =  -735.818262601     A.U. after    2 cycles

 The electronic state is 1-A.
 Alpha  occ. eigenvalues --  -20.58538 -20.55362 -20.55243 -20.54309 -15.67179
 Alpha  occ. eigenvalues --  -15.66302 -15.65422 -11.38890 -11.38543 -11.38076
 Alpha  occ. eigenvalues --  -11.31067 -11.29725 -11.28069 -11.26567  -1.39941
 Alpha  occ. eigenvalues --   -1.36285  -1.35720  -1.31015  -1.21864  -1.20429
 Alpha  occ. eigenvalues --   -1.19105  -1.07824  -1.00527  -0.97229  -0.88617
 Alpha  occ. eigenvalues --   -0.83220  -0.81294  -0.79784  -0.75083  -0.74172
 Alpha  occ. eigenvalues --   -0.72066  -0.70258  -0.69034  -0.67401  -0.66912
 Alpha  occ. eigenvalues --   -0.64763  -0.63590  -0.62410  -0.60887  -0.60765
 Alpha  occ. eigenvalues --   -0.59767  -0.58606  -0.56421  -0.56011  -0.55079
 Alpha  occ. eigenvalues --   -0.53122  -0.51789  -0.47615  -0.46612  -0.45701
 Alpha  occ. eigenvalues --   -0.45220  -0.44230  -0.42234  -0.40903
 Alpha virt. eigenvalues --    0.01459   0.02510   0.03205   0.03763   0.04838
 Alpha virt. eigenvalues --    0.05487   0.06051   0.06667   0.07222   0.07794
 Alpha virt. eigenvalues --    0.08554   0.09336   0.09789   0.10712   0.10930

 Mulliken charges:
               1
     1  C    0.239897
     2  C    0.535908
     3  C    0.273445
     4  C    0.637129
     5  C    0.483786
     6  C    0.630182
     7  C    0.573074
     8  H    0.252348
     9  H   -0.002520
    10  H   -0.194849
    11  H   -0.075413
    12  H    0.050107
    13  H   -0.014766
    14  H   -0.179024
    15  H   -0.052334
    16  H   -0.082134
    17  H   -0.092723
    18  H    0.087545
    19  H    0.016426
    20  H    0.076580
    21  N   -0.349245
    22  N   -0.216876
    23  N   -0.431430
    24  O   -0.644654
    25  O   -0.651042
    26  O   -0.472715
    27  O   -0.396703
 Sum of Mulliken charges =  -0.00000

 Dipole moment (field-independent basis, Debye):
    X=              9.4662    Y=             -2.8491    Z=              0.0112  Tot=              9.8857

 Test job not archived.
 1\1\GINC-SE116\SP\RHF\Aug-CC-pVDZ\C7H13N3O4\OHZDE\08-Apr-2025\0\\#t hf
  aug-cc-pvdz iop(5/13=1,5/36=2,99/5=2) pseudo=read geom=check guess=(r
 ead,tcheck) scf=(maxcycle=1)\\title\\0,1\C,0,1.68077,-1.52628,-0.07376
 57\C,0,0.386631,-1.19791,0.695853\C,0,2.68825,-0.390165,0.0368794\C,0,
 2.35351,0.934179,-0.692742\C,0,1.22174,1.7164,-0.101702\C,0,-2.09189,-
 0.898621,0.612633\C,0,-2.98189,0.116168,-0.11496\H,0,-1.39226,0.889805
 ,-0.905191\H,0,-1.91198,-0.460818,1.59794\H,0,-2.57585,-1.84506,0.7041
 93\H,0,-0.711959,-1.06855,-1.01953\H,0,2.30772,2.17102,1.55981\H,0,0.6

 Normal termination of Gaussian 16 at Tue Apr  8 19:35:58 2025.
