 Gaussian 16, Revision C.01,

 ----------------------------------------------------------------------
 #t hf aug-cc-pvdz symm=none int=(grid=ultrafine) guess=(read,tcheck) s
 table=(opt,rrhf)
 ----------------------------------------------------------------------
 -----
 title
 -----
 Symbolic Z-matrix:
 Charge =  0 Multiplicity = 1

 SCF Done:  E(RHF) =  -460.260633804     A.U. after   16 cycles
 Normal termination of Gaussian 16 at Tue Apr  8 21:20:34 2025.
 Gaussian 16:  ES64L-G16RevC.01  3-Jul-2019

 ----------------------------------------------------------------------
 #t hf aug-cc-pvdz iop(5/13=1,5/36=2,99/5=2) pseudo=read geom=check gue
 ss=(read,tcheck) scf=(maxcycle=1)
 ----------------------------------------------------------------------
 -----
 title
 -----
 Structure from the checkpoint file:  "ANI1ccx_373_conf3_mol1.chk"
 Charge =  0 Multiplicity = 1

                         Standard orientation:
 ---------------------------------------------------------------------
 Center     Atomic      Atomic             Coordinates (Angstroms)
 Number     Number       Type             X           Y           Z
 ---------------------------------------------------------------------
      1          6           0        0.075858    0.001266   -0.116739
      2          1           0        2.793050   -1.149560   -0.073481
      3          7           0       -1.399930   -0.017134   -0.024265
      4          7           0        0.770261    1.135019    0.123028
      5          7           0        2.011020    0.722556    0.143704
      6          7           0        1.950720   -0.553497   -0.041273
      7          7           0        0.716769   -1.123141   -0.178697
      8          8           0       -1.970640   -1.086121    0.231665
      9          8           0       -1.978120    1.085539   -0.154611
 ---------------------------------------------------------------------

 SCF Done:  E(RHF) =  -460.390971369     A.U. after    2 cycles

 The electronic state is 1-A.
 Alpha  occ. eigenvalues --  -20.64863 -20.64351 -15.94840 -15.82325 -15.79689
 Alpha  occ. eigenvalues --  -15.76201 -15.73331 -11.41426  -1.55844  -1.52358
 Alpha  occ. eigenvalues --   -1.37313  -1.28439  -1.23183  -1.04139  -0.96062
 Alpha  occ. eigenvalues --   -0.87141  -0.82894  -0.76320  -0.75868  -0.74066
 Alpha  occ. eigenvalues --   -0.71384  -0.63026  -0.56846  -0.54420  -0.53471
 Alpha  occ. eigenvalues --   -0.52056  -0.48902  -0.48160  -0.47493
 Alpha virt. eigenvalues --    0.01432   0.01934   0.06763   0.07646   0.08106
 Alpha virt. eigenvalues --    0.08285   0.11449   0.11995   0.12991   0.14640
 Alpha virt. eigenvalues --    0.15753   0.16914   0.17057   0.17604   0.19042

 Mulliken charges:
               1
     1  C    1.199794
     2  H    0.063612
     3  N    0.393692
     4  N   -0.334806
     5  N   -0.074343
     6  N    0.146602
     7  N   -0.307611
     8  O   -0.538545
     9  O   -0.548394
 Sum of Mulliken charges =  -0.00000

 Dipole moment (field-independent basis, Debye):
    X=              5.5666    Y=             -2.2094    Z=             -0.4418  Tot=              6.0053

 Test job not archived.
 1\1\GINC-SE460\SP\RHF\Aug-CC-pVDZ\C1H1N5O2\OHZDE\08-Apr-2025\0\\#t hf
 aug-cc-pvdz iop(5/13=1,5/36=2,99/5=2) pseudo=read geom=check guess=(re
 ad,tcheck) scf=(maxcycle=1)\\title\\0,1\C,0,0.0758582,0.0012662,-0.116
 739\H,0,2.79305,-1.14956,-0.0734815\N,0,-1.39993,-0.0171335,-0.0242646
 \N,0,0.770261,1.13502,0.123028\N,0,2.01102,0.722556,0.143704\N,0,1.950
 72,-0.553497,-0.041273\N,0,0.716769,-1.12314,-0.178697\O,0,-1.97064,-1
 .08612,0.231665\O,0,-1.97812,1.08554,-0.154611\\Version=ES64L-G16RevC.
 01\State=1-A\HF=-460.3909714\RMSD=3.421e-03\Dipole=2.1900605,-0.869225

 Normal termination of Gaussian 16 at Tue Apr  8 21:20:37 2025.
