 Gaussian 16, Revision C.01,

 ----------------------------------------------------------------------
 #t hf aug-cc-pvdz symm=none int=(grid=ultrafine) guess=(read,tcheck) s
 table=(opt,rrhf)
 ----------------------------------------------------------------------
 -----
 title
 -----
 Symbolic Z-matrix:
 Charge =  0 Multiplicity = 1

 SCF Done:  E(RHF) =  -792.003281029     A.U. after   13 cycles
 Normal termination of Gaussian 16 at Tue Apr  8 19:26:05 2025.
 Gaussian 16:  ES64L-G16RevC.01  3-Jul-2019

 ----------------------------------------------------------------------
 #t hf aug-cc-pvdz iop(5/13=1,5/36=2,99/5=2) pseudo=read geom=check gue
 ss=(read,tcheck) scf=(maxcycle=1)
 ----------------------------------------------------------------------
 -----
 title
 -----
 Structure from the checkpoint file:  "ANI1ccx_1216_conf8_mol1.chk"
 Charge =  0 Multiplicity = 1

                         Standard orientation:
 ---------------------------------------------------------------------
 Center     Atomic      Atomic             Coordinates (Angstroms)
 Number     Number       Type             X           Y           Z
 ---------------------------------------------------------------------
      1          6           0       -1.719630    0.997096   -0.981321
      2          6           0        1.456281    1.570830   -0.194482
      3          6           0        1.383230   -0.024122    1.756120
      4          6           0       -1.873540   -0.246191    1.104150
      5          6           0       -1.273211   -1.535099   -0.951821
      6          6           0        1.985659   -0.782634   -0.622945
      7          1           0        2.734450   -0.351322   -1.374000
      8          1           0        2.421949   -1.661951   -0.064999
      9          1           0       -1.828632   -2.351958   -0.448006
     10          1           0       -1.529281   -1.572388   -2.034390
     11          1           0       -2.123801   -1.268388    1.517800
     12          1           0       -2.725530    0.444015    1.315570
     13          1           0        2.100039   -0.820537    2.093840
     14          1           0        1.197111    2.322510    0.590983
     15          1           0        2.393081    1.853959   -0.721082
     16          1           0       -1.785880    0.903626   -2.058980
     17          1           0       -2.599229    1.509652   -0.604034
     18          1           0        1.462940    0.915627    2.381570
     19          7           0        1.594530    0.251353    0.321488
     20          7           0       -1.655920   -0.274033   -0.321729
     21          8           0        0.049402   -1.976359   -0.693690
     22          8           0       -0.761404    1.936341   -0.568852
     23          8           0        0.503239    1.663930   -1.230570
     24          8           0        0.190590   -0.662694    1.969710
     25          8           0       -0.836026    0.335422    1.876390
     26          8           0        0.974172   -1.252060   -1.509340
 ---------------------------------------------------------------------

 SCF Done:  E(RHF) =  -792.249691415     A.U. after    2 cycles

 The electronic state is 1-A.
 Alpha  occ. eigenvalues --  -20.63378 -20.63083 -20.62989 -20.62886 -20.62743
 Alpha  occ. eigenvalues --  -20.62684 -15.63119 -15.62307 -11.34105 -11.34033
 Alpha  occ. eigenvalues --  -11.33929 -11.33768 -11.32849 -11.32708  -1.44807
 Alpha  occ. eigenvalues --   -1.43339  -1.42693  -1.27782  -1.23423  -1.22346
 Alpha  occ. eigenvalues --   -1.19530  -1.13425  -0.95536  -0.95050  -0.91379
 Alpha  occ. eigenvalues --   -0.90941  -0.83341  -0.81301  -0.74136  -0.73293
 Alpha  occ. eigenvalues --   -0.72077  -0.71431  -0.70829  -0.69449  -0.68629
 Alpha  occ. eigenvalues --   -0.68401  -0.65718  -0.63211  -0.62352  -0.61395
 Alpha  occ. eigenvalues --   -0.60734  -0.56625  -0.56088  -0.55324  -0.55049
 Alpha  occ. eigenvalues --   -0.51706  -0.51348  -0.50426  -0.50057  -0.49093
 Alpha  occ. eigenvalues --   -0.48757  -0.45104  -0.44172  -0.38915  -0.37840
 Alpha virt. eigenvalues --    0.03458   0.03894   0.04357   0.04376   0.05422
 Alpha virt. eigenvalues --    0.05474   0.06854   0.06896   0.07465   0.08017
 Alpha virt. eigenvalues --    0.08555   0.09260   0.09653   0.11037   0.12042

 Mulliken charges:
               1
     1  C    1.011117
     2  C    0.902382
     3  C    0.744157
     4  C    0.759718
     5  C    0.861803
     6  C    0.775610
     7  H   -0.129012
     8  H   -0.151655
     9  H   -0.260745
    10  H   -0.203018
    11  H   -0.123531
    12  H   -0.205315
    13  H   -0.279248
    14  H   -0.205613
    15  H   -0.276690
    16  H   -0.323076
    17  H   -0.260610
    18  H   -0.124402
    19  N    0.289879
    20  N    0.146968
    21  O   -0.471213
    22  O   -0.473843
    23  O   -0.502752
    24  O   -0.444656
    25  O   -0.516773
    26  O   -0.539483
 Sum of Mulliken charges =  -0.00000

 Dipole moment (field-independent basis, Debye):
    X=             -0.3297    Y=             -0.2221    Z=              0.5444  Tot=              0.6741

 Test job not archived.
 1\1\GINC-SE103\SP\RHF\Aug-CC-pVDZ\C6H12N2O6\OHZDE\08-Apr-2025\0\\#t hf
  aug-cc-pvdz iop(5/13=1,5/36=2,99/5=2) pseudo=read geom=check guess=(r
 ead,tcheck) scf=(maxcycle=1)\\title\\0,1\C,0,-1.71963,0.997094,-0.9813
 21\C,0,1.45628,1.57083,-0.194482\C,0,1.38323,-0.0241215,1.75612\C,0,-1
 .87354,-0.246193,1.10415\C,0,-1.27321,-1.5351,-0.951821\C,0,1.98566,-0
 .782634,-0.622945\H,0,2.73445,-0.351321,-1.374\H,0,2.42195,-1.66195,-0
 .0649988\H,0,-1.82863,-2.35196,-0.448006\H,0,-1.52928,-1.57239,-2.0343
 9\H,0,-2.1238,-1.26839,1.5178\H,0,-2.72553,0.444013,1.31557\H,0,2.1000

 Normal termination of Gaussian 16 at Tue Apr  8 19:26:33 2025.
