 Gaussian 16, Revision C.01,

 ----------------------------------------------------------------------
 #t hf aug-cc-pvdz symm=none int=(grid=ultrafine) guess=(read,tcheck) s
 table=(opt,rrhf)
 ----------------------------------------------------------------------
 -----
 title
 -----
 Symbolic Z-matrix:
 Charge =  0 Multiplicity = 1

 SCF Done:  E(RHF) =  -982.108598181     A.U. after   14 cycles
 Normal termination of Gaussian 16 at Tue Apr  8 20:48:29 2025.
 Gaussian 16:  ES64L-G16RevC.01  3-Jul-2019

 ----------------------------------------------------------------------
 #t hf aug-cc-pvdz iop(5/13=1,5/36=2,99/5=2) pseudo=read geom=check gue
 ss=(read,tcheck) scf=(maxcycle=1)
 ----------------------------------------------------------------------
 -----
 title
 -----
 Structure from the checkpoint file:  "ANI1ccx_1743_conf3_mol1.chk"
 Charge =  0 Multiplicity = 1

                         Standard orientation:
 ---------------------------------------------------------------------
 Center     Atomic      Atomic             Coordinates (Angstroms)
 Number     Number       Type             X           Y           Z
 ---------------------------------------------------------------------
      1          6           0        1.319111   -1.780009    0.128115
      2          6           0       -0.020781   -1.102400   -0.370572
      3          6           0        2.489531   -1.394669   -0.841240
      4          6           0        2.857401    0.072789   -0.943950
      5          6           0        3.193580    0.691605    0.405471
      6          6           0       -1.463550    0.841359   -0.244928
      7          6           0       -1.199921    2.319019   -0.389460
      8          6           0       -2.533580    0.666168    0.866000
      9          6           0       -3.255959   -0.736613    0.613814
     10          1           0        0.089326    3.652740   -0.364850
     11          1           0       -4.256849   -1.633772   -0.746861
     12          1           0       -2.139250    0.620837    1.881630
     13          1           0       -3.198110    1.539978    0.718391
     14          1           0       -1.918880    0.477310   -1.174630
     15          1           0        0.431438    0.692791    0.620198
     16          1           0        4.579670    1.264042    1.479120
     17          1           0        3.686080    0.264425   -1.634610
     18          1           0        1.989570    0.596249   -1.331480
     19          1           0        2.254191   -1.840239   -1.802380
     20          1           0        3.354392   -1.950078   -0.453910
     21          1           0        1.603241   -1.377989    1.104430
     22          1           0        0.432507   -3.344780    0.756619
     23          1           0        0.851376   -3.426890   -0.769853
     24          7           0        1.247552   -3.236830    0.159864
     25          7           0       -0.195112    0.157129    0.028225
     26          8           0       -0.765978   -1.718621   -1.108390
     27          8           0        2.363480    0.993643    1.250420
     28          8           0        4.536460    0.863497    0.579370
     29          8           0       -2.026461    3.176989   -0.591816
     30          8           0       -3.202989   -1.699642    1.318970
     31          8           0       -3.928399   -0.724643   -0.584729
     32          8           0        0.093787    2.678750   -0.231071
 ---------------------------------------------------------------------

 SCF Done:  E(RHF) =  -982.407300104     A.U. after    2 cycles

 The electronic state is 1-A.
 Alpha  occ. eigenvalues --  -20.65435 -20.64826 -20.62465 -20.59409 -20.58477
 Alpha  occ. eigenvalues --  -20.57654 -20.54801 -15.66295 -15.61643 -11.43025
 Alpha  occ. eigenvalues --  -11.42304 -11.41259 -11.37079 -11.32576 -11.28718
 Alpha  occ. eigenvalues --  -11.28528 -11.27218 -11.25963  -1.45232  -1.44364
 Alpha  occ. eigenvalues --   -1.42284  -1.36548  -1.34870  -1.34389  -1.33192
 Alpha  occ. eigenvalues --   -1.22884  -1.17609  -1.08641  -1.07173  -0.97391
 Alpha  occ. eigenvalues --   -0.95271  -0.87787  -0.84859  -0.83202  -0.82484
 Alpha  occ. eigenvalues --   -0.80692  -0.75284  -0.74736  -0.73469  -0.72240
 Alpha  occ. eigenvalues --   -0.71642  -0.70324  -0.69982  -0.68073  -0.67295
 Alpha  occ. eigenvalues --   -0.66809  -0.65402  -0.64604  -0.63373  -0.62744
 Alpha  occ. eigenvalues --   -0.61734  -0.61517  -0.59806  -0.58546  -0.58187
 Alpha  occ. eigenvalues --   -0.56524  -0.55627  -0.54125  -0.53286  -0.51933
 Alpha  occ. eigenvalues --   -0.51447  -0.50977  -0.50147  -0.49798  -0.47577
 Alpha  occ. eigenvalues --   -0.46942  -0.45902  -0.41577  -0.40562
 Alpha virt. eigenvalues --    0.02307   0.03520   0.03739   0.04157   0.05109
 Alpha virt. eigenvalues --    0.05473   0.06032   0.06202   0.06559   0.07137
 Alpha virt. eigenvalues --    0.08128   0.08532   0.09125   0.09682   0.09989

 Mulliken charges:
               1
     1  C    0.264794
     2  C    0.293559
     3  C    0.372203
     4  C    0.633774
     5  C    0.600442
     6  C   -0.312504
     7  C    1.011080
     8  C    0.524260
     9  C    0.818970
    10  H    0.244461
    11  H    0.214083
    12  H   -0.125714
    13  H    0.039532
    14  H   -0.088159
    15  H    0.027387
    16  H    0.192237
    17  H   -0.107011
    18  H   -0.024906
    19  H   -0.192909
    20  H    0.016384
    21  H   -0.222770
    22  H    0.060870
    23  H    0.160468
    24  N   -0.359522
    25  N   -0.133963
    26  O   -0.573008
    27  O   -0.532126
    28  O   -0.554981
    29  O   -0.526763
    30  O   -0.500068
    31  O   -0.594711
    32  O   -0.625389
 Sum of Mulliken charges =   0.00000

 Dipole moment (field-independent basis, Debye):
    X=              3.4372    Y=              3.0810    Z=             -0.1988  Tot=              4.6202

 Test job not archived.
 1\1\GINC-SE079\SP\RHF\Aug-CC-pVDZ\C9H14N2O7\OHZDE\08-Apr-2025\0\\#t hf
  aug-cc-pvdz iop(5/13=1,5/36=2,99/5=2) pseudo=read geom=check guess=(r
 ead,tcheck) scf=(maxcycle=1)\\title\\0,1\C,0,1.31911,-1.78001,0.128115
 \C,0,-0.0207819,-1.1024,-0.370572\C,0,2.48953,-1.39467,-0.84124\C,0,2.
 8574,0.0727877,-0.94395\C,0,3.19358,0.691604,0.405471\C,0,-1.46355,0.8
 4136,-0.244928\C,0,-1.19992,2.31902,-0.38946\C,0,-2.53358,0.666169,0.8
 66\C,0,-3.25596,-0.736611,0.613814\H,0,0.0893277,3.65274,-0.36485\H,0,
 -4.25685,-1.63377,-0.746861\H,0,-2.13925,0.620838,1.88163\H,0,-3.19811

 Normal termination of Gaussian 16 at Tue Apr  8 20:49:19 2025.
