 Gaussian 16, Revision C.01,

 ----------------------------------------------------------------------
 #t hf aug-cc-pvdz symm=none int=(grid=ultrafine) guess=(read,tcheck) s
 table=(opt,rrhf)
 ----------------------------------------------------------------------
 -----
 title
 -----
 Symbolic Z-matrix:
 Charge =  0 Multiplicity = 1

 SCF Done:  E(RHF) =  -444.958494174     A.U. after   15 cycles
 Normal termination of Gaussian 16 at Tue Apr  8 19:25:22 2025.
 Gaussian 16:  ES64L-G16RevC.01  3-Jul-2019

 ----------------------------------------------------------------------
 #t hf aug-cc-pvdz iop(5/13=1,5/36=2,99/5=2) pseudo=read geom=check gue
 ss=(read,tcheck) scf=(maxcycle=1)
 ----------------------------------------------------------------------
 -----
 title
 -----
 Structure from the checkpoint file:  "ANI1ccx_1374_conf16_mol2.chk"
 Charge =  0 Multiplicity = 1

                         Standard orientation:
 ---------------------------------------------------------------------
 Center     Atomic      Atomic             Coordinates (Angstroms)
 Number     Number       Type             X           Y           Z
 ---------------------------------------------------------------------
      1          6           0       -0.347940   -1.840254    0.002887
      2          6           0       -0.537629   -0.424694   -0.006413
      3          6           0       -1.902510    0.037410   -0.014191
      4          6           0        0.526166    0.437048   -0.036198
      5          6           0        0.347194    1.840430   -0.034354
      6          6           0        1.866630   -0.042930   -0.016018
      7          7           0       -0.145988   -2.974922    0.028424
      8          7           0       -3.000982    0.399978    0.000275
      9          7           0        0.227447    2.999890    0.052836
     10          7           0        2.960742   -0.430955    0.007853
 ---------------------------------------------------------------------

 SCF Done:  E(RHF) =  -445.083779272     A.U. after    2 cycles

 The electronic state is 1-A.
 Alpha  occ. eigenvalues --  -15.72786 -15.72439 -15.72335 -15.72193 -11.44094
 Alpha  occ. eigenvalues --  -11.43779 -11.36529 -11.36345 -11.36309 -11.36106
 Alpha  occ. eigenvalues --   -1.29870  -1.26584  -1.25958  -1.25370  -1.20550
 Alpha  occ. eigenvalues --   -1.06589  -0.92043  -0.84414  -0.81242  -0.66017
 Alpha  occ. eigenvalues --   -0.62273  -0.62162  -0.61947  -0.61219  -0.57293
 Alpha  occ. eigenvalues --   -0.55160  -0.54763  -0.54287  -0.53999  -0.53323
 Alpha  occ. eigenvalues --   -0.51866  -0.43882
 Alpha virt. eigenvalues --   -0.06618   0.04171   0.05083   0.06430   0.06810
 Alpha virt. eigenvalues --    0.07954   0.08450   0.08659   0.09473   0.09541
 Alpha virt. eigenvalues --    0.10116   0.11068   0.11751   0.12008   0.12478

 Mulliken charges:
               1
     1  C   -0.966658
     2  C    2.086323
     3  C   -0.965134
     4  C    2.172993
     5  C   -0.978973
     6  C   -1.003093
     7  N   -0.079943
     8  N   -0.067996
     9  N   -0.107994
    10  N   -0.089526
 Sum of Mulliken charges =  -0.00000

 Dipole moment (field-independent basis, Debye):
    X=             -0.0709    Y=              0.0406    Z=             -0.1874  Tot=              0.2044

 Test job not archived.
 1\1\GINC-SE035\SP\RHF\Aug-CC-pVDZ\C6N4\OHZDE\08-Apr-2025\0\\#t hf aug-
 cc-pvdz iop(5/13=1,5/36=2,99/5=2) pseudo=read geom=check guess=(read,t
 check) scf=(maxcycle=1)\\title\\0,1\C,0,-0.34795,-1.84025,0.00288715\C
 ,0,-0.537631,-0.424689,-0.00641283\C,0,-1.90251,0.037422,-0.0141909\C,
 0,0.526168,0.437047,-0.0361978\C,0,0.347204,1.84043,-0.0343545\C,0,1.8
 6663,-0.0429385,-0.0160176\N,0,-0.146004,-2.97492,0.0284243\N,0,-3.000
 98,0.399996,0.00027516\N,0,0.227463,2.99989,0.0528359\N,0,2.96074,-0.4
 30969,0.00785305\\Version=ES64L-G16RevC.01\State=1-A\HF=-445.0837793\R

 Normal termination of Gaussian 16 at Tue Apr  8 19:25:28 2025.
