 Gaussian 16, Revision C.01,

 ----------------------------------------------------------------------
 #t hf aug-cc-pvdz symm=none int=(grid=ultrafine) guess=(read,tcheck) s
 table=(opt,rrhf)
 ----------------------------------------------------------------------
 -----
 title
 -----
 Symbolic Z-matrix:
 Charge =  0 Multiplicity = 1

 SCF Done:  E(RHF) =  -449.529478385     A.U. after   14 cycles
 Normal termination of Gaussian 16 at Tue Apr  8 21:49:01 2025.
 Gaussian 16:  ES64L-G16RevC.01  3-Jul-2019

 ----------------------------------------------------------------------
 #t hf aug-cc-pvdz iop(5/13=1,5/36=2,99/5=2) pseudo=read geom=check gue
 ss=(read,tcheck) scf=(maxcycle=1)
 ----------------------------------------------------------------------
 -----
 title
 -----
 Structure from the checkpoint file:  "ANI1ccx_686_conf1_mol2.chk"
 Charge =  0 Multiplicity = 1

                         Standard orientation:
 ---------------------------------------------------------------------
 Center     Atomic      Atomic             Coordinates (Angstroms)
 Number     Number       Type             X           Y           Z
 ---------------------------------------------------------------------
      1          6           0        2.158810   -0.615843   -0.020986
      2          6           0        0.184942    0.903316    0.009993
      3          6           0       -2.047090   -0.074762   -0.028345
      4          1           0        3.280600   -0.546816   -0.061386
      5          1           0        2.101499    1.487860   -0.076136
      6          1           0       -0.162435   -1.079530   -0.056872
      7          1           0       -2.373311    0.987270   -0.078495
      8          7           0        1.540449    0.632649   -0.034082
      9          7           0       -0.646713   -0.172775   -0.046124
     10          8           0        1.585880   -1.672240    0.057107
     11          8           0       -0.178989    2.063870    0.058452
     12          8           0       -2.767200   -1.059651    0.018235
 ---------------------------------------------------------------------

 SCF Done:  E(RHF) =  -449.670628545     A.U. after    2 cycles

 The electronic state is 1-A.
 Alpha  occ. eigenvalues --  -20.61170 -20.57873 -20.57179 -15.71924 -15.68982
 Alpha  occ. eigenvalues --  -11.44165 -11.43298 -11.39732  -1.42938  -1.40295
 Alpha  occ. eigenvalues --   -1.36824  -1.25801  -1.22046  -0.96276  -0.89148
 Alpha  occ. eigenvalues --   -0.83670  -0.79018  -0.75947  -0.71039  -0.68811
 Alpha  occ. eigenvalues --   -0.68070  -0.66638  -0.64935  -0.61441  -0.57029
 Alpha  occ. eigenvalues --   -0.52111  -0.50870  -0.47136  -0.46615  -0.44636
 Alpha virt. eigenvalues --    0.01701   0.04250   0.05088   0.05410   0.06876
 Alpha virt. eigenvalues --    0.08524   0.09509   0.09719   0.10595   0.12266
 Alpha virt. eigenvalues --    0.13062   0.13950   0.14206   0.14927   0.15450

 Mulliken charges:
               1
     1  C    0.679426
     2  C    0.688088
     3  C    0.776694
     4  H   -0.163065
     5  H    0.006628
     6  H    0.020087
     7  H   -0.119545
     8  N   -0.303140
     9  N   -0.290581
    10  O   -0.392518
    11  O   -0.458200
    12  O   -0.443873
 Sum of Mulliken charges =  -0.00000

 Dipole moment (field-independent basis, Debye):
    X=              5.6518    Y=              1.9245    Z=             -0.4847  Tot=              5.9901

 Test job not archived.
 1\1\GINC-SE334\SP\RHF\Aug-CC-pVDZ\C3H4N2O3\OHZDE\08-Apr-2025\0\\#t hf
 aug-cc-pvdz iop(5/13=1,5/36=2,99/5=2) pseudo=read geom=check guess=(re
 ad,tcheck) scf=(maxcycle=1)\\title\\0,1\C,0,2.15881,-0.615843,-0.02098
 63\C,0,0.184943,0.903316,0.00999269\C,0,-2.04709,-0.0747617,-0.0283452
 \H,0,3.2806,-0.546817,-0.0613855\H,0,2.1015,1.48786,-0.0761355\H,0,-0.
 162435,-1.07953,-0.0568715\H,0,-2.37331,0.987271,-0.0784945\N,0,1.5404
 5,0.632649,-0.0340816\N,0,-0.646713,-0.172775,-0.046124\O,0,1.58588,-1
 .67224,0.0571074\O,0,-0.178988,2.06387,0.0584523\O,0,-2.7672,-1.05965,

 Normal termination of Gaussian 16 at Tue Apr  8 21:49:06 2025.
