 Gaussian 16, Revision C.01,

 ----------------------------------------------------------------------
 #t hf aug-cc-pvdz symm=none int=(grid=ultrafine) guess=(read,tcheck) s
 table=(opt,rrhf)
 ----------------------------------------------------------------------
 -----
 title
 -----
 Symbolic Z-matrix:
 Charge =  0 Multiplicity = 1

 SCF Done:  E(RHF) =  -853.809304488     A.U. after   15 cycles
 Normal termination of Gaussian 16 at Tue Apr  8 22:36:11 2025.
 Gaussian 16:  ES64L-G16RevC.01  3-Jul-2019

 ----------------------------------------------------------------------
 #t hf aug-cc-pvdz iop(5/13=1,5/36=2,99/5=2) pseudo=read geom=check gue
 ss=(read,tcheck) scf=(maxcycle=1)
 ----------------------------------------------------------------------
 -----
 title
 -----
 Structure from the checkpoint file:  "ANI1ccx_97_conf10_mol2.chk"
 Charge =  0 Multiplicity = 1

                         Standard orientation:
 ---------------------------------------------------------------------
 Center     Atomic      Atomic             Coordinates (Angstroms)
 Number     Number       Type             X           Y           Z
 ---------------------------------------------------------------------
      1          6           0        0.835591   -1.051130    0.515846
      2          6           0       -1.881180    1.449539   -0.681859
      3          6           0       -3.503720   -0.243932    0.358881
      4          6           0       -1.985250    0.107961    0.093791
      5          6           0        3.778620    1.366790    0.713561
      6          6           0       -2.364701    2.659169    0.087637
      7          6           0        3.006280   -0.522805   -0.899356
      8          6           0        2.294090   -1.369790    0.194087
      9          6           0       -0.126839   -1.437701   -0.669855
     10          6           0        3.036330    0.984679   -0.584358
     11          1           0        5.102010   -0.140488    0.814518
     12          1           0       -3.069740    0.322460    2.079660
     13          1           0       -1.840061    2.735609    1.045260
     14          1           0       -2.135731    3.555099   -0.484685
     15          1           0       -3.455301    2.684859    0.276161
     16          1           0       -0.261745    1.139729   -1.771760
     17          1           0       -2.511560    1.294099   -1.562170
     18          1           0       -1.367690    0.345306    0.960420
     19          1           0       -2.038770   -1.375001   -1.302700
     20          1           0        5.632710    1.113470   -0.081695
     21          1           0        2.009320    1.351650   -0.592546
     22          1           0        3.792779    2.457510    0.794455
     23          1           0        0.882735   -1.391410    2.571600
     24          1           0        3.346020    1.006410    1.663080
     25          1           0        0.793294    0.040689    0.637164
     26          1           0        2.736250   -1.222520    1.195640
     27          1           0       -0.551546   -1.726941    1.921950
     28          1           0        4.034720   -0.877196   -0.957476
     29          1           0        2.604670   -0.679183   -1.891570
     30          1           0        3.588820    1.497930   -1.369180
     31          1           0        2.347050   -2.442610   -0.038209
     32          7           0        0.441004   -1.778800    1.745560
     33          7           0        5.144930    0.887525    0.777990
     34          7           0       -1.414020   -0.951945   -0.591254
     35          8           0       -0.524431    1.723859   -1.042940
     36          8           0        0.228784   -2.149391   -1.592480
     37          8           0       -4.222990   -0.699425   -0.505063
     38          8           0       -3.903480    0.069505    1.614950
 ---------------------------------------------------------------------

 SCF Done:  E(RHF) =  -854.067616150     A.U. after    2 cycles

 The electronic state is 1-A.
 Alpha  occ. eigenvalues --  -20.66465 -20.60696 -20.59986 -20.55672 -15.66916
 Alpha  occ. eigenvalues --  -15.63407 -15.60634 -11.43925 -11.38506 -11.33361
 Alpha  occ. eigenvalues --  -11.32825 -11.29576 -11.25970 -11.25684 -11.23847
 Alpha  occ. eigenvalues --  -11.23343 -11.23051  -1.44887  -1.36761  -1.36320
 Alpha  occ. eigenvalues --   -1.35450  -1.24054  -1.17580  -1.15783  -1.07283
 Alpha  occ. eigenvalues --   -1.05674  -0.99294  -0.98040  -0.91739  -0.87426
 Alpha  occ. eigenvalues --   -0.86871  -0.85123  -0.80669  -0.78922  -0.76837
 Alpha  occ. eigenvalues --   -0.75460  -0.72233  -0.70567  -0.69214  -0.67737
 Alpha  occ. eigenvalues --   -0.67231  -0.66414  -0.65990  -0.64736  -0.63294
 Alpha  occ. eigenvalues --   -0.62080  -0.60863  -0.60041  -0.59255  -0.58200
 Alpha  occ. eigenvalues --   -0.57601  -0.56848  -0.55663  -0.54299  -0.53679
 Alpha  occ. eigenvalues --   -0.53391  -0.52596  -0.51423  -0.50327  -0.49581
 Alpha  occ. eigenvalues --   -0.49068  -0.47730  -0.46064  -0.44524  -0.41008
 Alpha  occ. eigenvalues --   -0.40054  -0.38687
 Alpha virt. eigenvalues --    0.01552   0.02953   0.03565   0.04012   0.04563
 Alpha virt. eigenvalues --    0.04741   0.05497   0.05848   0.05909   0.06677
 Alpha virt. eigenvalues --    0.07211   0.07523   0.08048   0.08241   0.08572

 Mulliken charges:
               1
     1  C   -0.647323
     2  C    0.519959
     3  C    0.925436
     4  C   -0.125894
     5  C    0.926474
     6  C    0.626305
     7  C    0.585715
     8  C    0.859489
     9  C    0.603441
    10  C    0.465912
    11  H    0.053834
    12  H    0.278260
    13  H    0.000201
    14  H   -0.085014
    15  H    0.016477
    16  H    0.229864
    17  H   -0.176258
    18  H   -0.406690
    19  H    0.024641
    20  H    0.023824
    21  H   -0.317555
    22  H   -0.178398
    23  H   -0.001664
    24  H   -0.248417
    25  H   -0.140925
    26  H    0.006483
    27  H   -0.060911
    28  H   -0.086531
    29  H   -0.155244
    30  H   -0.172625
    31  H   -0.073990
    32  N   -0.256131
    33  N   -0.471580
    34  N   -0.401958
    35  O   -0.595978
    36  O   -0.556290
    37  O   -0.510564
    38  O   -0.476374
 Sum of Mulliken charges =  -0.00000

 Dipole moment (field-independent basis, Debye):
    X=              0.1635    Y=              3.7616    Z=              2.2721  Tot=              4.3976

 Test job not archived.
 1\1\GINC-SE106\SP\RHF\Aug-CC-pVDZ\C10H21N3O4\OHZDE\08-Apr-2025\0\\#t h
 f aug-cc-pvdz iop(5/13=1,5/36=2,99/5=2) pseudo=read geom=check guess=(
 read,tcheck) scf=(maxcycle=1)\\title\\0,1\C,0,0.835591,-1.05113,0.5158
 46\C,0,-1.88118,1.44954,-0.681859\C,0,-3.50372,-0.243931,0.358881\C,0,
 -1.98525,0.107962,0.0937903\C,0,3.77862,1.36679,0.713561\C,0,-2.3647,2
 .65917,0.0876368\C,0,3.00628,-0.522805,-0.899356\C,0,2.29409,-1.36979,
 0.194087\C,0,-0.126839,-1.4377,-0.669855\C,0,3.03633,0.984679,-0.58435
 8\H,0,5.10201,-0.140488,0.814518\H,0,-3.06974,0.322461,2.07966\H,0,-1.

 Normal termination of Gaussian 16 at Tue Apr  8 22:37:18 2025.
