 Gaussian 16, Revision C.01,

 ----------------------------------------------------------------------
 #t hf aug-cc-pvdz symm=none int=(grid=ultrafine) guess=(read,tcheck) s
 table=(opt,rrhf)
 ----------------------------------------------------------------------
 -----
 title
 -----
 Symbolic Z-matrix:
 Charge =  0 Multiplicity = 1

 SCF Done:  E(RHF) =  -505.054939512     A.U. after   15 cycles
 Normal termination of Gaussian 16 at Tue Apr  8 21:39:50 2025.
 Gaussian 16:  ES64L-G16RevC.01  3-Jul-2019

 ----------------------------------------------------------------------
 #t hf aug-cc-pvdz iop(5/13=1,5/36=2,99/5=2) pseudo=read geom=check gue
 ss=(read,tcheck) scf=(maxcycle=1)
 ----------------------------------------------------------------------
 -----
 title
 -----
 Structure from the checkpoint file:  "ANI1ccx_471_conf10_mol2.chk"
 Charge =  0 Multiplicity = 1

                         Standard orientation:
 ---------------------------------------------------------------------
 Center     Atomic      Atomic             Coordinates (Angstroms)
 Number     Number       Type             X           Y           Z
 ---------------------------------------------------------------------
      1          6           0        1.309170   -0.032184   -0.004508
      2          6           0       -0.780341   -0.752939   -0.117855
      3          1           0       -1.790129    2.149670    0.069176
      4          7           0       -0.771249    0.637178   -0.490199
      5          8           0       -1.430600    1.373980    0.513965
      6          8           0        0.631253    1.067070   -0.342561
      7          8           0        2.482040   -0.054137    0.223368
      8          8           0        0.516152   -1.140860    0.097713
      9          8           0       -1.696860   -1.483450    0.019564
 ---------------------------------------------------------------------

 SCF Done:  E(RHF) =  -505.214983214     A.U. after    2 cycles

 The electronic state is 1-A.
 Alpha  occ. eigenvalues --  -20.72356 -20.71664 -20.69480 -20.63795 -20.60603
 Alpha  occ. eigenvalues --  -15.84492 -11.50327 -11.49946  -1.58080  -1.47760
 Alpha  occ. eigenvalues --   -1.45984  -1.40215  -1.38796  -1.15643  -0.95590
 Alpha  occ. eigenvalues --   -0.93215  -0.83641  -0.79405  -0.76046  -0.74421
 Alpha  occ. eigenvalues --   -0.72521  -0.70907  -0.68606  -0.67328  -0.62436
 Alpha  occ. eigenvalues --   -0.59918  -0.56172  -0.54774  -0.53491  -0.49916
 Alpha virt. eigenvalues --    0.02267   0.06415   0.07395   0.07638   0.09075
 Alpha virt. eigenvalues --    0.10627   0.11206   0.11719   0.12147   0.13561
 Alpha virt. eigenvalues --    0.14859   0.15927   0.16799   0.18747   0.20053

 Mulliken charges:
               1
     1  C    0.806340
     2  C    0.929204
     3  H    0.240401
     4  N   -0.061655
     5  O   -0.368366
     6  O   -0.409952
     7  O   -0.369790
     8  O   -0.470257
     9  O   -0.295923
 Sum of Mulliken charges =  -0.00000

 Dipole moment (field-independent basis, Debye):
    X=             -2.4899    Y=              2.7640    Z=             -1.2960  Tot=              3.9394

 Test job not archived.
 1\1\GINC-SE331\SP\RHF\Aug-CC-pVDZ\C2H1N1O5\OHZDE\08-Apr-2025\0\\#t hf
 aug-cc-pvdz iop(5/13=1,5/36=2,99/5=2) pseudo=read geom=check guess=(re
 ad,tcheck) scf=(maxcycle=1)\\title\\0,1\C,0,1.30917,-0.0321832,-0.0045
 0793\C,0,-0.780341,-0.752939,-0.117855\H,0,-1.79013,2.14967,0.0691761\
 N,0,-0.771249,0.637178,-0.490199\O,0,-1.4306,1.37398,0.513965\O,0,0.63
 1253,1.06707,-0.342561\O,0,2.48204,-0.054136,0.223368\O,0,0.516152,-1.
 14086,0.0977132\O,0,-1.69686,-1.48345,0.0195636\\Version=ES64L-G16RevC
 .01\State=1-A\HF=-505.2149832\RMSD=2.900e-03\Dipole=-0.979584,1.087444

 Normal termination of Gaussian 16 at Tue Apr  8 21:39:54 2025.
