 Gaussian 16, Revision C.01,

 ----------------------------------------------------------------------
 #t hf aug-cc-pvdz symm=none int=(grid=ultrafine) guess=(read,tcheck) s
 table=(opt,rrhf)
 ----------------------------------------------------------------------
 -----
 title
 -----
 Symbolic Z-matrix:
 Charge =  0 Multiplicity = 1

 SCF Done:  E(RHF) =  -204.677436835     A.U. after   13 cycles
 Normal termination of Gaussian 16 at Tue Apr  8 21:09:14 2025.
 Gaussian 16:  ES64L-G16RevC.01  3-Jul-2019

 ----------------------------------------------------------------------
 #t hf aug-cc-pvdz iop(5/13=1,5/36=2,99/5=2) pseudo=read geom=check gue
 ss=(read,tcheck) scf=(maxcycle=1)
 ----------------------------------------------------------------------
 -----
 title
 -----
 Structure from the checkpoint file:  "ANI1ccx_1849_conf31_mol2.chk"
 Charge =  0 Multiplicity = 1

                         Standard orientation:
 ---------------------------------------------------------------------
 Center     Atomic      Atomic             Coordinates (Angstroms)
 Number     Number       Type             X           Y           Z
 ---------------------------------------------------------------------
      1          1           0       -1.677212    0.451833    0.009904
      2          7           0        0.161149    0.484621   -0.001418
      3          8           0       -1.036432   -0.260287   -0.001062
      4          8           0        1.105078   -0.220235    0.001064
 ---------------------------------------------------------------------

 SCF Done:  E(RHF) =  -204.741712563     A.U. after    2 cycles

 The electronic state is 1-A.
 Alpha  occ. eigenvalues --  -20.67733 -20.65891 -15.86403  -1.55361  -1.37773
 Alpha  occ. eigenvalues --   -0.94058  -0.80082  -0.74375  -0.69658  -0.64375
 Alpha  occ. eigenvalues --   -0.54917  -0.47484
 Alpha virt. eigenvalues --    0.03386   0.07732   0.11031   0.11866   0.15073
 Alpha virt. eigenvalues --    0.18070   0.19249   0.21105   0.22834   0.23885
 Alpha virt. eigenvalues --    0.25622   0.27616   0.31216   0.36142   0.40853

 Mulliken charges:
               1
     1  H    0.221526
     2  N    0.529539
     3  O   -0.430441
     4  O   -0.320624
 Sum of Mulliken charges =   0.00000

 Dipole moment (field-independent basis, Debye):
    X=             -1.9255    Y=              1.7089    Z=              0.0179  Tot=              2.5745

 Test job not archived.
 1\1\GINC-SE048\SP\RHF\Aug-CC-pVDZ\H1N1O2\OHZDE\08-Apr-2025\0\\#t hf au
 g-cc-pvdz iop(5/13=1,5/36=2,99/5=2) pseudo=read geom=check guess=(read
 ,tcheck) scf=(maxcycle=1)\\title\\0,1\H,0,-1.67721,0.451834,0.00990386
 \N,0,0.161152,0.484621,-0.00141796\O,0,-1.03643,-0.260287,-0.00106153\
 O,0,1.10508,-0.220236,0.00106426\\Version=ES64L-G16RevC.01\State=1-A\H
 F=-204.7417126\RMSD=3.678e-03\Dipole=-0.7575568,0.6723365,0.0070365\Qu
 adrupole=0.9077297,-0.8810581,-0.0266716,-1.5563403,-0.0314263,0.01221
 4\PG=C01 [X(H1N1O2)]\\@

 Normal termination of Gaussian 16 at Tue Apr  8 21:09:15 2025.
