 Gaussian 16, Revision C.01,

 ----------------------------------------------------------------------
 #t hf aug-cc-pvdz symm=none int=(grid=ultrafine) guess=(read,tcheck) s
 table=(opt,rrhf)
 ----------------------------------------------------------------------
 -----
 title
 -----
 Symbolic Z-matrix:
 Charge =  0 Multiplicity = 1

 SCF Done:  E(RHF) =  -276.586599515     A.U. after   15 cycles
 Normal termination of Gaussian 16 at Tue Apr  8 21:14:21 2025.
 Gaussian 16:  ES64L-G16RevC.01  3-Jul-2019

 ----------------------------------------------------------------------
 #t hf aug-cc-pvdz iop(5/13=1,5/36=2,99/5=2) pseudo=read geom=check gue
 ss=(read,tcheck) scf=(maxcycle=1)
 ----------------------------------------------------------------------
 -----
 title
 -----
 Structure from the checkpoint file:  "ANI1ccx_370_conf33_mol1.chk"
 Charge =  0 Multiplicity = 1

                         Standard orientation:
 ---------------------------------------------------------------------
 Center     Atomic      Atomic             Coordinates (Angstroms)
 Number     Number       Type             X           Y           Z
 ---------------------------------------------------------------------
      1          6           0        1.034732    0.104276   -0.012211
      2          1           0        2.127331    0.047692    0.094938
      3          7           0        0.289105    1.142357    0.008917
      4          7           0       -0.990920    0.604280   -0.020267
      5          7           0       -0.975172   -0.675076    0.031554
      6          8           0        0.425399   -1.021784   -0.020387
 ---------------------------------------------------------------------

 SCF Done:  E(RHF) =  -276.667227563     A.U. after    2 cycles

 The electronic state is 1-A.
 Alpha  occ. eigenvalues --  -20.71382 -15.79279 -15.76755 -15.69724 -11.39913
 Alpha  occ. eigenvalues --   -1.54739  -1.33204  -1.21347  -0.92839  -0.90740
 Alpha  occ. eigenvalues --   -0.78756  -0.73993  -0.65517  -0.60031  -0.53818
 Alpha  occ. eigenvalues --   -0.51759  -0.50778  -0.45421
 Alpha virt. eigenvalues --    0.02744   0.06382   0.07585   0.09239   0.09685
 Alpha virt. eigenvalues --    0.12866   0.13067   0.14996   0.15482   0.17608
 Alpha virt. eigenvalues --    0.18651   0.20195   0.20760   0.23210   0.24589

 Mulliken charges:
               1
     1  C    0.827514
     2  H   -0.131666
     3  N   -0.298661
     4  N   -0.057342
     5  N    0.091941
     6  O   -0.431784
 Sum of Mulliken charges =  -0.00000

 Dipole moment (field-independent basis, Debye):
    X=              2.7202    Y=             -0.6592    Z=              0.0566  Tot=              2.7995

 Test job not archived.
 1\1\GINC-SE460\SP\RHF\Aug-CC-pVDZ\C1H1N3O1\OHZDE\08-Apr-2025\0\\#t hf
 aug-cc-pvdz iop(5/13=1,5/36=2,99/5=2) pseudo=read geom=check guess=(re
 ad,tcheck) scf=(maxcycle=1)\\title\\0,1\C,0,1.03473,0.104284,-0.012211
 1\H,0,2.12733,0.0477084,0.0949375\N,0,0.289096,1.14236,0.0089165\N,0,-
 0.990925,0.604274,-0.020267\N,0,-0.975168,-0.675082,0.0315543\O,0,0.42
 5405,-1.02178,-0.0203872\\Version=ES64L-G16RevC.01\State=1-A\HF=-276.6
 672276\RMSD=3.082e-03\Dipole=1.0702176,-0.2593288,0.0222497\Quadrupole
 =2.677178,-3.4955172,0.8183393,-0.2804734,0.1469025,-0.0271318\PG=C01

 Normal termination of Gaussian 16 at Tue Apr  8 21:14:23 2025.
