 Gaussian 16, Revision C.01,

 ----------------------------------------------------------------------
 #t hf aug-cc-pvdz symm=none int=(grid=ultrafine) guess=(read,tcheck) s
 table=(opt,rrhf)
 ----------------------------------------------------------------------
 -----
 title
 -----
 Symbolic Z-matrix:
 Charge =  0 Multiplicity = 1

 SCF Done:  E(RHF) =  -241.018760283     A.U. after   14 cycles
 Normal termination of Gaussian 16 at Tue Apr  8 21:11:18 2025.
 Gaussian 16:  ES64L-G16RevC.01  3-Jul-2019

 ----------------------------------------------------------------------
 #t hf aug-cc-pvdz iop(5/13=1,5/36=2,99/5=2) pseudo=read geom=check gue
 ss=(read,tcheck) scf=(maxcycle=1)
 ----------------------------------------------------------------------
 -----
 title
 -----
 Structure from the checkpoint file:  "ANI1ccx_1892_conf12_mol2.chk"
 Charge =  0 Multiplicity = 1

                         Standard orientation:
 ---------------------------------------------------------------------
 Center     Atomic      Atomic             Coordinates (Angstroms)
 Number     Number       Type             X           Y           Z
 ---------------------------------------------------------------------
      1          1           0       -3.335419   -0.225152   -0.078827
      2          1           0       -1.514269   -0.746037    1.061340
      3          1           0       -1.237819   -0.982056   -0.554185
      4          1           0        2.860281    1.069070    0.515999
      5          1           0        1.031351    0.303389    0.236346
      6          7           0       -1.392919   -0.257744    0.157101
      7          7           0        2.914311    0.171347   -0.013701
      8          7           0        1.777411   -0.305249   -0.161294
      9          8           0       -2.611969    0.415289   -0.131927
 ---------------------------------------------------------------------

 SCF Done:  E(RHF) =  -241.091836255     A.U. after    2 cycles

 The electronic state is 1-A.
 Alpha  occ. eigenvalues --  -20.61672 -15.69597 -15.69201 -15.68874  -1.36710
 Alpha  occ. eigenvalues --   -1.30534  -1.06266  -0.89040  -0.74120  -0.73941
 Alpha  occ. eigenvalues --   -0.70206  -0.60106  -0.55874  -0.51099  -0.50457
 Alpha  occ. eigenvalues --   -0.44270  -0.39265
 Alpha virt. eigenvalues --    0.02752   0.04012   0.05242   0.05812   0.08359
 Alpha virt. eigenvalues --    0.11124   0.14025   0.14949   0.16428   0.17075
 Alpha virt. eigenvalues --    0.17713   0.19483   0.20498   0.20574   0.22673

 Mulliken charges:
               1
     1  H    0.136737
     2  H    0.111763
     3  H    0.130715
     4  H    0.053276
     5  H    0.089722
     6  N   -0.001633
     7  N   -0.028384
     8  N   -0.073130
     9  O   -0.419067
 Sum of Mulliken charges =  -0.00000

 Dipole moment (field-independent basis, Debye):
    X=             -2.5400    Y=             -0.7713    Z=              1.8467  Tot=              3.2337

 Test job not archived.
 1\1\GINC-SE454\SP\RHF\Aug-CC-pVDZ\H5N3O1\OHZDE\08-Apr-2025\0\\#t hf au
 g-cc-pvdz iop(5/13=1,5/36=2,99/5=2) pseudo=read geom=check guess=(read
 ,tcheck) scf=(maxcycle=1)\\title\\0,1\H,0,-3.33542,-0.225152,-0.078827
 5\H,0,-1.51427,-0.746037,1.06134\H,0,-1.23782,-0.982056,-0.554185\H,0,
 2.86028,1.06907,0.515999\H,0,1.03135,0.303389,0.236346\N,0,-1.39292,-0
 .257744,0.157101\N,0,2.91431,0.171347,-0.0137014\N,0,1.77741,-0.305249
 ,-0.161294\O,0,-2.61197,0.415289,-0.131927\\Version=ES64L-G16RevC.01\S
 tate=1-A\HF=-241.0918363\RMSD=2.165e-03\Dipole=-0.9993155,-0.3034692,0

 Normal termination of Gaussian 16 at Tue Apr  8 21:11:21 2025.
