 Gaussian 16, Revision C.01,

 ----------------------------------------------------------------------
 #t hf aug-cc-pvdz symm=none int=(grid=ultrafine) guess=(read,tcheck) s
 table=(opt,rrhf)
 ----------------------------------------------------------------------
 -----
 title
 -----
 Symbolic Z-matrix:
 Charge =  0 Multiplicity = 1

 SCF Done:  E(RHF) =  -256.793898663     A.U. after   15 cycles
 Normal termination of Gaussian 16 at Tue Apr  8 21:22:27 2025.
 Gaussian 16:  ES64L-G16RevC.01  3-Jul-2019

 ----------------------------------------------------------------------
 #t hf aug-cc-pvdz iop(5/13=1,5/36=2,99/5=2) pseudo=read geom=check gue
 ss=(read,tcheck) scf=(maxcycle=1)
 ----------------------------------------------------------------------
 -----
 title
 -----
 Structure from the checkpoint file:  "ANI1ccx_377_conf38_mol1.chk"
 Charge =  0 Multiplicity = 1

                         Standard orientation:
 ---------------------------------------------------------------------
 Center     Atomic      Atomic             Coordinates (Angstroms)
 Number     Number       Type             X           Y           Z
 ---------------------------------------------------------------------
      1          6           0       -1.047581   -0.264291   -0.026496
      2          1           0       -2.101832   -0.532347   -0.028969
      3          1           0        1.829167   -0.794344    0.057945
      4          7           0       -0.610075    0.992243    0.031230
      5          7           0        0.683296    0.915193   -0.016382
      6          7           0        0.958938   -0.333605   -0.016154
      7          7           0       -0.095281   -1.157768    0.019878
 ---------------------------------------------------------------------

 SCF Done:  E(RHF) =  -256.864601569     A.U. after    2 cycles

 The electronic state is 1-A.
 Alpha  occ. eigenvalues --  -15.77522 -15.74568 -15.69622 -15.67731 -11.31819
 Alpha  occ. eigenvalues --   -1.48749  -1.23528  -1.17818  -0.92632  -0.88077
 Alpha  occ. eigenvalues --   -0.78822  -0.69744  -0.64227  -0.57363  -0.50711
 Alpha  occ. eigenvalues --   -0.47164  -0.44224  -0.42477
 Alpha virt. eigenvalues --    0.02878   0.03884   0.08501   0.08509   0.11473
 Alpha virt. eigenvalues --    0.11860   0.12346   0.15050   0.16327   0.16745
 Alpha virt. eigenvalues --    0.17264   0.19395   0.19834   0.20413   0.21845

 Mulliken charges:
               1
     1  C    0.869041
     2  H   -0.174776
     3  H    0.017853
     4  N   -0.352900
     5  N   -0.126840
     6  N    0.161713
     7  N   -0.394091
 Sum of Mulliken charges =   0.00000

 Dipole moment (field-independent basis, Debye):
    X=              1.1891    Y=             -1.9427    Z=              0.0217  Tot=              2.2778

 Test job not archived.
 1\1\GINC-SE342\SP\RHF\Aug-CC-pVDZ\C1H2N4\OHZDE\08-Apr-2025\0\\#t hf au
 g-cc-pvdz iop(5/13=1,5/36=2,99/5=2) pseudo=read geom=check guess=(read
 ,tcheck) scf=(maxcycle=1)\\title\\0,1\C,0,-1.04758,-0.264296,-0.026495
 6\H,0,-2.10183,-0.532356,-0.0289694\H,0,1.82917,-0.794338,0.0579447\N,
 0,-0.610079,0.992239,0.0312297\N,0,0.683292,0.915194,-0.0163821\N,0,0.
 958939,-0.333602,-0.0161541\N,0,-0.0952772,-1.15777,0.0198777\\Version
 =ES64L-G16RevC.01\State=1-A\HF=-256.8646016\RMSD=3.418e-03\Dipole=0.46
 78499,-0.7643083,0.0085362\Quadrupole=5.1921333,-4.775096,-0.4170373,-

 Normal termination of Gaussian 16 at Tue Apr  8 21:22:29 2025.
