 Gaussian 16, Revision C.01,

 ----------------------------------------------------------------------
 #t hf aug-cc-pvdz symm=none int=(grid=ultrafine) guess=(read,tcheck) s
 table=(opt,rrhf)
 ----------------------------------------------------------------------
 -----
 title
 -----
 Symbolic Z-matrix:
 Charge =  0 Multiplicity = 1

 SCF Done:  E(RHF) =  -809.795887775     A.U. after   14 cycles
 Normal termination of Gaussian 16 at Tue Apr  8 20:21:27 2025.
 Gaussian 16:  ES64L-G16RevC.01  3-Jul-2019

 ----------------------------------------------------------------------
 #t hf aug-cc-pvdz iop(5/13=1,5/36=2,99/5=2) pseudo=read geom=check gue
 ss=(read,tcheck) scf=(maxcycle=1)
 ----------------------------------------------------------------------
 -----
 title
 -----
 Structure from the checkpoint file:  "ANI1ccx_1634_conf1_mol2.chk"
 Charge =  0 Multiplicity = 1

                         Standard orientation:
 ---------------------------------------------------------------------
 Center     Atomic      Atomic             Coordinates (Angstroms)
 Number     Number       Type             X           Y           Z
 ---------------------------------------------------------------------
      1          6           0        2.900580    1.032857   -0.517313
      2          6           0        2.327369   -0.378319   -0.341409
      3          6           0        0.188863   -1.633251   -0.287212
      4          6           0       -1.145832   -1.590470   -1.025370
      5          6           0        0.065123   -1.957391    1.191560
      6          6           0       -0.144506   -0.856101    2.171360
      7          6           0       -1.277441    0.132073    1.902210
      8          6           0       -1.359180    1.791780    0.027141
      9          1           0       -2.076712   -0.706347   -2.388360
     10          1           0       -3.174070    2.275511   -0.778512
     11          1           0       -3.192840    1.948211    0.853271
     12          1           0       -1.210649    2.534790   -1.673520
     13          1           0        0.200370    1.531919    1.267200
     14          1           0       -1.572361    0.544282    2.874680
     15          1           0       -2.161021   -0.295153    1.476180
     16          1           0       -0.381050   -1.298171    3.140900
     17          1           0        0.780103   -0.271085    2.312840
     18          1           0       -0.701713   -2.735581    1.269070
     19          1           0        1.032377   -2.374682    1.470250
     20          1           0        0.706652   -2.478632   -0.794143
     21          1           0        0.467945    0.177248   -1.322180
     22          1           0        3.060880    1.116017   -1.600680
     23          1           0        3.883980    0.977089   -0.076605
     24          1           0        1.335071    2.319868   -0.452314
     25          1           0        2.749981    2.925727    0.137757
     26          7           0        2.146320    2.117207    0.138391
     27          7           0        0.987349   -0.436208   -0.597969
     28          7           0       -0.800490    1.274779    1.161040
     29          7           0       -0.587662    2.312439   -0.887536
     30          7           0       -2.787840    1.699041   -0.054872
     31          8           0        3.030828   -1.294573    0.021040
     32          8           0       -2.092443   -2.295450   -0.814533
     33          8           0       -1.160952   -0.686087   -2.050880
 ---------------------------------------------------------------------

 SCF Done:  E(RHF) =  -810.040376752     A.U. after    2 cycles

 The electronic state is 1-A.
 Alpha  occ. eigenvalues --  -20.63934 -20.57908 -20.53539 -15.65984 -15.63993
 Alpha  occ. eigenvalues --  -15.63469 -15.60061 -15.59093 -11.41387 -11.37549
 Alpha  occ. eigenvalues --  -11.35503 -11.30213 -11.27441 -11.26058 -11.23889
 Alpha  occ. eigenvalues --  -11.23546  -1.44040  -1.34760  -1.34136  -1.27308
 Alpha  occ. eigenvalues --   -1.19769  -1.16316  -1.14246  -1.11536  -1.06759
 Alpha  occ. eigenvalues --   -1.00556  -0.93740  -0.91922  -0.85273  -0.80679
 Alpha  occ. eigenvalues --   -0.79731  -0.76930  -0.73622  -0.72206  -0.70669
 Alpha  occ. eigenvalues --   -0.69477  -0.68684  -0.66859  -0.65612  -0.64869
 Alpha  occ. eigenvalues --   -0.64396  -0.63390  -0.62620  -0.61504  -0.60020
 Alpha  occ. eigenvalues --   -0.59244  -0.57412  -0.56296  -0.55777  -0.53034
 Alpha  occ. eigenvalues --   -0.52609  -0.52082  -0.50497  -0.49467  -0.48880
 Alpha  occ. eigenvalues --   -0.47286  -0.44307  -0.43841  -0.41711  -0.38634
 Alpha  occ. eigenvalues --   -0.38570  -0.34650
 Alpha virt. eigenvalues --    0.01990   0.02830   0.03637   0.03824   0.05503
 Alpha virt. eigenvalues --    0.05740   0.05925   0.06161   0.06770   0.07891
 Alpha virt. eigenvalues --    0.08076   0.08507   0.08793   0.09283   0.09809

 Mulliken charges:
               1
     1  C    0.855699
     2  C    0.115533
     3  C    0.037467
     4  C    0.854895
     5  C    0.252852
     6  C    0.367056
     7  C    1.124142
     8  C    0.357864
     9  H    0.227751
    10  H   -0.074476
    11  H    0.066238
    12  H   -0.064093
    13  H    0.034840
    14  H   -0.277913
    15  H   -0.377233
    16  H   -0.081679
    17  H   -0.181239
    18  H   -0.103375
    19  H    0.060840
    20  H   -0.037935
    21  H    0.219467
    22  H    0.033362
    23  H   -0.195014
    24  H    0.125936
    25  H    0.032001
    26  N   -0.439017
    27  N   -0.258504
    28  N   -0.373931
    29  N   -0.317217
    30  N   -0.167832
    31  O   -0.593719
    32  O   -0.541523
    33  O   -0.681244
 Sum of Mulliken charges =  -0.00000

 Dipole moment (field-independent basis, Debye):
    X=             -4.0655    Y=              3.7003    Z=             -0.6813  Tot=              5.5394

 Test job not archived.
 1\1\GINC-SE009\SP\RHF\Aug-CC-pVDZ\C8H17N5O3\OHZDE\08-Apr-2025\0\\#t hf
  aug-cc-pvdz iop(5/13=1,5/36=2,99/5=2) pseudo=read geom=check guess=(r
 ead,tcheck) scf=(maxcycle=1)\\title\\0,1\C,0,2.90058,1.03286,-0.517313
 \C,0,2.32737,-0.378316,-0.341409\C,0,0.188865,-1.63325,-0.287212\C,0,-
 1.14583,-1.59047,-1.02537\C,0,0.0651259,-1.95739,1.19156\C,0,-0.144504
 ,-0.8561,2.17136\C,0,-1.27744,0.132073,1.90221\C,0,-1.35918,1.79178,0.
 0271418\H,0,-2.07671,-0.706347,-2.38836\H,0,-3.17407,2.27551,-0.778512
 \H,0,-3.19284,1.94821,0.853271\H,0,-1.21065,2.53479,-1.67352\H,0,0.200

 Normal termination of Gaussian 16 at Tue Apr  8 20:22:17 2025.
