 Gaussian 16, Revision C.01,

 ----------------------------------------------------------------------
 #t hf aug-cc-pvdz symm=none int=(grid=ultrafine) guess=(read,tcheck) s
 table=(opt,rrhf)
 ----------------------------------------------------------------------
 -----
 title
 -----
 Symbolic Z-matrix:
 Charge =  0 Multiplicity = 1

 SCF Done:  E(RHF) =  -218.961365586     A.U. after   14 cycles
 Normal termination of Gaussian 16 at Tue Apr  8 21:09:15 2025.
 Gaussian 16:  ES64L-G16RevC.01  3-Jul-2019

 ----------------------------------------------------------------------
 #t hf aug-cc-pvdz iop(5/13=1,5/36=2,99/5=2) pseudo=read geom=check gue
 ss=(read,tcheck) scf=(maxcycle=1)
 ----------------------------------------------------------------------
 -----
 title
 -----
 Structure from the checkpoint file:  "ANI1ccx_1861_conf12_mol1.chk"
 Charge =  0 Multiplicity = 1

                         Standard orientation:
 ---------------------------------------------------------------------
 Center     Atomic      Atomic             Coordinates (Angstroms)
 Number     Number       Type             X           Y           Z
 ---------------------------------------------------------------------
      1          1           0        0.589266    1.082760    0.160236
      2          1           0        0.553805   -0.973576    0.235819
      3          7           0        1.474431    0.609105   -0.106731
      4          7           0        1.486471   -0.629896   -0.003857
      5          7           0       -1.340189    0.075206    0.512159
      6          7           0       -1.784009   -0.070014   -0.458150
 ---------------------------------------------------------------------

 SCF Done:  E(RHF) =  -219.026524934     A.U. after    2 cycles

 The electronic state is 1-A.
 Alpha  occ. eigenvalues --  -15.78002 -15.77560 -15.70246 -15.70078  -1.47364
 Alpha  occ. eigenvalues --   -1.31293  -0.90924  -0.78946  -0.75262  -0.65342
 Alpha  occ. eigenvalues --   -0.64984  -0.64574  -0.56520  -0.51199  -0.40055
 Alpha virt. eigenvalues --    0.04261   0.05195   0.08370   0.09629   0.11323
 Alpha virt. eigenvalues --    0.12035   0.12181   0.15293   0.16098   0.17098
 Alpha virt. eigenvalues --    0.18361   0.18983   0.21387   0.21794   0.23233

 Mulliken charges:
               1
     1  H    0.066707
     2  H    0.066018
     3  N   -0.056276
     4  N   -0.013613
     5  N   -0.028035
     6  N   -0.034801
 Sum of Mulliken charges =  -0.00000

 Dipole moment (field-independent basis, Debye):
    X=             -3.1671    Y=              0.1565    Z=              0.7623  Tot=              3.2613

 Test job not archived.
 1\1\GINC-SE461\SP\RHF\Aug-CC-pVDZ\H2N4\OHZDE\08-Apr-2025\0\\#t hf aug-
 cc-pvdz iop(5/13=1,5/36=2,99/5=2) pseudo=read geom=check guess=(read,t
 check) scf=(maxcycle=1)\\title\\0,1\H,0,0.589265,1.08276,0.160236\H,0,
 0.553804,-0.973576,0.235819\N,0,1.47443,0.609105,-0.106731\N,0,1.48647
 ,-0.629896,-0.00385676\N,0,-1.34019,0.0752063,0.512159\N,0,-1.78401,-0
 .0700134,-0.45815\\Version=ES64L-G16RevC.01\State=1-A\HF=-219.0265249\
 RMSD=2.373e-03\Dipole=-1.2460246,0.0615887,0.2998946\Quadrupole=-3.358
 975,2.1314159,1.2275591,0.0350574,0.4658802,-0.0179446\PG=C01 [X(H2N4)

 Normal termination of Gaussian 16 at Tue Apr  8 21:09:17 2025.
