 Gaussian 16, Revision C.01,

 ----------------------------------------------------------------------
 #t hf aug-cc-pvdz symm=none int=(grid=ultrafine) guess=(read,tcheck) s
 table=(opt,rrhf)
 ----------------------------------------------------------------------
 -----
 title
 -----
 Symbolic Z-matrix:
 Charge =  0 Multiplicity = 1

 SCF Done:  E(RHF) =  -596.222644542     A.U. after   17 cycles
 Normal termination of Gaussian 16 at Tue Apr  8 21:58:03 2025.
 Gaussian 16:  ES64L-G16RevC.01  3-Jul-2019

 ----------------------------------------------------------------------
 #t hf aug-cc-pvdz iop(5/13=1,5/36=2,99/5=2) pseudo=read geom=check gue
 ss=(read,tcheck) scf=(maxcycle=1)
 ----------------------------------------------------------------------
 -----
 title
 -----
 Structure from the checkpoint file:  "ANI1ccx_883_conf4_mol2.chk"
 Charge =  0 Multiplicity = 1

                         Standard orientation:
 ---------------------------------------------------------------------
 Center     Atomic      Atomic             Coordinates (Angstroms)
 Number     Number       Type             X           Y           Z
 ---------------------------------------------------------------------
      1          6           0       -1.804760   -0.222203   -0.020303
      2          6           0        0.289945   -1.072089   -0.018133
      3          6           0        0.834350    0.196364   -0.077034
      4          6           0       -0.120552    1.234120   -0.005506
      5          1           0       -3.463829   -1.383573   -0.063617
      6          1           0       -3.700631    0.352117   -0.253788
      7          1           0        0.471103   -2.906869    0.173270
      8          1           0       -0.465668    2.986160    0.268365
      9          7           0       -3.103380   -0.434284    0.026617
     10          7           0       -1.009119   -1.282611    0.023572
     11          7           0        2.197679    0.618290   -0.042313
     12          7           0       -1.429951    1.058999   -0.018826
     13          8           0        1.096922   -2.140278    0.042766
     14          8           0        2.991140   -0.275031   -0.009562
     15          8           0        0.334253    2.466841    0.051580
 ---------------------------------------------------------------------

 SCF Done:  E(RHF) =  -596.401763167     A.U. after    2 cycles

 The electronic state is 1-A.
 Alpha  occ. eigenvalues --  -20.63993 -20.63751 -20.61319 -15.75574 -15.67292
 Alpha  occ. eigenvalues --  -15.63741 -15.63473 -11.39737 -11.39658 -11.39505
 Alpha  occ. eigenvalues --  -11.26707  -1.46134  -1.43297  -1.41194  -1.32892
 Alpha  occ. eigenvalues --   -1.20842  -1.18052  -1.09707  -0.95108  -0.91663
 Alpha  occ. eigenvalues --   -0.87241  -0.82710  -0.79937  -0.73079  -0.72307
 Alpha  occ. eigenvalues --   -0.70680  -0.68390  -0.67983  -0.63901  -0.63001
 Alpha  occ. eigenvalues --   -0.62124  -0.60709  -0.60021  -0.58415  -0.52587
 Alpha  occ. eigenvalues --   -0.46303  -0.44571  -0.42645  -0.39414  -0.35408
 Alpha virt. eigenvalues --    0.02135   0.03113   0.04104   0.05926   0.06971
 Alpha virt. eigenvalues --    0.07460   0.09555   0.10343   0.11795   0.12296
 Alpha virt. eigenvalues --    0.12784   0.12970   0.13088   0.13599   0.13961

 Mulliken charges:
               1
     1  C    0.837056
     2  C    0.812985
     3  C    0.745445
     4  C    0.507478
     5  H    0.013549
     6  H    0.034535
     7  H    0.223412
     8  H    0.188189
     9  N   -0.256954
    10  N   -0.576243
    11  N   -0.466700
    12  N   -0.623628
    13  O   -0.537613
    14  O   -0.414830
    15  O   -0.486680
 Sum of Mulliken charges =  -0.00000

 Dipole moment (field-independent basis, Debye):
    X=             -6.9609    Y=             -0.5564    Z=             -0.0490  Tot=              6.9833

 Test job not archived.
 1\1\GINC-SE252\SP\RHF\Aug-CC-pVDZ\C4H4N4O3\OHZDE\08-Apr-2025\0\\#t hf
 aug-cc-pvdz iop(5/13=1,5/36=2,99/5=2) pseudo=read geom=check guess=(re
 ad,tcheck) scf=(maxcycle=1)\\title\\0,1\C,0,-1.80476,-0.222201,-0.0203
 025\C,0,0.289944,-1.07209,-0.0181326\C,0,0.83435,0.196363,-0.0770341\C
 ,0,-0.12055,1.23412,-0.0055057\H,0,-3.46383,-1.38357,-0.0636171\H,0,-3
 .70063,0.352121,-0.253788\H,0,0.4711,-2.90687,0.17327\H,0,-0.465665,2.
 98616,0.268365\N,0,-3.10338,-0.434281,0.0266175\N,0,-1.00912,-1.28261,
 0.023572\N,0,2.19768,0.618287,-0.0423131\N,0,-1.42995,1.059,-0.0188261

 Normal termination of Gaussian 16 at Tue Apr  8 21:58:11 2025.
