 Gaussian 16, Revision C.01,

 ----------------------------------------------------------------------
 #t hf aug-cc-pvdz symm=none int=(grid=ultrafine) guess=(read,tcheck) s
 table=(opt,rrhf)
 ----------------------------------------------------------------------
 -----
 title
 -----
 Symbolic Z-matrix:
 Charge =  0 Multiplicity = 1

 SCF Done:  E(RHF) =  -407.123769842     A.U. after   14 cycles
 Normal termination of Gaussian 16 at Tue Apr  8 21:47:31 2025.
 Gaussian 16:  ES64L-G16RevC.01  3-Jul-2019

 ----------------------------------------------------------------------
 #t hf aug-cc-pvdz iop(5/13=1,5/36=2,99/5=2) pseudo=read geom=check gue
 ss=(read,tcheck) scf=(maxcycle=1)
 ----------------------------------------------------------------------
 -----
 title
 -----
 Structure from the checkpoint file:  "ANI1ccx_588_conf11_mol2.chk"
 Charge =  0 Multiplicity = 1

                         Standard orientation:
 ---------------------------------------------------------------------
 Center     Atomic      Atomic             Coordinates (Angstroms)
 Number     Number       Type             X           Y           Z
 ---------------------------------------------------------------------
      1          6           0       -1.590210   -0.061505   -0.069882
      2          6           0        1.799580    0.027645   -0.000775
      3          1           0       -2.310810   -1.169160    1.486820
      4          1           0       -0.798632   -1.592020    0.851719
      5          1           0       -3.587440    0.268261   -0.188201
      6          1           0       -2.723360    1.522510   -0.818149
      7          1           0        0.791420   -1.110620   -1.300400
      8          1           0        0.746652    1.815370    0.331538
      9          1           0        2.382230    1.785370    0.808832
     10          1           0        2.984280   -1.371990   -0.514199
     11          7           0       -1.714440   -1.172950    0.652875
     12          7           0       -2.688270    0.766058   -0.131226
     13          7           0       -0.477038    0.277963   -0.696143
     14          7           0        0.586297   -0.622327   -0.443249
     15          7           0        1.535370    1.240220    0.632796
     16          7           0        2.938000   -0.481045   -0.048482
 ---------------------------------------------------------------------

 SCF Done:  E(RHF) =  -407.245380113     A.U. after    2 cycles

 The electronic state is 1-A.
 Alpha  occ. eigenvalues --  -15.66003 -15.65458 -15.65390 -15.61776 -15.61634
 Alpha  occ. eigenvalues --  -15.56598 -11.37627 -11.34319  -1.30639  -1.25137
 Alpha  occ. eigenvalues --   -1.16972  -1.15200  -1.10096  -1.01994  -0.82301
 Alpha  occ. eigenvalues --   -0.78598  -0.74078  -0.72375  -0.71567  -0.63992
 Alpha  occ. eigenvalues --   -0.63274  -0.61466  -0.61226  -0.57539  -0.55425
 Alpha  occ. eigenvalues --   -0.48169  -0.44110  -0.41301  -0.37877  -0.35946
 Alpha  occ. eigenvalues --   -0.33357
 Alpha virt. eigenvalues --    0.02187   0.03200   0.04053   0.04426   0.06521
 Alpha virt. eigenvalues --    0.07209   0.07773   0.09297   0.11204   0.12010
 Alpha virt. eigenvalues --    0.13328   0.13814   0.14426   0.15053   0.16248

 Mulliken charges:
               1
     1  C    1.057010
     2  C    0.910645
     3  H    0.006758
     4  H    0.113542
     5  H    0.004759
     6  H    0.018170
     7  H    0.035855
     8  H    0.041877
     9  H    0.008835
    10  H   -0.043595
    11  N   -0.199196
    12  N   -0.325302
    13  N   -0.517663
    14  N   -0.487968
    15  N   -0.289401
    16  N   -0.334326
 Sum of Mulliken charges =  -0.00000

 Dipole moment (field-independent basis, Debye):
    X=             -5.3299    Y=             -0.3089    Z=             -0.1114  Tot=              5.3400

 Test job not archived.
 1\1\GINC-SE127\SP\RHF\Aug-CC-pVDZ\C2H8N6\OHZDE\08-Apr-2025\0\\#t hf au
 g-cc-pvdz iop(5/13=1,5/36=2,99/5=2) pseudo=read geom=check guess=(read
 ,tcheck) scf=(maxcycle=1)\\title\\0,1\C,0,-1.59021,-0.0615053,-0.06988
 22\C,0,1.79958,0.0276444,-0.00077521\H,0,-2.31081,-1.16916,1.48682\H,0
 ,-0.798632,-1.59202,0.851719\H,0,-3.58744,0.268261,-0.188201\H,0,-2.72
 336,1.52251,-0.818149\H,0,0.79142,-1.11062,-1.3004\H,0,0.746652,1.8153
 7,0.331538\H,0,2.38223,1.78537,0.808832\H,0,2.98428,-1.37199,-0.514199
 \N,0,-1.71444,-1.17295,0.652875\N,0,-2.68827,0.766058,-0.131226\N,0,-0

 Normal termination of Gaussian 16 at Tue Apr  8 21:47:37 2025.
