 Gaussian 16, Revision C.01,

 ----------------------------------------------------------------------
 #t hf aug-cc-pvdz symm=none int=(grid=ultrafine) guess=(read,tcheck) s
 table=(opt,rrhf)
 ----------------------------------------------------------------------
 -----
 title
 -----
 Symbolic Z-matrix:
 Charge =  0 Multiplicity = 1

 SCF Done:  E(RHF) =  -868.296923346     A.U. after   16 cycles
 Normal termination of Gaussian 16 at Tue Apr  8 20:35:57 2025.
 Gaussian 16:  ES64L-G16RevC.01  3-Jul-2019

 ----------------------------------------------------------------------
 #t hf aug-cc-pvdz iop(5/13=1,5/36=2,99/5=2) pseudo=read geom=check gue
 ss=(read,tcheck) scf=(maxcycle=1)
 ----------------------------------------------------------------------
 -----
 title
 -----
 Structure from the checkpoint file:  "ANI1ccx_170_conf20_mol1.chk"
 Charge =  0 Multiplicity = 1

                         Standard orientation:
 ---------------------------------------------------------------------
 Center     Atomic      Atomic             Coordinates (Angstroms)
 Number     Number       Type             X           Y           Z
 ---------------------------------------------------------------------
      1          6           0        0.684949   -0.120302    0.919425
      2          6           0       -2.319910    2.012499   -0.342374
      3          6           0       -3.902430    0.509971    0.253382
      4          6           0       -2.498580   -1.499421   -0.366434
      5          6           0       -2.603800   -0.247296    0.482221
      6          6           0       -3.723080    1.617189   -0.791846
      7          6           0        3.868360   -0.620882   -1.205360
      8          6           0        2.970410   -0.390767   -0.158140
      9          6           0        1.569460   -0.951846    0.024181
     10          6           0       -0.247869    0.875991    0.271271
     11          6           0        4.714040    0.757522    0.180512
     12          1           0       -4.229640    0.967254    1.189630
     13          1           0       -0.862387   -1.773691    0.755696
     14          1           0       -1.801720    2.540509   -1.189160
     15          1           0       -2.260780    2.804609    0.476407
     16          1           0       -4.471650    2.426769   -0.726674
     17          1           0       -3.662200    1.473369   -1.928310
     18          1           0       -4.719930   -0.190095   -0.135532
     19          1           0       -2.366130   -0.535438    1.503600
     20          1           0        3.855540   -1.266380   -2.075800
     21          1           0        5.523370    1.324450    0.621266
     22          1           0        1.216650   -1.087490   -1.014310
     23          1           0        1.688130   -1.969110    0.379736
     24          1           0        1.502660    0.500122    1.458810
     25          1           0        0.621749   -1.661560    2.219070
     26          1           0       -0.664094   -0.625279    2.402970
     27          1           0        5.813810    0.275735   -1.494560
     28          7           0       -0.025396   -1.031840    1.755220
     29          7           0        3.589990    0.433934    0.788220
     30          7           0        4.949150    0.218720   -0.987689
     31          7           0       -1.591980    0.773788    0.103924
     32          8           0       -3.144900   -1.908431   -1.265190
     33          8           0        0.274683    1.934910    0.102701
     34          8           0       -1.467910   -2.229221   -0.045205
 ---------------------------------------------------------------------

 SCF Done:  E(RHF) =  -868.555154846     A.U. after    2 cycles

 The electronic state is 1-A.
 Alpha  occ. eigenvalues --  -20.55969 -20.52872 -20.52660 -15.69391 -15.66375
 Alpha  occ. eigenvalues --  -15.66016 -15.61908 -11.36054 -11.35928 -11.31269
 Alpha  occ. eigenvalues --  -11.30684 -11.29771 -11.27817 -11.27816 -11.27438
 Alpha  occ. eigenvalues --  -11.25727 -11.25416 -11.25007  -1.39906  -1.37157
 Alpha  occ. eigenvalues --   -1.32638  -1.28817  -1.23268  -1.22268  -1.15195
 Alpha  occ. eigenvalues --   -1.06493  -1.05186  -1.01560  -0.98852  -0.91713
 Alpha  occ. eigenvalues --   -0.87226  -0.83582  -0.82715  -0.79740  -0.78841
 Alpha  occ. eigenvalues --   -0.77432  -0.76592  -0.73222  -0.71237  -0.69571
 Alpha  occ. eigenvalues --   -0.67406  -0.65050  -0.64387  -0.64000  -0.62477
 Alpha  occ. eigenvalues --   -0.62087  -0.61240  -0.60070  -0.58964  -0.58353
 Alpha  occ. eigenvalues --   -0.57494  -0.57003  -0.55447  -0.54117  -0.53156
 Alpha  occ. eigenvalues --   -0.52349  -0.50403  -0.48661  -0.46874  -0.45655
 Alpha  occ. eigenvalues --   -0.45290  -0.44745  -0.43286  -0.41664  -0.39607
 Alpha  occ. eigenvalues --   -0.37646  -0.31838
 Alpha virt. eigenvalues --    0.02121   0.02317   0.03412   0.03654   0.04559
 Alpha virt. eigenvalues --    0.05123   0.05654   0.05908   0.06716   0.07436
 Alpha virt. eigenvalues --    0.07650   0.07901   0.08386   0.08969   0.09543

 Mulliken charges:
               1
     1  C    0.383538
     2  C    0.599749
     3  C    0.409875
     4  C    0.505946
     5  C    0.718447
     6  C    0.392692
     7  C    1.361654
     8  C   -0.274512
     9  C    0.323047
    10  C   -0.314701
    11  C    0.775871
    12  H   -0.009922
    13  H    0.709142
    14  H   -0.145940
    15  H   -0.124892
    16  H   -0.098302
    17  H   -0.074941
    18  H    0.019710
    19  H   -0.493921
    20  H   -0.374419
    21  H   -0.327278
    22  H    0.010868
    23  H   -0.079079
    24  H   -0.001616
    25  H    0.052796
    26  H    0.071993
    27  H   -0.059360
    28  N   -0.441006
    29  N   -0.723798
    30  N   -0.505708
    31  N   -0.761587
    32  O   -0.463526
    33  O   -0.482698
    34  O   -0.578122
 Sum of Mulliken charges =   0.00000

 Dipole moment (field-independent basis, Debye):
    X=              4.2219    Y=              1.0974    Z=              2.9446  Tot=              5.2630

 Test job not archived.
 1\1\GINC-SE030\SP\RHF\Aug-CC-pVDZ\C11H16N4O3\OHZDE\08-Apr-2025\0\\#t h
 f aug-cc-pvdz iop(5/13=1,5/36=2,99/5=2) pseudo=read geom=check guess=(
 read,tcheck) scf=(maxcycle=1)\\title\\0,1\C,0,0.684949,-0.120302,0.919
 425\C,0,-2.31991,2.0125,-0.342374\C,0,-3.90243,0.509972,0.253382\C,0,-
 2.49858,-1.49942,-0.366434\C,0,-2.6038,-0.247295,0.482221\C,0,-3.72308
 ,1.61719,-0.791846\C,0,3.86836,-0.620882,-1.20536\C,0,2.97041,-0.39076
 7,-0.15814\C,0,1.56946,-0.951846,0.0241818\C,0,-0.247869,0.875991,0.27
 1271\C,0,4.71404,0.757522,0.180512\H,0,-4.22964,0.967255,1.18963\H,0,-

 Normal termination of Gaussian 16 at Tue Apr  8 20:36:53 2025.
