 Gaussian 16, Revision C.01,

 ----------------------------------------------------------------------
 #t hf aug-cc-pvdz symm=none int=(grid=ultrafine) guess=(read,tcheck) s
 table=(opt,rrhf)
 ----------------------------------------------------------------------
 -----
 title
 -----
 Symbolic Z-matrix:
 Charge =  0 Multiplicity = 1

 SCF Done:  E(RHF) =  -416.615165012     A.U. after   14 cycles
 Normal termination of Gaussian 16 at Tue Apr  8 21:50:08 2025.
 Gaussian 16:  ES64L-G16RevC.01  3-Jul-2019

 ----------------------------------------------------------------------
 #t hf aug-cc-pvdz iop(5/13=1,5/36=2,99/5=2) pseudo=read geom=check gue
 ss=(read,tcheck) scf=(maxcycle=1)
 ----------------------------------------------------------------------
 -----
 title
 -----
 Structure from the checkpoint file:  "ANI1ccx_740_conf3_mol2.chk"
 Charge =  0 Multiplicity = 1

                         Standard orientation:
 ---------------------------------------------------------------------
 Center     Atomic      Atomic             Coordinates (Angstroms)
 Number     Number       Type             X           Y           Z
 ---------------------------------------------------------------------
      1          6           0        1.360599    0.013947    0.809185
      2          6           0        0.039773    0.722386    0.421220
      3          6           0       -1.089420   -0.227939    0.098669
      4          1           0        1.950920   -0.173338   -1.029790
      5          1           0        1.272200   -0.643621    1.670750
      6          1           0        2.124668    0.767388    1.063010
      7          1           0       -0.327932    1.371829    1.244920
      8          1           0       -0.478899    1.853399   -1.099540
      9          1           0        0.210899   -1.485580   -0.538041
     10          8           0        1.803890   -0.771758   -0.292175
     11          8           0        0.354741    1.480510   -0.731546
     12          8           0       -0.755157   -1.430471   -0.389156
     13          8           0       -2.230671    0.129163    0.252156
 ---------------------------------------------------------------------

 SCF Done:  E(RHF) =  -416.746200691     A.U. after    2 cycles

 The electronic state is 1-A.
 Alpha  occ. eigenvalues --  -20.61834 -20.61714 -20.61541 -20.56728 -11.40114
 Alpha  occ. eigenvalues --  -11.33413 -11.32716  -1.42638  -1.37722  -1.35644
 Alpha  occ. eigenvalues --   -1.33090  -1.04306  -0.91658  -0.84496  -0.80357
 Alpha  occ. eigenvalues --   -0.74126  -0.71451  -0.68726  -0.66918  -0.64395
 Alpha  occ. eigenvalues --   -0.63408  -0.61587  -0.59314  -0.55312  -0.52329
 Alpha  occ. eigenvalues --   -0.50432  -0.49611  -0.45678
 Alpha virt. eigenvalues --    0.02890   0.04067   0.04674   0.05027   0.06487
 Alpha virt. eigenvalues --    0.07647   0.09769   0.10641   0.11006   0.12919
 Alpha virt. eigenvalues --    0.13960   0.14438   0.14672   0.15168   0.15792

 Mulliken charges:
               1
     1  C    0.920473
     2  C    0.595915
     3  C    0.416096
     4  H    0.221187
     5  H   -0.210938
     6  H   -0.084897
     7  H   -0.069026
     8  H    0.191602
     9  H    0.259496
    10  O   -0.638434
    11  O   -0.666530
    12  O   -0.468078
    13  O   -0.466867
 Sum of Mulliken charges =  -0.00000

 Dipole moment (field-independent basis, Debye):
    X=              3.5692    Y=              1.9254    Z=              0.4596  Tot=              4.0813

 Test job not archived.
 1\1\GINC-SE460\SP\RHF\Aug-CC-pVDZ\C3H6O4\OHZDE\08-Apr-2025\0\\#t hf au
 g-cc-pvdz iop(5/13=1,5/36=2,99/5=2) pseudo=read geom=check guess=(read
 ,tcheck) scf=(maxcycle=1)\\title\\0,1\C,0,1.3606,0.0139453,0.809185\C,
 0,0.0397744,0.722386,0.42122\C,0,-1.08942,-0.227937,0.0986691\H,0,1.95
 092,-0.173341,-1.02979\H,0,1.2722,-0.643623,1.67075\H,0,2.12467,0.7673
 85,1.06301\H,0,-0.32793,1.37183,1.24492\H,0,-0.478896,1.8534,-1.09954\
 H,0,0.210898,-1.48558,-0.538041\O,0,1.80389,-0.77176,-0.292175\O,0,0.3
 54744,1.48051,-0.731546\O,0,-0.755158,-1.43047,-0.389156\O,0,-2.23067,

 Normal termination of Gaussian 16 at Tue Apr  8 21:50:12 2025.
