 Gaussian 16, Revision C.01,

 ----------------------------------------------------------------------
 #t hf aug-cc-pvdz symm=none int=(grid=ultrafine) guess=(read,tcheck) s
 table=(opt,rrhf)
 ----------------------------------------------------------------------
 -----
 title
 -----
 Symbolic Z-matrix:
 Charge =  0 Multiplicity = 1

 SCF Done:  E(RHF) =  -458.431494169     A.U. after   18 cycles
 Normal termination of Gaussian 16 at Tue Apr  8 21:44:10 2025.
 Gaussian 16:  ES64L-G16RevC.01  3-Jul-2019

 ----------------------------------------------------------------------
 #t hf aug-cc-pvdz iop(5/13=1,5/36=2,99/5=2) pseudo=read geom=check gue
 ss=(read,tcheck) scf=(maxcycle=1)
 ----------------------------------------------------------------------
 -----
 title
 -----
 Structure from the checkpoint file:  "ANI1ccx_509_conf2_mol2.chk"
 Charge =  0 Multiplicity = 1

                         Standard orientation:
 ---------------------------------------------------------------------
 Center     Atomic      Atomic             Coordinates (Angstroms)
 Number     Number       Type             X           Y           Z
 ---------------------------------------------------------------------
      1          6           0        1.240920   -0.137598    0.241001
      2          6           0       -1.291720   -0.110926   -0.174458
      3          1           0        2.623670   -0.916861   -0.813772
      4          1           0        2.825970    0.836853   -0.610799
      5          1           0       -2.873080   -1.087901    0.237015
      6          7           0        2.348810   -0.073343   -0.430558
      7          7           0        0.603557    0.714122    0.987036
      8          7           0        0.040076    1.704069    0.051951
      9          7           0       -0.849285    1.181909   -0.562391
     10          7           0       -2.539800   -0.175871   -0.031438
     11          7           0       -0.601600   -1.422781    0.008348
     12          7           0        0.673703   -1.548240    0.089666
 ---------------------------------------------------------------------

 SCF Done:  E(RHF) =  -458.557845975     A.U. after    2 cycles

 The electronic state is 1-A.
 Alpha  occ. eigenvalues --  -15.76041 -15.76023 -15.75131 -15.72412 -15.70836
 Alpha  occ. eigenvalues --  -15.65182 -15.62236 -11.42918 -11.38244  -1.42074
 Alpha  occ. eigenvalues --   -1.35349  -1.29918  -1.22762  -1.15189  -0.97905
 Alpha  occ. eigenvalues --   -0.96450  -0.85745  -0.82514  -0.77961  -0.72846
 Alpha  occ. eigenvalues --   -0.71381  -0.64984  -0.63763  -0.60986  -0.55798
 Alpha  occ. eigenvalues --   -0.54064  -0.48921  -0.48458  -0.45436  -0.42619
 Alpha  occ. eigenvalues --   -0.39958  -0.36813
 Alpha virt. eigenvalues --    0.01267   0.02333   0.03887   0.04961   0.06261
 Alpha virt. eigenvalues --    0.08871   0.09862   0.10178   0.11648   0.11742
 Alpha virt. eigenvalues --    0.12618   0.13042   0.13336   0.14652   0.15734

 Mulliken charges:
               1
     1  C    1.275506
     2  C    1.043718
     3  H   -0.004643
     4  H    0.077796
     5  H    0.046520
     6  N   -0.093947
     7  N   -0.552865
     8  N   -0.163618
     9  N   -0.305320
    10  N   -0.378550
    11  N   -0.408104
    12  N   -0.536494
 Sum of Mulliken charges =  -0.00000

 Dipole moment (field-independent basis, Debye):
    X=              4.6462    Y=             -2.0278    Z=             -1.9985  Tot=              5.4491

 Test job not archived.
 1\1\GINC-SE126\SP\RHF\Aug-CC-pVDZ\C2H3N7\OHZDE\08-Apr-2025\0\\#t hf au
 g-cc-pvdz iop(5/13=1,5/36=2,99/5=2) pseudo=read geom=check guess=(read
 ,tcheck) scf=(maxcycle=1)\\title\\0,1\C,0,1.24092,-0.137598,0.241001\C
 ,0,-1.29172,-0.110925,-0.174458\H,0,2.62367,-0.916861,-0.813772\H,0,2.
 82597,0.836853,-0.610799\H,0,-2.87308,-1.0879,0.237015\N,0,2.34881,-0.
 0733432,-0.430558\N,0,0.603557,0.714122,0.987036\N,0,0.0400763,1.70407
 ,0.0519513\N,0,-0.849285,1.18191,-0.562391\N,0,-2.5398,-0.17587,-0.031
 4382\N,0,-0.6016,-1.42278,0.00834784\N,0,0.673703,-1.54824,0.0896661\\

 Normal termination of Gaussian 16 at Tue Apr  8 21:44:16 2025.
