 Gaussian 16, Revision C.01,

 ----------------------------------------------------------------------
 #t hf aug-cc-pvdz symm=none int=(grid=ultrafine) guess=(read,tcheck) s
 table=(opt,rrhf)
 ----------------------------------------------------------------------
 -----
 title
 -----
 Symbolic Z-matrix:
 Charge =  0 Multiplicity = 1

 SCF Done:  E(RHF) =  -569.268325627     A.U. after   14 cycles
 Normal termination of Gaussian 16 at Tue Apr  8 19:42:10 2025.
 Gaussian 16:  ES64L-G16RevC.01  3-Jul-2019

 ----------------------------------------------------------------------
 #t hf aug-cc-pvdz iop(5/13=1,5/36=2,99/5=2) pseudo=read geom=check gue
 ss=(read,tcheck) scf=(maxcycle=1)
 ----------------------------------------------------------------------
 -----
 title
 -----
 Structure from the checkpoint file:  "ANI1ccx_1526_conf3_mol2.chk"
 Charge =  0 Multiplicity = 1

                         Standard orientation:
 ---------------------------------------------------------------------
 Center     Atomic      Atomic             Coordinates (Angstroms)
 Number     Number       Type             X           Y           Z
 ---------------------------------------------------------------------
      1          6           0        2.096889    0.118249   -0.428390
      2          6           0        1.813429   -0.368748    1.007470
      3          6           0        0.525977   -1.268450    1.026810
      4          6           0       -0.646448   -0.696063    0.239742
      5          6           0       -1.638861   -1.361730   -0.364150
      6          6           0       -2.774591   -0.386369   -0.703342
      7          6           0       -1.090061    0.705797    0.414070
      8          1           0       -3.679031   -0.647572   -0.155125
      9          1           0       -2.941781   -0.293206   -1.790800
     10          1           0       -1.765041   -2.439910   -0.421046
     11          1           0        0.842199   -2.233030    0.554609
     12          1           0        2.653959   -0.985966    1.405660
     13          1           0        1.657439    0.557392    1.585300
     14          1           0        1.039479    1.646170    0.002696
     15          1           0        0.266245   -1.399790    2.077930
     16          8           0       -2.281121    0.826037   -0.221634
     17          8           0        1.591219    1.277520   -0.730714
     18          8           0        2.663319   -0.565612   -1.222410
     19          8           0       -0.447352    1.629530    0.873199
 ---------------------------------------------------------------------

 SCF Done:  E(RHF) =  -569.444529105     A.U. after    2 cycles

 The electronic state is 1-A.
 Alpha  occ. eigenvalues --  -20.64619 -20.60165 -20.59053 -20.53667 -11.43147
 Alpha  occ. eigenvalues --  -11.37689 -11.34634 -11.30686 -11.29144 -11.28309
 Alpha  occ. eigenvalues --  -11.26292  -1.45781  -1.41862  -1.37101  -1.31816
 Alpha  occ. eigenvalues --   -1.13678  -1.05495  -1.01421  -0.91098  -0.85493
 Alpha  occ. eigenvalues --   -0.83993  -0.80259  -0.73684  -0.73324  -0.71171
 Alpha  occ. eigenvalues --   -0.68359  -0.67399  -0.65693  -0.64918  -0.61840
 Alpha  occ. eigenvalues --   -0.61037  -0.59533  -0.56984  -0.56434  -0.53136
 Alpha  occ. eigenvalues --   -0.52470  -0.50925  -0.48447  -0.47525  -0.44132
 Alpha  occ. eigenvalues --   -0.41177
 Alpha virt. eigenvalues --    0.02025   0.03333   0.03996   0.04489   0.05460
 Alpha virt. eigenvalues --    0.05876   0.06069   0.06861   0.08305   0.09112
 Alpha virt. eigenvalues --    0.09484   0.10527   0.11284   0.11843   0.12851

 Mulliken charges:
               1
     1  C    0.694596
     2  C    0.220460
     3  C   -0.051888
     4  C   -0.090739
     5  C    0.160469
     6  C    0.988165
     7  C    0.358390
     8  H   -0.069284
     9  H   -0.009330
    10  H   -0.330716
    11  H    0.065213
    12  H   -0.030931
    13  H   -0.020018
    14  H    0.305142
    15  H    0.023117
    16  O   -0.608219
    17  O   -0.479295
    18  O   -0.513708
    19  O   -0.611424
 Sum of Mulliken charges =  -0.00000

 Dipole moment (field-independent basis, Debye):
    X=             -5.1876    Y=             -3.9028    Z=              2.8015  Tot=              7.0705

 Test job not archived.
 1\1\GINC-SE109\SP\RHF\Aug-CC-pVDZ\C7H8O4\OHZDE\08-Apr-2025\0\\#t hf au
 g-cc-pvdz iop(5/13=1,5/36=2,99/5=2) pseudo=read geom=check guess=(read
 ,tcheck) scf=(maxcycle=1)\\title\\0,1\C,0,2.09689,0.118249,-0.42839\C,
 0,1.81343,-0.368748,1.00747\C,0,0.525978,-1.26845,1.02681\C,0,-0.64644
 7,-0.696063,0.239742\C,0,-1.63886,-1.36173,-0.36415\C,0,-2.77459,-0.38
 637,-0.703342\C,0,-1.09006,0.705797,0.41407\H,0,-3.67903,-0.647573,-0.
 155125\H,0,-2.94178,-0.293207,-1.7908\H,0,-1.76504,-2.43991,-0.421046\
 H,0,0.8422,-2.23303,0.554609\H,0,2.65396,-0.985965,1.40566\H,0,1.65744

 Normal termination of Gaussian 16 at Tue Apr  8 19:42:23 2025.
