 Gaussian 16, Revision C.01,

 ----------------------------------------------------------------------
 #t hf aug-cc-pvdz symm=none int=(grid=ultrafine) guess=(read,tcheck) s
 table=(opt,rrhf)
 ----------------------------------------------------------------------
 -----
 title
 -----
 Symbolic Z-matrix:
 Charge =  0 Multiplicity = 1

 SCF Done:  E(RHF) =  -431.110113850     A.U. after   16 cycles
 Normal termination of Gaussian 16 at Tue Apr  8 21:54:00 2025.
 Gaussian 16:  ES64L-G16RevC.01  3-Jul-2019

 ----------------------------------------------------------------------
 #t hf aug-cc-pvdz iop(5/13=1,5/36=2,99/5=2) pseudo=read geom=check gue
 ss=(read,tcheck) scf=(maxcycle=1)
 ----------------------------------------------------------------------
 -----
 title
 -----
 Structure from the checkpoint file:  "ANI1ccx_844_conf1_mol1.chk"
 Charge =  0 Multiplicity = 1

                         Standard orientation:
 ---------------------------------------------------------------------
 Center     Atomic      Atomic             Coordinates (Angstroms)
 Number     Number       Type             X           Y           Z
 ---------------------------------------------------------------------
      1          6           0       -1.430391   -0.286124   -0.013844
      2          6           0        0.090380    1.288180    0.009319
      3          6           0        0.722175    0.092797   -0.122154
      4          6           0        2.103049   -0.208039   -0.045602
      5          1           0        0.393291    2.280970    0.178344
      6          7           0        3.217499   -0.390076    0.105328
      7          8           0       -2.506401   -0.802615    0.082967
      8          8           0       -1.247171    1.074450   -0.009705
      9          8           0       -0.224810   -0.880749   -0.058508
 ---------------------------------------------------------------------

 SCF Done:  E(RHF) =  -431.246607553     A.U. after    2 cycles

 The electronic state is 1-A.
 Alpha  occ. eigenvalues --  -20.70953 -20.70663 -20.60385 -15.68457 -11.50125
 Alpha  occ. eigenvalues --  -11.39890 -11.39305 -11.33150  -1.56567  -1.43992
 Alpha  occ. eigenvalues --   -1.39972  -1.24421  -1.11862  -0.97925  -0.93617
 Alpha  occ. eigenvalues --   -0.85955  -0.78707  -0.77125  -0.70464  -0.68390
 Alpha  occ. eigenvalues --   -0.66790  -0.65396  -0.59007  -0.58685  -0.54310
 Alpha  occ. eigenvalues --   -0.53467  -0.51769  -0.40029
 Alpha virt. eigenvalues --    0.02204   0.04586   0.06278   0.06585   0.07323
 Alpha virt. eigenvalues --    0.09342   0.09514   0.10431   0.11269   0.12004
 Alpha virt. eigenvalues --    0.12437   0.13268   0.13495   0.14637   0.14999

 Mulliken charges:
               1
     1  C    0.642749
     2  C    0.726562
     3  C    1.314170
     4  C   -0.859730
     5  H   -0.319070
     6  N   -0.057494
     7  O   -0.378536
     8  O   -0.472772
     9  O   -0.595880
 Sum of Mulliken charges =  -0.00000

 Dipole moment (field-independent basis, Debye):
    X=              0.7955    Y=              3.3372    Z=             -0.2509  Tot=              3.4399

 Test job not archived.
 1\1\GINC-SE229\SP\RHF\Aug-CC-pVDZ\C4H1N1O3\OHZDE\08-Apr-2025\0\\#t hf
 aug-cc-pvdz iop(5/13=1,5/36=2,99/5=2) pseudo=read geom=check guess=(re
 ad,tcheck) scf=(maxcycle=1)\\title\\0,1\C,0,-1.43039,-0.286124,-0.0138
 435\C,0,0.0903815,1.28818,0.00931945\C,0,0.722176,0.0927975,-0.122154\
 C,0,2.10305,-0.208039,-0.0456016\H,0,0.393292,2.28097,0.178344\N,0,3.2
 175,-0.390076,0.105328\O,0,-2.5064,-0.802615,0.0829674\O,0,-1.24717,1.
 07445,-0.0097048\O,0,-0.224809,-0.880749,-0.0585078\\Version=ES64L-G16
 RevC.01\State=1-A\HF=-431.2466076\RMSD=6.320e-03\Dipole=0.3129805,1.31

 Normal termination of Gaussian 16 at Tue Apr  8 21:54:04 2025.
