 Gaussian 16, Revision C.01,

 ----------------------------------------------------------------------
 #t hf aug-cc-pvdz symm=none int=(grid=ultrafine) guess=(read,tcheck) s
 table=(opt,rrhf)
 ----------------------------------------------------------------------
 -----
 title
 -----
 Symbolic Z-matrix:
 Charge =  0 Multiplicity = 1

 SCF Done:  E(RHF) =  -281.805163296     A.U. after   14 cycles
 Normal termination of Gaussian 16 at Tue Apr  8 21:11:19 2025.
 Gaussian 16:  ES64L-G16RevC.01  3-Jul-2019

 ----------------------------------------------------------------------
 #t hf aug-cc-pvdz iop(5/13=1,5/36=2,99/5=2) pseudo=read geom=check gue
 ss=(read,tcheck) scf=(maxcycle=1)
 ----------------------------------------------------------------------
 -----
 title
 -----
 Structure from the checkpoint file:  "ANI1ccx_1889_conf8_mol1.chk"
 Charge =  0 Multiplicity = 1

                         Standard orientation:
 ---------------------------------------------------------------------
 Center     Atomic      Atomic             Coordinates (Angstroms)
 Number     Number       Type             X           Y           Z
 ---------------------------------------------------------------------
      1          1           0        2.937532   -0.410717   -0.313416
      2          1           0        0.448247    0.437849   -0.230152
      3          1           0       -0.813742   -1.050270   -0.011967
      4          1           0       -2.652848    0.996645   -0.273663
      5          1           0       -1.282048    1.032250    0.778014
      6          7           0       -1.685608    0.705872   -0.107409
      7          8           0        2.329152    0.275937    0.103077
      8          8           0        1.049682   -0.306568   -0.087120
      9          8           0       -1.733568   -0.712726    0.084424
 ---------------------------------------------------------------------

 SCF Done:  E(RHF) =  -281.896823534     A.U. after    2 cycles

 The electronic state is 1-A.
 Alpha  occ. eigenvalues --  -20.65377 -20.64375 -20.60150 -15.68441  -1.44037
 Alpha  occ. eigenvalues --   -1.35225  -1.19156  -1.05821  -0.75306  -0.73834
 Alpha  occ. eigenvalues --   -0.71368  -0.66840  -0.65184  -0.62310  -0.55920
 Alpha  occ. eigenvalues --   -0.52451  -0.48857  -0.41408
 Alpha virt. eigenvalues --    0.03632   0.04287   0.05723   0.06570   0.08016
 Alpha virt. eigenvalues --    0.13789   0.14863   0.17760   0.18324   0.19141
 Alpha virt. eigenvalues --    0.20082   0.21235   0.22100   0.22305   0.23340

 Mulliken charges:
               1
     1  H    0.260715
     2  H    0.250887
     3  H    0.191741
     4  H    0.113857
     5  H    0.137170
     6  N    0.040003
     7  O   -0.277671
     8  O   -0.260068
     9  O   -0.456634
 Sum of Mulliken charges =  -0.00000

 Dipole moment (field-independent basis, Debye):
    X=              0.6901    Y=              0.9528    Z=             -0.1640  Tot=              1.1878

 Test job not archived.
 1\1\GINC-SE340\SP\RHF\Aug-CC-pVDZ\H5N1O3\OHZDE\08-Apr-2025\0\\#t hf au
 g-cc-pvdz iop(5/13=1,5/36=2,99/5=2) pseudo=read geom=check guess=(read
 ,tcheck) scf=(maxcycle=1)\\title\\0,1\H,0,2.93753,-0.410717,-0.313416\
 H,0,0.448245,0.437849,-0.230152\H,0,-0.813744,-1.05027,-0.0119664\H,0,
 -2.65285,0.996645,-0.273663\H,0,-1.28205,1.03225,0.778014\N,0,-1.68561
 ,0.705872,-0.107409\O,0,2.32915,0.275937,0.103077\O,0,1.04968,-0.30656
 8,-0.0871198\O,0,-1.73357,-0.712726,0.0844243\\Version=ES64L-G16RevC.0
 1\State=1-A\HF=-281.8968235\RMSD=2.139e-03\Dipole=0.2714907,0.3748526,

 Normal termination of Gaussian 16 at Tue Apr  8 21:11:21 2025.
