 Gaussian 16, Revision C.01,

 ----------------------------------------------------------------------
 #t hf aug-cc-pvdz symm=none int=(grid=ultrafine) guess=(read,tcheck) s
 table=(opt,rrhf)
 ----------------------------------------------------------------------
 -----
 title
 -----
 Symbolic Z-matrix:
 Charge =  0 Multiplicity = 1

 SCF Done:  E(RHF) =  -336.777071676     A.U. after   14 cycles
 Normal termination of Gaussian 16 at Tue Apr  8 21:43:48 2025.
 Gaussian 16:  ES64L-G16RevC.01  3-Jul-2019

 ----------------------------------------------------------------------
 #t hf aug-cc-pvdz iop(5/13=1,5/36=2,99/5=2) pseudo=read geom=check gue
 ss=(read,tcheck) scf=(maxcycle=1)
 ----------------------------------------------------------------------
 -----
 title
 -----
 Structure from the checkpoint file:  "ANI1ccx_515_conf6_mol1.chk"
 Charge =  0 Multiplicity = 1

                         Standard orientation:
 ---------------------------------------------------------------------
 Center     Atomic      Atomic             Coordinates (Angstroms)
 Number     Number       Type             X           Y           Z
 ---------------------------------------------------------------------
      1          6           0        0.735001   -0.206405   -0.004099
      2          6           0       -0.773399    0.254487   -0.047074
      3          1           0        2.626189    0.527831    0.094162
      4          1           0        1.301865    1.714393    0.246821
      5          1           0       -2.628067   -0.677154    0.018075
      6          1           0       -1.160414   -1.732264   -0.087281
      7          7           0        1.660488    0.780636   -0.006841
      8          7           0       -1.603917   -0.829059    0.072324
      9          8           0        1.027015   -1.402047   -0.022818
     10          8           0       -1.065164    1.429256   -0.030071
 ---------------------------------------------------------------------

 SCF Done:  E(RHF) =  -336.882141822     A.U. after    2 cycles

 The electronic state is 1-A.
 Alpha  occ. eigenvalues --  -20.57279 -20.56449 -15.66998 -15.66993 -11.39874
 Alpha  occ. eigenvalues --  -11.39363  -1.38737  -1.35868  -1.19903  -1.18714
 Alpha  occ. eigenvalues --   -0.90993  -0.79222  -0.76926  -0.72799  -0.68252
 Alpha  occ. eigenvalues --   -0.67119  -0.62906  -0.61886  -0.56663  -0.53378
 Alpha  occ. eigenvalues --   -0.44755  -0.43875  -0.42955
 Alpha virt. eigenvalues --    0.03349   0.03498   0.05476   0.06824   0.08783
 Alpha virt. eigenvalues --    0.09447   0.10817   0.12435   0.12725   0.13243
 Alpha virt. eigenvalues --    0.14576   0.16324   0.16759   0.17133   0.19210

 Mulliken charges:
               1
     1  C    0.619131
     2  C    0.600951
     3  H    0.001757
     4  H    0.095467
     5  H    0.056739
     6  H    0.079628
     7  N   -0.183809
     8  N   -0.228736
     9  O   -0.555048
    10  O   -0.486081
 Sum of Mulliken charges =   0.00000

 Dipole moment (field-independent basis, Debye):
    X=              0.0194    Y=              0.0509    Z=              0.2596  Tot=              0.2652

 Test job not archived.
 1\1\GINC-SE221\SP\RHF\Aug-CC-pVDZ\C2H4N2O2\OHZDE\08-Apr-2025\0\\#t hf
 aug-cc-pvdz iop(5/13=1,5/36=2,99/5=2) pseudo=read geom=check guess=(re
 ad,tcheck) scf=(maxcycle=1)\\title\\0,1\C,0,0.735,-0.206407,-0.0040989
 1\C,0,-0.773399,0.25449,-0.0470742\H,0,2.62619,0.527824,0.0941624\H,0,
 1.30187,1.71439,0.246821\H,0,-2.62807,-0.677145,0.0180746\H,0,-1.16042
 ,-1.73226,-0.0872811\N,0,1.66049,0.780631,-0.00684141\N,0,-1.60392,-0.
 829054,0.0723238\O,0,1.02701,-1.40205,-0.0228184\O,0,-1.06516,1.42926,
 -0.030071\\Version=ES64L-G16RevC.01\State=1-A\HF=-336.8821418\RMSD=3.3

 Normal termination of Gaussian 16 at Tue Apr  8 21:43:51 2025.
