 Gaussian 16, Revision C.01,

 ----------------------------------------------------------------------
 #t hf aug-cc-pvdz symm=none int=(grid=ultrafine) guess=(read,tcheck) s
 table=(opt,rrhf)
 ----------------------------------------------------------------------
 -----
 title
 -----
 Symbolic Z-matrix:
 Charge =  0 Multiplicity = 1

 SCF Done:  E(RHF) =  -596.215070025     A.U. after   18 cycles
 Normal termination of Gaussian 16 at Tue Apr  8 21:57:55 2025.
 Gaussian 16:  ES64L-G16RevC.01  3-Jul-2019

 ----------------------------------------------------------------------
 #t hf aug-cc-pvdz iop(5/13=1,5/36=2,99/5=2) pseudo=read geom=check gue
 ss=(read,tcheck) scf=(maxcycle=1)
 ----------------------------------------------------------------------
 -----
 title
 -----
 Structure from the checkpoint file:  "ANI1ccx_883_conf1_mol1.chk"
 Charge =  0 Multiplicity = 1

                         Standard orientation:
 ---------------------------------------------------------------------
 Center     Atomic      Atomic             Coordinates (Angstroms)
 Number     Number       Type             X           Y           Z
 ---------------------------------------------------------------------
      1          6           0        1.801610   -0.197018    0.056402
      2          6           0        0.103402    1.245469   -0.031987
      3          6           0       -0.846220    0.197587   -0.033272
      4          6           0       -0.287240   -1.125561   -0.014961
      5          1           0        3.379361   -1.350648    0.185265
      6          1           0        3.734980    0.303425    0.403584
      7          1           0        0.476780    3.017239   -0.033014
      8          1           0       -0.470756   -2.984151   -0.034480
      9          7           0        3.153040   -0.398990   -0.086376
     10          7           0        1.415049    1.079960    0.042028
     11          7           0       -2.185371    0.620843    0.012207
     12          7           0        1.046531   -1.291530   -0.018446
     13          8           0       -0.362164    2.493959   -0.036347
     14          8           0       -3.044720   -0.273507    0.058564
     15          8           0       -1.062418   -2.193042   -0.025258
 ---------------------------------------------------------------------

 SCF Done:  E(RHF) =  -596.390860571     A.U. after    2 cycles

 The electronic state is 1-A.
 Alpha  occ. eigenvalues --  -20.65568 -20.64470 -20.61169 -15.75968 -15.67142
 Alpha  occ. eigenvalues --  -15.64931 -15.64665 -11.41871 -11.40585 -11.40376
 Alpha  occ. eigenvalues --  -11.28453  -1.44012  -1.42784  -1.41664  -1.32408
 Alpha  occ. eigenvalues --   -1.19810  -1.18481  -1.10327  -0.95786  -0.92027
 Alpha  occ. eigenvalues --   -0.86999  -0.82511  -0.80814  -0.71922  -0.70876
 Alpha  occ. eigenvalues --   -0.70594  -0.68310  -0.67459  -0.64386  -0.63001
 Alpha  occ. eigenvalues --   -0.62345  -0.60579  -0.58852  -0.57730  -0.52735
 Alpha  occ. eigenvalues --   -0.46563  -0.45363  -0.42994  -0.40381  -0.36275
 Alpha virt. eigenvalues --    0.02221   0.02984   0.04010   0.05336   0.06094
 Alpha virt. eigenvalues --    0.07045   0.09293   0.10281   0.11249   0.12052
 Alpha virt. eigenvalues --    0.12524   0.12750   0.13130   0.13246   0.13555

 Mulliken charges:
               1
     1  C    0.852767
     2  C    0.535619
     3  C    0.740119
     4  C    0.834652
     5  H    0.056381
     6  H    0.065735
     7  H    0.207664
     8  H    0.227783
     9  N   -0.328973
    10  N   -0.637656
    11  N   -0.427822
    12  N   -0.622981
    13  O   -0.509305
    14  O   -0.487151
    15  O   -0.506832
 Sum of Mulliken charges =   0.00000

 Dipole moment (field-independent basis, Debye):
    X=              6.5596    Y=             -0.9416    Z=              1.0225  Tot=              6.7052

 Test job not archived.
 1\1\GINC-SE187\SP\RHF\Aug-CC-pVDZ\C4H4N4O3\OHZDE\08-Apr-2025\0\\#t hf
 aug-cc-pvdz iop(5/13=1,5/36=2,99/5=2) pseudo=read geom=check guess=(re
 ad,tcheck) scf=(maxcycle=1)\\title\\0,1\C,0,1.80161,-0.197018,0.056401
 5\C,0,0.103403,1.24547,-0.0319867\C,0,-0.84622,0.197589,-0.0332717\C,0
 ,-0.287241,-1.12556,-0.014961\H,0,3.37936,-1.35065,0.185265\H,0,3.7349
 8,0.303423,0.403584\H,0,0.476782,3.01724,-0.0330144\H,0,-0.470758,-2.9
 8415,-0.0344803\N,0,3.15304,-0.398991,-0.0863763\N,0,1.41505,1.07996,0
 .042028\N,0,-2.18537,0.620846,0.0122066\N,0,1.04653,-1.29153,-0.018446

 Normal termination of Gaussian 16 at Tue Apr  8 21:58:04 2025.
