 Gaussian 16, Revision C.01,

 ----------------------------------------------------------------------
 #t hf aug-cc-pvdz symm=none int=(grid=ultrafine) guess=(read,tcheck) s
 table=(opt,rrhf)
 ----------------------------------------------------------------------
 -----
 title
 -----
 Symbolic Z-matrix:
 Charge =  0 Multiplicity = 1

 SCF Done:  E(RHF) =  -794.416481728     A.U. after   15 cycles
 Normal termination of Gaussian 16 at Tue Apr  8 20:04:51 2025.
 Gaussian 16:  ES64L-G16RevC.01  3-Jul-2019

 ----------------------------------------------------------------------
 #t hf aug-cc-pvdz iop(5/13=1,5/36=2,99/5=2) pseudo=read geom=check gue
 ss=(read,tcheck) scf=(maxcycle=1)
 ----------------------------------------------------------------------
 -----
 title
 -----
 Structure from the checkpoint file:  "ANI1ccx_1592_conf19_mol1.chk"
 Charge =  0 Multiplicity = 1

                         Standard orientation:
 ---------------------------------------------------------------------
 Center     Atomic      Atomic             Coordinates (Angstroms)
 Number     Number       Type             X           Y           Z
 ---------------------------------------------------------------------
      1          6           0        0.533428    1.299380   -0.316470
      2          6           0       -0.815507    1.878832   -0.070904
      3          6           0        1.325711    1.000239    0.847497
      4          6           0        2.677530    0.335528    0.517445
      5          6           0        2.461148   -1.049032    0.020251
      6          6           0       -1.649401   -0.445716    0.633521
      7          6           0       -2.029662   -1.345406   -0.616838
      8          6           0       -2.348351   -0.827934    1.874490
      9          1           0       -0.247156   -1.807329   -0.654986
     10          1           0       -3.409051   -0.796053    1.732670
     11          1           0       -2.094660   -0.123503    2.622130
     12          1           0       -2.064013   -1.830966    2.132190
     13          1           0       -0.597810   -0.689188    0.525006
     14          1           0       -2.795198    1.485665    0.220489
     15          1           0        3.368216   -2.677044   -0.178975
     16          1           0        3.216521    0.833035   -0.290795
     17          1           0        3.324620    0.247156    1.411670
     18          1           0        1.561642    1.808159    1.538720
     19          1           0        0.768470    0.274365    1.460370
     20          1           0        0.357493    0.384335   -0.962630
     21          1           0        0.860056    2.446600   -1.977220
     22          1           0        1.299294    3.151289   -0.670454
     23          7           0        1.411193    2.257559   -1.111990
     24          7           0       -1.810049    1.019643    0.280408
     25          8           0       -1.019066    3.138912   -0.133912
     26          8           0        1.436698   -1.583041   -0.253400
     27          8           0        3.570447   -1.805334    0.140633
     28          8           0       -3.102352   -1.363355   -1.096350
     29          8           0       -1.096453   -2.227468   -0.959609
 ---------------------------------------------------------------------

 SCF Done:  E(RHF) =  -794.662571935     A.U. after    2 cycles

 The electronic state is 1-A.
 Alpha  occ. eigenvalues --  -20.64795 -20.61771 -20.60742 -20.55711 -20.54412
 Alpha  occ. eigenvalues --  -15.67711 -15.62456 -11.43512 -11.38839 -11.38088
 Alpha  occ. eigenvalues --  -11.32407 -11.30033 -11.28046 -11.26911 -11.25231
 Alpha  occ. eigenvalues --   -1.47613  -1.43055  -1.37255  -1.33865  -1.32780
 Alpha  occ. eigenvalues --   -1.20563  -1.18095  -1.09139  -1.06624  -1.00507
 Alpha  occ. eigenvalues --   -0.92307  -0.91089  -0.84917  -0.83108  -0.78731
 Alpha  occ. eigenvalues --   -0.76596  -0.74425  -0.74226  -0.71647  -0.70328
 Alpha  occ. eigenvalues --   -0.68544  -0.67399  -0.66862  -0.65238  -0.64646
 Alpha  occ. eigenvalues --   -0.62405  -0.61319  -0.59792  -0.59214  -0.58714
 Alpha  occ. eigenvalues --   -0.57566  -0.56823  -0.56032  -0.55248  -0.53317
 Alpha  occ. eigenvalues --   -0.52767  -0.51368  -0.50020  -0.49707  -0.45974
 Alpha  occ. eigenvalues --   -0.45115  -0.42958  -0.39917
 Alpha virt. eigenvalues --    0.02067   0.03128   0.03615   0.04197   0.05094
 Alpha virt. eigenvalues --    0.05631   0.05951   0.06358   0.06897   0.07703
 Alpha virt. eigenvalues --    0.08532   0.08850   0.09901   0.10280   0.10520

 Mulliken charges:
               1
     1  C    0.007618
     2  C    0.801167
     3  C    0.490867
     4  C    0.524206
     5  C    0.270475
     6  C   -0.338208
     7  C    0.557822
     8  C    1.003944
     9  H    0.331696
    10  H    0.016831
    11  H   -0.036473
    12  H    0.081278
    13  H   -0.281397
    14  H    0.045387
    15  H    0.153121
    16  H    0.008232
    17  H    0.059193
    18  H   -0.180167
    19  H   -0.215227
    20  H    0.045052
    21  H    0.048551
    22  H    0.102479
    23  N   -0.392792
    24  N   -0.565174
    25  O   -0.692089
    26  O   -0.460039
    27  O   -0.489281
    28  O   -0.450861
    29  O   -0.446216
 Sum of Mulliken charges =  -0.00000

 Dipole moment (field-independent basis, Debye):
    X=              4.5690    Y=             -1.5296    Z=              3.8336  Tot=              6.1573

 Test job not archived.
 1\1\GINC-SE232\SP\RHF\Aug-CC-pVDZ\C8H14N2O5\OHZDE\08-Apr-2025\0\\#t hf
  aug-cc-pvdz iop(5/13=1,5/36=2,99/5=2) pseudo=read geom=check guess=(r
 ead,tcheck) scf=(maxcycle=1)\\title\\0,1\C,0,0.533426,1.29938,-0.31647
 \C,0,-0.815509,1.87883,-0.0709041\C,0,1.32571,1.00024,0.847497\C,0,2.6
 7753,0.335531,0.517445\C,0,2.46115,-1.04903,0.0202506\C,0,-1.6494,-0.4
 45719,0.633521\C,0,-2.02966,-1.34541,-0.616838\C,0,-2.34835,-0.827938,
 1.87449\H,0,-0.247153,-1.80733,-0.654986\H,0,-3.40905,-0.796059,1.7326
 7\H,0,-2.09466,-0.123507,2.62213\H,0,-2.06401,-1.83097,2.13219\H,0,-0.

 Normal termination of Gaussian 16 at Tue Apr  8 20:05:27 2025.
