 Gaussian 16, Revision C.01,

 ----------------------------------------------------------------------
 #t hf aug-cc-pvdz symm=none int=(grid=ultrafine) guess=(read,tcheck) s
 table=(opt,rrhf)
 ----------------------------------------------------------------------
 -----
 title
 -----
 Symbolic Z-matrix:
 Charge =  0 Multiplicity = 1

 SCF Done:  E(RHF) =  -241.010599069     A.U. after   14 cycles
 Normal termination of Gaussian 16 at Tue Apr  8 21:11:19 2025.
 Gaussian 16:  ES64L-G16RevC.01  3-Jul-2019

 ----------------------------------------------------------------------
 #t hf aug-cc-pvdz iop(5/13=1,5/36=2,99/5=2) pseudo=read geom=check gue
 ss=(read,tcheck) scf=(maxcycle=1)
 ----------------------------------------------------------------------
 -----
 title
 -----
 Structure from the checkpoint file:  "ANI1ccx_1892_conf13_mol1.chk"
 Charge =  0 Multiplicity = 1

                         Standard orientation:
 ---------------------------------------------------------------------
 Center     Atomic      Atomic             Coordinates (Angstroms)
 Number     Number       Type             X           Y           Z
 ---------------------------------------------------------------------
      1          1           0        1.666288   -0.962948    0.831836
      2          1           0        3.083458    0.675181    0.590814
      3          1           0        3.154128   -0.361557   -0.703212
      4          1           0       -1.886812    1.291979   -0.253158
      5          1           0       -1.308512   -0.857794   -0.503872
      6          7           0        2.590308    0.344861   -0.228927
      7          7           0       -2.566992    0.580677    0.129889
      8          7           0       -2.293702   -0.577203   -0.129107
      9          8           0        1.398018   -0.277902    0.204326
 ---------------------------------------------------------------------

 SCF Done:  E(RHF) =  -241.083819773     A.U. after    2 cycles

 The electronic state is 1-A.
 Alpha  occ. eigenvalues --  -20.62348 -15.69010 -15.68848 -15.68576  -1.37889
 Alpha  occ. eigenvalues --   -1.30443  -1.06690  -0.87874  -0.74602  -0.73383
 Alpha  occ. eigenvalues --   -0.71550  -0.61268  -0.55906  -0.51890  -0.50875
 Alpha  occ. eigenvalues --   -0.43800  -0.36627
 Alpha virt. eigenvalues --    0.02513   0.04322   0.04599   0.05633   0.06927
 Alpha virt. eigenvalues --    0.11843   0.12978   0.13788   0.16083   0.17277
 Alpha virt. eigenvalues --    0.18309   0.19043   0.19599   0.20034   0.21167

 Mulliken charges:
               1
     1  H    0.153216
     2  H    0.075431
     3  H    0.095338
     4  H    0.063139
     5  H    0.100941
     6  N    0.122674
     7  N   -0.047156
     8  N   -0.107496
     9  O   -0.456087
 Sum of Mulliken charges =  -0.00000

 Dipole moment (field-independent basis, Debye):
    X=              5.2758    Y=             -0.8981    Z=              0.3756  Tot=              5.3648

 Test job not archived.
 1\1\GINC-SE458\SP\RHF\Aug-CC-pVDZ\H5N3O1\OHZDE\08-Apr-2025\0\\#t hf au
 g-cc-pvdz iop(5/13=1,5/36=2,99/5=2) pseudo=read geom=check guess=(read
 ,tcheck) scf=(maxcycle=1)\\title\\0,1\H,0,1.66629,-0.962948,0.831836\H
 ,0,3.08346,0.67518,0.590814\H,0,3.15413,-0.361558,-0.703212\H,0,-1.886
 81,1.29198,-0.253158\H,0,-1.30851,-0.857794,-0.503872\N,0,2.59031,0.34
 4861,-0.228927\N,0,-2.56699,0.580678,0.129889\N,0,-2.2937,-0.577202,-0
 .129107\O,0,1.39802,-0.277902,0.204326\\Version=ES64L-G16RevC.01\State
 =1-A\HF=-241.0838198\RMSD=1.993e-03\Dipole=2.0756426,-0.353346,0.14775

 Normal termination of Gaussian 16 at Tue Apr  8 21:11:21 2025.
