 Gaussian 16, Revision C.01,

 ----------------------------------------------------------------------
 #t hf aug-cc-pvdz symm=none int=(grid=ultrafine) guess=(read,tcheck) s
 table=(opt,rrhf)
 ----------------------------------------------------------------------
 -----
 title
 -----
 Symbolic Z-matrix:
 Charge =  0 Multiplicity = 1

 SCF Done:  E(RHF) =  -532.289428428     A.U. after   11 cycles
 Normal termination of Gaussian 16 at Tue Apr  8 21:09:11 2025.
 Gaussian 16:  ES64L-G16RevC.01  3-Jul-2019

 ----------------------------------------------------------------------
 #t hf aug-cc-pvdz iop(5/13=1,5/36=2,99/5=2) pseudo=read geom=check gue
 ss=(read,tcheck) scf=(maxcycle=1)
 ----------------------------------------------------------------------
 -----
 title
 -----
 Structure from the checkpoint file:  "ANI1ccx_1845_conf207_mol1.chk"
 Charge =  0 Multiplicity = 1

                         Standard orientation:
 ---------------------------------------------------------------------
 Center     Atomic      Atomic             Coordinates (Angstroms)
 Number     Number       Type             X           Y           Z
 ---------------------------------------------------------------------
      1          1           0        3.782450   -1.295541   -0.739737
      2          1           0        1.125240    1.341469    0.098631
      3          1           0        0.233569    0.226332   -0.706888
      4          1           0        3.146330    0.670817    0.139326
      5          1           0        2.932050    1.979929    1.167130
      6          1           0        2.159860   -1.238781   -0.508549
      7          1           0        0.030387   -2.284871   -1.477600
      8          1           0       -0.395288   -0.059664    1.451630
      9          1           0       -0.148082   -1.452701   -0.067477
     10          1           0       -2.266040    1.936869   -1.535670
     11          1           0       -1.489000    1.766929   -0.181592
     12          1           0       -3.144350    0.139095   -0.256143
     13          1           0       -4.039950   -0.751843    0.488590
     14          1           0       -1.766240   -0.626212    1.112560
     15          8           0        3.047860   -1.010061   -0.111647
     16          8           0       -0.868733   -0.929204    1.404810
     17          8           0        2.816240    1.585439    0.263047
     18          8           0       -2.452260    1.683349   -0.548639
     19          8           0        0.212292    1.020199   -0.046381
     20          8           0        0.396876   -1.602771   -0.883061
     21          8           0       -3.172390   -0.790931    0.048844
 ---------------------------------------------------------------------

 SCF Done:  E(RHF) =  -532.463775100     A.U. after    2 cycles

 The electronic state is 1-A.
 Alpha  occ. eigenvalues --  -20.59006 -20.58774 -20.58497 -20.56923 -20.56876
 Alpha  occ. eigenvalues --  -20.56107 -20.54976  -1.32234  -1.31145  -1.30715
 Alpha  occ. eigenvalues --   -1.29460  -1.28651  -1.27947  -1.26852  -0.76692
 Alpha  occ. eigenvalues --   -0.74778  -0.73520  -0.72003  -0.71752  -0.69812
 Alpha  occ. eigenvalues --   -0.69124  -0.63310  -0.62262  -0.60190  -0.59853
 Alpha  occ. eigenvalues --   -0.59131  -0.57758  -0.55736  -0.53519  -0.52790
 Alpha  occ. eigenvalues --   -0.52578  -0.51981  -0.51502  -0.50945  -0.49112
 Alpha virt. eigenvalues --    0.02833   0.04101   0.04577   0.05342   0.05551
 Alpha virt. eigenvalues --    0.07313   0.08268   0.08504   0.08935   0.09328
 Alpha virt. eigenvalues --    0.10467   0.10997   0.11719   0.12543   0.17469

 Mulliken charges:
               1
     1  H    0.227233
     2  H    0.308812
     3  H    0.385238
     4  H    0.269132
     5  H    0.203132
     6  H    0.250943
     7  H    0.233739
     8  H    0.286380
     9  H    0.345872
    10  H    0.252688
    11  H    0.320981
    12  H    0.267869
    13  H    0.185745
    14  H    0.261277
    15  O   -0.459871
    16  O   -0.540424
    17  O   -0.470933
    18  O   -0.561928
    19  O   -0.740518
    20  O   -0.585727
    21  O   -0.439640
 Sum of Mulliken charges =  -0.00000

 Dipole moment (field-independent basis, Debye):
    X=              0.6483    Y=              0.3375    Z=             -2.3264  Tot=              2.4385

 Test job not archived.
 1\1\GINC-SE087\SP\RHF\Aug-CC-pVDZ\H14O7\OHZDE\08-Apr-2025\0\\#t hf aug
 -cc-pvdz iop(5/13=1,5/36=2,99/5=2) pseudo=read geom=check guess=(read,
 tcheck) scf=(maxcycle=1)\\title\\0,1\H,0,3.78245,-1.29554,-0.739737\H,
 0,1.12524,1.34147,0.0986307\H,0,0.233569,0.226333,-0.706888\H,0,3.1463
 3,0.670818,0.139326\H,0,2.93205,1.97993,1.16713\H,0,2.15986,-1.23878,-
 0.508549\H,0,0.030387,-2.28487,-1.4776\H,0,-0.395288,-0.0596636,1.4516
 3\H,0,-0.148082,-1.4527,-0.0674773\H,0,-2.26604,1.93687,-1.53567\H,0,-
 1.489,1.76693,-0.181592\H,0,-3.14435,0.139096,-0.256143\H,0,-4.03995,-

 Normal termination of Gaussian 16 at Tue Apr  8 21:09:19 2025.
