 Gaussian 16, Revision C.01,

 ----------------------------------------------------------------------
 #t hf aug-cc-pvdz symm=none int=(grid=ultrafine) guess=(read,tcheck) s
 table=(opt,rrhf)
 ----------------------------------------------------------------------
 -----
 title
 -----
 Symbolic Z-matrix:
 Charge =  0 Multiplicity = 1

 SCF Done:  E(RHF) =  -532.259453238     A.U. after   11 cycles
 Normal termination of Gaussian 16 at Tue Apr  8 21:09:09 2025.
 Gaussian 16:  ES64L-G16RevC.01  3-Jul-2019

 ----------------------------------------------------------------------
 #t hf aug-cc-pvdz iop(5/13=1,5/36=2,99/5=2) pseudo=read geom=check gue
 ss=(read,tcheck) scf=(maxcycle=1)
 ----------------------------------------------------------------------
 -----
 title
 -----
 Structure from the checkpoint file:  "ANI1ccx_1845_conf463_mol1.chk"
 Charge =  0 Multiplicity = 1

                         Standard orientation:
 ---------------------------------------------------------------------
 Center     Atomic      Atomic             Coordinates (Angstroms)
 Number     Number       Type             X           Y           Z
 ---------------------------------------------------------------------
      1          1           0       -1.246009   -2.781811    0.817250
      2          1           0        1.644761   -2.603169   -0.855264
      3          1           0        0.319337   -1.745160   -0.327449
      4          1           0       -2.988251    0.227657    0.015195
      5          1           0       -3.902360   -0.868749   -0.658695
      6          1           0       -2.053260   -1.663261    0.070249
      7          1           0       -1.356922    1.979419   -0.054075
      8          1           0        2.758778    0.940092   -0.017627
      9          1           0       -2.162043    2.200059    1.272230
     10          1           0        2.590340   -1.082568    0.667925
     11          1           0        3.008849   -0.255276    2.030030
     12          1           0        0.071825    3.444820   -0.612471
     13          1           0        1.040137    2.090401   -0.543627
     14          1           0        1.986729   -0.139117   -1.021570
     15          8           0       -1.258179   -2.317391   -0.021110
     16          8           0        2.215518    0.799305   -0.907616
     17          8           0       -3.411601   -0.728695    0.094142
     18          8           0        3.203319   -0.443267    1.054700
     19          8           0        1.299740   -1.681689   -0.548862
     20          8           0       -2.293412    1.791839    0.277809
     21          8           0        0.280626    2.611980   -0.046823
 ---------------------------------------------------------------------

 SCF Done:  E(RHF) =  -532.433639844     A.U. after    2 cycles

 The electronic state is 1-A.
 Alpha  occ. eigenvalues --  -20.58815 -20.58768 -20.58096 -20.57599 -20.57420
 Alpha  occ. eigenvalues --  -20.57229 -20.53708  -1.32123  -1.31002  -1.29835
 Alpha  occ. eigenvalues --   -1.28865  -1.28611  -1.27093  -1.24895  -0.74644
 Alpha  occ. eigenvalues --   -0.74487  -0.72801  -0.72258  -0.71138  -0.69271
 Alpha  occ. eigenvalues --   -0.68149  -0.63919  -0.62283  -0.61063  -0.59157
 Alpha  occ. eigenvalues --   -0.58001  -0.56971  -0.54865  -0.53283  -0.52563
 Alpha  occ. eigenvalues --   -0.52357  -0.51950  -0.51485  -0.49635  -0.48518
 Alpha virt. eigenvalues --    0.02702   0.04043   0.04640   0.05122   0.05771
 Alpha virt. eigenvalues --    0.06177   0.07911   0.08563   0.08804   0.09462
 Alpha virt. eigenvalues --    0.10177   0.10431   0.11175   0.11896   0.16005

 Mulliken charges:
               1
     1  H    0.152866
     2  H    0.258176
     3  H    0.371762
     4  H    0.350469
     5  H    0.098592
     6  H    0.351412
     7  H    0.278820
     8  H    0.361989
     9  H    0.288377
    10  H    0.222496
    11  H    0.224980
    12  H    0.246421
    13  H    0.322796
    14  H    0.237154
    15  O   -0.496925
    16  O   -0.606521
    17  O   -0.457476
    18  O   -0.428589
    19  O   -0.644313
    20  O   -0.579743
    21  O   -0.552744
 Sum of Mulliken charges =  -0.00000

 Dipole moment (field-independent basis, Debye):
    X=             -1.0928    Y=             -0.8399    Z=              1.7193  Tot=              2.2036

 Test job not archived.
 1\1\GINC-SE078\SP\RHF\Aug-CC-pVDZ\H14O7\OHZDE\08-Apr-2025\0\\#t hf aug
 -cc-pvdz iop(5/13=1,5/36=2,99/5=2) pseudo=read geom=check guess=(read,
 tcheck) scf=(maxcycle=1)\\title\\0,1\H,0,-1.24601,-2.78181,0.81725\H,0
 ,1.64476,-2.60317,-0.855264\H,0,0.319337,-1.74516,-0.327449\H,0,-2.988
 25,0.227659,0.0151952\H,0,-3.90236,-0.868747,-0.658695\H,0,-2.05326,-1
 .66326,0.0702496\H,0,-1.35692,1.97942,-0.0540745\H,0,2.75878,0.94009,-
 0.0176266\H,0,-2.16204,2.20006,1.27223\H,0,2.59034,-1.08257,0.667925\H
 ,0,3.00885,-0.255278,2.03003\H,0,0.0718285,3.44482,-0.612471\H,0,1.040

 Normal termination of Gaussian 16 at Tue Apr  8 21:09:16 2025.
