 Gaussian 16, Revision C.01,

 ----------------------------------------------------------------------
 #t hf aug-cc-pvdz symm=none int=(grid=ultrafine) guess=(read,tcheck) s
 table=(opt,rrhf)
 ----------------------------------------------------------------------
 -----
 title
 -----
 Symbolic Z-matrix:
 Charge =  0 Multiplicity = 1

 SCF Done:  E(RHF) =  -485.845424968     A.U. after   14 cycles
 Normal termination of Gaussian 16 at Tue Apr  8 21:52:46 2025.
 Gaussian 16:  ES64L-G16RevC.01  3-Jul-2019

 ----------------------------------------------------------------------
 #t hf aug-cc-pvdz iop(5/13=1,5/36=2,99/5=2) pseudo=read geom=check gue
 ss=(read,tcheck) scf=(maxcycle=1)
 ----------------------------------------------------------------------
 -----
 title
 -----
 Structure from the checkpoint file:  "ANI1ccx_768_conf2_mol2.chk"
 Charge =  0 Multiplicity = 1

                         Standard orientation:
 ---------------------------------------------------------------------
 Center     Atomic      Atomic             Coordinates (Angstroms)
 Number     Number       Type             X           Y           Z
 ---------------------------------------------------------------------
      1          6           0       -1.906320    0.057854    0.014405
      2          6           0        1.431450   -0.856182    0.681243
      3          6           0        2.152010    0.227739   -0.096267
      4          1           0        0.556192    1.235999    0.098789
      5          1           0        1.978530   -1.784031    0.552187
      6          1           0       -0.327181   -1.854911    0.702847
      7          1           0        1.460510   -0.612502    1.752770
      8          1           0       -2.382740    1.777089    0.879731
      9          1           0       -1.588410   -1.404831   -1.317840
     10          1           0       -3.205640   -0.810383   -1.327970
     11          1           0       -3.360470    1.402339   -0.427856
     12          7           0       -2.333920   -0.927170   -0.819137
     13          7           0       -2.829290    1.022469    0.349660
     14          7           0       -0.742838    0.075048    0.572500
     15          7           0        0.050480   -1.044761    0.196883
     16          8           0        1.454740    1.358859   -0.306085
     17          8           0        3.269680    0.090598   -0.519950
 ---------------------------------------------------------------------

 SCF Done:  E(RHF) =  -485.993628418     A.U. after    2 cycles

 The electronic state is 1-A.
 Alpha  occ. eigenvalues --  -20.59242 -20.53925 -15.67090 -15.66797 -15.66612
 Alpha  occ. eigenvalues --  -15.63761 -11.38753 -11.37795 -11.28270  -1.39544
 Alpha  occ. eigenvalues --   -1.32121  -1.30436  -1.22771  -1.16600  -1.07874
 Alpha  occ. eigenvalues --   -0.94232  -0.82680  -0.81145  -0.76153  -0.74963
 Alpha  occ. eigenvalues --   -0.70498  -0.67735  -0.66966  -0.65035  -0.64113
 Alpha  occ. eigenvalues --   -0.60604  -0.59017  -0.57248  -0.54835  -0.51548
 Alpha  occ. eigenvalues --   -0.47284  -0.45406  -0.44413  -0.42552  -0.34476
 Alpha virt. eigenvalues --    0.01567   0.02639   0.03502   0.05157   0.06193
 Alpha virt. eigenvalues --    0.06450   0.07697   0.08414   0.10740   0.11441
 Alpha virt. eigenvalues --    0.12785   0.12954   0.13530   0.13722   0.14510

 Mulliken charges:
               1
     1  C    1.037983
     2  C    0.770292
     3  C    0.522457
     4  H    0.295783
     5  H   -0.216721
     6  H    0.071540
     7  H   -0.004380
     8  H    0.076936
     9  H    0.071114
    10  H   -0.013745
    11  H   -0.001013
    12  N   -0.214397
    13  N   -0.344876
    14  N   -0.443302
    15  N   -0.653821
    16  O   -0.505223
    17  O   -0.448626
 Sum of Mulliken charges =  -0.00000

 Dipole moment (field-independent basis, Debye):
    X=             -7.5432    Y=             -1.4140    Z=              0.2798  Tot=              7.6797

 Test job not archived.
 1\1\GINC-SE334\SP\RHF\Aug-CC-pVDZ\C3H8N4O2\OHZDE\08-Apr-2025\0\\#t hf
 aug-cc-pvdz iop(5/13=1,5/36=2,99/5=2) pseudo=read geom=check guess=(re
 ad,tcheck) scf=(maxcycle=1)\\title\\0,1\C,0,-1.90632,0.0578546,0.01440
 51\C,0,1.43145,-0.856181,0.681243\C,0,2.15201,0.22774,-0.0962672\H,0,0
 .556192,1.236,0.0987895\H,0,1.97853,-1.78403,0.552187\H,0,-0.327181,-1
 .85491,0.702847\H,0,1.46051,-0.612501,1.75277\H,0,-2.38274,1.77709,0.8
 79731\H,0,-1.58841,-1.40483,-1.31784\H,0,-3.20564,-0.810382,-1.32797\H
 ,0,-3.36047,1.40234,-0.427856\N,0,-2.33392,-0.927169,-0.819137\N,0,-2.

 Normal termination of Gaussian 16 at Tue Apr  8 21:52:53 2025.
