 Gaussian 16, Revision C.01,

 ----------------------------------------------------------------------
 #t hf aug-cc-pvdz symm=none int=(grid=ultrafine) guess=(read,tcheck) s
 table=(opt,rrhf)
 ----------------------------------------------------------------------
 -----
 title
 -----
 Symbolic Z-matrix:
 Charge =  0 Multiplicity = 1

 SCF Done:  E(RHF) =  -603.574787557     A.U. after   15 cycles
 Normal termination of Gaussian 16 at Tue Apr  8 22:17:53 2025.
 Gaussian 16:  ES64L-G16RevC.01  3-Jul-2019

 ----------------------------------------------------------------------
 #t hf aug-cc-pvdz iop(5/13=1,5/36=2,99/5=2) pseudo=read geom=check gue
 ss=(read,tcheck) scf=(maxcycle=1)
 ----------------------------------------------------------------------
 -----
 title
 -----
 Structure from the checkpoint file:  "ANI1ccx_999_conf7_mol1.chk"
 Charge =  0 Multiplicity = 1

                         Standard orientation:
 ---------------------------------------------------------------------
 Center     Atomic      Atomic             Coordinates (Angstroms)
 Number     Number       Type             X           Y           Z
 ---------------------------------------------------------------------
      1          6           0       -1.845812   -1.036167    0.356615
      2          6           0       -1.427211    0.219741   -0.568367
      3          6           0        1.195949    0.316940   -0.387717
      4          6           0        1.671668   -1.092361    0.020659
      5          6           0        1.411400    1.327179    0.726795
      6          1           0        0.672989   -1.651080   -1.469570
      7          1           0        0.188149    2.673460   -0.011154
      8          1           0        0.795139    1.150490    1.623370
      9          1           0        2.465300    1.389448    0.970568
     10          1           0        1.897099    0.551220   -1.227430
     11          1           0       -2.123373   -1.859857   -0.330771
     12          1           0       -1.001033   -1.421368    1.022090
     13          1           0       -3.845742   -0.414510    0.618218
     14          1           0       -2.808801    0.049951    1.812670
     15          1           0       -0.160468    0.810235   -1.888480
     16          7           0       -3.081882   -0.732863    1.198080
     17          7           0       -0.115317    0.241632   -0.992603
     18          8           0        1.093152    2.675609    0.297259
     19          8           0       -2.243390    1.078483   -0.820227
     20          8           0        2.571938   -1.204142    0.815634
     21          8           0        1.111447   -2.081371   -0.723385
 ---------------------------------------------------------------------

 SCF Done:  E(RHF) =  -603.758863734     A.U. after    2 cycles

 The electronic state is 1-A.
 Alpha  occ. eigenvalues --  -20.64709 -20.59155 -20.59086 -20.58927 -15.68882
 Alpha  occ. eigenvalues --  -15.62915 -11.42597 -11.40826 -11.34450 -11.32056
 Alpha  occ. eigenvalues --  -11.31363  -1.44056  -1.39647  -1.35965  -1.33829
 Alpha  occ. eigenvalues --   -1.24079  -1.14548  -1.05944  -0.94989  -0.91991
 Alpha  occ. eigenvalues --   -0.86120  -0.80810  -0.75815  -0.74761  -0.73148
 Alpha  occ. eigenvalues --   -0.69816  -0.69231  -0.68296  -0.67033  -0.65441
 Alpha  occ. eigenvalues --   -0.63240  -0.61086  -0.59234  -0.58938  -0.56625
 Alpha  occ. eigenvalues --   -0.55231  -0.54144  -0.52279  -0.49866  -0.49304
 Alpha  occ. eigenvalues --   -0.48228  -0.44058  -0.40699
 Alpha virt. eigenvalues --    0.01862   0.03644   0.03788   0.04550   0.05707
 Alpha virt. eigenvalues --    0.05817   0.06859   0.07171   0.08195   0.08817
 Alpha virt. eigenvalues --    0.09901   0.10556   0.10983   0.11921   0.12252

 Mulliken charges:
               1
     1  C    0.568087
     2  C    0.373371
     3  C   -0.469694
     4  C    0.805131
     5  C    1.251768
     6  H    0.262587
     7  H    0.149217
     8  H   -0.088452
     9  H   -0.110466
    10  H    0.045302
    11  H   -0.012169
    12  H   -0.052375
    13  H    0.043065
    14  H    0.060610
    15  H    0.108474
    16  N   -0.455563
    17  N   -0.464145
    18  O   -0.558297
    19  O   -0.490787
    20  O   -0.467885
    21  O   -0.497779
 Sum of Mulliken charges =  -0.00000

 Dipole moment (field-independent basis, Debye):
    X=             -0.7113    Y=              0.2452    Z=             -2.9366  Tot=              3.0314

 Test job not archived.
 1\1\GINC-SE179\SP\RHF\Aug-CC-pVDZ\C5H10N2O4\OHZDE\08-Apr-2025\0\\#t hf
  aug-cc-pvdz iop(5/13=1,5/36=2,99/5=2) pseudo=read geom=check guess=(r
 ead,tcheck) scf=(maxcycle=1)\\title\\0,1\C,0,-1.84581,-1.03617,0.35661
 5\C,0,-1.42721,0.219739,-0.568367\C,0,1.19595,0.316941,-0.387717\C,0,1
 .67167,-1.09236,0.0206595\C,0,1.4114,1.32718,0.726795\H,0,0.672992,-1.
 65108,-1.46957\H,0,0.188147,2.67346,-0.0111536\H,0,0.795139,1.15049,1.
 62337\H,0,2.4653,1.38945,0.970568\H,0,1.8971,0.551221,-1.22743\H,0,-2.
 12337,-1.85986,-0.330771\H,0,-1.00103,-1.42137,1.02209\H,0,-3.84574,-0

 Normal termination of Gaussian 16 at Tue Apr  8 22:18:07 2025.
