 Gaussian 16, Revision C.01,

 ----------------------------------------------------------------------
 #t hf aug-cc-pvdz symm=none int=(grid=ultrafine) guess=(read,tcheck) s
 table=(opt,rrhf)
 ----------------------------------------------------------------------
 -----
 title
 -----
 Symbolic Z-matrix:
 Charge =  0 Multiplicity = 1

 SCF Done:  E(RHF) =  -526.451194376     A.U. after   14 cycles
 Normal termination of Gaussian 16 at Tue Apr  8 21:52:47 2025.
 Gaussian 16:  ES64L-G16RevC.01  3-Jul-2019

 ----------------------------------------------------------------------
 #t hf aug-cc-pvdz iop(5/13=1,5/36=2,99/5=2) pseudo=read geom=check gue
 ss=(read,tcheck) scf=(maxcycle=1)
 ----------------------------------------------------------------------
 -----
 title
 -----
 Structure from the checkpoint file:  "ANI1ccx_765_conf1_mol1.chk"
 Charge =  0 Multiplicity = 1

                         Standard orientation:
 ---------------------------------------------------------------------
 Center     Atomic      Atomic             Coordinates (Angstroms)
 Number     Number       Type             X           Y           Z
 ---------------------------------------------------------------------
      1          6           0       -1.393638   -1.279432    0.073444
      2          6           0        0.068891   -0.877687   -0.156968
      3          6           0        0.504872    0.571346   -0.122293
      4          1           0        3.478180    0.262028    0.063639
      5          1           0        0.213631    2.427190    0.218876
      6          1           0        1.765972   -1.126309    0.737782
      7          1           0       -2.054691    1.135757    0.232030
      8          1           0       -3.088599   -1.021374   -1.194450
      9          1           0       -1.696578   -1.416112    1.147000
     10          1           0       -1.362787   -2.302892   -0.488167
     11          1           0        0.377291   -1.289470   -1.257350
     12          7           0       -0.419888    1.691239   -0.147330
     13          7           0        1.719060    0.834884   -0.244969
     14          8           0       -2.328819   -0.336101   -0.739741
     15          8           0        0.840949   -1.565640    0.880049
     16          8           0       -1.418991    1.402668    0.862194
     17          8           0        2.680941   -0.105558   -0.437297
 ---------------------------------------------------------------------

 SCF Done:  E(RHF) =  -526.604812965     A.U. after    2 cycles

 The electronic state is 1-A.
 Alpha  occ. eigenvalues --  -20.65148 -20.61472 -20.59840 -20.58296 -15.69916
 Alpha  occ. eigenvalues --  -15.68027 -11.33485 -11.33375 -11.33000  -1.42143
 Alpha  occ. eigenvalues --   -1.37308  -1.31130  -1.28270  -1.19523  -1.05358
 Alpha  occ. eigenvalues --   -1.00588  -0.87124  -0.78711  -0.74352  -0.73727
 Alpha  occ. eigenvalues --   -0.70909  -0.68546  -0.67210  -0.65553  -0.63099
 Alpha  occ. eigenvalues --   -0.62255  -0.59801  -0.57223  -0.56333  -0.52916
 Alpha  occ. eigenvalues --   -0.51803  -0.50189  -0.48466  -0.46221  -0.41485
 Alpha  occ. eigenvalues --   -0.38736
 Alpha virt. eigenvalues --    0.02796   0.03222   0.04792   0.05277   0.05939
 Alpha virt. eigenvalues --    0.06695   0.07436   0.08771   0.11090   0.11885
 Alpha virt. eigenvalues --    0.12389   0.13295   0.13675   0.14871   0.15733

 Mulliken charges:
               1
     1  C    0.684880
     2  C   -0.106801
     3  C    0.818652
     4  H    0.278099
     5  H    0.130412
     6  H    0.284930
     7  H    0.274701
     8  H    0.333112
     9  H    0.110923
    10  H    0.149737
    11  H    0.189503
    12  N   -0.362503
    13  N   -0.231395
    14  O   -0.819502
    15  O   -0.656264
    16  O   -0.452393
    17  O   -0.626092
 Sum of Mulliken charges =  -0.00000

 Dipole moment (field-independent basis, Debye):
    X=              0.2075    Y=             -1.4549    Z=             -0.8687  Tot=              1.7072

 Test job not archived.
 1\1\GINC-SE339\SP\RHF\Aug-CC-pVDZ\C3H8N2O4\OHZDE\08-Apr-2025\0\\#t hf
 aug-cc-pvdz iop(5/13=1,5/36=2,99/5=2) pseudo=read geom=check guess=(re
 ad,tcheck) scf=(maxcycle=1)\\title\\0,1\C,0,-1.39364,-1.27943,0.073443
 7\C,0,0.06889,-0.877687,-0.156968\C,0,0.504872,0.571346,-0.122293\H,0,
 3.47818,0.262025,0.0636394\H,0,0.213633,2.42719,0.218876\H,0,1.76597,-
 1.12631,0.737782\H,0,-2.05469,1.13576,0.23203\H,0,-3.0886,-1.02137,-1.
 19445\H,0,-1.69658,-1.41611,1.147\H,0,-1.36279,-2.30289,-0.488167\H,0,
 0.377289,-1.28947,-1.25735\N,0,-0.419887,1.69124,-0.14733\N,0,1.71906,

 Normal termination of Gaussian 16 at Tue Apr  8 21:52:55 2025.
