 Gaussian 16, Revision C.01,

 ----------------------------------------------------------------------
 #t hf aug-cc-pvdz symm=none int=(grid=ultrafine) guess=(read,tcheck) s
 table=(opt,rrhf)
 ----------------------------------------------------------------------
 -----
 title
 -----
 Symbolic Z-matrix:
 Charge =  0 Multiplicity = 1

 SCF Done:  E(RHF) =  -466.626747633     A.U. after   13 cycles
 Normal termination of Gaussian 16 at Tue Apr  8 21:45:07 2025.
 Gaussian 16:  ES64L-G16RevC.01  3-Jul-2019

 ----------------------------------------------------------------------
 #t hf aug-cc-pvdz iop(5/13=1,5/36=2,99/5=2) pseudo=read geom=check gue
 ss=(read,tcheck) scf=(maxcycle=1)
 ----------------------------------------------------------------------
 -----
 title
 -----
 Structure from the checkpoint file:  "ANI1ccx_540_conf3_mol1.chk"
 Charge =  0 Multiplicity = 1

                         Standard orientation:
 ---------------------------------------------------------------------
 Center     Atomic      Atomic             Coordinates (Angstroms)
 Number     Number       Type             X           Y           Z
 ---------------------------------------------------------------------
      1          6           0        1.648260   -0.010284    0.006038
      2          6           0       -0.758831   -0.559987    0.010091
      3          1           0        2.320590    1.834620   -0.242880
      4          1           0        0.623889    1.699811   -0.498239
      5          1           0        0.982028   -1.804659   -0.161068
      6          1           0       -0.776441    1.211661    0.848059
      7          1           0       -2.855970   -0.124001    0.173608
      8          7           0        1.476450    1.366871   -0.076079
      9          7           0        0.562181   -0.838687   -0.014188
     10          7           0       -1.153470    0.765273    0.013074
     11          8           0        2.767250   -0.496935    0.107105
     12          8           0       -1.642060   -1.391439   -0.082850
     13          8           0       -2.603540    0.832123    0.016257
 ---------------------------------------------------------------------

 SCF Done:  E(RHF) =  -466.771973328     A.U. after    2 cycles

 The electronic state is 1-A.
 Alpha  occ. eigenvalues --  -20.63345 -20.58421 -20.56246 -15.73290 -15.71617
 Alpha  occ. eigenvalues --  -15.67125 -11.44436 -11.43414  -1.44293  -1.39557
 Alpha  occ. eigenvalues --   -1.35221  -1.26515  -1.19730  -1.14241  -0.92572
 Alpha  occ. eigenvalues --   -0.84962  -0.80242  -0.77279  -0.74114  -0.70579
 Alpha  occ. eigenvalues --   -0.68504  -0.66508  -0.64719  -0.61796  -0.59548
 Alpha  occ. eigenvalues --   -0.56856  -0.52677  -0.49187  -0.47013  -0.45811
 Alpha  occ. eigenvalues --   -0.44785
 Alpha virt. eigenvalues --    0.02795   0.03913   0.04300   0.05084   0.06779
 Alpha virt. eigenvalues --    0.09944   0.10592   0.10669   0.12286   0.12714
 Alpha virt. eigenvalues --    0.13954   0.14325   0.14789   0.15329   0.16178

 Mulliken charges:
               1
     1  C    0.752700
     2  C    0.777650
     3  H   -0.059688
     4  H    0.092451
     5  H    0.089320
     6  H    0.203480
     7  H    0.233667
     8  N   -0.112381
     9  N   -0.376404
    10  N   -0.099754
    11  O   -0.497786
    12  O   -0.499498
    13  O   -0.503756
 Sum of Mulliken charges =  -0.00000

 Dipole moment (field-independent basis, Debye):
    X=              0.2902    Y=              2.0045    Z=              0.2815  Tot=              2.0449

 Test job not archived.
 1\1\GINC-SE338\SP\RHF\Aug-CC-pVDZ\C2H5N3O3\OHZDE\08-Apr-2025\0\\#t hf
 aug-cc-pvdz iop(5/13=1,5/36=2,99/5=2) pseudo=read geom=check guess=(re
 ad,tcheck) scf=(maxcycle=1)\\title\\0,1\C,0,1.64826,-0.0102845,0.00603
 759\C,0,-0.758831,-0.559988,0.0100912\H,0,2.32059,1.83462,-0.24288\H,0
 ,0.623889,1.69981,-0.498239\H,0,0.982028,-1.80466,-0.161068\H,0,-0.776
 441,1.21166,0.848059\H,0,-2.85597,-0.124003,0.173608\N,0,1.47645,1.366
 87,-0.0760786\N,0,0.562181,-0.838688,-0.0141885\N,0,-1.15347,0.765272,
 0.0130742\O,0,2.76725,-0.496935,0.107105\O,0,-1.64206,-1.39144,-0.0828

 Normal termination of Gaussian 16 at Tue Apr  8 21:45:11 2025.
