 Gaussian 16, Revision C.01,

 ----------------------------------------------------------------------
 #t hf aug-cc-pvdz symm=none int=(grid=ultrafine) guess=(read,tcheck) s
 table=(opt,rrhf)
 ----------------------------------------------------------------------
 -----
 title
 -----
 Symbolic Z-matrix:
 Charge =  0 Multiplicity = 1

 SCF Done:  E(RHF) =  -717.495395803     A.U. after   15 cycles
 Normal termination of Gaussian 16 at Tue Apr  8 19:20:58 2025.
 Gaussian 16:  ES64L-G16RevC.01  3-Jul-2019

 ----------------------------------------------------------------------
 #t hf aug-cc-pvdz iop(5/13=1,5/36=2,99/5=2) pseudo=read geom=check gue
 ss=(read,tcheck) scf=(maxcycle=1)
 ----------------------------------------------------------------------
 -----
 title
 -----
 Structure from the checkpoint file:  "ANI1ccx_1215_conf5_mol1.chk"
 Charge =  0 Multiplicity = 1

                         Standard orientation:
 ---------------------------------------------------------------------
 Center     Atomic      Atomic             Coordinates (Angstroms)
 Number     Number       Type             X           Y           Z
 ---------------------------------------------------------------------
      1          6           0        1.379659    0.207221   -0.111647
      2          6           0        0.720398   -0.146272    1.181770
      3          6           0        2.477928   -0.829942   -0.372744
      4          6           0       -1.776610    0.329182    0.463661
      5          6           0       -2.101772   -0.963094   -0.274018
      6          6           0       -1.640799    1.379452   -0.706313
      7          1           0       -1.908444   -2.723278   -0.432072
      8          1           0       -0.065160    2.303980   -0.205054
      9          1           0       -0.946270    0.935741   -1.456420
     10          1           0       -2.631089    1.551553   -1.102320
     11          1           0       -2.670350    0.648726    1.012570
     12          1           0       -0.742975    0.395464    2.285230
     13          1           0        2.044917   -1.855532   -0.253120
     14          1           0        3.229468   -0.674063    0.434377
     15          1           0        0.666531    0.004114   -0.956801
     16          1           0        2.410681    1.627418   -0.977483
     17          1           0        2.415741    1.799678    0.620019
     18          1           0        2.562778   -0.924791   -2.276880
     19          7           0        1.812321    1.577568   -0.162716
     20          7           0       -0.595151    0.216344    1.313910
     21          8           0       -1.046118    2.533182   -0.229762
     22          8           0        1.333389   -0.628158    2.093440
     23          8           0        3.196528   -0.802020   -1.577800
     24          8           0       -2.879182   -0.984504   -1.185960
     25          8           0       -1.509473   -2.056708    0.170748
 ---------------------------------------------------------------------

 SCF Done:  E(RHF) =  -717.717341607     A.U. after    2 cycles

 The electronic state is 1-A.
 Alpha  occ. eigenvalues --  -20.65290 -20.59624 -20.58114 -20.56724 -20.56455
 Alpha  occ. eigenvalues --  -15.65737 -15.65157 -11.41526 -11.38534 -11.32285
 Alpha  occ. eigenvalues --  -11.30421 -11.30327 -11.30175  -1.46551  -1.38838
 Alpha  occ. eigenvalues --   -1.35367  -1.35343  -1.32874  -1.22082  -1.20353
 Alpha  occ. eigenvalues --   -1.04495  -1.01478  -0.91080  -0.89821  -0.84184
 Alpha  occ. eigenvalues --   -0.78757  -0.75863  -0.74820  -0.74522  -0.72350
 Alpha  occ. eigenvalues --   -0.70575  -0.68808  -0.68180  -0.66889  -0.65026
 Alpha  occ. eigenvalues --   -0.64132  -0.63620  -0.62575  -0.60891  -0.59904
 Alpha  occ. eigenvalues --   -0.58977  -0.55576  -0.53013  -0.52008  -0.51480
 Alpha  occ. eigenvalues --   -0.49810  -0.49161  -0.46400  -0.46087  -0.42090
 Alpha  occ. eigenvalues --   -0.40358
 Alpha virt. eigenvalues --    0.02407   0.03203   0.03598   0.04405   0.05254
 Alpha virt. eigenvalues --    0.06179   0.06371   0.07214   0.07422   0.08359
 Alpha virt. eigenvalues --    0.09028   0.09909   0.10551   0.10869   0.11948

 Mulliken charges:
               1
     1  C   -0.222620
     2  C    0.508748
     3  C    1.149381
     4  C   -0.037846
     5  C    0.775071
     6  C    1.083365
     7  H    0.225783
     8  H    0.315041
     9  H   -0.112345
    10  H   -0.233240
    11  H    0.020955
    12  H   -0.111962
    13  H   -0.000002
    14  H   -0.025875
    15  H   -0.108532
    16  H    0.134112
    17  H    0.105691
    18  H    0.137508
    19  N   -0.625314
    20  N   -0.303574
    21  O   -0.583376
    22  O   -0.488464
    23  O   -0.549764
    24  O   -0.531588
    25  O   -0.521153
 Sum of Mulliken charges =   0.00000

 Dipole moment (field-independent basis, Debye):
    X=             -0.5263    Y=             -0.7707    Z=             -1.1121  Tot=              1.4518

 Test job not archived.
 1\1\GINC-SE144\SP\RHF\Aug-CC-pVDZ\C6H12N2O5\OHZDE\08-Apr-2025\0\\#t hf
  aug-cc-pvdz iop(5/13=1,5/36=2,99/5=2) pseudo=read geom=check guess=(r
 ead,tcheck) scf=(maxcycle=1)\\title\\0,1\C,0,1.37966,0.207222,-0.11164
 7\C,0,0.720399,-0.146272,1.18177\C,0,2.47793,-0.82994,-0.372744\C,0,-1
 .77661,0.32918,0.463661\C,0,-2.10177,-0.963097,-0.274018\C,0,-1.6408,1
 .37945,-0.706313\H,0,-1.90844,-2.72328,-0.432072\H,0,-0.0651614,2.3039
 8,-0.205054\H,0,-0.94627,0.93574,-1.45642\H,0,-2.63109,1.55155,-1.1023
 2\H,0,-2.67035,0.648723,1.01257\H,0,-0.742975,0.395463,2.28523\H,0,2.0

 Normal termination of Gaussian 16 at Tue Apr  8 19:21:21 2025.
