 Gaussian 16, Revision C.01,

 ----------------------------------------------------------------------
 #t hf aug-cc-pvdz symm=none int=(grid=ultrafine) guess=(read,tcheck) s
 table=(opt,rrhf)
 ----------------------------------------------------------------------
 -----
 title
 -----
 Symbolic Z-matrix:
 Charge =  0 Multiplicity = 1

 SCF Done:  E(RHF) =  -590.430833036     A.U. after   16 cycles
 Normal termination of Gaussian 16 at Tue Apr  8 22:08:12 2025.
 Gaussian 16:  ES64L-G16RevC.01  3-Jul-2019

 ----------------------------------------------------------------------
 #t hf aug-cc-pvdz iop(5/13=1,5/36=2,99/5=2) pseudo=read geom=check gue
 ss=(read,tcheck) scf=(maxcycle=1)
 ----------------------------------------------------------------------
 -----
 title
 -----
 Structure from the checkpoint file:  "ANI1ccx_928_conf4_mol1.chk"
 Charge =  0 Multiplicity = 1

                         Standard orientation:
 ---------------------------------------------------------------------
 Center     Atomic      Atomic             Coordinates (Angstroms)
 Number     Number       Type             X           Y           Z
 ---------------------------------------------------------------------
      1          6           0        0.798623    1.617820   -0.626230
      2          6           0       -0.322640    1.573600    0.521155
      3          6           0       -1.790020   -0.378669    1.159240
      4          6           0        1.407650   -0.801818   -1.028440
      5          1           0        0.850096   -1.032680   -1.934510
      6          1           0        0.318463    1.662700    1.426320
      7          1           0       -1.710130   -0.567013    2.254420
      8          1           0        1.385932    2.493799   -0.189914
      9          1           0        0.447062    1.802920   -1.539350
     10          1           0       -0.835399    2.621260    0.602317
     11          7           0        2.500120   -0.858791    0.780975
     12          7           0       -1.235859    0.581166    0.330131
     13          7           0       -2.618700   -1.167779    0.468070
     14          7           0       -2.670730   -0.656362   -0.780411
     15          7           0       -1.754239    0.289811   -0.965465
     16          7           0        1.449871    0.396882   -0.439514
     17          7           0        2.066740   -1.611711   -0.233504
     18          7           0        2.117411    0.305843    0.729196
 ---------------------------------------------------------------------

 SCF Done:  E(RHF) =  -590.592817781     A.U. after    2 cycles

 The electronic state is 1-A.
 Alpha  occ. eigenvalues --  -15.76307 -15.74739 -15.74600 -15.74073 -15.72664
 Alpha  occ. eigenvalues --  -15.71160 -15.68556 -15.66691 -11.37233 -11.35566
 Alpha  occ. eigenvalues --  -11.33517 -11.32949  -1.48657  -1.43156  -1.27655
 Alpha  occ. eigenvalues --   -1.24052  -1.19206  -1.15859  -1.06310  -0.97729
 Alpha  occ. eigenvalues --   -0.90498  -0.87537  -0.86545  -0.84164  -0.77589
 Alpha  occ. eigenvalues --   -0.76357  -0.72751  -0.67805  -0.67517  -0.66387
 Alpha  occ. eigenvalues --   -0.62064  -0.59643  -0.58329  -0.58101  -0.55723
 Alpha  occ. eigenvalues --   -0.48983  -0.47573  -0.47356  -0.45188  -0.43813
 Alpha  occ. eigenvalues --   -0.43390  -0.41369  -0.41027
 Alpha virt. eigenvalues --    0.01708   0.02249   0.04158   0.04484   0.06313
 Alpha virt. eigenvalues --    0.06785   0.07647   0.08816   0.09682   0.10029
 Alpha virt. eigenvalues --    0.10821   0.11486   0.11678   0.12672   0.13063

 Mulliken charges:
               1
     1  C    0.939456
     2  C    0.620716
     3  C    0.781933
     4  C    0.814664
     5  H   -0.297871
     6  H   -0.164512
     7  H   -0.211168
     8  H    0.128908
     9  H   -0.573706
    10  H   -0.049855
    11  N   -0.232988
    12  N   -0.201641
    13  N   -0.399925
    14  N   -0.204498
    15  N   -0.293656
    16  N    0.069887
    17  N   -0.447485
    18  N   -0.278259
 Sum of Mulliken charges =  -0.00000

 Dipole moment (field-independent basis, Debye):
    X=              0.0667    Y=              5.4168    Z=              0.1195  Tot=              5.4185

 Test job not archived.
 1\1\GINC-SE334\SP\RHF\Aug-CC-pVDZ\C4H6N8\OHZDE\08-Apr-2025\0\\#t hf au
 g-cc-pvdz iop(5/13=1,5/36=2,99/5=2) pseudo=read geom=check guess=(read
 ,tcheck) scf=(maxcycle=1)\\title\\0,1\C,0,0.798622,1.61782,-0.62623\C,
 0,-0.322641,1.5736,0.521155\C,0,-1.79002,-0.37867,1.15924\C,0,1.40765,
 -0.801817,-1.02844\H,0,0.850096,-1.03268,-1.93451\H,0,0.318462,1.6627,
 1.42632\H,0,-1.71013,-0.567014,2.25442\H,0,1.38593,2.4938,-0.189914\H,
 0,0.447061,1.80292,-1.53935\H,0,-0.835401,2.62126,0.602317\N,0,2.50012
 ,-0.85879,0.780975\N,0,-1.23586,0.581165,0.330131\N,0,-2.6187,-1.16778

 Normal termination of Gaussian 16 at Tue Apr  8 22:08:24 2025.
