 Gaussian 16, Revision C.01,

 ----------------------------------------------------------------------
 #t hf aug-cc-pvdz symm=none int=(grid=ultrafine) guess=(read,tcheck) s
 table=(opt,rrhf)
 ----------------------------------------------------------------------
 -----
 title
 -----
 Symbolic Z-matrix:
 Charge =  0 Multiplicity = 1

 SCF Done:  E(RHF) =  -720.703127510     A.U. after   14 cycles
 Normal termination of Gaussian 16 at Tue Apr  8 20:13:01 2025.
 Gaussian 16:  ES64L-G16RevC.01  3-Jul-2019

 ----------------------------------------------------------------------
 #t hf aug-cc-pvdz iop(5/13=1,5/36=2,99/5=2) pseudo=read geom=check gue
 ss=(read,tcheck) scf=(maxcycle=1)
 ----------------------------------------------------------------------
 -----
 title
 -----
 Structure from the checkpoint file:  "ANI1ccx_1618_conf5_mol1.chk"
 Charge =  0 Multiplicity = 1

                         Standard orientation:
 ---------------------------------------------------------------------
 Center     Atomic      Atomic             Coordinates (Angstroms)
 Number     Number       Type             X           Y           Z
 ---------------------------------------------------------------------
      1          6           0       -2.331620   -0.791212   -0.281271
      2          6           0       -0.771126   -0.775785   -0.094326
      3          6           0       -2.915130    0.640457   -0.067861
      4          6           0        1.274290    0.424325   -0.660826
      5          6           0        2.305930   -0.770976   -0.667361
      6          6           0        1.614569    1.308400    0.568235
      7          6           0        0.785455    2.609890    0.458815
      8          6           0        1.374969    0.713808    1.943320
      9          1           0        1.013790   -1.912700    0.183457
     10          1           0        2.090870   -0.097825    2.171960
     11          1           0        0.336187    0.326157    1.943880
     12          1           0        1.416349    1.527040    2.700450
     13          1           0        0.962668    3.399650    1.172860
     14          1           0       -0.271565    2.337429    0.615034
     15          1           0        0.930797    3.064620   -0.531396
     16          1           0        2.650529    1.429700    0.429694
     17          1           0       -0.652650    0.744733   -1.329730
     18          1           0       -2.710761    2.414099   -1.016160
     19          1           0       -2.501221    0.975648    0.921280
     20          1           0       -3.993760    0.492432   -0.024982
     21          1           0       -2.694860   -1.160991   -1.270770
     22          1           0       -2.373630   -2.523001    0.747902
     23          1           0       -2.494730   -1.228881    1.581350
     24          1           0        1.530539    1.032740   -1.545660
     25          7           0       -2.887390   -1.605861    0.764914
     26          7           0       -0.079816    0.046747   -0.902437
     27          8           0        3.449640   -0.520350   -1.000340
     28          8           0       -0.321696   -1.481941    0.780501
     29          8           0       -2.598571    1.464179   -1.204940
     30          8           0        1.909110   -1.969450   -0.197575
 ---------------------------------------------------------------------

 SCF Done:  E(RHF) =  -720.922057120     A.U. after    2 cycles

 The electronic state is 1-A.
 Alpha  occ. eigenvalues --  -20.61989 -20.59258 -20.58359 -20.54798 -15.67942
 Alpha  occ. eigenvalues --  -15.62538 -11.39907 -11.39311 -11.33227 -11.30936
 Alpha  occ. eigenvalues --  -11.30890 -11.25476 -11.24701 -11.23494  -1.42144
 Alpha  occ. eigenvalues --   -1.38949  -1.35765  -1.30951  -1.25326  -1.19704
 Alpha  occ. eigenvalues --   -1.09704  -1.01288  -0.97569  -0.94107  -0.89098
 Alpha  occ. eigenvalues --   -0.84056  -0.82907  -0.80600  -0.76074  -0.74899
 Alpha  occ. eigenvalues --   -0.74256  -0.70256  -0.67538  -0.66755  -0.65557
 Alpha  occ. eigenvalues --   -0.64931  -0.64383  -0.62884  -0.61195  -0.59753
 Alpha  occ. eigenvalues --   -0.59023  -0.58520  -0.58188  -0.55288  -0.54632
 Alpha  occ. eigenvalues --   -0.53030  -0.51570  -0.50784  -0.50103  -0.48782
 Alpha  occ. eigenvalues --   -0.47495  -0.47160  -0.46218  -0.42811  -0.41061
 Alpha virt. eigenvalues --    0.01805   0.03224   0.03542   0.03912   0.05051
 Alpha virt. eigenvalues --    0.05427   0.05599   0.06080   0.07001   0.07837
 Alpha virt. eigenvalues --    0.07928   0.08442   0.08804   0.09332   0.10242

 Mulliken charges:
               1
     1  C    0.388260
     2  C    0.297691
     3  C    0.937455
     4  C    0.415956
     5  C    0.699784
     6  C   -0.749190
     7  C    0.984719
     8  C    0.691816
     9  H    0.285771
    10  H   -0.057755
    11  H    0.070386
    12  H   -0.040064
    13  H   -0.175974
    14  H   -0.211853
    15  H   -0.086469
    16  H   -0.346133
    17  H    0.049125
    18  H    0.200497
    19  H   -0.019493
    20  H   -0.127394
    21  H   -0.099986
    22  H    0.124747
    23  H    0.056059
    24  H   -0.267046
    25  N   -0.389315
    26  N   -0.221605
    27  O   -0.543812
    28  O   -0.722076
    29  O   -0.642327
    30  O   -0.501772
 Sum of Mulliken charges =  -0.00000

 Dipole moment (field-independent basis, Debye):
    X=             -5.7515    Y=              5.0222    Z=              0.7244  Tot=              7.6699

 Test job not archived.
 1\1\GINC-SE362\SP\RHF\Aug-CC-pVDZ\C8H16N2O4\OHZDE\08-Apr-2025\0\\#t hf
  aug-cc-pvdz iop(5/13=1,5/36=2,99/5=2) pseudo=read geom=check guess=(r
 ead,tcheck) scf=(maxcycle=1)\\title\\0,1\C,0,-2.33162,-0.791211,-0.281
 271\C,0,-0.771126,-0.775784,-0.0943258\C,0,-2.91513,0.640458,-0.067860
 6\C,0,1.27429,0.424325,-0.660826\C,0,2.30593,-0.770976,-0.667361\C,0,1
 .61457,1.3084,0.568235\C,0,0.785456,2.60989,0.458815\C,0,1.37497,0.713
 808,1.94332\H,0,1.01379,-1.9127,0.183457\H,0,2.09087,-0.0978246,2.1719
 6\H,0,0.336187,0.326157,1.94388\H,0,1.41635,1.52704,2.70045\H,0,0.9626

 Normal termination of Gaussian 16 at Tue Apr  8 20:13:30 2025.
