 Gaussian 16, Revision C.01,

 ----------------------------------------------------------------------
 #t hf aug-cc-pvdz symm=none int=(grid=ultrafine) guess=(read,tcheck) s
 table=(opt,rrhf)
 ----------------------------------------------------------------------
 -----
 title
 -----
 Symbolic Z-matrix:
 Charge =  0 Multiplicity = 1

 SCF Done:  E(RHF) =  -532.286332084     A.U. after   11 cycles
 Normal termination of Gaussian 16 at Tue Apr  8 21:09:01 2025.
 Gaussian 16:  ES64L-G16RevC.01  3-Jul-2019

 ----------------------------------------------------------------------
 #t hf aug-cc-pvdz iop(5/13=1,5/36=2,99/5=2) pseudo=read geom=check gue
 ss=(read,tcheck) scf=(maxcycle=1)
 ----------------------------------------------------------------------
 -----
 title
 -----
 Structure from the checkpoint file:  "ANI1ccx_1845_conf241_mol1.chk"
 Charge =  0 Multiplicity = 1

                         Standard orientation:
 ---------------------------------------------------------------------
 Center     Atomic      Atomic             Coordinates (Angstroms)
 Number     Number       Type             X           Y           Z
 ---------------------------------------------------------------------
      1          1           0       -0.903522   -3.158681    0.671922
      2          1           0        1.529581   -2.216301   -1.159000
      3          1           0        0.369462   -1.794251   -0.167623
      4          1           0       -2.911289    0.054221    0.092769
      5          1           0       -3.644379   -1.339731   -0.395134
      6          1           0       -1.673139   -1.884701   -0.105192
      7          1           0       -1.688918    1.897019    0.027627
      8          1           0        2.788662    0.991824   -0.357955
      9          1           0       -2.792928    1.861139    1.117190
     10          1           0        2.708101   -1.014071    0.610394
     11          1           0        2.769771   -0.126683    1.890230
     12          1           0        0.077707    3.381809   -0.593265
     13          1           0        0.629490    2.043169   -0.138767
     14          1           0        1.772551    0.141227   -1.047480
     15          8           0       -0.931891   -2.563001   -0.142748
     16          8           0        2.025432    1.124659   -0.999709
     17          8           0       -2.906019   -1.005851    0.240297
     18          8           0        3.301641   -0.378876    1.104990
     19          8           0        1.244151   -1.480411   -0.537424
     20          8           0       -2.618228    1.711549    0.131801
     21          8           0        0.006019    2.737429    0.147077
 ---------------------------------------------------------------------

 SCF Done:  E(RHF) =  -532.461853275     A.U. after    2 cycles

 The electronic state is 1-A.
 Alpha  occ. eigenvalues --  -20.59931 -20.59652 -20.58029 -20.57396 -20.57131
 Alpha  occ. eigenvalues --  -20.56943 -20.55197  -1.32877  -1.32180  -1.30239
 Alpha  occ. eigenvalues --   -1.29720  -1.28977  -1.27903  -1.26356  -0.75547
 Alpha  occ. eigenvalues --   -0.74209  -0.73815  -0.71322  -0.71237  -0.70872
 Alpha  occ. eigenvalues --   -0.67767  -0.64443  -0.63076  -0.62269  -0.59924
 Alpha  occ. eigenvalues --   -0.58986  -0.58101  -0.55987  -0.53862  -0.53318
 Alpha  occ. eigenvalues --   -0.52323  -0.52081  -0.51500  -0.51187  -0.49420
 Alpha virt. eigenvalues --    0.02484   0.04123   0.04541   0.05238   0.05978
 Alpha virt. eigenvalues --    0.06099   0.07964   0.08334   0.08850   0.09527
 Alpha virt. eigenvalues --    0.10246   0.10417   0.11443   0.11772   0.16584

 Mulliken charges:
               1
     1  H    0.226096
     2  H    0.223395
     3  H    0.379018
     4  H    0.374293
     5  H    0.249731
     6  H    0.318203
     7  H    0.203706
     8  H    0.275768
     9  H    0.234707
    10  H    0.256663
    11  H    0.199269
    12  H    0.188169
    13  H    0.237762
    14  H    0.295106
    15  O   -0.546389
    16  O   -0.576643
    17  O   -0.594450
    18  O   -0.432026
    19  O   -0.643086
    20  O   -0.453847
    21  O   -0.415445
 Sum of Mulliken charges =  -0.00000

 Dipole moment (field-independent basis, Debye):
    X=             -3.4485    Y=             -2.4101    Z=              1.0769  Tot=              4.3429

 Test job not archived.
 1\1\GINC-SE340\SP\RHF\Aug-CC-pVDZ\H14O7\OHZDE\08-Apr-2025\0\\#t hf aug
 -cc-pvdz iop(5/13=1,5/36=2,99/5=2) pseudo=read geom=check guess=(read,
 tcheck) scf=(maxcycle=1)\\title\\0,1\H,0,-0.903523,-3.15868,0.671922\H
 ,0,1.52958,-2.2163,-1.159\H,0,0.369461,-1.79425,-0.167623\H,0,-2.91129
 ,0.0542218,0.0927692\H,0,-3.64438,-1.33973,-0.395134\H,0,-1.67314,-1.8
 847,-0.105192\H,0,-1.68892,1.89702,0.027627\H,0,2.78866,0.991825,-0.35
 7955\H,0,-2.79293,1.86114,1.11719\H,0,2.7081,-1.01407,0.610394\H,0,2.7
 6977,-0.126682,1.89023\H,0,0.0777053,3.38181,-0.593265\H,0,0.629488,2.

 Normal termination of Gaussian 16 at Tue Apr  8 21:09:07 2025.
