 Gaussian 16, Revision C.01,

 ----------------------------------------------------------------------
 #t hf aug-cc-pvdz symm=none int=(grid=ultrafine) guess=(read,tcheck) s
 table=(opt,rrhf)
 ----------------------------------------------------------------------
 -----
 title
 -----
 Symbolic Z-matrix:
 Charge =  0 Multiplicity = 1

 SCF Done:  E(RHF) =  -480.737492470     A.U. after   15 cycles
 Normal termination of Gaussian 16 at Tue Apr  8 21:46:31 2025.
 Gaussian 16:  ES64L-G16RevC.01  3-Jul-2019

 ----------------------------------------------------------------------
 #t hf aug-cc-pvdz iop(5/13=1,5/36=2,99/5=2) pseudo=read geom=check gue
 ss=(read,tcheck) scf=(maxcycle=1)
 ----------------------------------------------------------------------
 -----
 title
 -----
 Structure from the checkpoint file:  "ANI1ccx_558_conf3_mol1.chk"
 Charge =  0 Multiplicity = 1

                         Standard orientation:
 ---------------------------------------------------------------------
 Center     Atomic      Atomic             Coordinates (Angstroms)
 Number     Number       Type             X           Y           Z
 ---------------------------------------------------------------------
      1          6           0       -1.127199   -0.748372   -0.036259
      2          6           0        1.210091   -0.594466   -0.101341
      3          1           0        2.172085    1.949565   -0.115430
      4          1           0        1.340067    1.462893    1.253850
      5          1           0       -1.027775    2.336178    0.165029
      6          1           0       -2.502674    1.647295   -0.322008
      7          1           0        0.153327   -2.295429    0.344217
      8          1           0        2.647354   -1.805074    0.251849
      9          7           0        1.249336    1.665333    0.274148
     10          7           0        0.670438    0.647494   -0.468002
     11          7           0       -0.847418    0.545096   -0.427799
     12          7           0       -1.631134    1.528287    0.211206
     13          7           0        0.102437   -1.388279   -0.056874
     14          7           0        2.488661   -0.815913    0.089550
     15          8           0       -2.188247   -1.314064    0.236563
 ---------------------------------------------------------------------

 SCF Done:  E(RHF) =  -480.879198465     A.U. after    2 cycles

 The electronic state is 1-A.
 Alpha  occ. eigenvalues --  -20.56493 -15.74192 -15.73138 -15.69413 -15.67817
 Alpha  occ. eigenvalues --  -15.67766 -15.62309 -11.42291 -11.39993  -1.41681
 Alpha  occ. eigenvalues --   -1.34505  -1.27196  -1.24452  -1.15590  -1.08589
 Alpha  occ. eigenvalues --   -1.01169  -0.86429  -0.84353  -0.76954  -0.73796
 Alpha  occ. eigenvalues --   -0.71014  -0.69580  -0.66886  -0.65912  -0.65061
 Alpha  occ. eigenvalues --   -0.62663  -0.56346  -0.52455  -0.49627  -0.46483
 Alpha  occ. eigenvalues --   -0.45013  -0.44742  -0.40412  -0.35410
 Alpha virt. eigenvalues --    0.02742   0.03176   0.04072   0.04756   0.06775
 Alpha virt. eigenvalues --    0.07590   0.09366   0.11511   0.11750   0.12476
 Alpha virt. eigenvalues --    0.12734   0.13416   0.13966   0.15190   0.15628

 Mulliken charges:
               1
     1  C    0.943632
     2  C    0.997680
     3  H    0.142880
     4  H    0.046015
     5  H    0.121990
     6  H    0.122898
     7  H   -0.088406
     8  H    0.001421
     9  N   -0.146255
    10  N   -0.483858
    11  N   -0.487467
    12  N   -0.025857
    13  N   -0.298082
    14  N   -0.379442
    15  O   -0.467148
 Sum of Mulliken charges =   0.00000

 Dipole moment (field-independent basis, Debye):
    X=              1.8853    Y=              1.3146    Z=              0.3596  Tot=              2.3263

 Test job not archived.
 1\1\GINC-SE340\SP\RHF\Aug-CC-pVDZ\C2H6N6O1\OHZDE\08-Apr-2025\0\\#t hf
 aug-cc-pvdz iop(5/13=1,5/36=2,99/5=2) pseudo=read geom=check guess=(re
 ad,tcheck) scf=(maxcycle=1)\\title\\0,1\C,0,-1.1272,-0.74837,-0.036259
 2\C,0,1.21009,-0.594469,-0.101341\H,0,2.17209,1.94956,-0.11543\H,0,1.3
 4007,1.46289,1.25385\H,0,-1.02777,2.33618,0.165029\H,0,-2.50267,1.6473
 ,-0.322008\H,0,0.153322,-2.29543,0.344217\H,0,2.64735,-1.80508,0.25184
 9\N,0,1.24934,1.66533,0.274148\N,0,0.67044,0.647492,-0.468002\N,0,-0.8
 47417,0.545097,-0.427799\N,0,-1.63113,1.52829,0.211206\N,0,0.102434,-1

 Normal termination of Gaussian 16 at Tue Apr  8 21:46:37 2025.
