 Gaussian 16, Revision C.01,

 ----------------------------------------------------------------------
 #t hf aug-cc-pvdz symm=none int=(grid=ultrafine) guess=(read,tcheck) s
 table=(opt,rrhf)
 ----------------------------------------------------------------------
 -----
 title
 -----
 Symbolic Z-matrix:
 Charge =  0 Multiplicity = 1

 SCF Done:  E(RHF) =  -529.681404953     A.U. after   15 cycles
 Normal termination of Gaussian 16 at Tue Apr  8 19:14:08 2025.
 Gaussian 16:  ES64L-G16RevC.01  3-Jul-2019

 ----------------------------------------------------------------------
 #t hf aug-cc-pvdz iop(5/13=1,5/36=2,99/5=2) pseudo=read geom=check gue
 ss=(read,tcheck) scf=(maxcycle=1)
 ----------------------------------------------------------------------
 -----
 title
 -----
 Structure from the checkpoint file:  "ANI1ccx_1029_conf4_mol2.chk"
 Charge =  0 Multiplicity = 1

                         Standard orientation:
 ---------------------------------------------------------------------
 Center     Atomic      Atomic             Coordinates (Angstroms)
 Number     Number       Type             X           Y           Z
 ---------------------------------------------------------------------
      1          6           0        3.456500   -0.201836   -0.056961
      2          6           0        2.051550   -0.813944   -0.178129
      3          6           0        0.847014    1.301769    0.068110
      4          6           0       -0.518461    1.882398    0.326659
      5          6           0       -1.602641    1.305688   -0.585760
      6          1           0       -1.558942    1.831298   -1.550890
      7          1           0       -2.640651    1.288347   -0.139035
      8          1           0       -0.577401    3.039948    0.254240
      9          1           0       -0.840332    1.660358    1.349060
     10          1           0        1.699808    1.889260    0.470680
     11          1           0        0.981457    1.384169   -1.023340
     12          1           0        1.029740   -0.132739    1.482350
     13          1           0        2.118991   -1.841250    0.119039
     14          1           0        1.780570   -0.905219   -1.255960
     15          1           0        3.456119    0.894329   -0.244453
     16          1           0        4.098330   -0.584069   -0.824401
     17          1           0        3.890820   -0.344873    0.893530
     18          7           0        1.017949   -0.083695    0.488325
     19          7           0       -1.498800   -0.947651    0.067282
     20          8           0       -1.417901   -0.074340   -0.922268
     21          8           0       -1.063089   -2.034232   -0.307822
     22          8           0       -1.953550   -0.617003    1.122140
 ---------------------------------------------------------------------

 SCF Done:  E(RHF) =  -529.845880035     A.U. after    2 cycles

 The electronic state is 1-A.
 Alpha  occ. eigenvalues --  -20.66974 -20.63344 -20.60772 -15.97487 -15.60181
 Alpha  occ. eigenvalues --  -11.32776 -11.27283 -11.26026 -11.25591 -11.21620
 Alpha  occ. eigenvalues --   -1.60999  -1.40907  -1.38092  -1.18856  -1.07671
 Alpha  occ. eigenvalues --   -1.00485  -0.96170  -0.88625  -0.83733  -0.82077
 Alpha  occ. eigenvalues --   -0.79550  -0.77820  -0.75669  -0.68442  -0.66740
 Alpha  occ. eigenvalues --   -0.65198  -0.62947  -0.59531  -0.58782  -0.56508
 Alpha  occ. eigenvalues --   -0.55114  -0.54358  -0.53284  -0.51359  -0.50745
 Alpha  occ. eigenvalues --   -0.50310  -0.48389  -0.47991  -0.47305  -0.35899
 Alpha virt. eigenvalues --    0.02781   0.03690   0.03973   0.04808   0.05850
 Alpha virt. eigenvalues --    0.06113   0.06487   0.07430   0.07765   0.08404
 Alpha virt. eigenvalues --    0.09117   0.09604   0.10315   0.11321   0.12881

 Mulliken charges:
               1
     1  C    0.545649
     2  C    0.552859
     3  C    0.794186
     4  C   -0.052481
     5  C    0.705117
     6  H   -0.188066
     7  H    0.024098
     8  H    0.119516
     9  H   -0.090131
    10  H   -0.265114
    11  H   -0.269350
    12  H   -0.086631
    13  H   -0.307465
    14  H   -0.223061
    15  H   -0.151456
    16  H   -0.081842
    17  H   -0.174204
    18  N   -0.204425
    19  N    1.124518
    20  O   -0.669127
    21  O   -0.582788
    22  O   -0.519802
 Sum of Mulliken charges =  -0.00000

 Dipole moment (field-independent basis, Debye):
    X=              1.0438    Y=              4.1576    Z=             -0.2503  Tot=              4.2939

 Test job not archived.
 1\1\GINC-SE150\SP\RHF\Aug-CC-pVDZ\C5H12N2O3\OHZDE\08-Apr-2025\0\\#t hf
  aug-cc-pvdz iop(5/13=1,5/36=2,99/5=2) pseudo=read geom=check guess=(r
 ead,tcheck) scf=(maxcycle=1)\\title\\0,1\C,0,3.4565,-0.201837,-0.05696
 08\C,0,2.05155,-0.813944,-0.178129\C,0,0.847015,1.30177,0.0681095\C,0,
 -0.518459,1.8824,0.326659\C,0,-1.60264,1.30569,-0.58576\H,0,-1.55894,1
 .8313,-1.55089\H,0,-2.64065,1.28835,-0.139035\H,0,-0.577398,3.03995,0.
 25424\H,0,-0.84033,1.66036,1.34906\H,0,1.69981,1.88926,0.47068\H,0,0.9
 81459,1.38417,-1.02334\H,0,1.02974,-0.132739,1.48235\H,0,2.11899,-1.84

 Normal termination of Gaussian 16 at Tue Apr  8 19:14:21 2025.
