 Gaussian 16, Revision C.01,

 ----------------------------------------------------------------------
 #t hf aug-cc-pvdz symm=none int=(grid=ultrafine) guess=(read,tcheck) s
 table=(opt,rrhf)
 ----------------------------------------------------------------------
 -----
 title
 -----
 Symbolic Z-matrix:
 Charge =  0 Multiplicity = 1

 SCF Done:  E(RHF) =  -851.518176346     A.U. after   14 cycles
 Normal termination of Gaussian 16 at Tue Apr  8 22:05:45 2025.
 Gaussian 16:  ES64L-G16RevC.01  3-Jul-2019

 ----------------------------------------------------------------------
 #t hf aug-cc-pvdz iop(5/13=1,5/36=2,99/5=2) pseudo=read geom=check gue
 ss=(read,tcheck) scf=(maxcycle=1)
 ----------------------------------------------------------------------
 -----
 title
 -----
 Structure from the checkpoint file:  "ANI1ccx_63_conf1_mol1.chk"
 Charge =  0 Multiplicity = 1

                         Standard orientation:
 ---------------------------------------------------------------------
 Center     Atomic      Atomic             Coordinates (Angstroms)
 Number     Number       Type             X           Y           Z
 ---------------------------------------------------------------------
      1          6           0        0.290365    2.001030    0.648278
      2          6           0       -2.570090    0.300736   -1.341701
      3          6           0       -2.921250   -1.100540    0.554887
      4          6           0       -0.592139   -1.580240    0.595880
      5          6           0       -1.576010   -0.418979    0.683946
      6          6           0       -3.152150   -1.033510   -0.954438
      7          6           0        2.186810    0.652924   -0.589602
      8          6           0        1.442230    0.973765    0.720569
      9          6           0       -0.792569    1.654220   -0.431481
     10          6           0        3.102180   -0.565092   -0.453244
     11          1           0       -2.925110   -2.141070    0.952667
     12          1           0        1.056370   -1.852940   -0.484284
     13          1           0       -3.271920    1.110020   -1.385301
     14          1           0       -2.112770    0.311879   -2.338911
     15          1           0       -2.646900   -1.824110   -1.500991
     16          1           0       -4.268950   -1.030020   -1.238261
     17          1           0       -3.714240   -0.522906    1.063709
     18          1           0       -1.403470    0.134769    1.600309
     19          1           0        1.479920    0.379989   -1.393891
     20          1           0        4.838180    0.629951   -0.263888
     21          1           0        2.809440    1.512400   -0.897437
     22          1           0        2.168910    1.241830    1.480409
     23          1           0        1.043510    0.089520    1.209769
     24          1           0        0.631393    2.991410    0.360282
     25          1           0        0.435994    2.378280    2.729059
     26          1           0       -1.053640    2.736720    2.086419
     27          1           0        5.015110   -1.167210   -0.261171
     28          7           0       -0.265945    2.094480    2.025329
     29          7           0        4.465380   -0.328549   -0.424846
     30          7           0       -1.551930    0.548725   -0.354554
     31          8           0       -0.657122   -2.433510    1.430369
     32          8           0       -0.829605    2.358920   -1.393701
     33          8           0        2.728950   -1.706770   -0.340004
     34          8           0        0.117945   -1.529520   -0.576489
 ---------------------------------------------------------------------

 SCF Done:  E(RHF) =  -851.776497381     A.U. after    2 cycles

 The electronic state is 1-A.
 Alpha  occ. eigenvalues --  -20.58977 -20.57008 -20.55701 -20.53315 -15.67177
 Alpha  occ. eigenvalues --  -15.63935 -15.62952 -11.39446 -11.38385 -11.35595
 Alpha  occ. eigenvalues --  -11.29712 -11.27410 -11.27345 -11.26536 -11.25629
 Alpha  occ. eigenvalues --  -11.23867 -11.23742  -1.39852  -1.38984  -1.36837
 Alpha  occ. eigenvalues --   -1.31535  -1.24425  -1.18730  -1.16973  -1.07038
 Alpha  occ. eigenvalues --   -1.06140  -1.01651  -0.96053  -0.90052  -0.86678
 Alpha  occ. eigenvalues --   -0.83414  -0.80739  -0.79688  -0.76805  -0.74026
 Alpha  occ. eigenvalues --   -0.71672  -0.70759  -0.69662  -0.69270  -0.66498
 Alpha  occ. eigenvalues --   -0.66086  -0.64586  -0.64004  -0.63233  -0.62242
 Alpha  occ. eigenvalues --   -0.61219  -0.59803  -0.59388  -0.58359  -0.56699
 Alpha  occ. eigenvalues --   -0.55815  -0.53726  -0.53243  -0.51946  -0.51203
 Alpha  occ. eigenvalues --   -0.50045  -0.49667  -0.48776  -0.47665  -0.46772
 Alpha  occ. eigenvalues --   -0.45363  -0.44161  -0.43135  -0.40265  -0.36467
 Alpha virt. eigenvalues --    0.01824   0.02979   0.03731   0.03942   0.04791
 Alpha virt. eigenvalues --    0.05227   0.05602   0.06332   0.06618   0.07192
 Alpha virt. eigenvalues --    0.07951   0.08237   0.08578   0.08837   0.09736

 Mulliken charges:
               1
     1  C    0.745982
     2  C    0.916103
     3  C    0.449101
     4  C    0.598938
     5  C    0.801547
     6  C    0.177671
     7  C    0.493927
     8  C    0.684836
     9  C   -0.055195
    10  C    0.661048
    11  H   -0.018024
    12  H    0.290724
    13  H   -0.425063
    14  H   -0.187334
    15  H   -0.226657
    16  H    0.079384
    17  H   -0.106582
    18  H   -0.329404
    19  H   -0.010003
    20  H    0.047575
    21  H   -0.134854
    22  H   -0.205657
    23  H   -0.518981
    24  H   -0.319323
    25  H    0.040998
    26  H    0.003815
    27  H   -0.000686
    28  N   -0.369609
    29  N   -0.301275
    30  N   -0.457756
    31  O   -0.530332
    32  O   -0.556231
    33  O   -0.592182
    34  O   -0.646502
 Sum of Mulliken charges =  -0.00000

 Dipole moment (field-independent basis, Debye):
    X=              3.4362    Y=              3.8227    Z=              1.6921  Tot=              5.4114

 Test job not archived.
 1\1\GINC-SE028\SP\RHF\Aug-CC-pVDZ\C10H17N3O4\OHZDE\08-Apr-2025\0\\#t h
 f aug-cc-pvdz iop(5/13=1,5/36=2,99/5=2) pseudo=read geom=check guess=(
 read,tcheck) scf=(maxcycle=1)\\title\\0,1\C,0,0.290365,2.00103,0.64827
 9\C,0,-2.57009,0.300736,-1.3417\C,0,-2.92125,-1.10054,0.554888\C,0,-0.
 592139,-1.58024,0.595881\C,0,-1.57601,-0.418979,0.683947\C,0,-3.15215,
 -1.03351,-0.954437\C,0,2.18681,0.652924,-0.589601\C,0,1.44223,0.973765
 ,0.72057\C,0,-0.792569,1.65422,-0.43148\C,0,3.10218,-0.565092,-0.45324
 3\H,0,-2.92511,-2.14107,0.952668\H,0,1.05637,-1.85294,-0.484283\H,0,-3

 Normal termination of Gaussian 16 at Tue Apr  8 22:06:39 2025.
