 Gaussian 16, Revision C.01,

 ----------------------------------------------------------------------
 #t hf aug-cc-pvdz symm=none int=(grid=ultrafine) guess=(read,tcheck) s
 table=(opt,rrhf)
 ----------------------------------------------------------------------
 -----
 title
 -----
 Symbolic Z-matrix:
 Charge =  0 Multiplicity = 1

 SCF Done:  E(RHF) =  -443.087069774     A.U. after   20 cycles
 Normal termination of Gaussian 16 at Tue Apr  8 21:46:53 2025.
 Gaussian 16:  ES64L-G16RevC.01  3-Jul-2019

 ----------------------------------------------------------------------
 #t hf aug-cc-pvdz iop(5/13=1,5/36=2,99/5=2) pseudo=read geom=check gue
 ss=(read,tcheck) scf=(maxcycle=1)
 ----------------------------------------------------------------------
 -----
 title
 -----
 Structure from the checkpoint file:  "ANI1ccx_609_conf12_mol1.chk"
 Charge =  0 Multiplicity = 1

                         Standard orientation:
 ---------------------------------------------------------------------
 Center     Atomic      Atomic             Coordinates (Angstroms)
 Number     Number       Type             X           Y           Z
 ---------------------------------------------------------------------
      1          6           0        0.009364   -0.539132    0.214987
      2          6           0        0.004588    0.954143    0.147225
      3          7           0        2.256627   -0.670123   -0.020890
      4          7           0        1.218526   -1.128854    0.025035
      5          7           0       -1.239995   -1.177005   -0.133258
      6          7           0       -2.203653   -0.642897   -0.048933
      7          8           0       -1.202756    1.400215    0.038624
      8          8           0        1.164724    1.455047   -0.154493
 ---------------------------------------------------------------------

 SCF Done:  E(RHF) =  -443.217026799     A.U. after    2 cycles

 The electronic state is 1-A.
 Alpha  occ. eigenvalues --  -20.55210 -20.54791 -15.87865 -15.86736 -15.86530
 Alpha  occ. eigenvalues --  -15.85981 -11.40323 -11.40029  -1.54774  -1.51105
 Alpha  occ. eigenvalues --   -1.34179  -1.25543  -1.17109  -0.96908  -0.87883
 Alpha  occ. eigenvalues --   -0.77171  -0.75593  -0.75170  -0.72433  -0.70812
 Alpha  occ. eigenvalues --   -0.70289  -0.62861  -0.62345  -0.58291  -0.46394
 Alpha  occ. eigenvalues --   -0.45395  -0.44034  -0.40503
 Alpha virt. eigenvalues --   -0.00763   0.00927   0.03988   0.04305   0.06601
 Alpha virt. eigenvalues --    0.07105   0.08264   0.09718   0.11626   0.11879
 Alpha virt. eigenvalues --    0.13037   0.14798   0.14898   0.15620   0.17978

 Mulliken charges:
               1
     1  C    0.700654
     2  C    0.657999
     3  N    0.025792
     4  N   -0.083949
     5  N   -0.175304
     6  N    0.095180
     7  O   -0.603739
     8  O   -0.616634
 Sum of Mulliken charges =  -0.00000

 Dipole moment (field-independent basis, Debye):
    X=             -0.4249    Y=             -8.0118    Z=              0.1760  Tot=              8.0250

 Test job not archived.
 1\1\GINC-SE368\SP\RHF\Aug-CC-pVDZ\C2N4O2\OHZDE\08-Apr-2025\0\\#t hf au
 g-cc-pvdz iop(5/13=1,5/36=2,99/5=2) pseudo=read geom=check guess=(read
 ,tcheck) scf=(maxcycle=1)\\title\\0,1\C,0,0.00936689,-0.539133,0.21498
 7\C,0,0.00458592,0.954142,0.147225\N,0,2.25663,-0.670116,-0.0208901\N,
 0,1.21853,-1.12885,0.0250348\N,0,-1.23999,-1.17701,-0.133258\N,0,-2.20
 365,-0.642905,-0.0489333\O,0,-1.20276,1.40021,0.0386244\O,0,1.16472,1.
 45505,-0.154493\\Version=ES64L-G16RevC.01\State=1-A\HF=-443.2170268\RM
 SD=3.938e-03\Dipole=-0.1671561,-3.1520911,0.0692543\Quadrupole=1.14995

 Normal termination of Gaussian 16 at Tue Apr  8 21:46:56 2025.
