 Gaussian 16, Revision C.01,

 ----------------------------------------------------------------------
 #t hf aug-cc-pvdz symm=none int=(grid=ultrafine) guess=(read,tcheck) s
 table=(opt,rrhf)
 ----------------------------------------------------------------------
 -----
 title
 -----
 Symbolic Z-matrix:
 Charge =  0 Multiplicity = 1

 SCF Done:  E(RHF) =  -355.482715634     A.U. after   16 cycles
 Normal termination of Gaussian 16 at Tue Apr  8 21:10:18 2025.
 Gaussian 16:  ES64L-G16RevC.01  3-Jul-2019

 ----------------------------------------------------------------------
 #t hf aug-cc-pvdz iop(5/13=1,5/36=2,99/5=2) pseudo=read geom=check gue
 ss=(read,tcheck) scf=(maxcycle=1)
 ----------------------------------------------------------------------
 -----
 title
 -----
 Structure from the checkpoint file:  "ANI1ccx_1871_conf2_mol1.chk"
 Charge =  0 Multiplicity = 1

                         Standard orientation:
 ---------------------------------------------------------------------
 Center     Atomic      Atomic             Coordinates (Angstroms)
 Number     Number       Type             X           Y           Z
 ---------------------------------------------------------------------
      1          1           0       -3.121931   -0.497592   -0.558604
      2          1           0       -0.914142    0.312567   -0.174604
      3          1           0        2.122139    1.445610    0.563678
      4          7           0        1.677799   -0.304269    0.454166
      5          8           0       -2.555121   -0.409273    0.231251
      6          8           0       -1.763681    0.732537   -0.134118
      7          8           0        1.783489    0.904260   -0.170812
      8          8           0        1.306479   -1.118860   -0.302525
 ---------------------------------------------------------------------

 SCF Done:  E(RHF) =  -355.597423113     A.U. after    2 cycles

 The electronic state is 1-A.
 Alpha  occ. eigenvalues --  -20.67844 -20.67757 -20.64108 -20.63869 -15.86971
 Alpha  occ. eigenvalues --   -1.57731  -1.43216  -1.39934  -1.18821  -0.95124
 Alpha  occ. eigenvalues --   -0.82119  -0.76038  -0.73678  -0.72673  -0.71673
 Alpha  occ. eigenvalues --   -0.64885  -0.63132  -0.56033  -0.53670  -0.50063
 Alpha  occ. eigenvalues --   -0.48711
 Alpha virt. eigenvalues --    0.03105   0.04662   0.07287   0.08285   0.10801
 Alpha virt. eigenvalues --    0.11294   0.14981   0.16763   0.17484   0.18030
 Alpha virt. eigenvalues --    0.19824   0.20270   0.21652   0.22166   0.22488

 Mulliken charges:
               1
     1  H    0.231373
     2  H    0.211285
     3  H    0.268437
     4  N    0.489997
     5  O   -0.256287
     6  O   -0.172064
     7  O   -0.455550
     8  O   -0.317191
 Sum of Mulliken charges =  -0.00000

 Dipole moment (field-independent basis, Debye):
    X=              1.6685    Y=              0.9546    Z=              0.2474  Tot=              1.9381

 Test job not archived.
 1\1\GINC-SE362\SP\RHF\Aug-CC-pVDZ\H3N1O4\OHZDE\08-Apr-2025\0\\#t hf au
 g-cc-pvdz iop(5/13=1,5/36=2,99/5=2) pseudo=read geom=check guess=(read
 ,tcheck) scf=(maxcycle=1)\\title\\0,1\H,0,-3.12193,-0.497592,-0.558604
 \H,0,-0.914141,0.312567,-0.174604\H,0,2.12214,1.44561,0.563678\N,0,1.6
 778,-0.304269,0.454166\O,0,-2.55512,-0.409273,0.231251\O,0,-1.76368,0.
 732537,-0.134118\O,0,1.78349,0.90426,-0.170812\O,0,1.30648,-1.11886,-0
 .302525\\Version=ES64L-G16RevC.01\State=1-A\HF=-355.5974231\RMSD=2.584
 e-03\Dipole=0.6564239,0.3755728,0.0973448\Quadrupole=3.1908571,-1.6603

 Normal termination of Gaussian 16 at Tue Apr  8 21:10:20 2025.
