 Gaussian 16, Revision C.01,

 ----------------------------------------------------------------------
 #t hf aug-cc-pvdz symm=none int=(grid=ultrafine) guess=(read,tcheck) s
 table=(opt,rrhf)
 ----------------------------------------------------------------------
 -----
 title
 -----
 Symbolic Z-matrix:
 Charge =  0 Multiplicity = 1

 SCF Done:  E(RHF) =  -486.378252869     A.U. after   14 cycles
 Normal termination of Gaussian 16 at Tue Apr  8 21:43:58 2025.
 Gaussian 16:  ES64L-G16RevC.01  3-Jul-2019

 ----------------------------------------------------------------------
 #t hf aug-cc-pvdz iop(5/13=1,5/36=2,99/5=2) pseudo=read geom=check gue
 ss=(read,tcheck) scf=(maxcycle=1)
 ----------------------------------------------------------------------
 -----
 title
 -----
 Structure from the checkpoint file:  "ANI1ccx_517_conf3_mol1.chk"
 Charge =  0 Multiplicity = 1

                         Standard orientation:
 ---------------------------------------------------------------------
 Center     Atomic      Atomic             Coordinates (Angstroms)
 Number     Number       Type             X           Y           Z
 ---------------------------------------------------------------------
      1          6           0       -0.728706   -0.288172    0.005472
      2          6           0        0.699110    0.313389   -0.002445
      3          1           0       -2.847961   -0.783130   -0.058904
      4          1           0       -1.388960    1.622581    0.005360
      5          1           0        1.505189   -1.622690   -0.079744
      6          1           0        2.843260    0.758706   -0.007437
      7          7           0       -1.636460    0.632353    0.092499
      8          7           0        1.658419   -0.627501    0.090386
      9          8           0       -2.954330    0.203104   -0.032340
     10          8           0       -0.928323   -1.517739   -0.035558
     11          8           0        0.911896    1.517500   -0.049782
     12          8           0        2.959800   -0.222957   -0.027024
 ---------------------------------------------------------------------

 SCF Done:  E(RHF) =  -486.528789845     A.U. after    2 cycles

 The electronic state is 1-A.
 Alpha  occ. eigenvalues --  -20.65850 -20.65078 -20.59265 -20.58113 -15.75012
 Alpha  occ. eigenvalues --  -15.74116 -11.41700 -11.41102  -1.45371  -1.44201
 Alpha  occ. eigenvalues --   -1.37858  -1.35438  -1.18525  -1.15700  -0.92254
 Alpha  occ. eigenvalues --   -0.87668  -0.83656  -0.75026  -0.73709  -0.70243
 Alpha  occ. eigenvalues --   -0.69873  -0.67212  -0.64926  -0.64566  -0.62444
 Alpha  occ. eigenvalues --   -0.59265  -0.55927  -0.55437  -0.47292  -0.43099
 Alpha  occ. eigenvalues --   -0.41759
 Alpha virt. eigenvalues --    0.03492   0.04437   0.04499   0.06345   0.07534
 Alpha virt. eigenvalues --    0.08846   0.11063   0.11492   0.12155   0.12404
 Alpha virt. eigenvalues --    0.14801   0.15572   0.16224   0.16624   0.17980

 Mulliken charges:
               1
     1  C    0.607441
     2  C    0.679699
     3  H    0.211461
     4  H    0.111345
     5  H    0.082683
     6  H    0.201918
     7  N    0.185642
     8  N    0.110512
     9  O   -0.519883
    10  O   -0.594690
    11  O   -0.563899
    12  O   -0.512230
 Sum of Mulliken charges =  -0.00000

 Dipole moment (field-independent basis, Debye):
    X=             -0.0959    Y=              0.3311    Z=             -0.1858  Tot=              0.3915

 Test job not archived.
 1\1\GINC-SE331\SP\RHF\Aug-CC-pVDZ\C2H4N2O4\OHZDE\08-Apr-2025\0\\#t hf
 aug-cc-pvdz iop(5/13=1,5/36=2,99/5=2) pseudo=read geom=check guess=(re
 ad,tcheck) scf=(maxcycle=1)\\title\\0,1\C,0,-0.728706,-0.288173,0.0054
 7201\C,0,0.69911,0.313389,-0.00244479\H,0,-2.84796,-0.783131,-0.058903
 9\H,0,-1.38896,1.62258,0.00535966\H,0,1.50519,-1.62269,-0.0797444\H,0,
 2.84326,0.758706,-0.00743746\N,0,-1.63646,0.632352,0.0924992\N,0,1.658
 42,-0.627501,0.0903855\O,0,-2.95433,0.203103,-0.0323396\O,0,-0.928322,
 -1.51774,-0.0355585\O,0,0.911896,1.5175,-0.0497819\O,0,2.9598,-0.22295

 Normal termination of Gaussian 16 at Tue Apr  8 21:44:02 2025.
