 Gaussian 16, Revision C.01,

 ----------------------------------------------------------------------
 #t hf aug-cc-pvdz symm=none int=(grid=ultrafine) guess=(read,tcheck) s
 table=(opt,rrhf)
 ----------------------------------------------------------------------
 -----
 title
 -----
 Symbolic Z-matrix:
 Charge =  0 Multiplicity = 1

 SCF Done:  E(RHF) =  -299.984115654     A.U. after   13 cycles
 Normal termination of Gaussian 16 at Tue Apr  8 21:37:37 2025.
 Gaussian 16:  ES64L-G16RevC.01  3-Jul-2019

 ----------------------------------------------------------------------
 #t hf aug-cc-pvdz iop(5/13=1,5/36=2,99/5=2) pseudo=read geom=check gue
 ss=(read,tcheck) scf=(maxcycle=1)
 ----------------------------------------------------------------------
 -----
 title
 -----
 Structure from the checkpoint file:  "ANI1ccx_426_conf2_mol1.chk"
 Charge =  0 Multiplicity = 1

                         Standard orientation:
 ---------------------------------------------------------------------
 Center     Atomic      Atomic             Coordinates (Angstroms)
 Number     Number       Type             X           Y           Z
 ---------------------------------------------------------------------
      1          6           0        1.594619    0.239189    0.376234
      2          1           0        2.650209   -1.351600   -0.008055
      3          1           0        2.178219    0.300773    1.305440
      4          1           0       -1.704381   -0.650978    1.160930
      5          1           0       -3.202921   -0.248628    0.620377
      6          1           0       -0.954189   -0.109057   -0.969678
      7          1           0       -1.546691    1.143051   -0.080486
      8          7           0       -2.297021   -0.636033    0.344285
      9          7           0       -1.794541    0.301225   -0.587992
     10          8           0        1.926639   -0.814320   -0.364539
     11          8           0        0.779983    1.042441    0.042041
 ---------------------------------------------------------------------

 SCF Done:  E(RHF) =  -300.081393773     A.U. after    2 cycles

 The electronic state is 1-A.
 Alpha  occ. eigenvalues --  -20.65473 -20.59056 -15.61639 -15.60213 -11.42442
 Alpha  occ. eigenvalues --   -1.45259  -1.36457  -1.20575  -0.95501  -0.90220
 Alpha  occ. eigenvalues --   -0.82270  -0.70946  -0.67470  -0.66268  -0.64214
 Alpha  occ. eigenvalues --   -0.62476  -0.56917  -0.52826  -0.50120  -0.40517
 Alpha  occ. eigenvalues --   -0.36182
 Alpha virt. eigenvalues --    0.01610   0.03989   0.05105   0.06047   0.07569
 Alpha virt. eigenvalues --    0.08022   0.08892   0.11731   0.12732   0.14225
 Alpha virt. eigenvalues --    0.16364   0.16846   0.18200   0.18588   0.20021

 Mulliken charges:
               1
     1  C    0.785771
     2  H    0.206118
     3  H   -0.190071
     4  H   -0.004420
     5  H    0.083325
     6  H    0.099455
     7  H    0.079845
     8  N   -0.138997
     9  N   -0.099290
    10  O   -0.433802
    11  O   -0.387935
 Sum of Mulliken charges =  -0.00000

 Dipole moment (field-independent basis, Debye):
    X=              5.0310    Y=             -1.0932    Z=              3.8077  Tot=              6.4035

 Test job not archived.
 1\1\GINC-SE186\SP\RHF\Aug-CC-pVDZ\C1H6N2O2\OHZDE\08-Apr-2025\0\\#t hf
 aug-cc-pvdz iop(5/13=1,5/36=2,99/5=2) pseudo=read geom=check guess=(re
 ad,tcheck) scf=(maxcycle=1)\\title\\0,1\C,0,1.59462,0.239188,0.376234\
 H,0,2.65021,-1.3516,-0.00805474\H,0,2.17822,0.300772,1.30544\H,0,-1.70
 438,-0.650979,1.16093\H,0,-3.20292,-0.248629,0.620377\H,0,-0.954188,-0
 .109058,-0.969678\H,0,-1.54669,1.14305,-0.0804862\N,0,-2.29702,-0.6360
 34,0.344285\N,0,-1.79454,0.301224,-0.587992\O,0,1.92664,-0.814321,-0.3
 64539\O,0,0.779984,1.04244,0.0420414\\Version=ES64L-G16RevC.01\State=1

 Normal termination of Gaussian 16 at Tue Apr  8 21:37:40 2025.
