 Gaussian 16, Revision C.01,

 ----------------------------------------------------------------------
 #t hf aug-cc-pvdz symm=none int=(grid=ultrafine) guess=(read,tcheck) s
 table=(opt,rrhf)
 ----------------------------------------------------------------------
 -----
 title
 -----
 Symbolic Z-matrix:
 Charge =  0 Multiplicity = 1

 SCF Done:  E(RHF) =  -696.560606406     A.U. after   14 cycles
 Normal termination of Gaussian 16 at Tue Apr  8 19:19:17 2025.
 Gaussian 16:  ES64L-G16RevC.01  3-Jul-2019

 ----------------------------------------------------------------------
 #t hf aug-cc-pvdz iop(5/13=1,5/36=2,99/5=2) pseudo=read geom=check gue
 ss=(read,tcheck) scf=(maxcycle=1)
 ----------------------------------------------------------------------
 -----
 title
 -----
 Structure from the checkpoint file:  "ANI1ccx_1205_conf10_mol1.chk"
 Charge =  0 Multiplicity = 1

                         Standard orientation:
 ---------------------------------------------------------------------
 Center     Atomic      Atomic             Coordinates (Angstroms)
 Number     Number       Type             X           Y           Z
 ---------------------------------------------------------------------
      1          6           0        0.837342    0.985417   -0.720861
      2          6           0        0.310129    1.155460    0.709068
      3          6           0        2.145701    0.113838   -0.656290
      4          6           0        1.821360   -1.264001   -0.065004
      5          6           0       -2.103118    0.828226    0.034072
      6          6           0       -2.633229   -0.616528   -0.227175
      7          1           0       -1.052550   -1.247609    0.591010
      8          1           0       -2.962418    1.370862    0.457820
      9          1           0       -1.893018    1.259141   -0.958783
     10          1           0       -1.172478    1.184601    1.923250
     11          1           0        3.851400   -1.753313   -0.098053
     12          1           0        2.761179   -3.006272    0.348448
     13          1           0        2.524741    0.002008   -1.708670
     14          1           0        2.868841    0.652567    0.003566
     15          1           0        0.127490    0.383643   -1.313890
     16          1           0        0.264612    2.790160   -1.192870
     17          1           0        1.791093    2.816969   -0.753619
     18          7           0        1.131953    2.276059   -1.308200
     19          7           0        2.897750   -2.093962   -0.052997
     20          7           0       -1.007878    0.921733    0.961267
     21          8           0        1.022002    1.530129    1.620260
     22          8           0        0.725722   -1.579350    0.301779
     23          8           0       -3.684519   -0.811025   -0.788136
     24          8           0       -1.879550   -1.564009    0.248399
 ---------------------------------------------------------------------

 SCF Done:  E(RHF) =  -696.774028287     A.U. after    2 cycles

 The electronic state is 1-A.
 Alpha  occ. eigenvalues --  -20.60564 -20.57466 -20.55475 -20.54632 -15.67171
 Alpha  occ. eigenvalues --  -15.67027 -15.64181 -11.39769 -11.39085 -11.37941
 Alpha  occ. eigenvalues --  -11.31618 -11.30987 -11.28145  -1.42446  -1.39995
 Alpha  occ. eigenvalues --   -1.37454  -1.32163  -1.22545  -1.20731  -1.19544
 Alpha  occ. eigenvalues --   -1.04042  -1.00164  -0.92460  -0.86345  -0.82289
 Alpha  occ. eigenvalues --   -0.79155  -0.75212  -0.74267  -0.72769  -0.71623
 Alpha  occ. eigenvalues --   -0.71380  -0.66906  -0.66468  -0.65543  -0.65107
 Alpha  occ. eigenvalues --   -0.64133  -0.62256  -0.60247  -0.58353  -0.57589
 Alpha  occ. eigenvalues --   -0.56214  -0.54971  -0.51530  -0.48983  -0.48047
 Alpha  occ. eigenvalues --   -0.47517  -0.47047  -0.45046  -0.41839  -0.40851
 Alpha virt. eigenvalues --    0.02041   0.02937   0.03687   0.04083   0.04946
 Alpha virt. eigenvalues --    0.05472   0.06525   0.07183   0.08334   0.08952
 Alpha virt. eigenvalues --    0.09539   0.09956   0.11282   0.11825   0.12029

 Mulliken charges:
               1
     1  C   -0.199182
     2  C    0.923655
     3  C    0.453045
     4  C    0.541655
     5  C    0.626762
     6  C    0.524957
     7  H    0.304583
     8  H   -0.145554
     9  H   -0.009273
    10  H   -0.003071
    11  H   -0.015168
    12  H   -0.001141
    13  H    0.124015
    14  H    0.017437
    15  H   -0.286109
    16  H    0.020652
    17  H    0.038246
    18  N   -0.200347
    19  N   -0.156403
    20  N   -0.595144
    21  O   -0.608431
    22  O   -0.493233
    23  O   -0.510915
    24  O   -0.351039
 Sum of Mulliken charges =  -0.00000

 Dipole moment (field-independent basis, Debye):
    X=              5.9059    Y=              2.0153    Z=              0.0854  Tot=              6.2409

 Test job not archived.
 1\1\GINC-SE095\SP\RHF\Aug-CC-pVDZ\C6H11N3O4\OHZDE\08-Apr-2025\0\\#t hf
  aug-cc-pvdz iop(5/13=1,5/36=2,99/5=2) pseudo=read geom=check guess=(r
 ead,tcheck) scf=(maxcycle=1)\\title\\0,1\C,0,0.83734,0.985418,-0.72086
 1\C,0,0.310127,1.15546,0.709068\C,0,2.1457,0.113839,-0.65629\C,0,1.821
 36,-1.264,-0.0650048\C,0,-2.10312,0.828225,0.0340719\C,0,-2.63323,-0.6
 1653,-0.227175\H,0,-1.05255,-1.24761,0.59101\H,0,-2.96242,1.37086,0.45
 782\H,0,-1.89302,1.25914,-0.958783\H,0,-1.17248,1.1846,1.92325\H,0,3.8
 514,-1.75331,-0.0980536\H,0,2.76118,-3.00627,0.348448\H,0,2.52474,0.00

 Normal termination of Gaussian 16 at Tue Apr  8 19:19:38 2025.
