 Gaussian 16, Revision C.01,

 ----------------------------------------------------------------------
 #t hf aug-cc-pvdz symm=none int=(grid=ultrafine) guess=(read,tcheck) s
 table=(opt,rrhf)
 ----------------------------------------------------------------------
 -----
 title
 -----
 Symbolic Z-matrix:
 Charge =  0 Multiplicity = 1

 SCF Done:  E(RHF) =  -544.886670715     A.U. after   16 cycles
 Normal termination of Gaussian 16 at Tue Apr  8 19:12:24 2025.
 Gaussian 16:  ES64L-G16RevC.01  3-Jul-2019

 ----------------------------------------------------------------------
 #t hf aug-cc-pvdz iop(5/13=1,5/36=2,99/5=2) pseudo=read geom=check gue
 ss=(read,tcheck) scf=(maxcycle=1)
 ----------------------------------------------------------------------
 -----
 title
 -----
 Structure from the checkpoint file:  "ANI1ccx_1075_conf2_mol2.chk"
 Charge =  0 Multiplicity = 1

                         Standard orientation:
 ---------------------------------------------------------------------
 Center     Atomic      Atomic             Coordinates (Angstroms)
 Number     Number       Type             X           Y           Z
 ---------------------------------------------------------------------
      1          6           0       -2.748960   -0.179124    0.018761
      2          6           0       -1.393059    0.407916   -0.040191
      3          6           0       -0.945159    1.712001   -0.026661
      4          6           0        0.470615    1.614930    0.006856
      5          6           0        0.735358    0.295294   -0.041829
      6          1           0       -3.541919    0.619202   -0.022619
      7          1           0       -1.556778    2.616561   -0.000219
      8          1           0        1.214342    2.414179    0.115653
      9          7           0        2.011870   -0.446356    0.000563
     10          8           0       -2.950021   -1.367968    0.065011
     11          8           0       -0.377607   -0.439931   -0.048331
     12          8           0        1.953719   -1.647931   -0.040203
     13          8           0        3.009970    0.251886    0.073727
 ---------------------------------------------------------------------

 SCF Done:  E(RHF) =  -545.053967224     A.U. after    2 cycles

 The electronic state is 1-A.
 Alpha  occ. eigenvalues --  -20.70054 -20.64415 -20.63397 -20.60684 -15.94860
 Alpha  occ. eigenvalues --  -11.39625 -11.38590 -11.35826 -11.31034 -11.30765
 Alpha  occ. eigenvalues --   -1.58322  -1.50764  -1.39820  -1.38988  -1.15153
 Alpha  occ. eigenvalues --   -1.12069  -0.99969  -0.89823  -0.87846  -0.82617
 Alpha  occ. eigenvalues --   -0.81661  -0.76733  -0.75848  -0.72247  -0.71242
 Alpha  occ. eigenvalues --   -0.69690  -0.65108  -0.64260  -0.62573  -0.57795
 Alpha  occ. eigenvalues --   -0.54081  -0.53540  -0.49497  -0.48093  -0.46318
 Alpha  occ. eigenvalues --   -0.38495
 Alpha virt. eigenvalues --    0.00480   0.01884   0.03436   0.05028   0.06650
 Alpha virt. eigenvalues --    0.07930   0.08090   0.09036   0.10488   0.10761
 Alpha virt. eigenvalues --    0.11606   0.12104   0.12676   0.13612   0.14275

 Mulliken charges:
               1
     1  C    0.613178
     2  C    0.266536
     3  C    0.187540
     4  C    0.518812
     5  C    0.826769
     6  H   -0.064662
     7  H   -0.300494
     8  H   -0.259699
     9  N    0.232637
    10  O   -0.424515
    11  O   -0.539211
    12  O   -0.494263
    13  O   -0.562626
 Sum of Mulliken charges =  -0.00000

 Dipole moment (field-independent basis, Debye):
    X=             -2.7144    Y=              6.3920    Z=             -0.0655  Tot=              6.9448

 Test job not archived.
 1\1\GINC-SE368\SP\RHF\Aug-CC-pVDZ\C5H3N1O4\OHZDE\08-Apr-2025\0\\#t hf
 aug-cc-pvdz iop(5/13=1,5/36=2,99/5=2) pseudo=read geom=check guess=(re
 ad,tcheck) scf=(maxcycle=1)\\title\\0,1\C,0,-2.74896,-0.179126,0.01876
 12\C,0,-1.39306,0.407915,-0.0401911\C,0,-0.945161,1.712,-0.0266613\C,0
 ,0.470614,1.61493,0.00685563\C,0,0.735358,0.295294,-0.0418294\H,0,-3.5
 4192,0.619199,-0.0226193\H,0,-1.55678,2.61656,-0.00021941\H,0,1.21434,
 2.41418,0.115653\N,0,2.01187,-0.446355,0.00056323\O,0,-2.95002,-1.3679
 7,0.0650112\O,0,-0.377607,-0.439931,-0.048331\O,0,1.95372,-1.64793,-0.

 Normal termination of Gaussian 16 at Tue Apr  8 19:12:29 2025.
