 Gaussian 16, Revision C.01,

 ----------------------------------------------------------------------
 #t hf aug-cc-pvdz symm=none int=(grid=ultrafine) guess=(read,tcheck) s
 table=(opt,rrhf)
 ----------------------------------------------------------------------
 -----
 title
 -----
 Symbolic Z-matrix:
 Charge =  0 Multiplicity = 1

 SCF Done:  E(RHF) =  -489.684035323     A.U. after   14 cycles
 Normal termination of Gaussian 16 at Tue Apr  8 22:12:03 2025.
 Gaussian 16:  ES64L-G16RevC.01  3-Jul-2019

 ----------------------------------------------------------------------
 #t hf aug-cc-pvdz iop(5/13=1,5/36=2,99/5=2) pseudo=read geom=check gue
 ss=(read,tcheck) scf=(maxcycle=1)
 ----------------------------------------------------------------------
 -----
 title
 -----
 Structure from the checkpoint file:  "ANI1ccx_957_conf60_mol1.chk"
 Charge =  0 Multiplicity = 1

                         Standard orientation:
 ---------------------------------------------------------------------
 Center     Atomic      Atomic             Coordinates (Angstroms)
 Number     Number       Type             X           Y           Z
 ---------------------------------------------------------------------
      1          6           0       -0.752040    0.617670   -0.699813
      2          6           0       -1.083609   -0.797309   -0.238386
      3          6           0        0.712117    0.818317   -0.895907
      4          6           0        1.628770    0.140381    0.132211
      5          1           0       -2.313519   -1.792491    0.912752
      6          1           0        1.920100    0.192020    2.213210
      7          1           0        0.959712    0.356226   -1.841530
      8          1           0        0.994475    1.907590   -0.997865
      9          1           0        0.512852    1.088820    1.619700
     10          1           0       -1.542070    2.374199   -0.523700
     11          1           0       -2.415610    1.408189    0.287485
     12          1           0       -1.035360    0.876949   -1.786180
     13          7           0       -1.447040    1.639809    0.135669
     14          7           0        1.304640    0.479312    1.441660
     15          8           0        2.477221   -0.650609   -0.284011
     16          8           0       -0.314403   -1.725750   -0.525688
     17          8           0       -2.052219   -0.863605    0.720475
 ---------------------------------------------------------------------

 SCF Done:  E(RHF) =  -489.832661128     A.U. after    2 cycles

 The electronic state is 1-A.
 Alpha  occ. eigenvalues --  -20.64907 -20.57731 -20.52990 -15.64685 -15.63620
 Alpha  occ. eigenvalues --  -11.42342 -11.36411 -11.31779 -11.25669  -1.42615
 Alpha  occ. eigenvalues --   -1.33068  -1.32146  -1.19753  -1.16266  -1.04475
 Alpha  occ. eigenvalues --   -0.93526  -0.84263  -0.77992  -0.73870  -0.72224
 Alpha  occ. eigenvalues --   -0.71444  -0.67075  -0.65165  -0.64335  -0.62989
 Alpha  occ. eigenvalues --   -0.61302  -0.58712  -0.56709  -0.54190  -0.52425
 Alpha  occ. eigenvalues --   -0.50376  -0.47937  -0.43838  -0.41225  -0.40635
 Alpha virt. eigenvalues --    0.02264   0.03118   0.03848   0.04534   0.05713
 Alpha virt. eigenvalues --    0.07216   0.07809   0.08050   0.09217   0.11310
 Alpha virt. eigenvalues --    0.11541   0.12545   0.12702   0.14156   0.14593

 Mulliken charges:
               1
     1  C   -0.026758
     2  C    0.927704
     3  C    0.367891
     4  C    0.620085
     5  H    0.212518
     6  H   -0.027936
     7  H   -0.138922
     8  H    0.061067
     9  H    0.067981
    10  H    0.037611
    11  H    0.041404
    12  H    0.169799
    13  N   -0.357646
    14  N   -0.246915
    15  O   -0.571025
    16  O   -0.538350
    17  O   -0.598508
 Sum of Mulliken charges =   0.00000

 Dipole moment (field-independent basis, Debye):
    X=             -5.3903    Y=              3.6683    Z=              0.9300  Tot=              6.5861

 Test job not archived.
 1\1\GINC-SE457\SP\RHF\Aug-CC-pVDZ\C4H8N2O3\OHZDE\08-Apr-2025\0\\#t hf
 aug-cc-pvdz iop(5/13=1,5/36=2,99/5=2) pseudo=read geom=check guess=(re
 ad,tcheck) scf=(maxcycle=1)\\title\\0,1\C,0,-0.75204,0.61767,-0.699813
 \C,0,-1.08361,-0.797308,-0.238386\C,0,0.712117,0.818317,-0.895907\C,0,
 1.62877,0.140381,0.132211\H,0,-2.31352,-1.79249,0.912752\H,0,1.9201,0.
 19202,2.21321\H,0,0.959712,0.356226,-1.84153\H,0,0.994475,1.90759,-0.9
 97865\H,0,0.512852,1.08882,1.6197\H,0,-1.54207,2.3742,-0.5237\H,0,-2.4
 1561,1.40819,0.287485\H,0,-1.03536,0.876949,-1.78618\N,0,-1.44704,1.63

 Normal termination of Gaussian 16 at Tue Apr  8 22:12:11 2025.
