 Gaussian 16, Revision C.01,

 ----------------------------------------------------------------------
 #t hf aug-cc-pvdz symm=none int=(grid=ultrafine) guess=(read,tcheck) s
 table=(opt,rrhf)
 ----------------------------------------------------------------------
 -----
 title
 -----
 Symbolic Z-matrix:
 Charge =  0 Multiplicity = 1

 SCF Done:  E(RHF) =  -927.486086255     A.U. after   15 cycles
 Normal termination of Gaussian 16 at Tue Apr  8 22:16:23 2025.
 Gaussian 16:  ES64L-G16RevC.01  3-Jul-2019

 ----------------------------------------------------------------------
 #t hf aug-cc-pvdz iop(5/13=1,5/36=2,99/5=2) pseudo=read geom=check gue
 ss=(read,tcheck) scf=(maxcycle=1)
 ----------------------------------------------------------------------
 -----
 title
 -----
 Structure from the checkpoint file:  "ANI1ccx_79_conf11_mol1.chk"
 Charge =  0 Multiplicity = 1

                         Standard orientation:
 ---------------------------------------------------------------------
 Center     Atomic      Atomic             Coordinates (Angstroms)
 Number     Number       Type             X           Y           Z
 ---------------------------------------------------------------------
      1          6           0        2.239539   -0.093734   -0.826940
      2          6           0       -2.460221    1.217651   -0.517626
      3          6           0       -2.798951   -0.321183   -0.673471
      4          6           0       -1.672241   -1.321739   -0.981390
      5          6           0       -0.751738   -1.439129    1.320580
      6          6           0       -3.782100    2.065112   -0.694938
      7          6           0        3.013170    1.788150    0.730210
      8          6           0        2.293219    0.419617    0.590257
      9          6           0        1.848659   -1.627980   -0.944310
     10          6           0       -0.438914   -1.152719   -0.037920
     11          1           0       -3.494041   -0.319226   -1.499650
     12          1           0       -1.438281   -0.968889    2.925130
     13          1           0       -5.646820    1.778142    0.194611
     14          1           0       -4.330121    1.342492    1.039610
     15          1           0       -3.697580    3.128502   -0.182246
     16          1           0       -4.059680    2.154422   -1.760740
     17          1           0       -1.923830    1.446341    0.431461
     18          1           0       -1.796970    1.444891   -1.404300
     19          1           0       -3.378161   -0.523936    0.178747
     20          1           0       -1.437131   -1.394679   -2.016800
     21          1           0        0.495510    0.623040   -1.611730
     22          1           0       -0.054866   -0.130892    0.037113
     23          1           0        0.574165   -2.978169   -0.250803
     24          1           0        1.945280    2.259540   -0.839686
     25          1           0        1.231139    0.464784    1.019420
     26          1           0        2.787289   -0.218082    1.378680
     27          1           0        3.282299   -0.068067   -1.262710
     28          1           0        1.777109    0.834307   -2.647980
     29          1           0       -2.135932   -2.304979   -0.712515
     30          7           0        1.468879    0.834604   -1.657590
     31          7           0        0.644356   -2.013909   -0.460815
     32          7           0       -4.767111    1.234872    0.131673
     33          8           0        2.394480    2.736730   -0.066703
     34          8           0       -0.793534   -2.510949    1.915910
     35          8           0        2.651848   -2.427200   -1.327400
     36          8           0        3.889160    2.080930    1.479490
     37          8           0       -1.275051   -0.399859    2.136800
 ---------------------------------------------------------------------

 SCF Done:  E(RHF) =  -927.765177625     A.U. after    2 cycles

 The electronic state is 1-A.
 Alpha  occ. eigenvalues --  -20.64203 -20.60158 -20.58763 -20.56556 -20.56390
 Alpha  occ. eigenvalues --  -15.67648 -15.67404 -15.62687 -11.43652 -11.39886
 Alpha  occ. eigenvalues --  -11.39228 -11.34162 -11.33183 -11.29752 -11.29000
 Alpha  occ. eigenvalues --  -11.28248 -11.26354 -11.24524  -1.44496  -1.39933
 Alpha  occ. eigenvalues --   -1.39065  -1.32906  -1.31307  -1.25608  -1.21761
 Alpha  occ. eigenvalues --   -1.16085  -1.10484  -1.05517  -1.03769  -0.96900
 Alpha  occ. eigenvalues --   -0.92424  -0.88325  -0.84123  -0.83396  -0.80917
 Alpha  occ. eigenvalues --   -0.79660  -0.75132  -0.74565  -0.73907  -0.72235
 Alpha  occ. eigenvalues --   -0.70217  -0.69658  -0.69273  -0.67558  -0.67209
 Alpha  occ. eigenvalues --   -0.65740  -0.64837  -0.64258  -0.63564  -0.62372
 Alpha  occ. eigenvalues --   -0.61133  -0.60355  -0.59300  -0.58090  -0.57743
 Alpha  occ. eigenvalues --   -0.55413  -0.55242  -0.54853  -0.52287  -0.51607
 Alpha  occ. eigenvalues --   -0.50843  -0.50509  -0.49776  -0.48939  -0.48733
 Alpha  occ. eigenvalues --   -0.47793  -0.46396  -0.43193  -0.42183  -0.40811
 Alpha virt. eigenvalues --    0.01738   0.02517   0.03161   0.03401   0.04392
 Alpha virt. eigenvalues --    0.04973   0.05124   0.05826   0.06157   0.06668
 Alpha virt. eigenvalues --    0.07608   0.07825   0.08220   0.08380   0.08851

 Mulliken charges:
               1
     1  C    0.168335
     2  C    0.322786
     3  C    0.552407
     4  C    0.712089
     5  C    0.784006
     6  C    0.646123
     7  C    0.661820
     8  C    0.533222
     9  C    0.575149
    10  C   -0.328523
    11  H   -0.117286
    12  H    0.290213
    13  H   -0.032785
    14  H    0.123871
    15  H    0.061761
    16  H   -0.207160
    17  H   -0.229879
    18  H   -0.120368
    19  H   -0.232332
    20  H   -0.153713
    21  H    0.030253
    22  H   -0.664906
    23  H   -0.122134
    24  H    0.449867
    25  H   -0.010149
    26  H   -0.110013
    27  H   -0.153520
    28  H    0.159952
    29  H    0.221620
    30  N   -0.595808
    31  N   -0.034748
    32  N   -0.361624
    33  O   -0.569116
    34  O   -0.597355
    35  O   -0.469624
    36  O   -0.419914
    37  O   -0.762518
 Sum of Mulliken charges =  -0.00000

 Dipole moment (field-independent basis, Debye):
    X=             -7.1711    Y=              0.1188    Z=             -3.2082  Tot=              7.8570

 Test job not archived.
 1\1\GINC-SE249\SP\RHF\Aug-CC-pVDZ\C10H19N3O5\OHZDE\08-Apr-2025\0\\#t h
 f aug-cc-pvdz iop(5/13=1,5/36=2,99/5=2) pseudo=read geom=check guess=(
 read,tcheck) scf=(maxcycle=1)\\title\\0,1\C,0,2.23954,-0.0937338,-0.82
 694\C,0,-2.46022,1.21765,-0.517626\C,0,-2.79895,-0.321185,-0.673471\C,
 0,-1.67224,-1.32174,-0.98139\C,0,-0.751737,-1.43913,1.32058\C,0,-3.782
 1,2.06511,-0.694938\C,0,3.01317,1.78815,0.73021\C,0,2.29322,0.419617,0
 .590257\C,0,1.84866,-1.62798,-0.94431\C,0,-0.438913,-1.15272,-0.037920
 1\H,0,-3.49404,-0.319228,-1.49965\H,0,-1.43828,-0.96889,2.92513\H,0,-5

 Normal termination of Gaussian 16 at Tue Apr  8 22:17:27 2025.
