 Gaussian 16, Revision C.01,

 ----------------------------------------------------------------------
 #t hf aug-cc-pvdz symm=none int=(grid=ultrafine) guess=(read,tcheck) s
 table=(opt,rrhf)
 ----------------------------------------------------------------------
 -----
 title
 -----
 Symbolic Z-matrix:
 Charge =  0 Multiplicity = 1

 SCF Done:  E(RHF) =  -699.111737665     A.U. after   14 cycles
 Normal termination of Gaussian 16 at Tue Apr  8 19:43:32 2025.
 Gaussian 16:  ES64L-G16RevC.01  3-Jul-2019

 ----------------------------------------------------------------------
 #t hf aug-cc-pvdz iop(5/13=1,5/36=2,99/5=2) pseudo=read geom=check gue
 ss=(read,tcheck) scf=(maxcycle=1)
 ----------------------------------------------------------------------
 -----
 title
 -----
 Structure from the checkpoint file:  "ANI1ccx_1533_conf5_mol1.chk"
 Charge =  0 Multiplicity = 1

                         Standard orientation:
 ---------------------------------------------------------------------
 Center     Atomic      Atomic             Coordinates (Angstroms)
 Number     Number       Type             X           Y           Z
 ---------------------------------------------------------------------
      1          6           0        4.192681    0.719000    0.546640
      2          6           0        3.506781   -0.538298    0.077247
      3          6           0        1.202741   -0.196754   -0.135432
      4          6           0       -1.913149   -1.079141    0.047700
      5          6           0       -3.240529   -0.585397    0.644406
      6          6           0       -3.133010    0.950510    0.217558
      7          6           0       -1.590260    1.206699   -0.234662
      8          1           0       -3.385510    1.837288    0.980409
      9          1           0       -3.776690    1.276708   -0.541771
     10          1           0       -3.285619   -0.742658    1.767350
     11          1           0       -4.154259   -0.972866    0.247046
     12          1           0        4.170661   -1.146839   -0.613988
     13          1           0        5.066231    0.349730    1.231390
     14          1           0        4.583530    1.206362   -0.402328
     15          1           0        3.553680    1.436291    0.979137
     16          1           0        3.238621   -1.064909    0.959667
     17          7           0       -1.061479   -0.083208   -0.354738
     18          8           0       -1.541958   -2.226441   -0.045135
     19          8           0        2.330441   -0.457905   -0.719394
     20          8           0        1.029051    0.136778    1.024480
     21          8           0        0.159398   -0.305477   -1.013040
     22          8           0       -1.068410    2.295999   -0.384974
 ---------------------------------------------------------------------

 SCF Done:  E(RHF) =  -699.329331296     A.U. after    2 cycles

 The electronic state is 1-A.
 Alpha  occ. eigenvalues --  -20.70331 -20.64930 -20.58255 -20.57426 -20.57065
 Alpha  occ. eigenvalues --  -15.76001 -11.47234 -11.41160 -11.40652 -11.31919
 Alpha  occ. eigenvalues --  -11.30354 -11.29705 -11.25302  -1.51067  -1.43804
 Alpha  occ. eigenvalues --   -1.37741  -1.37002  -1.34334  -1.22916  -1.07510
 Alpha  occ. eigenvalues --   -1.04946  -0.94878  -0.93612  -0.87829  -0.85442
 Alpha  occ. eigenvalues --   -0.79306  -0.77626  -0.73435  -0.71801  -0.69827
 Alpha  occ. eigenvalues --   -0.69091  -0.68362  -0.66053  -0.64548  -0.62481
 Alpha  occ. eigenvalues --   -0.62114  -0.59468  -0.59224  -0.58466  -0.57030
 Alpha  occ. eigenvalues --   -0.55703  -0.53905  -0.51676  -0.50974  -0.49945
 Alpha  occ. eigenvalues --   -0.48739  -0.47725  -0.45123  -0.44335
 Alpha virt. eigenvalues --    0.02837   0.03569   0.04387   0.04869   0.05365
 Alpha virt. eigenvalues --    0.05401   0.06451   0.07178   0.07902   0.08541
 Alpha virt. eigenvalues --    0.09908   0.10111   0.11039   0.11609   0.11959

 Mulliken charges:
               1
     1  C    0.031340
     2  C    0.599444
     3  C    0.753192
     4  C    0.486872
     5  C    0.256207
     6  C    0.163142
     7  C    0.464552
     8  H    0.145059
     9  H   -0.242565
    10  H    0.100804
    11  H   -0.056548
    12  H   -0.143930
    13  H    0.181574
    14  H    0.084964
    15  H   -0.163242
    16  H   -0.144633
    17  N   -0.050490
    18  O   -0.487450
    19  O   -0.476589
    20  O   -0.384870
    21  O   -0.662917
    22  O   -0.453916
 Sum of Mulliken charges =  -0.00000

 Dipole moment (field-independent basis, Debye):
    X=             -1.2504    Y=             -0.0540    Z=              0.7966  Tot=              1.4836

 Test job not archived.
 1\1\GINC-SE461\SP\RHF\Aug-CC-pVDZ\C7H9N1O5\OHZDE\08-Apr-2025\0\\#t hf
 aug-cc-pvdz iop(5/13=1,5/36=2,99/5=2) pseudo=read geom=check guess=(re
 ad,tcheck) scf=(maxcycle=1)\\title\\0,1\C,0,4.19268,0.718999,0.54664\C
 ,0,3.50678,-0.538299,0.0772471\C,0,1.20274,-0.196754,-0.135432\C,0,-1.
 91315,-1.07914,0.0477003\C,0,-3.24053,-0.585395,0.644406\C,0,-3.13301,
 0.950512,0.217558\C,0,-1.59026,1.2067,-0.234662\H,0,-3.38551,1.83729,0
 .980409\H,0,-3.77669,1.27671,-0.541771\H,0,-3.28562,-0.742656,1.76735\
 H,0,-4.15426,-0.972864,0.247046\H,0,4.17066,-1.14684,-0.613988\H,0,5.0

 Normal termination of Gaussian 16 at Tue Apr  8 19:43:48 2025.
