 Gaussian 16, Revision C.01,

 ----------------------------------------------------------------------
 #t hf aug-cc-pvdz symm=none int=(grid=ultrafine) guess=(read,tcheck) s
 table=(opt,rrhf)
 ----------------------------------------------------------------------
 -----
 title
 -----
 Symbolic Z-matrix:
 Charge =  0 Multiplicity = 1

 SCF Done:  E(RHF) =  -982.033823838     A.U. after   14 cycles
 Normal termination of Gaussian 16 at Tue Apr  8 20:44:40 2025.
 Gaussian 16:  ES64L-G16RevC.01  3-Jul-2019

 ----------------------------------------------------------------------
 #t hf aug-cc-pvdz iop(5/13=1,5/36=2,99/5=2) pseudo=read geom=check gue
 ss=(read,tcheck) scf=(maxcycle=1)
 ----------------------------------------------------------------------
 -----
 title
 -----
 Structure from the checkpoint file:  "ANI1ccx_1743_conf47_mol1.chk"
 Charge =  0 Multiplicity = 1

                         Standard orientation:
 ---------------------------------------------------------------------
 Center     Atomic      Atomic             Coordinates (Angstroms)
 Number     Number       Type             X           Y           Z
 ---------------------------------------------------------------------
      1          6           0        1.547589   -1.753691   -0.164519
      2          6           0        1.069879   -0.958668    1.026159
      3          6           0        2.249239   -1.110811   -1.311141
      4          6           0        3.465699   -0.341028   -1.034151
      5          6           0        3.260150    0.928813   -0.292847
      6          6           0       -1.182970    0.095534   -0.060161
      7          6           0       -1.403310    1.644540   -0.126520
      8          6           0       -2.340841   -0.479787    0.629483
      9          6           0       -3.772941   -0.452384    0.038438
     10          1           0        0.541184    1.712419    0.191308
     11          1           0       -4.721150   -0.179990   -1.532171
     12          1           0       -2.467390   -0.253537    1.651179
     13          1           0       -2.263011   -1.584560    0.695210
     14          1           0       -0.926549   -0.422591   -0.947887
     15          1           0       -0.118149    0.377671    1.661949
     16          1           0        3.769180    1.853049    1.195209
     17          1           0        4.116199   -0.977130   -0.374607
     18          1           0        4.006060   -0.266902   -2.015801
     19          1           0        2.581339   -2.034111   -1.857051
     20          1           0        1.545319   -0.621089   -2.026851
     21          1           0        2.124399   -2.557711    0.214645
     22          1           0       -0.035743   -3.081091   -0.135757
     23          1           0        0.568811   -2.937871   -1.544821
     24          7           0        0.289130   -2.392701   -0.740098
     25          7           0       -0.071215   -0.166588    0.828914
     26          8           0        1.582299   -1.070281    2.121669
     27          8           0        2.259910    1.713609   -0.396326
     28          8           0        4.089790    1.107939    0.732911
     29          8           0       -2.507300    2.130050   -0.197137
     30          8           0       -4.791481   -0.645408    0.684299
     31          8           0       -3.815380   -0.093149   -1.289031
     32          8           0       -0.267947    2.288909   -0.159481
 ---------------------------------------------------------------------

 SCF Done:  E(RHF) =  -982.333979724     A.U. after    2 cycles

 The electronic state is 1-A.
 Alpha  occ. eigenvalues --  -20.66244 -20.61180 -20.61023 -20.59582 -20.57493
 Alpha  occ. eigenvalues --  -20.55848 -20.55505 -15.66433 -15.64635 -11.45066
 Alpha  occ. eigenvalues --  -11.40317 -11.39982 -11.39380 -11.31163 -11.31150
 Alpha  occ. eigenvalues --  -11.30185 -11.28905 -11.26223  -1.46814  -1.41385
 Alpha  occ. eigenvalues --   -1.40797  -1.38486  -1.33443  -1.31993  -1.31234
 Alpha  occ. eigenvalues --   -1.23646  -1.20393  -1.12295  -1.07361  -1.01006
 Alpha  occ. eigenvalues --   -0.95468  -0.93088  -0.85771  -0.84071  -0.82810
 Alpha  occ. eigenvalues --   -0.80191  -0.77274  -0.75348  -0.74428  -0.71725
 Alpha  occ. eigenvalues --   -0.70960  -0.70593  -0.70026  -0.68832  -0.67791
 Alpha  occ. eigenvalues --   -0.66300  -0.65056  -0.64888  -0.64205  -0.63173
 Alpha  occ. eigenvalues --   -0.62337  -0.61546  -0.60681  -0.58706  -0.58139
 Alpha  occ. eigenvalues --   -0.57418  -0.55543  -0.54506  -0.53847  -0.53470
 Alpha  occ. eigenvalues --   -0.51648  -0.50777  -0.49017  -0.48221  -0.47814
 Alpha  occ. eigenvalues --   -0.47283  -0.45652  -0.43695  -0.40935
 Alpha virt. eigenvalues --    0.01294   0.02517   0.03168   0.03738   0.04879
 Alpha virt. eigenvalues --    0.05300   0.05614   0.06059   0.06670   0.07355
 Alpha virt. eigenvalues --    0.08141   0.08311   0.08831   0.09495   0.10039

 Mulliken charges:
               1
     1  C    0.503928
     2  C    0.458480
     3  C    0.364388
     4  C   -0.118565
     5  C    0.688117
     6  C    0.993479
     7  C    0.630682
     8  C    0.183601
     9  C    0.608925
    10  H    0.435554
    11  H    0.184188
    12  H   -0.221858
    13  H    0.076141
    14  H   -0.346957
    15  H   -0.072939
    16  H    0.143441
    17  H    0.187100
    18  H    0.128775
    19  H    0.031176
    20  H   -0.091805
    21  H   -0.321183
    22  H   -0.036748
    23  H    0.030973
    24  N   -0.227013
    25  N   -0.495871
    26  O   -0.579853
    27  O   -0.632753
    28  O   -0.404714
    29  O   -0.446178
    30  O   -0.570835
    31  O   -0.568863
    32  O   -0.512814
 Sum of Mulliken charges =  -0.00000

 Dipole moment (field-independent basis, Debye):
    X=              7.6030    Y=             -5.6098    Z=             -3.5210  Tot=             10.0833

 Test job not archived.
 1\1\GINC-SE362\SP\RHF\Aug-CC-pVDZ\C9H14N2O7\OHZDE\08-Apr-2025\0\\#t hf
  aug-cc-pvdz iop(5/13=1,5/36=2,99/5=2) pseudo=read geom=check guess=(r
 ead,tcheck) scf=(maxcycle=1)\\title\\0,1\C,0,1.54759,-1.75369,-0.16451
 8\C,0,1.06988,-0.958667,1.02616\C,0,2.24924,-1.11081,-1.31114\C,0,3.46
 57,-0.341027,-1.03415\C,0,3.26015,0.928814,-0.292846\C,0,-1.18297,0.09
 55349,-0.0601601\C,0,-1.40331,1.64454,-0.126519\C,0,-2.34084,-0.479787
 ,0.629484\C,0,-3.77294,-0.452384,0.0384389\H,0,0.541184,1.71242,0.1913
 09\H,0,-4.72115,-0.17999,-1.53217\H,0,-2.46739,-0.253537,1.65118\H,0,-

 Normal termination of Gaussian 16 at Tue Apr  8 20:45:22 2025.
