 Gaussian 16, Revision C.01,

 ----------------------------------------------------------------------
 #t hf aug-cc-pvdz symm=none int=(grid=ultrafine) guess=(read,tcheck) s
 table=(opt,rrhf)
 ----------------------------------------------------------------------
 -----
 title
 -----
 Symbolic Z-matrix:
 Charge =  0 Multiplicity = 1

 SCF Done:  E(RHF) =  -603.931398585     A.U. after   16 cycles
 Normal termination of Gaussian 16 at Tue Apr  8 19:20:12 2025.
 Gaussian 16:  ES64L-G16RevC.01  3-Jul-2019

 ----------------------------------------------------------------------
 #t hf aug-cc-pvdz iop(5/13=1,5/36=2,99/5=2) pseudo=read geom=check gue
 ss=(read,tcheck) scf=(maxcycle=1)
 ----------------------------------------------------------------------
 -----
 title
 -----
 Structure from the checkpoint file:  "ANI1ccx_1299_conf1_mol2.chk"
 Charge =  0 Multiplicity = 1

                         Standard orientation:
 ---------------------------------------------------------------------
 Center     Atomic      Atomic             Coordinates (Angstroms)
 Number     Number       Type             X           Y           Z
 ---------------------------------------------------------------------
      1          6           0       -1.585750   -0.878443   -0.007166
      2          6           0       -0.758125    0.321438   -0.043233
      3          6           0       -1.206738    1.570720   -0.093661
      4          6           0        0.923665    1.750949   -0.003731
      5          6           0        0.689287    0.433388    0.022721
      6          6           0        1.867030   -0.562855    0.053379
      7          1           0       -3.076799    0.249428    0.338435
      8          1           0       -2.238988    1.946601   -0.153093
      9          1           0        1.884902    2.252219    0.030088
     10          1           0        0.565539   -1.941050   -0.228178
     11          8           0       -2.881060   -0.731587    0.263490
     12          8           0       -1.068620   -1.966770   -0.208415
     13          8           0       -0.211169    2.473780   -0.094874
     14          8           0        1.553350   -1.846131   -0.084420
     15          8           0        3.018641   -0.219091    0.179581
 ---------------------------------------------------------------------

 SCF Done:  E(RHF) =  -604.120317124     A.U. after    2 cycles

 The electronic state is 1-A.
 Alpha  occ. eigenvalues --  -20.70370 -20.68159 -20.60794 -20.60527 -20.55521
 Alpha  occ. eigenvalues --  -11.45673 -11.41200 -11.37351 -11.35263 -11.30760
 Alpha  occ. eigenvalues --  -11.29444  -1.49674  -1.47110  -1.41333  -1.37821
 Alpha  occ. eigenvalues --   -1.31856  -1.16136  -1.08293  -0.94976  -0.90098
 Alpha  occ. eigenvalues --   -0.87331  -0.83550  -0.82604  -0.75902  -0.72722
 Alpha  occ. eigenvalues --   -0.72268  -0.70144  -0.69246  -0.67499  -0.66878
 Alpha  occ. eigenvalues --   -0.64839  -0.63762  -0.59867  -0.58512  -0.55279
 Alpha  occ. eigenvalues --   -0.52088  -0.49338  -0.47333  -0.46402  -0.38888
 Alpha virt. eigenvalues --    0.01253   0.03768   0.04327   0.05011   0.06309
 Alpha virt. eigenvalues --    0.07199   0.08206   0.08536   0.08780   0.09926
 Alpha virt. eigenvalues --    0.10512   0.11268   0.11763   0.12246   0.12918

 Mulliken charges:
               1
     1  C    0.393038
     2  C    0.447663
     3  C    0.594488
     4  C    0.760660
     5  C    0.103467
     6  C    0.433060
     7  H    0.216017
     8  H   -0.341972
     9  H   -0.346112
    10  H    0.283289
    11  O   -0.492165
    12  O   -0.585256
    13  O   -0.514679
    14  O   -0.480884
    15  O   -0.470614
 Sum of Mulliken charges =  -0.00000

 Dipole moment (field-independent basis, Debye):
    X=             -6.0217    Y=              5.4536    Z=             -0.0259  Tot=              8.1242

 Test job not archived.
 1\1\GINC-SE228\SP\RHF\Aug-CC-pVDZ\C6H4O5\OHZDE\08-Apr-2025\0\\#t hf au
 g-cc-pvdz iop(5/13=1,5/36=2,99/5=2) pseudo=read geom=check guess=(read
 ,tcheck) scf=(maxcycle=1)\\title\\0,1\C,0,-1.58575,-0.878444,-0.007166
 21\C,0,-0.758126,0.321438,-0.0432326\C,0,-1.20674,1.57072,-0.093661\C,
 0,0.923663,1.75095,-0.00373079\C,0,0.689286,0.433389,0.0227206\C,0,1.8
 6703,-0.562854,0.0533792\H,0,-3.0768,0.249427,0.338435\H,0,-2.23899,1.
 9466,-0.153093\H,0,1.8849,2.25222,0.030088\H,0,0.565539,-1.94105,-0.22
 8178\O,0,-2.88106,-0.731588,0.26349\O,0,-1.06862,-1.96677,-0.208415\O,

 Normal termination of Gaussian 16 at Tue Apr  8 19:20:20 2025.
