 Gaussian 16, Revision C.01,

 ----------------------------------------------------------------------
 #t hf aug-cc-pvdz symm=none int=(grid=ultrafine) guess=(read,tcheck) s
 table=(opt,rrhf)
 ----------------------------------------------------------------------
 -----
 title
 -----
 Symbolic Z-matrix:
 Charge =  0 Multiplicity = 1

 SCF Done:  E(RHF) =  -962.224259062     A.U. after   14 cycles
 Normal termination of Gaussian 16 at Tue Apr  8 20:49:46 2025.
 Gaussian 16:  ES64L-G16RevC.01  3-Jul-2019

 ----------------------------------------------------------------------
 #t hf aug-cc-pvdz iop(5/13=1,5/36=2,99/5=2) pseudo=read geom=check gue
 ss=(read,tcheck) scf=(maxcycle=1)
 ----------------------------------------------------------------------
 -----
 title
 -----
 Structure from the checkpoint file:  "ANI1ccx_1756_conf23_mol1.chk"
 Charge =  0 Multiplicity = 1

                         Standard orientation:
 ---------------------------------------------------------------------
 Center     Atomic      Atomic             Coordinates (Angstroms)
 Number     Number       Type             X           Y           Z
 ---------------------------------------------------------------------
      1          6           0       -0.634162   -1.515550    0.035333
      2          6           0        0.198238   -1.320809    1.228730
      3          6           0       -2.143368   -1.788122    0.309770
      4          6           0       -2.927648   -1.059513   -0.748763
      5          6           0       -2.957420    0.427608   -0.552880
      6          6           0        1.736940    0.415989    0.022645
      7          6           0        2.984981   -0.163656   -0.723168
      8          6           0        1.858188    1.909242    0.466475
      9          6           0        0.368724    2.324471    0.386275
     10          1           0        1.913142   -1.774758   -1.139030
     11          1           0       -1.145892    2.572109    1.259480
     12          1           0        2.434228    2.437143   -0.279654
     13          1           0        2.305088    1.852353    1.474310
     14          1           0        0.964815    0.323833   -0.700629
     15          1           0        1.877761   -0.704742    1.858140
     16          1           0       -2.631752    2.111797   -1.619820
     17          1           0       -2.810760    0.698239   -2.591660
     18          1           0       -2.569468   -1.207353   -1.800850
     19          1           0       -3.965578   -1.338324   -0.780627
     20          1           0       -2.517638   -1.670172    1.301120
     21          1           0       -2.317906   -2.820902    0.183923
     22          1           0       -0.581906   -0.616160   -0.537733
     23          1           0       -0.117767   -2.812800   -1.565520
     24          1           0        0.414137   -3.338509   -0.124913
     25          7           0        0.313443   -2.414209   -0.722140
     26          7           0       -2.746841    1.132987   -1.661680
     27          7           0        1.242351   -0.464774    1.145840
     28          8           0        0.070382   -2.063740    2.200940
     29          8           0       -3.107901    0.877482    0.557895
     30          8           0        3.981000    0.523158   -0.921444
     31          8           0       -0.292860    2.316190   -0.683026
     32          8           0       -0.230964    2.644190    1.502960
     33          8           0        2.852842   -1.405747   -1.259470
 ---------------------------------------------------------------------

 SCF Done:  E(RHF) =  -962.516857371     A.U. after    2 cycles

 The electronic state is 1-A.
 Alpha  occ. eigenvalues --  -20.64434 -20.61313 -20.57380 -20.56846 -20.55186
 Alpha  occ. eigenvalues --  -20.54646 -15.68627 -15.67183 -15.66074 -11.42787
 Alpha  occ. eigenvalues --  -11.41235 -11.38132 -11.37178 -11.33687 -11.31066
 Alpha  occ. eigenvalues --  -11.29160 -11.26629 -11.26086  -1.45875  -1.40188
 Alpha  occ. eigenvalues --   -1.36910  -1.36688  -1.32056  -1.31638  -1.22841
 Alpha  occ. eigenvalues --   -1.20400  -1.19694  -1.08733  -1.08054  -0.99030
 Alpha  occ. eigenvalues --   -0.96104  -0.91385  -0.85735  -0.82870  -0.81044
 Alpha  occ. eigenvalues --   -0.79321  -0.76732  -0.75262  -0.74501  -0.73255
 Alpha  occ. eigenvalues --   -0.71150  -0.70368  -0.68973  -0.67537  -0.67220
 Alpha  occ. eigenvalues --   -0.66254  -0.65555  -0.64198  -0.63037  -0.62521
 Alpha  occ. eigenvalues --   -0.61263  -0.60082  -0.59411  -0.58386  -0.57097
 Alpha  occ. eigenvalues --   -0.56725  -0.55338  -0.54074  -0.53046  -0.52521
 Alpha  occ. eigenvalues --   -0.50572  -0.49331  -0.48902  -0.48456  -0.46460
 Alpha  occ. eigenvalues --   -0.45501  -0.44793  -0.43324  -0.41639
 Alpha virt. eigenvalues --    0.01343   0.02999   0.03463   0.03941   0.05055
 Alpha virt. eigenvalues --    0.05339   0.06094   0.06254   0.06666   0.07386
 Alpha virt. eigenvalues --    0.07524   0.08248   0.09080   0.09568   0.09847

 Mulliken charges:
               1
     1  C    0.700802
     2  C    0.125731
     3  C    1.062630
     4  C    0.418019
     5  C    0.533219
     6  C   -0.388428
     7  C    1.041788
     8  C    0.913321
     9  C    0.884253
    10  H    0.428536
    11  H    0.178359
    12  H    0.022332
    13  H    0.005287
    14  H   -0.369978
    15  H   -0.218321
    16  H   -0.041322
    17  H    0.048050
    18  H   -0.053524
    19  H   -0.144560
    20  H   -0.251617
    21  H   -0.068208
    22  H   -0.654672
    23  H    0.013999
    24  H    0.280111
    25  N   -0.915602
    26  N   -0.116183
    27  N   -0.168237
    28  O   -0.549550
    29  O   -0.595005
    30  O   -0.521255
    31  O   -0.631357
    32  O   -0.433834
    33  O   -0.534783
 Sum of Mulliken charges =  -0.00000

 Dipole moment (field-independent basis, Debye):
    X=             -4.3042    Y=             -1.5854    Z=             -3.9148  Tot=              6.0304

 Test job not archived.
 1\1\GINC-SE454\SP\RHF\Aug-CC-pVDZ\C9H15N3O6\OHZDE\08-Apr-2025\0\\#t hf
  aug-cc-pvdz iop(5/13=1,5/36=2,99/5=2) pseudo=read geom=check guess=(r
 ead,tcheck) scf=(maxcycle=1)\\title\\0,1\C,0,-0.634164,-1.51555,0.0353
 329\C,0,0.198236,-1.32081,1.22873\C,0,-2.14337,-1.78812,0.30977\C,0,-2
 .92765,-1.05951,-0.748763\C,0,-2.95742,0.427611,-0.55288\C,0,1.73694,0
 .415987,0.0226455\C,0,2.98498,-0.16366,-0.723168\C,0,1.85819,1.90924,0
 .466475\C,0,0.368726,2.32447,0.386275\H,0,1.91314,-1.77476,-1.13903\H,
 0,-1.14589,2.57211,1.25948\H,0,2.43423,2.43714,-0.279654\H,0,2.30509,1

 Normal termination of Gaussian 16 at Tue Apr  8 20:50:42 2025.
