 Gaussian 16, Revision C.01,

 ----------------------------------------------------------------------
 #t hf aug-cc-pvdz symm=none int=(grid=ultrafine) guess=(read,tcheck) s
 table=(opt,rrhf)
 ----------------------------------------------------------------------
 -----
 title
 -----
 Symbolic Z-matrix:
 Charge =  0 Multiplicity = 1

 SCF Done:  E(RHF) =  -946.782740630     A.U. after   14 cycles
 Normal termination of Gaussian 16 at Tue Apr  8 21:34:47 2025.
 Gaussian 16:  ES64L-G16RevC.01  3-Jul-2019

 ----------------------------------------------------------------------
 #t hf aug-cc-pvdz iop(5/13=1,5/36=2,99/5=2) pseudo=read geom=check gue
 ss=(read,tcheck) scf=(maxcycle=1)
 ----------------------------------------------------------------------
 -----
 title
 -----
 Structure from the checkpoint file:  "ANI1ccx_207_conf2_mol2.chk"
 Charge =  0 Multiplicity = 1

                         Standard orientation:
 ---------------------------------------------------------------------
 Center     Atomic      Atomic             Coordinates (Angstroms)
 Number     Number       Type             X           Y           Z
 ---------------------------------------------------------------------
      1          6           0        0.797326   -2.433140    0.674430
      2          6           0       -0.509858    1.984340   -0.909773
      3          6           0       -1.763040    1.191360   -1.138150
      4          6           0       -3.418740   -0.527722   -0.326837
      5          6           0       -2.013760    0.086336   -0.074141
      6          6           0       -0.633767    2.905010    0.298288
      7          6           0        2.960900   -0.129586   -0.429700
      8          6           0        3.087010   -1.637359   -0.318213
      9          6           0        1.759341   -2.413339   -0.526505
     10          6           0       -0.004552   -1.067070    0.787106
     11          6           0        4.346430    0.550485   -0.396387
     12          1           0        3.775160    2.289421   -1.339000
     13          1           0       -4.336679   -2.050170   -0.523744
     14          1           0       -0.141863    3.042240    2.249320
     15          1           0        0.330792    1.608040    1.498680
     16          1           0        0.352383    1.333540   -0.797387
     17          1           0       -0.291753    2.627660   -1.781530
     18          1           0       -2.671840    1.829360   -1.165700
     19          1           0       -1.657760    0.658477   -2.099270
     20          1           0       -2.071390    0.489418    0.947622
     21          1           0       -1.266589   -1.805480   -0.558878
     22          1           0        3.784720    2.380341    0.345287
     23          1           0        4.974730    0.169217   -1.217130
     24          1           0       -0.813735   -3.591050    1.304100
     25          1           0        2.412280    0.259763    0.422196
     26          1           0        2.412800    0.138151   -1.373030
     27          1           0        3.587151   -1.968039    0.625823
     28          1           0        3.805741   -2.015949   -1.070850
     29          1           0        1.230161   -2.067249   -1.432630
     30          1           0        1.932511   -3.474989   -0.738860
     31          1           0        1.352611   -2.462839    1.628500
     32          1           0        4.930190    0.234609    0.484647
     33          1           0        0.257615   -4.404370    0.511259
     34          7           0       -0.201474   -3.500970    0.491027
     35          7           0        4.223710    1.998591   -0.485141
     36          7           0       -0.981131   -0.951749   -0.147225
     37          7           0        0.084032    2.558640    1.388110
     38          8           0       -4.471130    0.080091   -0.251666
     39          8           0       -1.353300    3.892840    0.345201
     40          8           0        0.275111   -0.257479    1.639500
     41          8           0       -3.376549   -1.841400   -0.543970
 ---------------------------------------------------------------------

 SCF Done:  E(RHF) =  -947.068614060     A.U. after    2 cycles

 The electronic state is 1-A.
 Alpha  occ. eigenvalues --  -20.65831 -20.58453 -20.56723 -20.51952 -15.66527
 Alpha  occ. eigenvalues --  -15.64468 -15.61958 -15.59955 -11.42483 -11.38571
 Alpha  occ. eigenvalues --  -11.34971 -11.32225 -11.30359 -11.26231 -11.26218
 Alpha  occ. eigenvalues --  -11.25747 -11.25172 -11.24890 -11.23532  -1.46120
 Alpha  occ. eigenvalues --   -1.38555  -1.34474  -1.33192  -1.23752  -1.18693
 Alpha  occ. eigenvalues --   -1.16353  -1.14820  -1.08272  -1.06936  -1.01050
 Alpha  occ. eigenvalues --   -0.98671  -0.91177  -0.89230  -0.85396  -0.83494
 Alpha  occ. eigenvalues --   -0.81575  -0.80371  -0.77542  -0.75291  -0.74034
 Alpha  occ. eigenvalues --   -0.72244  -0.69451  -0.69316  -0.68340  -0.67567
 Alpha  occ. eigenvalues --   -0.66921  -0.65797  -0.64980  -0.63802  -0.63551
 Alpha  occ. eigenvalues --   -0.61850  -0.60868  -0.59512  -0.59247  -0.58808
 Alpha  occ. eigenvalues --   -0.57880  -0.57343  -0.55542  -0.54180  -0.53476
 Alpha  occ. eigenvalues --   -0.52478  -0.51562  -0.51133  -0.50933  -0.49763
 Alpha  occ. eigenvalues --   -0.49269  -0.49217  -0.47372  -0.44833  -0.43115
 Alpha  occ. eigenvalues --   -0.42715  -0.41778  -0.39909  -0.37113
 Alpha virt. eigenvalues --    0.01866   0.02724   0.02796   0.03744   0.04405
 Alpha virt. eigenvalues --    0.05018   0.05367   0.05404   0.05968   0.06516
 Alpha virt. eigenvalues --    0.07134   0.07511   0.07755   0.08267   0.08716

 Mulliken charges:
               1
     1  C    0.669965
     2  C    0.603080
     3  C    0.248162
     4  C    1.181943
     5  C   -0.289457
     6  C    0.732194
     7  C    0.071145
     8  C    0.373327
     9  C    0.556888
    10  C    0.149071
    11  C    1.174395
    12  H    0.021675
    13  H    0.257633
    14  H   -0.012348
    15  H    0.044102
    16  H   -0.440246
    17  H   -0.010534
    18  H   -0.086024
    19  H   -0.042476
    20  H   -0.110445
    21  H    0.063817
    22  H    0.046041
    23  H   -0.168668
    24  H    0.029916
    25  H   -0.481148
    26  H   -0.140095
    27  H   -0.066478
    28  H   -0.110899
    29  H   -0.085699
    30  H   -0.233072
    31  H   -0.212425
    32  H   -0.119075
    33  H   -0.038045
    34  N   -0.255177
    35  N   -0.418651
    36  N   -0.377440
    37  N   -0.135455
    38  O   -0.549583
    39  O   -0.633017
    40  O   -0.606057
    41  O   -0.600841
 Sum of Mulliken charges =  -0.00000

 Dipole moment (field-independent basis, Debye):
    X=              1.5285    Y=             -8.9944    Z=             -0.7459  Tot=              9.1538

 Test job not archived.
 1\1\GINC-SE393\SP\RHF\Aug-CC-pVDZ\C11H22N4O4\OHZDE\08-Apr-2025\0\\#t h
 f aug-cc-pvdz iop(5/13=1,5/36=2,99/5=2) pseudo=read geom=check guess=(
 read,tcheck) scf=(maxcycle=1)\\title\\0,1\C,0,0.797325,-2.43314,0.6744
 3\C,0,-0.509858,1.98434,-0.909773\C,0,-1.76304,1.19136,-1.13815\C,0,-3
 .41874,-0.527722,-0.326837\C,0,-2.01376,0.0863354,-0.0741406\C,0,-0.63
 3767,2.90501,0.298288\C,0,2.9609,-0.129587,-0.4297\C,0,3.08701,-1.6373
 6,-0.318213\C,0,1.75934,-2.41334,-0.526505\C,0,-0.00455239,-1.06707,0.
 787106\C,0,4.34643,0.550484,-0.396387\H,0,3.77516,2.28942,-1.339\H,0,-

 Normal termination of Gaussian 16 at Tue Apr  8 21:36:10 2025.
