 Gaussian 16, Revision C.01,

 ----------------------------------------------------------------------
 #t hf aug-cc-pvdz symm=none int=(grid=ultrafine) guess=(read,tcheck) s
 table=(opt,rrhf)
 ----------------------------------------------------------------------
 -----
 title
 -----
 Symbolic Z-matrix:
 Charge =  0 Multiplicity = 1

 SCF Done:  E(RHF) =  -281.820050870     A.U. after   14 cycles
 Normal termination of Gaussian 16 at Tue Apr  8 21:11:19 2025.
 Gaussian 16:  ES64L-G16RevC.01  3-Jul-2019

 ----------------------------------------------------------------------
 #t hf aug-cc-pvdz iop(5/13=1,5/36=2,99/5=2) pseudo=read geom=check gue
 ss=(read,tcheck) scf=(maxcycle=1)
 ----------------------------------------------------------------------
 -----
 title
 -----
 Structure from the checkpoint file:  "ANI1ccx_1889_conf1_mol1.chk"
 Charge =  0 Multiplicity = 1

                         Standard orientation:
 ---------------------------------------------------------------------
 Center     Atomic      Atomic             Coordinates (Angstroms)
 Number     Number       Type             X           Y           Z
 ---------------------------------------------------------------------
      1          1           0       -0.548540    1.067420   -0.046134
      2          1           0       -2.019618   -0.801290    0.729559
      3          1           0        0.512553   -0.970771   -0.237818
      4          1           0        1.633812    0.740953    1.048280
      5          1           0        2.164952    1.035539   -0.423192
      6          7           0        1.342352    0.620890    0.053121
      7          8           0       -1.434078    0.745883   -0.104870
      8          8           0       -1.382948   -0.665817    0.003069
      9          8           0        1.424572   -0.757326   -0.078517
 ---------------------------------------------------------------------

 SCF Done:  E(RHF) =  -281.911425726     A.U. after    2 cycles

 The electronic state is 1-A.
 Alpha  occ. eigenvalues --  -20.64790 -20.62177 -20.59719 -15.68977  -1.43858
 Alpha  occ. eigenvalues --   -1.38043  -1.18998  -1.06048  -0.76050  -0.73686
 Alpha  occ. eigenvalues --   -0.69536  -0.68567  -0.65181  -0.63935  -0.54828
 Alpha  occ. eigenvalues --   -0.49618  -0.48519  -0.44039
 Alpha virt. eigenvalues --    0.03482   0.04291   0.05564   0.06226   0.07894
 Alpha virt. eigenvalues --    0.13624   0.16581   0.17271   0.18151   0.19348
 Alpha virt. eigenvalues --    0.20019   0.21278   0.22086   0.23206   0.24059

 Mulliken charges:
               1
     1  H    0.232059
     2  H    0.259272
     3  H    0.189586
     4  H    0.141787
     5  H    0.132707
     6  N   -0.106080
     7  O   -0.144504
     8  O   -0.329194
     9  O   -0.375633
 Sum of Mulliken charges =  -0.00000

 Dipole moment (field-independent basis, Debye):
    X=              0.7057    Y=              0.9471    Z=              1.8763  Tot=              2.2171

 Test job not archived.
 1\1\GINC-SE016\SP\RHF\Aug-CC-pVDZ\H5N1O3\OHZDE\08-Apr-2025\0\\#t hf au
 g-cc-pvdz iop(5/13=1,5/36=2,99/5=2) pseudo=read geom=check guess=(read
 ,tcheck) scf=(maxcycle=1)\\title\\0,1\H,0,-0.548542,1.06742,-0.0461346
 \H,0,-2.01962,-0.80129,0.729559\H,0,0.512551,-0.970771,-0.237818\H,0,1
 .63381,0.740953,1.04828\H,0,2.16495,1.03554,-0.423192\N,0,1.34235,0.62
 089,0.0531208\O,0,-1.43408,0.745883,-0.10487\O,0,-1.38295,-0.665817,0.
 00306849\O,0,1.42457,-0.757326,-0.0785167\\Version=ES64L-G16RevC.01\St
 ate=1-A\HF=-281.9114257\RMSD=2.212e-03\Dipole=0.2776431,0.3726,0.73819

 Normal termination of Gaussian 16 at Tue Apr  8 21:11:21 2025.
