 Gaussian 16, Revision C.01,

 ----------------------------------------------------------------------
 #t hf aug-cc-pvdz symm=none int=(grid=ultrafine) guess=(read,tcheck) s
 table=(opt,rrhf)
 ----------------------------------------------------------------------
 -----
 title
 -----
 Symbolic Z-matrix:
 Charge =  0 Multiplicity = 1

 SCF Done:  E(RHF) =  -276.580196146     A.U. after   15 cycles
 Normal termination of Gaussian 16 at Tue Apr  8 21:16:22 2025.
 Gaussian 16:  ES64L-G16RevC.01  3-Jul-2019

 ----------------------------------------------------------------------
 #t hf aug-cc-pvdz iop(5/13=1,5/36=2,99/5=2) pseudo=read geom=check gue
 ss=(read,tcheck) scf=(maxcycle=1)
 ----------------------------------------------------------------------
 -----
 title
 -----
 Structure from the checkpoint file:  "ANI1ccx_370_conf75_mol1.chk"
 Charge =  0 Multiplicity = 1

                         Standard orientation:
 ---------------------------------------------------------------------
 Center     Atomic      Atomic             Coordinates (Angstroms)
 Number     Number       Type             X           Y           Z
 ---------------------------------------------------------------------
      1          6           0        1.056640   -0.020663    0.003742
      2          1           0        2.183159   -0.184569    0.034154
      3          7           0        0.441468    1.140697    0.000980
      4          7           0       -0.959069    0.686909   -0.010870
      5          7           0       -1.045193   -0.571707    0.018885
      6          8           0        0.302070   -1.060343   -0.014946
 ---------------------------------------------------------------------

 SCF Done:  E(RHF) =  -276.660092926     A.U. after    2 cycles

 The electronic state is 1-A.
 Alpha  occ. eigenvalues --  -20.71419 -15.79607 -15.76796 -15.70625 -11.40861
 Alpha  occ. eigenvalues --   -1.54272  -1.32103  -1.20430  -0.93199  -0.87957
 Alpha  occ. eigenvalues --   -0.78115  -0.73704  -0.64478  -0.60041  -0.53124
 Alpha  occ. eigenvalues --   -0.52558  -0.49825  -0.45453
 Alpha virt. eigenvalues --    0.02713   0.06735   0.07574   0.09280   0.10160
 Alpha virt. eigenvalues --    0.12805   0.13000   0.14389   0.14846   0.17620
 Alpha virt. eigenvalues --    0.18448   0.20142   0.20935   0.22916   0.23613

 Mulliken charges:
               1
     1  C    0.771233
     2  H   -0.038684
     3  N   -0.351289
     4  N   -0.068025
     5  N    0.117425
     6  O   -0.430661
 Sum of Mulliken charges =   0.00000

 Dipole moment (field-independent basis, Debye):
    X=              2.6640    Y=             -1.0934    Z=              0.0395  Tot=              2.8799

 Test job not archived.
 1\1\GINC-SE132\SP\RHF\Aug-CC-pVDZ\C1H1N3O1\OHZDE\08-Apr-2025\0\\#t hf
 aug-cc-pvdz iop(5/13=1,5/36=2,99/5=2) pseudo=read geom=check guess=(re
 ad,tcheck) scf=(maxcycle=1)\\title\\0,1\C,0,1.05664,-0.0206562,0.00374
 188\H,0,2.18316,-0.184556,0.034154\N,0,0.441462,1.1407,0.0009799\N,0,-
 0.959073,0.686905,-0.0108699\N,0,-1.04519,-0.571712,0.0188852\O,0,0.30
 2076,-1.06034,-0.0149465\\Version=ES64L-G16RevC.01\State=1-A\HF=-276.6
 600929\RMSD=2.992e-03\Dipole=1.0480977,-0.4301661,0.0155556\Quadrupole
 =2.8144623,-3.4853711,0.6709088,-0.9770219,0.0748077,-0.0226235\PG=C01

 Normal termination of Gaussian 16 at Tue Apr  8 21:16:24 2025.
