 Gaussian 16, Revision C.01,

 ----------------------------------------------------------------------
 #t hf aug-cc-pvdz symm=none int=(grid=ultrafine) guess=(read,tcheck) s
 table=(opt,rrhf)
 ----------------------------------------------------------------------
 -----
 title
 -----
 Symbolic Z-matrix:
 Charge =  0 Multiplicity = 1

 SCF Done:  E(RHF) =  -380.188601252     A.U. after   11 cycles
 Normal termination of Gaussian 16 at Tue Apr  8 21:00:24 2025.
 Gaussian 16:  ES64L-G16RevC.01  3-Jul-2019

 ----------------------------------------------------------------------
 #t hf aug-cc-pvdz iop(5/13=1,5/36=2,99/5=2) pseudo=read geom=check gue
 ss=(read,tcheck) scf=(maxcycle=1)
 ----------------------------------------------------------------------
 -----
 title
 -----
 Structure from the checkpoint file:  "ANI1ccx_1843_conf264_mol1.chk"
 Charge =  0 Multiplicity = 1

                         Standard orientation:
 ---------------------------------------------------------------------
 Center     Atomic      Atomic             Coordinates (Angstroms)
 Number     Number       Type             X           Y           Z
 ---------------------------------------------------------------------
      1          1           0        1.888020    0.662151   -0.138595
      2          1           0        1.412171    1.569519   -1.256490
      3          1           0        1.266688   -1.329661   -0.049899
      4          1           0        2.799568   -1.478843    0.401545
      5          1           0       -0.574501   -1.741019    1.579550
      6          1           0       -0.397042   -0.283425    0.889448
      7          1           0       -1.531199    1.326242    0.145240
      8          1           0       -0.026400    1.800490    0.349996
      9          1           0       -3.213301   -0.570122   -0.548041
     10          1           0       -1.787842   -0.941894   -0.296061
     11          8           0        1.435171    1.576348   -0.268002
     12          8           0        2.247988   -1.181033   -0.384029
     13          8           0       -0.503317   -1.288649    0.685325
     14          8           0       -0.796742    1.355091    0.778054
     15          8           0       -2.362621   -0.338438   -0.945937
 ---------------------------------------------------------------------

 SCF Done:  E(RHF) =  -380.312914659     A.U. after    2 cycles

 The electronic state is 1-A.
 Alpha  occ. eigenvalues --  -20.60820 -20.60048 -20.58913 -20.55935 -20.55208
 Alpha  occ. eigenvalues --   -1.32952  -1.31446  -1.29916  -1.28063  -1.27256
 Alpha  occ. eigenvalues --   -0.75166  -0.73667  -0.71757  -0.70453  -0.68583
 Alpha  occ. eigenvalues --   -0.63318  -0.62380  -0.61098  -0.59680  -0.57723
 Alpha  occ. eigenvalues --   -0.53550  -0.53164  -0.53012  -0.50561  -0.49524
 Alpha virt. eigenvalues --    0.02320   0.04436   0.05088   0.06045   0.06927
 Alpha virt. eigenvalues --    0.07749   0.08576   0.09563   0.10226   0.11063
 Alpha virt. eigenvalues --    0.15970   0.17439   0.19173   0.19337   0.20531

 Mulliken charges:
               1
     1  H    0.271096
     2  H    0.246153
     3  H    0.312274
     4  H    0.224808
     5  H    0.274496
     6  H    0.379769
     7  H    0.241369
     8  H    0.268513
     9  H    0.169858
    10  H    0.348979
    11  O   -0.531389
    12  O   -0.499244
    13  O   -0.745804
    14  O   -0.501782
    15  O   -0.459096
 Sum of Mulliken charges =  -0.00000

 Dipole moment (field-independent basis, Debye):
    X=              0.4148    Y=             -2.1189    Z=              2.3846  Tot=              3.2168

 Test job not archived.
 1\1\GINC-SE150\SP\RHF\Aug-CC-pVDZ\H10O5\OHZDE\08-Apr-2025\0\\#t hf aug
 -cc-pvdz iop(5/13=1,5/36=2,99/5=2) pseudo=read geom=check guess=(read,
 tcheck) scf=(maxcycle=1)\\title\\0,1\H,0,1.88802,0.662153,-0.138595\H,
 0,1.41217,1.56952,-1.25649\H,0,1.26669,-1.32966,-0.049899\H,0,2.79957,
 -1.47884,0.401545\H,0,-0.574498,-1.74102,1.57955\H,0,-0.397041,-0.2834
 26,0.889448\H,0,-1.5312,1.32624,0.14524\H,0,-0.0264017,1.80049,0.34999
 6\H,0,-3.2133,-0.570126,-0.548041\H,0,-1.78784,-0.941896,-0.296061\O,0
 ,1.43517,1.57635,-0.268002\O,0,2.24799,-1.18103,-0.384029\O,0,-0.50331

 Normal termination of Gaussian 16 at Tue Apr  8 21:00:28 2025.
