 Gaussian 16, Revision C.01,

 ----------------------------------------------------------------------
 #t hf aug-cc-pvdz symm=none int=(grid=ultrafine) guess=(read,tcheck) s
 table=(opt,rrhf)
 ----------------------------------------------------------------------
 -----
 title
 -----
 Symbolic Z-matrix:
 Charge =  0 Multiplicity = 1

 SCF Done:  E(RHF) =  -604.212043377     A.U. after   14 cycles
 Normal termination of Gaussian 16 at Tue Apr  8 22:08:12 2025.
 Gaussian 16:  ES64L-G16RevC.01  3-Jul-2019

 ----------------------------------------------------------------------
 #t hf aug-cc-pvdz iop(5/13=1,5/36=2,99/5=2) pseudo=read geom=check gue
 ss=(read,tcheck) scf=(maxcycle=1)
 ----------------------------------------------------------------------
 -----
 title
 -----
 Structure from the checkpoint file:  "ANI1ccx_934_conf6_mol1.chk"
 Charge =  0 Multiplicity = 1

                         Standard orientation:
 ---------------------------------------------------------------------
 Center     Atomic      Atomic             Coordinates (Angstroms)
 Number     Number       Type             X           Y           Z
 ---------------------------------------------------------------------
      1          6           0        0.624644   -0.978082   -0.023203
      2          6           0       -0.630320   -0.433335   -0.900198
      3          6           0       -1.195399    0.908722   -0.220158
      4          6           0        1.661790    0.098660    0.199284
      5          1           0       -0.668135   -1.944679    0.950149
      6          1           0        1.070149   -1.800780   -0.592968
      7          1           0       -0.426482   -0.336423   -1.934680
      8          1           0       -2.067291   -1.129488   -0.057966
      9          1           0       -2.404159    1.411012    1.040830
     10          1           0        2.542690   -0.571804   -1.205990
     11          8           0        0.114370   -1.464509    1.230510
     12          8           0       -1.556241   -1.490258   -0.758273
     13          8           0       -2.041720    0.604908    0.670382
     14          8           0       -0.786973    2.019341   -0.490317
     15          8           0        2.696350    0.207624   -0.715608
     16          8           0        1.472831    0.972441    0.996593
 ---------------------------------------------------------------------

 SCF Done:  E(RHF) =  -604.400864016     A.U. after    2 cycles

 The electronic state is 1-A.
 Alpha  occ. eigenvalues --  -20.67669 -20.63976 -20.62195 -20.60732 -20.58242
 Alpha  occ. eigenvalues --  -20.57200 -11.43074 -11.40962 -11.35962 -11.35524
 Alpha  occ. eigenvalues --   -1.50258  -1.43477  -1.40244  -1.35720  -1.35251
 Alpha  occ. eigenvalues --   -1.34037  -1.05587  -0.97143  -0.90598  -0.83297
 Alpha  occ. eigenvalues --   -0.80503  -0.77022  -0.74638  -0.73747  -0.72592
 Alpha  occ. eigenvalues --   -0.69436  -0.67298  -0.66997  -0.65348  -0.63116
 Alpha  occ. eigenvalues --   -0.61792  -0.60663  -0.58421  -0.54726  -0.53596
 Alpha  occ. eigenvalues --   -0.50229  -0.50053  -0.47516  -0.46321
 Alpha virt. eigenvalues --    0.02461   0.03048   0.04372   0.04925   0.06325
 Alpha virt. eigenvalues --    0.06771   0.08371   0.10076   0.10984   0.11492
 Alpha virt. eigenvalues --    0.12101   0.12623   0.13396   0.13796   0.14157

 Mulliken charges:
               1
     1  C    0.754493
     2  C    0.566347
     3  C    0.803473
     4  C    0.760349
     5  H    0.190193
     6  H   -0.234059
     7  H   -0.325204
     8  H    0.223132
     9  H    0.205427
    10  H    0.170598
    11  O   -0.609782
    12  O   -0.597517
    13  O   -0.465839
    14  O   -0.499935
    15  O   -0.489166
    16  O   -0.452510
 Sum of Mulliken charges =  -0.00000

 Dipole moment (field-independent basis, Debye):
    X=             -3.2372    Y=             -3.7137    Z=             -1.9726  Tot=              5.3068

 Test job not archived.
 1\1\GINC-SE092\SP\RHF\Aug-CC-pVDZ\C4H6O6\OHZDE\08-Apr-2025\0\\#t hf au
 g-cc-pvdz iop(5/13=1,5/36=2,99/5=2) pseudo=read geom=check guess=(read
 ,tcheck) scf=(maxcycle=1)\\title\\0,1\C,0,0.624644,-0.978082,-0.023202
 5\C,0,-0.63032,-0.433336,-0.900198\C,0,-1.1954,0.908721,-0.220158\C,0,
 1.66179,0.09866,0.199284\H,0,-0.668134,-1.94468,0.950149\H,0,1.07015,-
 1.80078,-0.592968\H,0,-0.426482,-0.336424,-1.93468\H,0,-2.06729,-1.129
 49,-0.0579657\H,0,-2.40416,1.41101,1.04083\H,0,2.54269,-0.571803,-1.20
 599\O,0,0.114371,-1.46451,1.23051\O,0,-1.55624,-1.49026,-0.758273\O,0,

 Normal termination of Gaussian 16 at Tue Apr  8 22:08:20 2025.
