 Gaussian 16, Revision C.01,

 ----------------------------------------------------------------------
 #t hf aug-cc-pvdz symm=none int=(grid=ultrafine) guess=(read,tcheck) s
 table=(opt,rrhf)
 ----------------------------------------------------------------------
 -----
 title
 -----
 Symbolic Z-matrix:
 Charge =  0 Multiplicity = 1

 SCF Done:  E(RHF) =  -603.563639932     A.U. after   15 cycles
 Normal termination of Gaussian 16 at Tue Apr  8 22:17:28 2025.
 Gaussian 16:  ES64L-G16RevC.01  3-Jul-2019

 ----------------------------------------------------------------------
 #t hf aug-cc-pvdz iop(5/13=1,5/36=2,99/5=2) pseudo=read geom=check gue
 ss=(read,tcheck) scf=(maxcycle=1)
 ----------------------------------------------------------------------
 -----
 title
 -----
 Structure from the checkpoint file:  "ANI1ccx_999_conf12_mol1.chk"
 Charge =  0 Multiplicity = 1

                         Standard orientation:
 ---------------------------------------------------------------------
 Center     Atomic      Atomic             Coordinates (Angstroms)
 Number     Number       Type             X           Y           Z
 ---------------------------------------------------------------------
      1          6           0        1.397920   -0.577398    1.072150
      2          6           0        0.759189   -1.384901   -0.035096
      3          6           0       -1.023569    0.340734   -0.525386
      4          6           0       -0.204705    1.668810   -0.240753
      5          6           0       -1.931229   -0.056441    0.659975
      6          1           0        0.812460    1.003268   -1.640740
      7          1           0       -2.824322   -1.882655    0.694319
      8          1           0       -1.339140   -0.511491    1.419310
      9          1           0       -2.535718    0.806430    0.952930
     10          1           0       -1.549828    0.606748   -1.414540
     11          1           0        0.639926    0.065167    1.598030
     12          1           0        1.838728   -1.374933    1.731630
     13          1           0        2.011813    0.974102    0.013451
     14          1           0        3.036500   -0.287031   -0.111217
     15          1           0       -0.456279   -1.324009   -1.607100
     16          7           0        2.520991    0.286198    0.580290
     17          7           0       -0.140592   -0.723586   -0.831157
     18          8           0       -2.848051   -1.116975    0.123416
     19          8           0        1.173996   -2.494002   -0.433763
     20          8           0       -0.350127    2.439861    0.675751
     21          8           0        0.738860    1.801279   -1.048570
 ---------------------------------------------------------------------

 SCF Done:  E(RHF) =  -603.748611810     A.U. after    2 cycles

 The electronic state is 1-A.
 Alpha  occ. eigenvalues --  -20.66608 -20.59702 -20.57805 -20.56579 -15.68542
 Alpha  occ. eigenvalues --  -15.63689 -11.42072 -11.39335 -11.33632 -11.32957
 Alpha  occ. eigenvalues --  -11.30227  -1.49879  -1.36322  -1.35663  -1.32826
 Alpha  occ. eigenvalues --   -1.24502  -1.16919  -1.05007  -0.96940  -0.93094
 Alpha  occ. eigenvalues --   -0.89677  -0.82577  -0.77031  -0.75557  -0.72702
 Alpha  occ. eigenvalues --   -0.72052  -0.69670  -0.68965  -0.66666  -0.64927
 Alpha  occ. eigenvalues --   -0.62497  -0.61627  -0.60060  -0.59153  -0.56826
 Alpha  occ. eigenvalues --   -0.54620  -0.53772  -0.51309  -0.50830  -0.48867
 Alpha  occ. eigenvalues --   -0.48425  -0.42669  -0.41735
 Alpha virt. eigenvalues --    0.02080   0.02965   0.04169   0.04753   0.05571
 Alpha virt. eigenvalues --    0.06128   0.06570   0.07562   0.08167   0.09232
 Alpha virt. eigenvalues --    0.09786   0.10439   0.10956   0.11842   0.12586

 Mulliken charges:
               1
     1  C    0.655936
     2  C    0.487385
     3  C    0.079898
     4  C    0.690705
     5  C    1.183723
     6  H    0.371082
     7  H    0.169067
     8  H   -0.171014
     9  H   -0.149674
    10  H   -0.197291
    11  H   -0.072159
    12  H   -0.035345
    13  H    0.090257
    14  H    0.124623
    15  H    0.018087
    16  N   -0.447493
    17  N   -0.528440
    18  O   -0.592592
    19  O   -0.609030
    20  O   -0.524674
    21  O   -0.543050
 Sum of Mulliken charges =  -0.00000

 Dipole moment (field-independent basis, Debye):
    X=             -2.1525    Y=             -0.8109    Z=             -1.8828  Tot=              2.9725

 Test job not archived.
 1\1\GINC-SE226\SP\RHF\Aug-CC-pVDZ\C5H10N2O4\OHZDE\08-Apr-2025\0\\#t hf
  aug-cc-pvdz iop(5/13=1,5/36=2,99/5=2) pseudo=read geom=check guess=(r
 ead,tcheck) scf=(maxcycle=1)\\title\\0,1\C,0,1.39792,-0.577395,1.07215
 \C,0,0.759191,-1.3849,-0.035096\C,0,-1.02357,0.340732,-0.525386\C,0,-0
 .204709,1.66881,-0.240753\C,0,-1.93123,-0.0564446,0.659975\H,0,0.81245
 7,1.00327,-1.64074\H,0,-2.82432,-1.88266,0.694319\H,0,-1.33914,-0.5114
 93,1.41931\H,0,-2.53572,0.806426,0.95293\H,0,-1.54983,0.606745,-1.4145
 4\H,0,0.639925,0.0651678,1.59803\H,0,1.83873,-1.37493,1.73163\H,0,2.01

 Normal termination of Gaussian 16 at Tue Apr  8 22:17:43 2025.
