 Gaussian 16, Revision C.01,

 ----------------------------------------------------------------------
 #t hf aug-cc-pvdz symm=none int=(grid=ultrafine) guess=(read,tcheck) s
 table=(opt,rrhf)
 ----------------------------------------------------------------------
 -----
 title
 -----
 Symbolic Z-matrix:
 Charge =  0 Multiplicity = 1

 SCF Done:  E(RHF) =  -810.389372600     A.U. after   15 cycles
 Normal termination of Gaussian 16 at Tue Apr  8 19:37:11 2025.
 Gaussian 16:  ES64L-G16RevC.01  3-Jul-2019

 ----------------------------------------------------------------------
 #t hf aug-cc-pvdz iop(5/13=1,5/36=2,99/5=2) pseudo=read geom=check gue
 ss=(read,tcheck) scf=(maxcycle=1)
 ----------------------------------------------------------------------
 -----
 title
 -----
 Structure from the checkpoint file:  "ANI1ccx_1427_conf34_mol1.chk"
 Charge =  0 Multiplicity = 1

                         Standard orientation:
 ---------------------------------------------------------------------
 Center     Atomic      Atomic             Coordinates (Angstroms)
 Number     Number       Type             X           Y           Z
 ---------------------------------------------------------------------
      1          6           0       -2.312970   -0.937722    0.089427
      2          6           0       -1.171810    0.136845    0.033675
      3          6           0       -3.719680   -0.284245   -0.088902
      4          6           0        1.268090    0.513768    0.608640
      5          6           0        1.558029    2.051620    0.417402
      6          6           0        2.188310   -0.114832   -0.396349
      7          6           0        2.294830   -1.669449   -0.344139
      8          1           0        0.118100    2.195120   -0.879881
      9          1           0        3.152570   -2.299869   -1.976450
     10          1           0        3.475630   -3.239759   -0.766594
     11          1           0        3.196360    0.150715   -0.100595
     12          1           0        2.086020    0.209372   -1.469450
     13          1           0        1.676460    0.337473    1.617030
     14          1           0        0.080526   -1.133810    0.943865
     15          1           0       -2.872811    0.978690   -1.070250
     16          1           0       -4.125580    0.160451    0.819447
     17          1           0       -4.411650   -1.085421   -0.384760
     18          1           0       -2.217620   -1.429990   -0.824086
     19          1           0       -2.921310   -2.488450    1.082030
     20          1           0       -2.636470   -1.069910    1.930430
     21          7           0       -2.180250   -1.727780    1.325240
     22          7           0       -0.085485   -0.169190    0.758089
     23          7           0        3.342220   -2.201369   -1.019690
     24          8           0       -1.219711    1.103540   -0.776648
     25          8           0       -3.829080    0.690901   -1.068370
     26          8           0        2.348369    2.681431    1.055300
     27          8           0        1.478930   -2.304150    0.344356
     28          8           0        0.875941    2.731760   -0.590225
 ---------------------------------------------------------------------

 SCF Done:  E(RHF) =  -810.633214964     A.U. after    2 cycles

 The electronic state is 1-A.
 Alpha  occ. eigenvalues --  -20.59598 -20.59438 -20.58466 -20.57275 -20.55667
 Alpha  occ. eigenvalues --  -15.68239 -15.68151 -15.65949 -11.41592 -11.41319
 Alpha  occ. eigenvalues --  -11.40816 -11.33928 -11.31057 -11.29821 -11.29403
 Alpha  occ. eigenvalues --   -1.40868  -1.38863  -1.38249  -1.32319  -1.31522
 Alpha  occ. eigenvalues --   -1.23950  -1.22640  -1.19546  -1.09175  -0.99385
 Alpha  occ. eigenvalues --   -0.95276  -0.89279  -0.84999  -0.82370  -0.80716
 Alpha  occ. eigenvalues --   -0.75437  -0.74950  -0.72548  -0.71499  -0.71030
 Alpha  occ. eigenvalues --   -0.68798  -0.67113  -0.65910  -0.65549  -0.64585
 Alpha  occ. eigenvalues --   -0.64163  -0.62284  -0.60918  -0.60418  -0.59599
 Alpha  occ. eigenvalues --   -0.57975  -0.57040  -0.56111  -0.54191  -0.53753
 Alpha  occ. eigenvalues --   -0.50226  -0.49086  -0.48302  -0.47485  -0.46595
 Alpha  occ. eigenvalues --   -0.44821  -0.44350  -0.42435
 Alpha virt. eigenvalues --    0.01498   0.02830   0.03242   0.04067   0.04814
 Alpha virt. eigenvalues --    0.05378   0.05629   0.06733   0.07316   0.07987
 Alpha virt. eigenvalues --    0.08099   0.08922   0.09959   0.10369   0.10411

 Mulliken charges:
               1
     1  C    0.238485
     2  C    0.292374
     3  C    1.169320
     4  C    0.595901
     5  C    0.752227
     6  C    0.062267
     7  C    0.421660
     8  H    0.257694
     9  H    0.014166
    10  H    0.152293
    11  H    0.094732
    12  H   -0.049732
    13  H   -0.214733
    14  H    0.071129
    15  H    0.276636
    16  H   -0.218799
    17  H   -0.146225
    18  H   -0.112331
    19  H    0.221612
    20  H    0.128596
    21  N   -0.510322
    22  N   -0.297140
    23  N   -0.252389
    24  O   -0.824998
    25  O   -0.579930
    26  O   -0.480834
    27  O   -0.545807
    28  O   -0.515852
 Sum of Mulliken charges =   0.00000

 Dipole moment (field-independent basis, Debye):
    X=              1.0605    Y=             -7.8897    Z=             -0.9547  Tot=              8.0176

 Test job not archived.
 1\1\GINC-SE100\SP\RHF\Aug-CC-pVDZ\C7H13N3O5\OHZDE\08-Apr-2025\0\\#t hf
  aug-cc-pvdz iop(5/13=1,5/36=2,99/5=2) pseudo=read geom=check guess=(r
 ead,tcheck) scf=(maxcycle=1)\\title\\0,1\C,0,-2.31297,-0.937722,0.0894
 269\C,0,-1.17181,0.136845,0.0336758\C,0,-3.71968,-0.284245,-0.0889013\
 C,0,1.26809,0.513768,0.60864\C,0,1.55803,2.05162,0.417402\C,0,2.18831,
 -0.114833,-0.396349\C,0,2.29483,-1.66945,-0.344139\H,0,0.118101,2.1951
 2,-0.879881\H,0,3.15257,-2.29987,-1.97645\H,0,3.47563,-3.23976,-0.7665
 94\H,0,3.19636,0.150714,-0.100595\H,0,2.08602,0.209371,-1.46945\H,0,1.

 Normal termination of Gaussian 16 at Tue Apr  8 19:37:42 2025.
