 Gaussian 16, Revision C.01,

 ----------------------------------------------------------------------
 #t hf aug-cc-pvdz symm=none int=(grid=ultrafine) guess=(read,tcheck) s
 table=(opt,rrhf)
 ----------------------------------------------------------------------
 -----
 title
 -----
 Symbolic Z-matrix:
 Charge =  0 Multiplicity = 1

 SCF Done:  E(RHF) =  -456.239528442     A.U. after   11 cycles
 Normal termination of Gaussian 16 at Tue Apr  8 21:07:45 2025.
 Gaussian 16:  ES64L-G16RevC.01  3-Jul-2019

 ----------------------------------------------------------------------
 #t hf aug-cc-pvdz iop(5/13=1,5/36=2,99/5=2) pseudo=read geom=check gue
 ss=(read,tcheck) scf=(maxcycle=1)
 ----------------------------------------------------------------------
 -----
 title
 -----
 Structure from the checkpoint file:  "ANI1ccx_1844_conf501_mol1.chk"
 Charge =  0 Multiplicity = 1

                         Standard orientation:
 ---------------------------------------------------------------------
 Center     Atomic      Atomic             Coordinates (Angstroms)
 Number     Number       Type             X           Y           Z
 ---------------------------------------------------------------------
      1          1           0       -3.575949   -1.332668    0.752692
      2          1           0       -0.085972    1.391201   -0.113194
      3          1           0        1.378482    1.218151   -0.806241
      4          1           0       -2.253758    2.277172    0.786212
      5          1           0        2.619471   -0.962226    2.114880
      6          1           0        1.594591    0.036053    1.073180
      7          1           0       -2.419228    0.857414    0.056860
      8          1           0        3.241911   -0.242238   -1.820840
      9          1           0       -0.263308   -0.672977    0.502373
     10          1           0       -0.038948   -1.141169   -0.892209
     11          1           0       -2.480039   -1.444868   -0.180944
     12          1           0        2.793631   -0.622077   -0.376707
     13          8           0       -1.869678    1.722512    0.023682
     14          8           0       -3.324679   -0.999725   -0.130791
     15          8           0       -0.668053   -1.217419   -0.176678
     16          8           0        2.564401   -0.248200   -1.157560
     17          8           0        2.385581   -0.468610    1.291470
     18          8           0        0.848567    1.291221    0.012871
 ---------------------------------------------------------------------

 SCF Done:  E(RHF) =  -456.390553523     A.U. after    2 cycles

 The electronic state is 1-A.
 Alpha  occ. eigenvalues --  -20.58752 -20.58317 -20.57329 -20.56373 -20.55596
 Alpha  occ. eigenvalues --  -20.54768  -1.33237  -1.32771  -1.30842  -1.29581
 Alpha  occ. eigenvalues --   -1.28928  -1.27954  -0.79325  -0.75871  -0.74800
 Alpha  occ. eigenvalues --   -0.73290  -0.71955  -0.70086  -0.63303  -0.61351
 Alpha  occ. eigenvalues --   -0.59487  -0.58839  -0.57130  -0.54661  -0.54441
 Alpha  occ. eigenvalues --   -0.52818  -0.52359  -0.51900  -0.51659  -0.50220
 Alpha virt. eigenvalues --    0.02840   0.03927   0.04668   0.05485   0.06867
 Alpha virt. eigenvalues --    0.07381   0.08142   0.08894   0.09319   0.10074
 Alpha virt. eigenvalues --    0.10429   0.11632   0.17651   0.17739   0.18804

 Mulliken charges:
               1
     1  H    0.190960
     2  H    0.220973
     3  H    0.295564
     4  H    0.222956
     5  H    0.208913
     6  H    0.238862
     7  H    0.274762
     8  H    0.169278
     9  H    0.203703
    10  H    0.184694
    11  H    0.186206
    12  H    0.150032
    13  O   -0.502444
    14  O   -0.366694
    15  O   -0.400261
    16  O   -0.309884
    17  O   -0.473526
    18  O   -0.494094
 Sum of Mulliken charges =  -0.00000

 Dipole moment (field-independent basis, Debye):
    X=              1.0733    Y=             -1.3411    Z=              2.2254  Tot=              2.8112

 Test job not archived.
 1\1\GINC-SE249\SP\RHF\Aug-CC-pVDZ\H12O6\OHZDE\08-Apr-2025\0\\#t hf aug
 -cc-pvdz iop(5/13=1,5/36=2,99/5=2) pseudo=read geom=check guess=(read,
 tcheck) scf=(maxcycle=1)\\title\\0,1\H,0,-3.57595,-1.33267,0.752692\H,
 0,-0.0859741,1.3912,-0.113194\H,0,1.37848,1.21815,-0.806241\H,0,-2.253
 76,2.27717,0.786212\H,0,2.61947,-0.962226,2.11488\H,0,1.59459,0.036052
 5,1.07318\H,0,-2.41923,0.857412,0.0568605\H,0,3.24191,-0.242238,-1.820
 84\H,0,-0.263309,-0.672978,0.502373\H,0,-0.0389494,-1.14117,-0.892209\
 H,0,-2.48004,-1.44487,-0.180944\H,0,2.79363,-0.622077,-0.376707\O,0,-1

 Normal termination of Gaussian 16 at Tue Apr  8 21:07:51 2025.
