 Gaussian 16, Revision C.01,

 ----------------------------------------------------------------------
 #t hf aug-cc-pvdz symm=none int=(grid=ultrafine) guess=(read,tcheck) s
 table=(opt,rrhf)
 ----------------------------------------------------------------------
 -----
 title
 -----
 Symbolic Z-matrix:
 Charge =  0 Multiplicity = 1

 SCF Done:  E(RHF) =  -555.314519233     A.U. after   17 cycles
 Normal termination of Gaussian 16 at Tue Apr  8 21:59:53 2025.
 Gaussian 16:  ES64L-G16RevC.01  3-Jul-2019

 ----------------------------------------------------------------------
 #t hf aug-cc-pvdz iop(5/13=1,5/36=2,99/5=2) pseudo=read geom=check gue
 ss=(read,tcheck) scf=(maxcycle=1)
 ----------------------------------------------------------------------
 -----
 title
 -----
 Structure from the checkpoint file:  "ANI1ccx_886_conf8_mol1.chk"
 Charge =  0 Multiplicity = 1

                         Standard orientation:
 ---------------------------------------------------------------------
 Center     Atomic      Atomic             Coordinates (Angstroms)
 Number     Number       Type             X           Y           Z
 ---------------------------------------------------------------------
      1          6           0        1.302060    0.753874    0.079605
      2          6           0       -0.953629    0.709709    0.042413
      3          6           0       -0.965102   -0.718189   -0.000429
      4          6           0        1.329680   -0.699431    0.031366
      5          1           0        2.475049    2.336869   -0.402887
      6          1           0        3.276670    0.801916   -0.395402
      7          1           0        2.381250   -2.354561   -0.206977
      8          1           0        3.044680   -1.249111    0.850153
      9          7           0        2.528500    1.389649   -0.024365
     10          7           0        0.181761    1.428449   -0.019195
     11          7           0       -2.195460    1.123069    0.098262
     12          7           0       -2.183050   -1.171051   -0.102216
     13          7           0        0.210988   -1.390031    0.017357
     14          7           0        2.579250   -1.352441   -0.043265
     15          8           0       -2.913700   -0.000549   -0.031083
 ---------------------------------------------------------------------

 SCF Done:  E(RHF) =  -555.470968949     A.U. after    2 cycles

 The electronic state is 1-A.
 Alpha  occ. eigenvalues --  -20.69438 -15.72004 -15.71443 -15.68691 -15.68075
 Alpha  occ. eigenvalues --  -15.67716 -15.66326 -11.39103 -11.38880 -11.33224
 Alpha  occ. eigenvalues --  -11.32772  -1.50225  -1.33395  -1.25815  -1.23184
 Alpha  occ. eigenvalues --   -1.20185  -1.14602  -1.11556  -0.95277  -0.89367
 Alpha  occ. eigenvalues --   -0.86406  -0.79694  -0.77247  -0.72494  -0.70740
 Alpha  occ. eigenvalues --   -0.69963  -0.68841  -0.67438  -0.62099  -0.61107
 Alpha  occ. eigenvalues --   -0.54990  -0.53728  -0.51763  -0.50093  -0.48987
 Alpha  occ. eigenvalues --   -0.47031  -0.42472  -0.38248  -0.35926
 Alpha virt. eigenvalues --    0.01566   0.01713   0.03009   0.04261   0.05867
 Alpha virt. eigenvalues --    0.08178   0.08709   0.09419   0.09778   0.11167
 Alpha virt. eigenvalues --    0.12679   0.12857   0.12960   0.13301   0.13387

 Mulliken charges:
               1
     1  C    0.577210
     2  C    0.732655
     3  C    0.832942
     4  C    0.720434
     5  H    0.017014
     6  H    0.057366
     7  H    0.091281
     8  H    0.082134
     9  N   -0.427868
    10  N   -0.448199
    11  N   -0.308329
    12  N   -0.359013
    13  N   -0.538795
    14  N   -0.433729
    15  O   -0.595104
 Sum of Mulliken charges =  -0.00000

 Dipole moment (field-independent basis, Debye):
    X=              7.6205    Y=             -0.6959    Z=              0.1597  Tot=              7.6539

 Test job not archived.
 1\1\GINC-SE084\SP\RHF\Aug-CC-pVDZ\C4H4N6O1\OHZDE\08-Apr-2025\0\\#t hf
 aug-cc-pvdz iop(5/13=1,5/36=2,99/5=2) pseudo=read geom=check guess=(re
 ad,tcheck) scf=(maxcycle=1)\\title\\0,1\C,0,1.30206,0.753875,0.0796046
 \C,0,-0.953629,0.70971,0.0424128\C,0,-0.965102,-0.718188,-0.00042852\C
 ,0,1.32968,-0.69943,0.0313664\H,0,2.47505,2.33687,-0.402887\H,0,3.2766
 7,0.801917,-0.395402\H,0,2.38125,-2.35456,-0.206977\H,0,3.04468,-1.249
 11,0.850153\N,0,2.5285,1.38965,-0.0243649\N,0,0.181761,1.42845,-0.0191
 953\N,0,-2.19546,1.12307,0.0982623\N,0,-2.18305,-1.17105,-0.102216\N,0

 Normal termination of Gaussian 16 at Tue Apr  8 22:00:02 2025.
