 Gaussian 16, Revision C.01,

 ----------------------------------------------------------------------
 #t hf aug-cc-pvdz symm=none int=(grid=ultrafine) guess=(read,tcheck) s
 table=(opt,rrhf)
 ----------------------------------------------------------------------
 -----
 title
 -----
 Symbolic Z-matrix:
 Charge =  0 Multiplicity = 1

 SCF Done:  E(RHF) =  -509.534303763     A.U. after   14 cycles
 Normal termination of Gaussian 16 at Tue Apr  8 22:09:57 2025.
 Gaussian 16:  ES64L-G16RevC.01  3-Jul-2019

 ----------------------------------------------------------------------
 #t hf aug-cc-pvdz iop(5/13=1,5/36=2,99/5=2) pseudo=read geom=check gue
 ss=(read,tcheck) scf=(maxcycle=1)
 ----------------------------------------------------------------------
 -----
 title
 -----
 Structure from the checkpoint file:  "ANI1ccx_939_conf48_mol1.chk"
 Charge =  0 Multiplicity = 1

                         Standard orientation:
 ---------------------------------------------------------------------
 Center     Atomic      Atomic             Coordinates (Angstroms)
 Number     Number       Type             X           Y           Z
 ---------------------------------------------------------------------
      1          6           0       -0.769315    0.549381   -0.758924
      2          6           0       -1.425080   -0.496832    0.081710
      3          6           0        0.685313    0.270766   -1.077290
      4          6           0        1.668310   -0.033811    0.058393
      5          1           0       -0.737871    2.646660   -0.549001
      6          1           0       -1.903559    1.882711    0.127440
      7          1           0       -1.372850    0.630771   -1.682400
      8          1           0        0.843033   -0.600861   -1.650880
      9          1           0        1.191070    1.117599   -1.550340
     10          1           0        2.120480    0.115312    1.796790
     11          1           0       -1.530661   -2.408010    0.106632
     12          7           0       -0.885862    1.799810   -0.056937
     13          8           0       -2.279870   -0.332757    0.924391
     14          8           0        2.619070   -0.798676   -0.076709
     15          8           0        1.461860    0.645418    1.195080
     16          8           0       -0.971556   -1.728970   -0.295638
 ---------------------------------------------------------------------

 SCF Done:  E(RHF) =  -509.692184525     A.U. after    2 cycles

 The electronic state is 1-A.
 Alpha  occ. eigenvalues --  -20.63995 -20.63403 -20.58449 -20.56498 -15.61853
 Alpha  occ. eigenvalues --  -11.41808 -11.40709 -11.31338 -11.26974  -1.43656
 Alpha  occ. eigenvalues --   -1.42368  -1.34197  -1.31518  -1.19710  -1.05364
 Alpha  occ. eigenvalues --   -0.96219  -0.84234  -0.80842  -0.73856  -0.73537
 Alpha  occ. eigenvalues --   -0.72411  -0.69490  -0.66771  -0.66320  -0.63953
 Alpha  occ. eigenvalues --   -0.62774  -0.61081  -0.58307  -0.57193  -0.53706
 Alpha  occ. eigenvalues --   -0.51832  -0.49766  -0.48707  -0.46915  -0.40761
 Alpha virt. eigenvalues --    0.02595   0.03689   0.04247   0.04815   0.05604
 Alpha virt. eigenvalues --    0.07083   0.07788   0.10084   0.10495   0.11442
 Alpha virt. eigenvalues --    0.12263   0.13342   0.13513   0.14006   0.14674

 Mulliken charges:
               1
     1  C    0.219038
     2  C    0.745434
     3  C    0.373101
     4  C    0.486485
     5  H   -0.070755
     6  H    0.052144
     7  H    0.068309
     8  H   -0.031529
     9  H    0.093762
    10  H    0.262277
    11  H    0.196431
    12  N   -0.225367
    13  O   -0.483292
    14  O   -0.552366
    15  O   -0.586090
    16  O   -0.547583
 Sum of Mulliken charges =  -0.00000

 Dipole moment (field-independent basis, Debye):
    X=             -1.6252    Y=              0.8410    Z=             -2.3045  Tot=              2.9427

 Test job not archived.
 1\1\GINC-SE184\SP\RHF\Aug-CC-pVDZ\C4H7N1O4\OHZDE\08-Apr-2025\0\\#t hf
 aug-cc-pvdz iop(5/13=1,5/36=2,99/5=2) pseudo=read geom=check guess=(re
 ad,tcheck) scf=(maxcycle=1)\\title\\0,1\C,0,-0.769315,0.549381,-0.7589
 24\C,0,-1.42508,-0.496832,0.0817106\C,0,0.685313,0.270767,-1.07729\C,0
 ,1.66831,-0.0338101,0.0583928\H,0,-0.737872,2.64666,-0.549001\H,0,-1.9
 0356,1.88271,0.12744\H,0,-1.37285,0.630771,-1.6824\H,0,0.843033,-0.600
 86,-1.65088\H,0,1.19107,1.1176,-1.55034\H,0,2.12048,0.115313,1.79679\H
 ,0,-1.53066,-2.40801,0.106632\N,0,-0.885863,1.79981,-0.0569367\O,0,-2.

 Normal termination of Gaussian 16 at Tue Apr  8 22:10:04 2025.
