 Gaussian 16, Revision C.01,

 ----------------------------------------------------------------------
 #t hf aug-cc-pvdz symm=none int=(grid=ultrafine) guess=(read,tcheck) s
 table=(opt,rrhf)
 ----------------------------------------------------------------------
 -----
 title
 -----
 Symbolic Z-matrix:
 Charge =  0 Multiplicity = 1

 SCF Done:  E(RHF) =  -259.757651295     A.U. after   13 cycles
 Normal termination of Gaussian 16 at Tue Apr  8 21:09:16 2025.
 Gaussian 16:  ES64L-G16RevC.01  3-Jul-2019

 ----------------------------------------------------------------------
 #t hf aug-cc-pvdz iop(5/13=1,5/36=2,99/5=2) pseudo=read geom=check gue
 ss=(read,tcheck) scf=(maxcycle=1)
 ----------------------------------------------------------------------
 -----
 title
 -----
 Structure from the checkpoint file:  "ANI1ccx_1858_conf6_mol1.chk"
 Charge =  0 Multiplicity = 1

                         Standard orientation:
 ---------------------------------------------------------------------
 Center     Atomic      Atomic             Coordinates (Angstroms)
 Number     Number       Type             X           Y           Z
 ---------------------------------------------------------------------
      1          1           0        1.916951    1.156720    0.132146
      2          1           0        1.192801   -1.031030    0.777360
      3          7           0       -2.146199    0.522814    0.168739
      4          7           0       -1.748759   -0.415488   -0.263200
      5          8           0        2.131941    0.257029   -0.165436
      6          8           0        0.887429   -0.366650    0.134400
 ---------------------------------------------------------------------

 SCF Done:  E(RHF) =  -259.840061156     A.U. after    2 cycles

 The electronic state is 1-A.
 Alpha  occ. eigenvalues --  -20.64625 -20.64566 -15.74657 -15.74278  -1.44320
 Alpha  occ. eigenvalues --   -1.40817  -1.18901  -0.74905  -0.73778  -0.73272
 Alpha  occ. eigenvalues --   -0.64516  -0.61075  -0.59389  -0.59305  -0.54061
 Alpha  occ. eigenvalues --   -0.50171
 Alpha virt. eigenvalues --    0.03885   0.05029   0.10423   0.13288   0.13475
 Alpha virt. eigenvalues --    0.13872   0.15016   0.15370   0.17961   0.19922
 Alpha virt. eigenvalues --    0.20616   0.21942   0.24120   0.25942   0.26228

 Mulliken charges:
               1
     1  H    0.231543
     2  H    0.238955
     3  N   -0.041566
     4  N    0.024246
     5  O   -0.212070
     6  O   -0.241108
 Sum of Mulliken charges =  -0.00000

 Dipole moment (field-independent basis, Debye):
    X=              0.3387    Y=              0.3857    Z=              1.6825  Tot=              1.7590

 Test job not archived.
 1\1\GINC-SE097\SP\RHF\Aug-CC-pVDZ\H2N2O2\OHZDE\08-Apr-2025\0\\#t hf au
 g-cc-pvdz iop(5/13=1,5/36=2,99/5=2) pseudo=read geom=check guess=(read
 ,tcheck) scf=(maxcycle=1)\\title\\0,1\H,0,1.91695,1.15672,0.132146\H,0
 ,1.1928,-1.03103,0.77736\N,0,-2.1462,0.522814,0.168739\N,0,-1.74876,-0
 .415488,-0.2632\O,0,2.13194,0.257029,-0.165436\O,0,0.887428,-0.36665,0
 .1344\\Version=ES64L-G16RevC.01\State=1-A\HF=-259.8400612\RMSD=2.314e-
 03\Dipole=0.1332555,0.1517273,0.6619404\Quadrupole=-1.9092287,2.130954
 3,-0.2217256,1.3503786,2.1584191,-1.2643654\PG=C01 [X(H2N2O2)]\\@

 Normal termination of Gaussian 16 at Tue Apr  8 21:09:17 2025.
