 Gaussian 16, Revision C.01,

 ----------------------------------------------------------------------
 #t hf aug-cc-pvdz symm=none int=(grid=ultrafine) guess=(read,tcheck) s
 table=(opt,rrhf)
 ----------------------------------------------------------------------
 -----
 title
 -----
 Symbolic Z-matrix:
 Charge =  0 Multiplicity = 1

 SCF Done:  E(RHF) =  -311.843036353     A.U. after   15 cycles
 Normal termination of Gaussian 16 at Tue Apr  8 21:32:39 2025.
 Gaussian 16:  ES64L-G16RevC.01  3-Jul-2019

 ----------------------------------------------------------------------
 #t hf aug-cc-pvdz iop(5/13=1,5/36=2,99/5=2) pseudo=read geom=check gue
 ss=(read,tcheck) scf=(maxcycle=1)
 ----------------------------------------------------------------------
 -----
 title
 -----
 Structure from the checkpoint file:  "ANI1ccx_392_conf3_mol1.chk"
 Charge =  0 Multiplicity = 1

                         Standard orientation:
 ---------------------------------------------------------------------
 Center     Atomic      Atomic             Coordinates (Angstroms)
 Number     Number       Type             X           Y           Z
 ---------------------------------------------------------------------
      1          6           0        0.619134   -0.038401    0.015238
      2          1           0        2.486510    0.850531    0.034463
      3          1           0        2.516199   -0.910650    0.043208
      4          1           0       -2.218541   -1.066787    0.036329
      5          7           0        1.995619   -0.028643   -0.021112
      6          7           0       -0.096300    1.129181    0.008544
      7          7           0       -1.343240    0.769423   -0.010526
      8          7           0       -1.344491   -0.558121   -0.002984
      9          7           0       -0.140014   -1.117939   -0.003267
 ---------------------------------------------------------------------

 SCF Done:  E(RHF) =  -311.931169283     A.U. after    2 cycles

 The electronic state is 1-A.
 Alpha  occ. eigenvalues --  -15.75820 -15.74152 -15.67470 -15.66910 -15.65080
 Alpha  occ. eigenvalues --  -11.35648  -1.45490  -1.22209  -1.21749  -1.10241
 Alpha  occ. eigenvalues --   -0.90257  -0.84792  -0.77743  -0.69273  -0.67981
 Alpha  occ. eigenvalues --   -0.66437  -0.56505  -0.50689  -0.49052  -0.46080
 Alpha  occ. eigenvalues --   -0.44042  -0.34096
 Alpha virt. eigenvalues --    0.02846   0.03436   0.05620   0.08920   0.10657
 Alpha virt. eigenvalues --    0.11227   0.12266   0.14038   0.15085   0.15336
 Alpha virt. eigenvalues --    0.17092   0.17298   0.17913   0.19948   0.20201

 Mulliken charges:
               1
     1  C    1.126950
     2  H   -0.028513
     3  H    0.000714
     4  H    0.031865
     5  N   -0.283266
     6  N   -0.399729
     7  N   -0.144451
     8  N    0.115920
     9  N   -0.419492
 Sum of Mulliken charges =   0.00000

 Dipole moment (field-independent basis, Debye):
    X=              0.6637    Y=             -1.8585    Z=              0.2690  Tot=              1.9917

 Test job not archived.
 1\1\GINC-SE457\SP\RHF\Aug-CC-pVDZ\C1H3N5\OHZDE\08-Apr-2025\0\\#t hf au
 g-cc-pvdz iop(5/13=1,5/36=2,99/5=2) pseudo=read geom=check guess=(read
 ,tcheck) scf=(maxcycle=1)\\title\\0,1\C,0,0.619135,-0.0384012,0.015237
 6\H,0,2.48651,0.850532,0.0344632\H,0,2.5162,-0.910649,0.0432084\H,0,-2
 .21854,-1.06679,0.0363288\N,0,1.99562,-0.0286418,-0.0211124\N,0,-0.096
 3007,1.12918,0.00854371\N,0,-1.34324,0.769421,-0.010526\N,0,-1.34449,-
 0.558123,-0.00298445\N,0,-0.140012,-1.11794,-0.00326744\\Version=ES64L
 -G16RevC.01\State=1-A\HF=-311.9311693\RMSD=2.950e-03\Dipole=0.2611173,

 Normal termination of Gaussian 16 at Tue Apr  8 21:32:42 2025.
