 Gaussian 16, Revision C.01,

 ----------------------------------------------------------------------
 #t hf aug-cc-pvdz symm=none int=(grid=ultrafine) guess=(read,tcheck) s
 table=(opt,rrhf)
 ----------------------------------------------------------------------
 -----
 title
 -----
 Symbolic Z-matrix:
 Charge =  0 Multiplicity = 1

 SCF Done:  E(RHF) =  -428.535690399     A.U. after   15 cycles
 Normal termination of Gaussian 16 at Tue Apr  8 21:49:00 2025.
 Gaussian 16:  ES64L-G16RevC.01  3-Jul-2019

 ----------------------------------------------------------------------
 #t hf aug-cc-pvdz iop(5/13=1,5/36=2,99/5=2) pseudo=read geom=check gue
 ss=(read,tcheck) scf=(maxcycle=1)
 ----------------------------------------------------------------------
 -----
 title
 -----
 Structure from the checkpoint file:  "ANI1ccx_676_conf2_mol1.chk"
 Charge =  0 Multiplicity = 1

                         Standard orientation:
 ---------------------------------------------------------------------
 Center     Atomic      Atomic             Coordinates (Angstroms)
 Number     Number       Type             X           Y           Z
 ---------------------------------------------------------------------
      1          6           0        2.450950   -0.967599   -0.477063
      2          6           0        1.246580   -0.370511    0.172380
      3          6           0       -0.028323    1.634119   -0.007440
      4          1           0        2.614320   -1.992201   -0.125040
      5          1           0        2.293990   -0.995888   -1.515110
      6          1           0        3.317500   -0.310912   -0.319869
      7          7           0        0.971803    0.921148   -0.251720
      8          7           0       -2.120360   -0.746576   -0.443530
      9          7           0       -2.763470   -1.578920   -0.072674
     10          8           0       -0.960847    2.312309    0.099646
     11          8           0        0.603738   -0.893136    1.051380
 ---------------------------------------------------------------------

 SCF Done:  E(RHF) =  -428.668593713     A.U. after    2 cycles

 The electronic state is 1-A.
 Alpha  occ. eigenvalues --  -20.67605 -20.57516 -15.75641 -15.75339 -15.67508
 Alpha  occ. eigenvalues --  -11.46821 -11.40466 -11.25999  -1.47812  -1.40882
 Alpha  occ. eigenvalues --   -1.38904  -1.24445  -1.04391  -0.89573  -0.78342
 Alpha  occ. eigenvalues --   -0.75757  -0.71916  -0.69987  -0.69836  -0.65342
 Alpha  occ. eigenvalues --   -0.63584  -0.61874  -0.59629  -0.59588  -0.58698
 Alpha  occ. eigenvalues --   -0.54800  -0.51319  -0.46210  -0.45558
 Alpha virt. eigenvalues --    0.03091   0.05025   0.05488   0.06463   0.09180
 Alpha virt. eigenvalues --    0.09487   0.09829   0.09964   0.10978   0.12741
 Alpha virt. eigenvalues --    0.12866   0.13177   0.13852   0.14250   0.15033

 Mulliken charges:
               1
     1  C    0.366708
     2  C    0.475001
     3  C   -0.094695
     4  H    0.022967
     5  H   -0.075201
     6  H    0.077610
     7  N   -0.191111
     8  N    0.031660
     9  N   -0.049149
    10  O   -0.111574
    11  O   -0.452214
 Sum of Mulliken charges =  -0.00000

 Dipole moment (field-independent basis, Debye):
    X=              2.4706    Y=              0.0143    Z=             -2.0263  Tot=              3.1953

 Test job not archived.
 1\1\GINC-SE363\SP\RHF\Aug-CC-pVDZ\C3H3N3O2\OHZDE\08-Apr-2025\0\\#t hf
 aug-cc-pvdz iop(5/13=1,5/36=2,99/5=2) pseudo=read geom=check guess=(re
 ad,tcheck) scf=(maxcycle=1)\\title\\0,1\C,0,2.45095,-0.967598,-0.47706
 3\C,0,1.24658,-0.37051,0.17238\C,0,-0.0283236,1.63412,-0.00744068\H,0,
 2.61432,-1.9922,-0.12504\H,0,2.29399,-0.995887,-1.51511\H,0,3.3175,-0.
 310911,-0.319869\N,0,0.971802,0.921149,-0.25172\N,0,-2.12036,-0.746576
 ,-0.44353\N,0,-2.76347,-1.57892,-0.072674\O,0,-0.960848,2.31231,0.0996
 454\O,0,0.603738,-0.893135,1.05138\\Version=ES64L-G16RevC.01\State=1-A

 Normal termination of Gaussian 16 at Tue Apr  8 21:49:05 2025.
