 Gaussian 16, Revision C.01,

 ----------------------------------------------------------------------
 #t hf aug-cc-pvdz symm=none int=(grid=ultrafine) guess=(read,tcheck) s
 table=(opt,rrhf)
 ----------------------------------------------------------------------
 -----
 title
 -----
 Symbolic Z-matrix:
 Charge =  0 Multiplicity = 1

 SCF Done:  E(RHF) =  -962.233610813     A.U. after   15 cycles
 Normal termination of Gaussian 16 at Tue Apr  8 20:53:55 2025.
 Gaussian 16:  ES64L-G16RevC.01  3-Jul-2019

 ----------------------------------------------------------------------
 #t hf aug-cc-pvdz iop(5/13=1,5/36=2,99/5=2) pseudo=read geom=check gue
 ss=(read,tcheck) scf=(maxcycle=1)
 ----------------------------------------------------------------------
 -----
 title
 -----
 Structure from the checkpoint file:  "ANI1ccx_1756_conf17_mol1.chk"
 Charge =  0 Multiplicity = 1

                         Standard orientation:
 ---------------------------------------------------------------------
 Center     Atomic      Atomic             Coordinates (Angstroms)
 Number     Number       Type             X           Y           Z
 ---------------------------------------------------------------------
      1          6           0        1.317910    1.807591   -0.436442
      2          6           0        0.307640    0.568267   -0.643495
      3          6           0        2.054690    1.797201    0.857641
      4          6           0        2.250850    0.300256    1.196020
      5          6           0        3.111600   -0.351834    0.214195
      6          6           0       -2.025480    0.015829   -0.292270
      7          6           0       -3.296870    0.696683    0.146436
      8          6           0       -1.909690   -1.307069    0.593547
      9          6           0       -0.769972   -2.157659    0.247730
     10          1           0       -5.186200    0.492345   -0.093624
     11          1           0       -0.189513   -3.257549   -1.286220
     12          1           0       -2.791180   -1.897019    0.535601
     13          1           0       -1.846340   -0.978091    1.603150
     14          1           0       -2.176170   -0.315240   -1.375380
     15          1           0       -1.147690    1.834491    0.106522
     16          1           0        2.008160   -2.047389   -0.036760
     17          1           0        3.704890   -2.156438   -0.500347
     18          1           0        2.668200    0.186543    2.222580
     19          1           0        1.247990   -0.084274    1.217590
     20          1           0        1.442340    2.199891    1.703250
     21          1           0        2.988500    2.378912    0.799268
     22          1           0        2.082100    1.532491   -1.229910
     23          1           0        0.358464    3.163451   -1.641670
     24          1           0        1.190109    3.742661   -0.354748
     25          7           0        0.575849    3.015641   -0.638318
     26          7           0        2.952740   -1.687378   -0.011853
     27          7           0       -0.902132    0.845516   -0.116830
     28          8           0        0.775999   -0.425979   -1.118810
     29          8           0        4.086950    0.148583   -0.395097
     30          8           0       -3.404120    1.697161    0.851363
     31          8           0        0.175258   -2.318979    1.005730
     32          8           0       -0.923723   -2.671899   -0.947688
     33          8           0       -4.333230    0.042759   -0.345554
 ---------------------------------------------------------------------

 SCF Done:  E(RHF) =  -962.526268618     A.U. after    2 cycles

 The electronic state is 1-A.
 Alpha  occ. eigenvalues --  -20.66220 -20.64428 -20.59562 -20.57039 -20.55675
 Alpha  occ. eigenvalues --  -20.50658 -15.67134 -15.62678 -15.60059 -11.43483
 Alpha  occ. eigenvalues --  -11.41485 -11.37402 -11.34012 -11.33702 -11.27700
 Alpha  occ. eigenvalues --  -11.27326 -11.24191 -11.23751  -1.46109  -1.44222
 Alpha  occ. eigenvalues --   -1.38360  -1.34991  -1.33658  -1.30488  -1.24842
 Alpha  occ. eigenvalues --   -1.18691  -1.13106  -1.08663  -1.06283  -1.00075
 Alpha  occ. eigenvalues --   -0.93721  -0.88950  -0.87137  -0.83500  -0.80410
 Alpha  occ. eigenvalues --   -0.76364  -0.75046  -0.73697  -0.73050  -0.72532
 Alpha  occ. eigenvalues --   -0.70544  -0.69855  -0.69202  -0.68152  -0.67295
 Alpha  occ. eigenvalues --   -0.66185  -0.65312  -0.64964  -0.63053  -0.61808
 Alpha  occ. eigenvalues --   -0.60299  -0.59637  -0.59329  -0.57900  -0.56262
 Alpha  occ. eigenvalues --   -0.55037  -0.53976  -0.52556  -0.51611  -0.50944
 Alpha  occ. eigenvalues --   -0.50624  -0.49552  -0.48006  -0.47619  -0.44502
 Alpha  occ. eigenvalues --   -0.42352  -0.41828  -0.39652  -0.37365
 Alpha virt. eigenvalues --    0.02158   0.03185   0.03382   0.03768   0.05193
 Alpha virt. eigenvalues --    0.05266   0.05930   0.06025   0.07026   0.07240
 Alpha virt. eigenvalues --    0.08047   0.08469   0.09107   0.09580   0.10448

 Mulliken charges:
               1
     1  C    0.330097
     2  C    0.162700
     3  C    0.413609
     4  C    0.349290
     5  C    0.749945
     6  C    0.059544
     7  C    0.931037
     8  C    0.640953
     9  C    0.740842
    10  H    0.282367
    11  H    0.240053
    12  H   -0.029259
    13  H   -0.174591
    14  H   -0.038422
    15  H    0.136199
    16  H    0.089656
    17  H   -0.032797
    18  H   -0.065584
    19  H   -0.214166
    20  H    0.027703
    21  H   -0.155064
    22  H    0.092902
    23  H    0.075298
    24  H    0.010577
    25  N   -0.265468
    26  N   -0.245441
    27  N   -0.571070
    28  O   -0.572110
    29  O   -0.682194
    30  O   -0.560515
    31  O   -0.559685
    32  O   -0.587103
    33  O   -0.579304
 Sum of Mulliken charges =  -0.00000

 Dipole moment (field-independent basis, Debye):
    X=             -6.8447    Y=             -0.1902    Z=             -1.2651  Tot=              6.9632

 Test job not archived.
 1\1\GINC-SE028\SP\RHF\Aug-CC-pVDZ\C9H15N3O6\OHZDE\08-Apr-2025\0\\#t hf
  aug-cc-pvdz iop(5/13=1,5/36=2,99/5=2) pseudo=read geom=check guess=(r
 ead,tcheck) scf=(maxcycle=1)\\title\\0,1\C,0,1.31791,1.80759,-0.436442
 \C,0,0.30764,0.568266,-0.643495\C,0,2.05469,1.7972,0.857641\C,0,2.2508
 5,0.300255,1.19602\C,0,3.1116,-0.351836,0.214195\C,0,-2.02548,0.015828
 2,-0.29227\C,0,-3.29687,0.696682,0.146436\C,0,-1.90969,-1.30707,0.5935
 47\C,0,-0.769972,-2.15766,0.24773\H,0,-5.1862,0.492345,-0.0936239\H,0,
 -0.189513,-3.25755,-1.28622\H,0,-2.79118,-1.89702,0.535601\H,0,-1.8463

 Normal termination of Gaussian 16 at Tue Apr  8 20:54:49 2025.
