 Gaussian 16, Revision C.01,

 ----------------------------------------------------------------------
 #t hf aug-cc-pvdz symm=none int=(grid=ultrafine) guess=(read,tcheck) s
 table=(opt,rrhf)
 ----------------------------------------------------------------------
 -----
 title
 -----
 Symbolic Z-matrix:
 Charge =  0 Multiplicity = 1

 SCF Done:  E(RHF) =  -556.584102900     A.U. after   17 cycles
 Normal termination of Gaussian 16 at Tue Apr  8 22:07:18 2025.
 Gaussian 16:  ES64L-G16RevC.01  3-Jul-2019

 ----------------------------------------------------------------------
 #t hf aug-cc-pvdz iop(5/13=1,5/36=2,99/5=2) pseudo=read geom=check gue
 ss=(read,tcheck) scf=(maxcycle=1)
 ----------------------------------------------------------------------
 -----
 title
 -----
 Structure from the checkpoint file:  "ANI1ccx_926_conf3_mol1.chk"
 Charge =  0 Multiplicity = 1

                         Standard orientation:
 ---------------------------------------------------------------------
 Center     Atomic      Atomic             Coordinates (Angstroms)
 Number     Number       Type             X           Y           Z
 ---------------------------------------------------------------------
      1          6           0        2.000270   -0.258933    0.011236
      2          6           0        0.501933   -0.198050    0.065398
      3          6           0       -2.063930   -0.128064   -0.007070
      4          6           0       -0.090990    1.070990    0.025016
      5          1           0       -0.055278    3.059900   -0.105560
      6          1           0       -3.705740   -1.231371    0.151461
      7          1           0        1.507149    2.139681   -0.152314
      8          1           0        3.474211   -1.824968    0.174753
      9          1           0        1.940261   -2.350779   -0.273442
     10          1           0       -3.975980    0.452560    0.344776
     11          7           0        0.536362    2.217881    0.007817
     12          7           0        2.495711   -1.552488   -0.076258
     13          7           0       -0.142915   -1.380930   -0.019632
     14          7           0       -1.451340   -1.326090    0.139221
     15          7           0       -3.405010   -0.276558   -0.171643
     16          7           0       -1.444521    1.063640    0.003520
     17          8           0        2.826709    0.702642    0.013959
 ---------------------------------------------------------------------

 SCF Done:  E(RHF) =  -556.745062333     A.U. after    2 cycles

 The electronic state is 1-A.
 Alpha  occ. eigenvalues --  -20.55174 -15.73082 -15.66602 -15.66367 -15.66213
 Alpha  occ. eigenvalues --  -15.64510 -15.64155 -11.39240 -11.38397 -11.37257
 Alpha  occ. eigenvalues --  -11.29551  -1.35840  -1.33149  -1.26930  -1.23471
 Alpha  occ. eigenvalues --   -1.16508  -1.15348  -1.07184  -0.94448  -0.89950
 Alpha  occ. eigenvalues --   -0.82976  -0.79213  -0.75090  -0.73021  -0.69987
 Alpha  occ. eigenvalues --   -0.68084  -0.66129  -0.64129  -0.62931  -0.61806
 Alpha  occ. eigenvalues --   -0.57416  -0.54514  -0.53513  -0.49889  -0.49348
 Alpha  occ. eigenvalues --   -0.45222  -0.41647  -0.40612  -0.39481  -0.34249
 Alpha virt. eigenvalues --    0.02825   0.03511   0.03636   0.05241   0.06078
 Alpha virt. eigenvalues --    0.06616   0.07395   0.07704   0.10037   0.11026
 Alpha virt. eigenvalues --    0.11833   0.12268   0.12540   0.12849   0.14095

 Mulliken charges:
               1
     1  C    0.560371
     2  C    1.050091
     3  C    0.839586
     4  C    0.399247
     5  H    0.004258
     6  H    0.131296
     7  H    0.091034
     8  H    0.026841
     9  H   -0.027617
    10  H    0.072087
    11  N   -0.141495
    12  N   -0.236870
    13  N   -0.617866
    14  N   -0.477308
    15  N   -0.457953
    16  N   -0.578998
    17  O   -0.636702
 Sum of Mulliken charges =   0.00000

 Dipole moment (field-independent basis, Debye):
    X=             -2.1935    Y=             -0.0361    Z=              0.7097  Tot=              2.3057

 Test job not archived.
 1\1\GINC-SE187\SP\RHF\Aug-CC-pVDZ\C4H6N6O1\OHZDE\08-Apr-2025\0\\#t hf
 aug-cc-pvdz iop(5/13=1,5/36=2,99/5=2) pseudo=read geom=check guess=(re
 ad,tcheck) scf=(maxcycle=1)\\title\\0,1\C,0,2.00027,-0.258934,0.011235
 6\C,0,0.501933,-0.198051,0.0653984\C,0,-2.06393,-0.128064,-0.00706993\
 C,0,-0.0909897,1.07099,0.0250161\H,0,-0.055276,3.0599,-0.10556\H,0,-3.
 70574,-1.23137,0.151461\H,0,1.50715,2.13968,-0.152314\H,0,3.47421,-1.8
 2497,0.174753\H,0,1.94026,-2.35078,-0.273442\H,0,-3.97598,0.452561,0.3
 44776\N,0,0.536363,2.21788,0.00781678\N,0,2.49571,-1.55249,-0.0762583\

 Normal termination of Gaussian 16 at Tue Apr  8 22:07:27 2025.
