 Gaussian 16, Revision C.01,

 ----------------------------------------------------------------------
 #t hf aug-cc-pvdz symm=none int=(grid=ultrafine) guess=(read,tcheck) s
 table=(opt,rrhf)
 ----------------------------------------------------------------------
 -----
 title
 -----
 Symbolic Z-matrix:
 Charge =  0 Multiplicity = 1

 SCF Done:  E(RHF) =  -963.590754189     A.U. after   15 cycles
 Normal termination of Gaussian 16 at Tue Apr  8 21:42:41 2025.
 Gaussian 16:  ES64L-G16RevC.01  3-Jul-2019

 ----------------------------------------------------------------------
 #t hf aug-cc-pvdz iop(5/13=1,5/36=2,99/5=2) pseudo=read geom=check gue
 ss=(read,tcheck) scf=(maxcycle=1)
 ----------------------------------------------------------------------
 -----
 title
 -----
 Structure from the checkpoint file:  "ANI1ccx_272_conf12_mol2.chk"
 Charge =  0 Multiplicity = 1

                         Standard orientation:
 ---------------------------------------------------------------------
 Center     Atomic      Atomic             Coordinates (Angstroms)
 Number     Number       Type             X           Y           Z
 ---------------------------------------------------------------------
      1          6           0       -0.994013    1.981210   -0.502889
      2          6           0        4.318050   -0.446468   -1.238950
      3          6           0        3.301550    0.418477    0.958222
      4          6           0        2.273650   -0.712830    1.122690
      5          6           0       -0.062490   -1.505410    0.500929
      6          6           0        0.894836   -0.340294    0.506626
      7          6           0        3.674180    0.740701   -0.461495
      8          6           0       -3.873930    0.460164   -0.315748
      9          6           0       -2.709590    0.010203   -0.898914
     10          6           0       -1.590800    0.875815   -1.406540
     11          6           0       -0.700175    1.625640    0.936442
     12          6           0       -3.749570   -1.749950   -0.294582
     13          1           0        4.127880    0.119053    1.621220
     14          1           0       -1.005910   -2.471330   -0.813313
     15          1           0        5.987390   -1.605999   -1.122070
     16          1           0        5.121550   -1.449359    0.264609
     17          1           0        3.549460   -1.233969   -1.421440
     18          1           0        4.638770   -0.060913   -2.218770
     19          1           0        4.420580    1.506351   -0.446146
     20          1           0        2.801360    1.047171   -1.020040
     21          1           0        2.898230    1.353311    1.495800
     22          1           0        2.058510   -0.830308    2.188900
     23          1           0        0.164126    0.429344    2.268540
     24          1           0        1.078060   -0.007431   -0.504709
     25          1           0        0.524773    3.361300   -0.770551
     26          1           0        2.724910   -1.654089    0.820809
     27          1           0       -1.826571    2.692560   -0.393594
     28          1           0       -1.843580    1.439890   -2.287970
     29          1           0        0.695825    1.956100   -1.634490
     30          1           0       -4.115320    1.447169    0.007912
     31          1           0       -3.988580   -2.729040    0.091356
     32          1           0       -5.446430   -0.756342    0.499147
     33          1           0       -0.774583    0.225617   -1.723330
     34          7           0        0.039176    2.639300   -1.287480
     35          7           0       -2.633490   -1.353860   -0.893861
     36          7           0       -4.502140   -0.721928    0.088521
     37          7           0        0.299832    0.706718    1.302740
     38          7           0        5.465090   -0.903291   -0.502290
     39          8           0       -0.703829   -1.746910    1.495630
     40          8           0       -1.338611    2.202260    1.786290
     41          8           0       -0.102548   -2.141750   -0.693175
 ---------------------------------------------------------------------

 SCF Done:  E(RHF) =  -963.877904478     A.U. after    2 cycles

 The electronic state is 1-A.
 Alpha  occ. eigenvalues --  -20.60584 -20.56111 -20.53912 -15.70218 -15.64017
 Alpha  occ. eigenvalues --  -15.62580 -15.62322 -15.61627 -11.39086 -11.35978
 Alpha  occ. eigenvalues --  -11.32472 -11.29479 -11.28214 -11.27537 -11.27350
 Alpha  occ. eigenvalues --  -11.26363 -11.24914 -11.24679 -11.23849 -11.22929
 Alpha  occ. eigenvalues --   -1.41018  -1.35457  -1.32639  -1.32429  -1.20277
 Alpha  occ. eigenvalues --   -1.17491  -1.16365  -1.15037  -1.07017  -1.04898
 Alpha  occ. eigenvalues --   -1.00499  -0.98077  -0.94133  -0.90106  -0.86287
 Alpha  occ. eigenvalues --   -0.83819  -0.82635  -0.79241  -0.77498  -0.77016
 Alpha  occ. eigenvalues --   -0.76131  -0.72286  -0.70991  -0.68400  -0.67630
 Alpha  occ. eigenvalues --   -0.67307  -0.66168  -0.65744  -0.64837  -0.63497
 Alpha  occ. eigenvalues --   -0.62040  -0.61828  -0.60772  -0.59909  -0.59289
 Alpha  occ. eigenvalues --   -0.58486  -0.58148  -0.57331  -0.55593  -0.55111
 Alpha  occ. eigenvalues --   -0.53495  -0.52709  -0.51942  -0.50481  -0.49606
 Alpha  occ. eigenvalues --   -0.48614  -0.47324  -0.46324  -0.46224  -0.45344
 Alpha  occ. eigenvalues --   -0.45149  -0.40799  -0.40189  -0.39393  -0.38482
 Alpha  occ. eigenvalues --   -0.32702
 Alpha virt. eigenvalues --    0.02438   0.03020   0.03469   0.03846   0.04209
 Alpha virt. eigenvalues --    0.04576   0.05737   0.05865   0.06390   0.06823
 Alpha virt. eigenvalues --    0.06966   0.07946   0.08248   0.08502   0.08763

 Mulliken charges:
               1
     1  C    0.471230
     2  C    0.738743
     3  C    0.341985
     4  C    0.704617
     5  C    0.901796
     6  C   -0.010912
     7  C    0.582076
     8  C    1.850269
     9  C   -0.723489
    10  C    0.612951
    11  C    0.463185
    12  C    1.012280
    13  H   -0.096119
    14  H    0.231853
    15  H    0.072825
    16  H    0.031097
    17  H   -0.131512
    18  H   -0.225195
    19  H   -0.197622
    20  H   -0.148165
    21  H    0.025512
    22  H   -0.028142
    23  H    0.010783
    24  H   -0.740719
    25  H   -0.007882
    26  H   -0.271021
    27  H   -0.141847
    28  H   -0.099081
    29  H    0.091597
    30  H   -0.396601
    31  H   -0.396410
    32  H   -0.055214
    33  H   -0.244902
    34  N   -0.309867
    35  N   -0.582761
    36  N   -0.627832
    37  N   -0.555461
    38  N   -0.412088
    39  O   -0.574504
    40  O   -0.569095
    41  O   -0.596358
 Sum of Mulliken charges =  -0.00000

 Dipole moment (field-independent basis, Debye):
    X=             -1.4764    Y=             -2.2627    Z=             -1.8704  Tot=              3.2860

 Test job not archived.
 1\1\GINC-SE461\SP\RHF\Aug-CC-pVDZ\C12H21N5O3\OHZDE\08-Apr-2025\0\\#t h
 f aug-cc-pvdz iop(5/13=1,5/36=2,99/5=2) pseudo=read geom=check guess=(
 read,tcheck) scf=(maxcycle=1)\\title\\0,1\C,0,-0.994012,1.98121,-0.502
 889\C,0,4.31805,-0.446469,-1.23895\C,0,3.30155,0.418476,0.958222\C,0,2
 .27365,-0.712831,1.12269\C,0,-0.06249,-1.50541,0.500929\C,0,0.894836,-
 0.340294,0.506626\C,0,3.67418,0.7407,-0.461495\C,0,-3.87393,0.460164,-
 0.315748\C,0,-2.70959,0.0102029,-0.898914\C,0,-1.5908,0.875815,-1.4065
 4\C,0,-0.700175,1.62564,0.936442\C,0,-3.74957,-1.74995,-0.294582\H,0,4

 Normal termination of Gaussian 16 at Tue Apr  8 21:44:13 2025.
