 Gaussian 16, Revision C.01,

 ----------------------------------------------------------------------
 #t hf aug-cc-pvdz symm=none int=(grid=ultrafine) guess=(read,tcheck) s
 table=(opt,rrhf)
 ----------------------------------------------------------------------
 -----
 title
 -----
 Symbolic Z-matrix:
 Charge =  0 Multiplicity = 1

 SCF Done:  E(RHF) =  -509.550197096     A.U. after   14 cycles
 Normal termination of Gaussian 16 at Tue Apr  8 22:09:28 2025.
 Gaussian 16:  ES64L-G16RevC.01  3-Jul-2019

 ----------------------------------------------------------------------
 #t hf aug-cc-pvdz iop(5/13=1,5/36=2,99/5=2) pseudo=read geom=check gue
 ss=(read,tcheck) scf=(maxcycle=1)
 ----------------------------------------------------------------------
 -----
 title
 -----
 Structure from the checkpoint file:  "ANI1ccx_939_conf3_mol1.chk"
 Charge =  0 Multiplicity = 1

                         Standard orientation:
 ---------------------------------------------------------------------
 Center     Atomic      Atomic             Coordinates (Angstroms)
 Number     Number       Type             X           Y           Z
 ---------------------------------------------------------------------
      1          6           0        0.769214   -0.577839   -0.762241
      2          6           0        1.316681    0.604978    0.004665
      3          6           0       -0.712943   -0.490555   -1.078259
      4          6           0       -1.604820   -0.067076    0.058710
      5          1           0        1.700188   -2.379022   -0.513412
      6          1           0        1.543269   -1.473882    0.885037
      7          1           0        1.357450   -0.660117   -1.650539
      8          1           0       -0.882860    0.263870   -1.864469
      9          1           0       -1.091521   -1.437449   -1.452839
     10          1           0       -1.977160   -0.360079    1.873441
     11          1           0        1.189403    2.463238   -0.048096
     12          7           0        1.109379   -1.741362    0.005964
     13          8           0        2.118841    0.562739    0.914143
     14          8           0       -2.542769    0.681970   -0.036812
     15          8           0       -1.272890   -0.592318    1.212691
     16          8           0        0.670168    1.717099   -0.416036
 ---------------------------------------------------------------------

 SCF Done:  E(RHF) =  -509.710113344     A.U. after    2 cycles

 The electronic state is 1-A.
 Alpha  occ. eigenvalues --  -20.64540 -20.62818 -20.58767 -20.55584 -15.60557
 Alpha  occ. eigenvalues --  -11.41727 -11.39614 -11.30091 -11.26393  -1.44363
 Alpha  occ. eigenvalues --   -1.43762  -1.34724  -1.32348  -1.18674  -1.04769
 Alpha  occ. eigenvalues --   -0.95020  -0.85774  -0.81420  -0.75085  -0.73942
 Alpha  occ. eigenvalues --   -0.72214  -0.69203  -0.67756  -0.66689  -0.65160
 Alpha  occ. eigenvalues --   -0.61812  -0.59695  -0.58722  -0.56806  -0.53547
 Alpha  occ. eigenvalues --   -0.52222  -0.49728  -0.48741  -0.46676  -0.39452
 Alpha virt. eigenvalues --    0.02768   0.03846   0.04137   0.04943   0.05740
 Alpha virt. eigenvalues --    0.06900   0.07850   0.09940   0.10672   0.11231
 Alpha virt. eigenvalues --    0.12436   0.13355   0.13660   0.14097   0.14827

 Mulliken charges:
               1
     1  C    0.214862
     2  C    0.755619
     3  C    0.268972
     4  C    0.572983
     5  H   -0.014442
     6  H    0.063910
     7  H   -0.079726
     8  H    0.104298
     9  H    0.026616
    10  H    0.226023
    11  H    0.219682
    12  N   -0.223774
    13  O   -0.520730
    14  O   -0.518862
    15  O   -0.535776
    16  O   -0.559654
 Sum of Mulliken charges =  -0.00000

 Dipole moment (field-independent basis, Debye):
    X=              1.7855    Y=             -0.7013    Z=             -1.5634  Tot=              2.4746

 Test job not archived.
 1\1\GINC-SE250\SP\RHF\Aug-CC-pVDZ\C4H7N1O4\OHZDE\08-Apr-2025\0\\#t hf
 aug-cc-pvdz iop(5/13=1,5/36=2,99/5=2) pseudo=read geom=check guess=(re
 ad,tcheck) scf=(maxcycle=1)\\title\\0,1\C,0,0.769214,-0.577838,-0.7622
 42\C,0,1.31668,0.60498,0.00466382\C,0,-0.712943,-0.490555,-1.07826\C,0
 ,-1.60482,-0.0670775,0.0587091\H,0,1.70019,-2.37902,-0.513413\H,0,1.54
 327,-1.47388,0.885036\H,0,1.35745,-0.660115,-1.65054\H,0,-0.882861,0.2
 6387,-1.86447\H,0,-1.09152,-1.43745,-1.45284\H,0,-1.97716,-0.360081,1.
 87344\H,0,1.1894,2.46324,-0.0480969\N,0,1.10938,-1.74136,0.00596327\O,

 Normal termination of Gaussian 16 at Tue Apr  8 22:09:35 2025.
