 Gaussian 16, Revision C.01,

 ----------------------------------------------------------------------
 #t hf aug-cc-pvdz symm=none int=(grid=ultrafine) guess=(read,tcheck) s
 table=(opt,rrhf)
 ----------------------------------------------------------------------
 -----
 title
 -----
 Symbolic Z-matrix:
 Charge =  0 Multiplicity = 1

 SCF Done:  E(RHF) =  -833.496577213     A.U. after   14 cycles
 Normal termination of Gaussian 16 at Tue Apr  8 20:48:56 2025.
 Gaussian 16:  ES64L-G16RevC.01  3-Jul-2019

 ----------------------------------------------------------------------
 #t hf aug-cc-pvdz iop(5/13=1,5/36=2,99/5=2) pseudo=read geom=check gue
 ss=(read,tcheck) scf=(maxcycle=1)
 ----------------------------------------------------------------------
 -----
 title
 -----
 Structure from the checkpoint file:  "ANI1ccx_1760_conf14_mol2.chk"
 Charge =  0 Multiplicity = 1

                         Standard orientation:
 ---------------------------------------------------------------------
 Center     Atomic      Atomic             Coordinates (Angstroms)
 Number     Number       Type             X           Y           Z
 ---------------------------------------------------------------------
      1          6           0        2.323498   -1.093393    0.298491
      2          6           0       -2.273120    0.059759    1.952070
      3          6           0       -2.384831   -0.910237    0.822048
      4          6           0       -1.724439    0.905183   -0.852617
      5          6           0       -3.850522   -1.158505    0.318536
      6          6           0        2.147722    1.462367    0.365665
      7          6           0        2.922130    0.265024   -0.141868
      8          6           0        0.970960   -1.292772   -0.345611
      9          6           0       -1.380431   -0.519154   -0.357736
     10          1           0       -1.246960    0.318902    2.282090
     11          1           0       -2.648698    1.850363   -2.060620
     12          1           0       -4.436800   -0.227307    0.253714
     13          1           0       -3.895792   -1.634895   -0.698543
     14          1           0       -4.418993   -1.825104    0.909154
     15          1           0       -2.842031   -0.327462    2.786730
     16          1           0       -2.691509    1.043073    1.739600
     17          1           0       -2.001753   -1.923608    1.127330
     18          1           0        0.120425    0.210891    0.880184
     19          1           0        1.937434    3.280597   -0.023959
     20          1           0        3.938060    0.274668    0.216307
     21          1           0        3.089640    0.326651   -1.205070
     22          1           0        2.100308   -1.046243    1.364610
     23          1           0        2.974446   -2.656684   -0.869097
     24          1           0        3.165166   -2.821265    0.750906
     25          1           0       -1.512712   -1.260948   -1.126830
     26          7           0        3.247777   -2.153895   -0.030941
     27          7           0       -0.062016   -0.522882    0.202666
     28          8           0       -1.499248    1.951902   -0.278392
     29          8           0        0.822905   -1.961871   -1.321860
     30          8           0        1.580182    1.469798    1.469470
     31          8           0        2.325043    2.501297   -0.448595
     32          8           0       -2.533429    0.894648   -1.905930
 ---------------------------------------------------------------------

 SCF Done:  E(RHF) =  -833.752899304     A.U. after    2 cycles

 The electronic state is 1-A.
 Alpha  occ. eigenvalues --  -20.65126 -20.63470 -20.57907 -20.57072 -20.55015
 Alpha  occ. eigenvalues --  -15.64309 -15.61742 -11.42419 -11.40528 -11.36698
 Alpha  occ. eigenvalues --  -11.29832 -11.29111 -11.26313 -11.26207 -11.23382
 Alpha  occ. eigenvalues --  -11.22238  -1.44568  -1.44292  -1.37710  -1.33615
 Alpha  occ. eigenvalues --   -1.32981  -1.20875  -1.17682  -1.07578  -1.04478
 Alpha  occ. eigenvalues --   -0.98315  -0.93822  -0.91998  -0.85949  -0.83940
 Alpha  occ. eigenvalues --   -0.79268  -0.77740  -0.74424  -0.73450  -0.73183
 Alpha  occ. eigenvalues --   -0.72274  -0.69684  -0.67924  -0.67343  -0.66382
 Alpha  occ. eigenvalues --   -0.64805  -0.63152  -0.61786  -0.61508  -0.60733
 Alpha  occ. eigenvalues --   -0.59209  -0.58890  -0.57215  -0.55226  -0.54769
 Alpha  occ. eigenvalues --   -0.54244  -0.52217  -0.51015  -0.50738  -0.50502
 Alpha  occ. eigenvalues --   -0.48792  -0.48529  -0.48073  -0.46062  -0.45371
 Alpha  occ. eigenvalues --   -0.40466  -0.38958
 Alpha virt. eigenvalues --    0.03025   0.03406   0.03682   0.04451   0.05020
 Alpha virt. eigenvalues --    0.05391   0.05707   0.06214   0.06645   0.07420
 Alpha virt. eigenvalues --    0.07816   0.08302   0.08382   0.08772   0.10531

 Mulliken charges:
               1
     1  C    0.309182
     2  C    1.014086
     3  C   -0.919624
     4  C    0.654197
     5  C    1.028682
     6  C    0.737384
     7  C    0.401401
     8  C    0.507423
     9  C    0.017389
    10  H   -0.128426
    11  H    0.220685
    12  H   -0.044514
    13  H   -0.014392
    14  H   -0.224680
    15  H   -0.104563
    16  H   -0.082368
    17  H   -0.083998
    18  H    0.062123
    19  H    0.188432
    20  H   -0.011171
    21  H   -0.111097
    22  H   -0.117229
    23  H    0.052068
    24  H    0.092466
    25  H   -0.401541
    26  N   -0.326406
    27  N   -0.048461
    28  O   -0.547067
    29  O   -0.564033
    30  O   -0.568970
    31  O   -0.465502
    32  O   -0.521474
 Sum of Mulliken charges =  -0.00000

 Dipole moment (field-independent basis, Debye):
    X=             -0.4714    Y=              0.6715    Z=              0.6365  Tot=              1.0384

 Test job not archived.
 1\1\GINC-SE099\SP\RHF\Aug-CC-pVDZ\C9H16N2O5\OHZDE\08-Apr-2025\0\\#t hf
  aug-cc-pvdz iop(5/13=1,5/36=2,99/5=2) pseudo=read geom=check guess=(r
 ead,tcheck) scf=(maxcycle=1)\\title\\0,1\C,0,2.3235,-1.09339,0.298491\
 C,0,-2.27312,0.0597567,1.95207\C,0,-2.38483,-0.91024,0.822048\C,0,-1.7
 2444,0.905181,-0.852617\C,0,-3.85052,-1.15851,0.318536\C,0,2.14772,1.4
 6237,0.365665\C,0,2.92213,0.265028,-0.141868\C,0,0.970962,-1.29277,-0.
 345611\C,0,-1.38043,-0.519155,-0.357736\H,0,-1.24696,0.318901,2.28209\
 H,0,-2.6487,1.85036,-2.06062\H,0,-4.4368,-0.227313,0.253714\H,0,-3.895

 Normal termination of Gaussian 16 at Tue Apr  8 20:49:41 2025.
