 Gaussian 16, Revision C.01,

 ----------------------------------------------------------------------
 #t hf aug-cc-pvdz symm=none int=(grid=ultrafine) guess=(read,tcheck) s
 table=(opt,rrhf)
 ----------------------------------------------------------------------
 -----
 title
 -----
 Symbolic Z-matrix:
 Charge =  0 Multiplicity = 1

 SCF Done:  E(RHF) =  -1018.07759851     A.U. after   15 cycles
 Normal termination of Gaussian 16 at Tue Apr  8 20:47:36 2025.
 Gaussian 16:  ES64L-G16RevC.01  3-Jul-2019

 ----------------------------------------------------------------------
 #t hf aug-cc-pvdz iop(5/13=1,5/36=2,99/5=2) pseudo=read geom=check gue
 ss=(read,tcheck) scf=(maxcycle=1)
 ----------------------------------------------------------------------
 -----
 title
 -----
 Structure from the checkpoint file:  "ANI1ccx_171_conf26_mol1.chk"
 Charge =  0 Multiplicity = 1

                         Standard orientation:
 ---------------------------------------------------------------------
 Center     Atomic      Atomic             Coordinates (Angstroms)
 Number     Number       Type             X           Y           Z
 ---------------------------------------------------------------------
      1          6           0        1.008660   -1.047841    1.377240
      2          6           0       -2.160371   -2.075059   -0.924158
      3          6           0       -2.582719    0.583508   -0.750067
      4          6           0       -1.566098    2.586710    0.424803
      5          6           0       -1.285689    1.295050   -0.480667
      6          6           0       -2.456070   -0.683435   -1.612270
      7          6           0        4.080240   -0.202816    0.191811
      8          6           0        2.833620   -0.528496   -0.304488
      9          6           0        1.922489   -1.570032    0.023179
     10          6           0       -0.159310   -0.167597    1.088710
     11          6           0        3.524441    1.251117   -1.407470
     12          1           0       -0.875162    1.882650   -1.390450
     13          1           0       -2.521827    4.196181    0.268943
     14          1           0       -3.177392   -3.421939   -0.099749
     15          1           0       -1.672190   -0.666285   -2.508070
     16          1           0       -3.498030   -0.795267   -1.986610
     17          1           0       -3.221419    1.269151   -1.243250
     18          1           0       -2.918289    0.314371    0.304482
     19          1           0        0.603366    0.367325   -0.742727
     20          1           0        3.532652    2.173677   -1.940030
     21          1           0        4.684300   -0.709293    0.969946
     22          1           0        1.097399   -1.727801   -0.742328
     23          1           0        2.447689   -2.538062    0.119313
     24          1           0        1.706830   -0.361129    2.035720
     25          1           0       -0.265086   -2.570090    1.641470
     26          1           0        0.115542   -1.816481    2.901080
     27          1           0        5.356241    1.411586   -0.295492
     28          7           0        0.587910   -2.267401    2.139230
     29          7           0        2.504861    0.374619   -1.290190
     30          7           0        4.506581    0.907935   -0.524157
     31          7           0       -0.154333    0.528517   -0.062622
     32          8           0       -3.294961   -2.532678   -0.333871
     33          8           0       -0.955838    0.064680    1.996230
     34          8           0       -1.267178    2.844750    1.536410
     35          8           0       -1.059271   -2.621310   -1.027980
     36          8           0       -2.480867    3.436941   -0.281759
 ---------------------------------------------------------------------

 SCF Done:  E(RHF) =  -1018.37730887     A.U. after    2 cycles

 The electronic state is 1-A.
 Alpha  occ. eigenvalues --  -20.64500 -20.60636 -20.58355 -20.57186 -20.52547
 Alpha  occ. eigenvalues --  -15.70300 -15.64318 -15.62586 -15.60291 -11.42483
 Alpha  occ. eigenvalues --  -11.39909 -11.35131 -11.32855 -11.31597 -11.28836
 Alpha  occ. eigenvalues --  -11.28145 -11.27911 -11.26713 -11.26131 -11.24342
 Alpha  occ. eigenvalues --   -1.43589  -1.41452  -1.34256  -1.33989  -1.32197
 Alpha  occ. eigenvalues --   -1.31414  -1.20960  -1.15272  -1.14026  -1.08018
 Alpha  occ. eigenvalues --   -1.04210  -1.00073  -0.95451  -0.90935  -0.88539
 Alpha  occ. eigenvalues --   -0.84028  -0.82987  -0.81333  -0.77275  -0.76343
 Alpha  occ. eigenvalues --   -0.75047  -0.73561  -0.71685  -0.70066  -0.69399
 Alpha  occ. eigenvalues --   -0.68649  -0.66141  -0.65145  -0.64208  -0.63444
 Alpha  occ. eigenvalues --   -0.62856  -0.62337  -0.61565  -0.61342  -0.60637
 Alpha  occ. eigenvalues --   -0.60014  -0.57942  -0.57436  -0.56380  -0.55374
 Alpha  occ. eigenvalues --   -0.53800  -0.53319  -0.51739  -0.50803  -0.50237
 Alpha  occ. eigenvalues --   -0.49991  -0.46797  -0.46353  -0.45234  -0.44750
 Alpha  occ. eigenvalues --   -0.43442  -0.40896  -0.39261  -0.38844  -0.31816
 Alpha virt. eigenvalues --    0.01988   0.02874   0.03405   0.04341   0.04636
 Alpha virt. eigenvalues --    0.05005   0.05693   0.06467   0.06879   0.06989
 Alpha virt. eigenvalues --    0.07479   0.08046   0.08576   0.08945   0.09850

 Mulliken charges:
               1
     1  C   -0.337137
     2  C    0.772207
     3  C    0.529810
     4  C    0.755134
     5  C   -0.738803
     6  C    0.196989
     7  C    1.182306
     8  C    0.046227
     9  C    0.446213
    10  C    0.378182
    11  C    0.902624
    12  H    0.064017
    13  H    0.156226
    14  H    0.118819
    15  H    0.114084
    16  H    0.026467
    17  H   -0.196474
    18  H    0.163085
    19  H   -0.029401
    20  H   -0.352748
    21  H   -0.280705
    22  H    0.129363
    23  H   -0.255911
    24  H    0.116323
    25  H    0.117775
    26  H    0.082641
    27  H   -0.074517
    28  N   -0.313060
    29  N   -0.561263
    30  N   -0.595985
    31  N    0.041542
    32  O   -0.473472
    33  O   -0.610017
    34  O   -0.408849
    35  O   -0.526363
    36  O   -0.585329
 Sum of Mulliken charges =  -0.00000

 Dipole moment (field-independent basis, Debye):
    X=              2.6893    Y=              1.6056    Z=             -4.0205  Tot=              5.0966

 Test job not archived.
 1\1\GINC-SE068\SP\RHF\Aug-CC-pVDZ\C11H16N4O5\OHZDE\08-Apr-2025\0\\#t h
 f aug-cc-pvdz iop(5/13=1,5/36=2,99/5=2) pseudo=read geom=check guess=(
 read,tcheck) scf=(maxcycle=1)\\title\\0,1\C,0,1.00866,-1.04784,1.37724
 \C,0,-2.16037,-2.07506,-0.924158\C,0,-2.58272,0.583507,-0.750067\C,0,-
 1.5661,2.58671,0.424803\C,0,-1.28569,1.29505,-0.480667\C,0,-2.45607,-0
 .683436,-1.61227\C,0,4.08024,-0.202813,0.191811\C,0,2.83362,-0.528494,
 -0.304488\C,0,1.92249,-1.57003,0.0231798\C,0,-0.15931,-0.167597,1.0887
 1\C,0,3.52444,1.25112,-1.40747\H,0,-0.875164,1.88265,-1.39045\H,0,-2.5

 Normal termination of Gaussian 16 at Tue Apr  8 20:48:48 2025.
