 Gaussian 16, Revision C.01,

 ----------------------------------------------------------------------
 #t hf aug-cc-pvdz symm=none int=(grid=ultrafine) guess=(read,tcheck) s
 table=(opt,rrhf)
 ----------------------------------------------------------------------
 -----
 title
 -----
 Symbolic Z-matrix:
 Charge =  0 Multiplicity = 1

 SCF Done:  E(RHF) =  -509.520888041     A.U. after   14 cycles
 Normal termination of Gaussian 16 at Tue Apr  8 22:09:55 2025.
 Gaussian 16:  ES64L-G16RevC.01  3-Jul-2019

 ----------------------------------------------------------------------
 #t hf aug-cc-pvdz iop(5/13=1,5/36=2,99/5=2) pseudo=read geom=check gue
 ss=(read,tcheck) scf=(maxcycle=1)
 ----------------------------------------------------------------------
 -----
 title
 -----
 Structure from the checkpoint file:  "ANI1ccx_939_conf85_mol1.chk"
 Charge =  0 Multiplicity = 1

                         Standard orientation:
 ---------------------------------------------------------------------
 Center     Atomic      Atomic             Coordinates (Angstroms)
 Number     Number       Type             X           Y           Z
 ---------------------------------------------------------------------
      1          6           0        0.469613    0.324448    0.445662
      2          6           0        1.840009   -0.154592    0.130801
      3          6           0       -0.625392   -0.786176    0.120226
      4          6           0       -2.022101   -0.209294    0.020769
      5          1           0        0.872795    1.335009   -1.239170
      6          1           0        0.722975    2.376669    0.004767
      7          1           0        0.379192    0.640131    1.530190
      8          1           0       -0.703927   -1.510919    0.881389
      9          1           0       -0.356313   -1.353480   -0.718701
     10          1           0       -1.256279    1.520731   -0.307949
     11          1           0        2.594788   -1.776182   -0.518712
     12          7           0        0.414150    1.540470   -0.348439
     13          8           0        2.895290    0.397902    0.071323
     14          8           0       -2.955061   -0.991897   -0.132929
     15          8           0       -2.112039    1.151582    0.069682
     16          8           0        1.781178   -1.440281   -0.195262
 ---------------------------------------------------------------------

 SCF Done:  E(RHF) =  -509.680213633     A.U. after    2 cycles

 The electronic state is 1-A.
 Alpha  occ. eigenvalues --  -20.64182 -20.59914 -20.58883 -20.55358 -15.66247
 Alpha  occ. eigenvalues --  -11.42265 -11.39844 -11.33742 -11.27007  -1.47127
 Alpha  occ. eigenvalues --   -1.39031  -1.35918  -1.30989  -1.23084  -1.06520
 Alpha  occ. eigenvalues --   -0.97397  -0.86657  -0.82212  -0.77327  -0.75883
 Alpha  occ. eigenvalues --   -0.73815  -0.70692  -0.67767  -0.66482  -0.65624
 Alpha  occ. eigenvalues --   -0.63571  -0.61853  -0.58026  -0.57268  -0.54604
 Alpha  occ. eigenvalues --   -0.52805  -0.50911  -0.47889  -0.46080  -0.43804
 Alpha virt. eigenvalues --    0.02334   0.03245   0.03509   0.05199   0.06216
 Alpha virt. eigenvalues --    0.06586   0.07254   0.09510   0.10337   0.11200
 Alpha virt. eigenvalues --    0.11962   0.12543   0.13341   0.13805   0.13929

 Mulliken charges:
               1
     1  C    0.083677
     2  C    0.750584
     3  C    0.662439
     4  C    0.591985
     5  H    0.109909
     6  H   -0.027958
     7  H    0.010067
     8  H   -0.072283
     9  H   -0.115345
    10  H    0.393979
    11  H    0.162306
    12  N   -0.490427
    13  O   -0.489314
    14  O   -0.528828
    15  O   -0.567728
    16  O   -0.473063
 Sum of Mulliken charges =  -0.00000

 Dipole moment (field-independent basis, Debye):
    X=              5.0024    Y=              0.5285    Z=             -0.2669  Tot=              5.0373

 Test job not archived.
 1\1\GINC-SE073\SP\RHF\Aug-CC-pVDZ\C4H7N1O4\OHZDE\08-Apr-2025\0\\#t hf
 aug-cc-pvdz iop(5/13=1,5/36=2,99/5=2) pseudo=read geom=check guess=(re
 ad,tcheck) scf=(maxcycle=1)\\title\\0,1\C,0,0.469613,0.324448,0.445662
 \C,0,1.84001,-0.154591,0.130801\C,0,-0.625391,-0.786176,0.120226\C,0,-
 2.0221,-0.209296,0.0207695\H,0,0.872794,1.33501,-1.23917\H,0,0.722974,
 2.37667,0.00476727\H,0,0.379192,0.640131,1.53019\H,0,-0.703925,-1.5109
 2,0.881389\H,0,-0.356312,-1.35348,-0.718701\H,0,-1.25628,1.52073,-0.30
 7949\H,0,2.59479,-1.77618,-0.518712\N,0,0.414149,1.54047,-0.348439\O,0

 Normal termination of Gaussian 16 at Tue Apr  8 22:10:02 2025.
