 Gaussian 16, Revision C.01,

 ----------------------------------------------------------------------
 #t hf aug-cc-pvdz symm=none int=(grid=ultrafine) guess=(read,tcheck) s
 table=(opt,rrhf)
 ----------------------------------------------------------------------
 -----
 title
 -----
 Symbolic Z-matrix:
 Charge =  0 Multiplicity = 1

 SCF Done:  E(RHF) =  -318.602479571     A.U. after   16 cycles
 Normal termination of Gaussian 16 at Tue Apr  8 21:31:31 2025.
 Gaussian 16:  ES64L-G16RevC.01  3-Jul-2019

 ----------------------------------------------------------------------
 #t hf aug-cc-pvdz iop(5/13=1,5/36=2,99/5=2) pseudo=read geom=check gue
 ss=(read,tcheck) scf=(maxcycle=1)
 ----------------------------------------------------------------------
 -----
 title
 -----
 Structure from the checkpoint file:  "ANI1ccx_387_conf1_mol1.chk"
 Charge =  0 Multiplicity = 1

                         Standard orientation:
 ---------------------------------------------------------------------
 Center     Atomic      Atomic             Coordinates (Angstroms)
 Number     Number       Type             X           Y           Z
 ---------------------------------------------------------------------
      1          6           0       -1.899231    0.091531    0.332949
      2          1           0        3.827239   -0.588749    0.458158
      3          1           0       -0.016746   -0.164872    0.078126
      4          1           0       -1.638011    0.438437    1.349860
      5          7           0        2.798669   -0.480507    0.167356
      6          8           0        2.572179    0.654008   -0.177907
      7          8           0       -0.853631   -0.368525   -0.365225
      8          8           0       -3.014521    0.105710   -0.088783
 ---------------------------------------------------------------------

 SCF Done:  E(RHF) =  -318.705163442     A.U. after    2 cycles

 The electronic state is 1-A.
 Alpha  occ. eigenvalues --  -20.69644 -20.63155 -20.56911 -15.80713 -11.40255
 Alpha  occ. eigenvalues --   -1.50762  -1.42654  -1.34035  -0.99655  -0.87124
 Alpha  occ. eigenvalues --   -0.79794  -0.77855  -0.70037  -0.68076  -0.64765
 Alpha  occ. eigenvalues --   -0.63224  -0.60368  -0.50465  -0.47736  -0.45877
 Alpha virt. eigenvalues --    0.02348   0.03669   0.04127   0.07086   0.08130
 Alpha virt. eigenvalues --    0.09790   0.10730   0.13784   0.15032   0.15968
 Alpha virt. eigenvalues --    0.16509   0.16612   0.19597   0.20649   0.21959

 Mulliken charges:
               1
     1  C    0.760477
     2  H    0.166674
     3  H    0.175757
     4  H   -0.142756
     5  N    0.172853
     6  O   -0.346825
     7  O   -0.396040
     8  O   -0.390140
 Sum of Mulliken charges =  -0.00000

 Dipole moment (field-independent basis, Debye):
    X=              5.9530    Y=             -0.3860    Z=              3.1733  Tot=              6.7570

 Test job not archived.
 1\1\GINC-SE109\SP\RHF\Aug-CC-pVDZ\C1H3N1O3\OHZDE\08-Apr-2025\0\\#t hf
 aug-cc-pvdz iop(5/13=1,5/36=2,99/5=2) pseudo=read geom=check guess=(re
 ad,tcheck) scf=(maxcycle=1)\\title\\0,1\C,0,-1.89923,0.0915305,0.33294
 9\H,0,3.82724,-0.588749,0.458158\H,0,-0.0167452,-0.164872,0.0781258\H,
 0,-1.63801,0.438437,1.34986\N,0,2.79867,-0.480507,0.167356\O,0,2.57218
 ,0.654008,-0.177907\O,0,-0.85363,-0.368525,-0.365225\O,0,-3.01452,0.10
 571,-0.0887832\\Version=ES64L-G16RevC.01\State=1-A\HF=-318.7051634\RMS
 D=2.513e-03\Dipole=2.3421005,-0.1518594,1.2484669\Quadrupole=-0.897921

 Normal termination of Gaussian 16 at Tue Apr  8 21:31:34 2025.
