 Gaussian 16, Revision C.01,

 ----------------------------------------------------------------------
 #t hf aug-cc-pvdz symm=none int=(grid=ultrafine) guess=(read,tcheck) s
 table=(opt,rrhf)
 ----------------------------------------------------------------------
 -----
 title
 -----
 Symbolic Z-matrix:
 Charge =  0 Multiplicity = 1

 SCF Done:  E(RHF) =  -276.582545059     A.U. after   14 cycles
 Normal termination of Gaussian 16 at Tue Apr  8 21:17:22 2025.
 Gaussian 16:  ES64L-G16RevC.01  3-Jul-2019

 ----------------------------------------------------------------------
 #t hf aug-cc-pvdz iop(5/13=1,5/36=2,99/5=2) pseudo=read geom=check gue
 ss=(read,tcheck) scf=(maxcycle=1)
 ----------------------------------------------------------------------
 -----
 title
 -----
 Structure from the checkpoint file:  "ANI1ccx_370_conf96_mol1.chk"
 Charge =  0 Multiplicity = 1

                         Standard orientation:
 ---------------------------------------------------------------------
 Center     Atomic      Atomic             Coordinates (Angstroms)
 Number     Number       Type             X           Y           Z
 ---------------------------------------------------------------------
      1          6           0        1.040660    0.281020   -0.021472
      2          1           0        2.187340    0.246166    0.157305
      3          7           0        0.103420    1.149739   -0.020983
      4          7           0       -1.088079    0.448755    0.029466
      5          7           0       -0.837992   -0.765635   -0.007991
      6          8           0        0.540907   -0.970287   -0.003989
 ---------------------------------------------------------------------

 SCF Done:  E(RHF) =  -276.661781864     A.U. after    2 cycles

 The electronic state is 1-A.
 Alpha  occ. eigenvalues --  -20.71406 -15.78432 -15.75885 -15.69755 -11.40655
 Alpha  occ. eigenvalues --   -1.54781  -1.33439  -1.21499  -0.92810  -0.90504
 Alpha  occ. eigenvalues --   -0.77252  -0.73841  -0.67066  -0.58900  -0.53893
 Alpha  occ. eigenvalues --   -0.51224  -0.49891  -0.45759
 Alpha virt. eigenvalues --    0.02631   0.06364   0.07507   0.09272   0.10239
 Alpha virt. eigenvalues --    0.12800   0.13281   0.14776   0.15350   0.17541
 Alpha virt. eigenvalues --    0.18621   0.20121   0.20885   0.23072   0.24489

 Mulliken charges:
               1
     1  C    0.668098
     2  H    0.038220
     3  N   -0.275617
     4  N   -0.033521
     5  N    0.116806
     6  O   -0.513987
 Sum of Mulliken charges =  -0.00000

 Dipole moment (field-independent basis, Debye):
    X=              3.0057    Y=             -0.2528    Z=              0.1191  Tot=              3.0187

 Test job not archived.
 1\1\GINC-SE252\SP\RHF\Aug-CC-pVDZ\C1H1N3O1\OHZDE\08-Apr-2025\0\\#t hf
 aug-cc-pvdz iop(5/13=1,5/36=2,99/5=2) pseudo=read geom=check guess=(re
 ad,tcheck) scf=(maxcycle=1)\\title\\0,1\C,0,1.04066,0.281024,-0.021472
 4\H,0,2.18734,0.246174,0.157305\N,0,0.103417,1.14974,-0.0209827\N,0,-1
 .08808,0.448751,0.0294658\N,0,-0.837988,-0.765638,-0.00799107\O,0,0.54
 0911,-0.970285,-0.00398932\\Version=ES64L-G16RevC.01\State=1-A\HF=-276
 .6617819\RMSD=3.350e-03\Dipole=1.1825346,-0.099467,0.0468396\Quadrupol
 e=2.9292072,-3.6643986,0.7351914,0.4142819,0.3008591,0.0361542\PG=C01

 Normal termination of Gaussian 16 at Tue Apr  8 21:17:24 2025.
