 Gaussian 16, Revision C.01,

 ----------------------------------------------------------------------
 #t hf aug-cc-pvdz symm=none int=(grid=ultrafine) guess=(read,tcheck) s
 table=(opt,rrhf)
 ----------------------------------------------------------------------
 -----
 title
 -----
 Symbolic Z-matrix:
 Charge =  0 Multiplicity = 1

 SCF Done:  E(RHF) =  -380.226411163     A.U. after   11 cycles
 Normal termination of Gaussian 16 at Tue Apr  8 21:00:25 2025.
 Gaussian 16:  ES64L-G16RevC.01  3-Jul-2019

 ----------------------------------------------------------------------
 #t hf aug-cc-pvdz iop(5/13=1,5/36=2,99/5=2) pseudo=read geom=check gue
 ss=(read,tcheck) scf=(maxcycle=1)
 ----------------------------------------------------------------------
 -----
 title
 -----
 Structure from the checkpoint file:  "ANI1ccx_1843_conf26_mol1.chk"
 Charge =  0 Multiplicity = 1

                         Standard orientation:
 ---------------------------------------------------------------------
 Center     Atomic      Atomic             Coordinates (Angstroms)
 Number     Number       Type             X           Y           Z
 ---------------------------------------------------------------------
      1          1           0       -1.886039    0.052893   -0.332345
      2          1           0       -2.419959    0.364524   -1.780320
      3          1           0       -0.596856   -0.934570    0.914892
      4          1           0       -1.533119   -0.799268    2.165850
      5          1           0       -0.242962   -1.280441   -0.947674
      6          1           0        1.196671   -1.214621   -0.310530
      7          1           0        1.771861    0.756304    0.065683
      8          1           0        2.991691    0.215455   -0.759948
      9          1           0       -0.151057    1.321419    1.019280
     10          1           0       -0.259965    1.524839   -0.494979
     11          8           0       -1.593559    0.297078   -1.237010
     12          8           0       -1.271919   -0.324362    1.346100
     13          8           0        0.326718   -1.705501   -0.280607
     14          8           0        2.368331   -0.025592   -0.039820
     15          8           0        0.311647    1.757559    0.268846
 ---------------------------------------------------------------------

 SCF Done:  E(RHF) =  -380.351125261     A.U. after    2 cycles

 The electronic state is 1-A.
 Alpha  occ. eigenvalues --  -20.59896 -20.58785 -20.57522 -20.56821 -20.55875
 Alpha  occ. eigenvalues --   -1.33261  -1.31274  -1.30735  -1.29473  -1.28073
 Alpha  occ. eigenvalues --   -0.76690  -0.73155  -0.72729  -0.71634  -0.70928
 Alpha  occ. eigenvalues --   -0.63748  -0.62611  -0.60542  -0.59644  -0.57200
 Alpha  occ. eigenvalues --   -0.54311  -0.53695  -0.52001  -0.51289  -0.50760
 Alpha virt. eigenvalues --    0.02790   0.04411   0.04667   0.07137   0.07484
 Alpha virt. eigenvalues --    0.08012   0.08440   0.08683   0.09421   0.11508
 Alpha virt. eigenvalues --    0.16419   0.18542   0.19110   0.20253   0.21905

 Mulliken charges:
               1
     1  H    0.247339
     2  H    0.242138
     3  H    0.302833
     4  H    0.235154
     5  H    0.228161
     6  H    0.293281
     7  H    0.244879
     8  H    0.205948
     9  H    0.248647
    10  H    0.251760
    11  O   -0.491856
    12  O   -0.565771
    13  O   -0.519337
    14  O   -0.422443
    15  O   -0.500733
 Sum of Mulliken charges =  -0.00000

 Dipole moment (field-independent basis, Debye):
    X=             -2.4698    Y=              0.1402    Z=             -1.0012  Tot=              2.6687

 Test job not archived.
 1\1\GINC-SE087\SP\RHF\Aug-CC-pVDZ\H10O5\OHZDE\08-Apr-2025\0\\#t hf aug
 -cc-pvdz iop(5/13=1,5/36=2,99/5=2) pseudo=read geom=check guess=(read,
 tcheck) scf=(maxcycle=1)\\title\\0,1\H,0,-1.88604,0.0528939,-0.332345\
 H,0,-2.41996,0.364525,-1.78032\H,0,-0.596857,-0.934569,0.914892\H,0,-1
 .53312,-0.799267,2.16585\H,0,-0.242963,-1.28044,-0.947674\H,0,1.19667,
 -1.21462,-0.31053\H,0,1.77186,0.756304,0.0656825\H,0,2.99169,0.215455,
 -0.759948\H,0,-0.151057,1.32142,1.01928\H,0,-0.259965,1.52484,-0.49497
 9\O,0,-1.59356,0.297079,-1.23701\O,0,-1.27192,-0.324361,1.3461\O,0,0.3

 Normal termination of Gaussian 16 at Tue Apr  8 21:00:29 2025.
