 Gaussian 16, Revision C.01,

 ----------------------------------------------------------------------
 #t hf aug-cc-pvdz symm=none int=(grid=ultrafine) guess=(read,tcheck) s
 table=(opt,rrhf)
 ----------------------------------------------------------------------
 -----
 title
 -----
 Symbolic Z-matrix:
 Charge =  0 Multiplicity = 1

 SCF Done:  E(RHF) =  -524.038554174     A.U. after   16 cycles
 Normal termination of Gaussian 16 at Tue Apr  8 19:12:13 2025.
 Gaussian 16:  ES64L-G16RevC.01  3-Jul-2019

 ----------------------------------------------------------------------
 #t hf aug-cc-pvdz iop(5/13=1,5/36=2,99/5=2) pseudo=read geom=check gue
 ss=(read,tcheck) scf=(maxcycle=1)
 ----------------------------------------------------------------------
 -----
 title
 -----
 Structure from the checkpoint file:  "ANI1ccx_1064_conf8_mol1.chk"
 Charge =  0 Multiplicity = 1

                         Standard orientation:
 ---------------------------------------------------------------------
 Center     Atomic      Atomic             Coordinates (Angstroms)
 Number     Number       Type             X           Y           Z
 ---------------------------------------------------------------------
      1          6           0        0.465957    1.148340    0.231432
      2          6           0       -1.562690    0.172865   -0.126759
      3          6           0       -0.633095   -1.016839    0.259056
      4          6           0        0.703580   -0.232771    0.602616
      5          6           0        1.842069   -0.692051   -0.158572
      6          1           0       -1.326069    2.193371   -0.226139
      7          1           0        0.935449   -0.304414    1.688260
      8          7           0       -0.828213    1.295021   -0.171960
      9          7           0        2.809279   -0.984908   -0.735289
     10          8           0        1.309391    2.029620    0.182617
     11          8           0       -2.763071    0.128904   -0.444705
     12          8           0       -0.842791   -2.200649    0.267336
 ---------------------------------------------------------------------

 SCF Done:  E(RHF) =  -524.193222830     A.U. after    2 cycles

 The electronic state is 1-A.
 Alpha  occ. eigenvalues --  -20.66756 -20.61793 -20.61790 -15.75091 -15.68349
 Alpha  occ. eigenvalues --  -11.44807 -11.44630 -11.44458 -11.36873 -11.33069
 Alpha  occ. eigenvalues --   -1.45250  -1.43239  -1.40052  -1.30980  -1.22948
 Alpha  occ. eigenvalues --   -1.14553  -0.99413  -0.92902  -0.85490  -0.78925
 Alpha  occ. eigenvalues --   -0.77725  -0.74841  -0.71778  -0.71164  -0.69049
 Alpha  occ. eigenvalues --   -0.66905  -0.62837  -0.59155  -0.58292  -0.57163
 Alpha  occ. eigenvalues --   -0.52630  -0.51556  -0.49233  -0.48433  -0.46826
 Alpha virt. eigenvalues --   -0.00193   0.01680   0.03012   0.06174   0.06670
 Alpha virt. eigenvalues --    0.07216   0.07899   0.09109   0.09382   0.10335
 Alpha virt. eigenvalues --    0.11608   0.12356   0.12769   0.12974   0.13433

 Mulliken charges:
               1
     1  C    0.725623
     2  C    0.644152
     3  C    0.379095
     4  C    0.202547
     5  C   -0.367136
     6  H    0.010287
     7  H    0.209974
     8  N   -0.349101
     9  N   -0.140816
    10  O   -0.478348
    11  O   -0.469712
    12  O   -0.366564
 Sum of Mulliken charges =  -0.00000

 Dipole moment (field-independent basis, Debye):
    X=             -1.4999    Y=              2.3327    Z=              2.9238  Tot=              4.0298

 Test job not archived.
 1\1\GINC-SE330\SP\RHF\Aug-CC-pVDZ\C5H2N2O3\OHZDE\08-Apr-2025\0\\#t hf
 aug-cc-pvdz iop(5/13=1,5/36=2,99/5=2) pseudo=read geom=check guess=(re
 ad,tcheck) scf=(maxcycle=1)\\title\\0,1\C,0,0.465957,1.14834,0.231432\
 C,0,-1.56269,0.172864,-0.126759\C,0,-0.633094,-1.01684,0.259056\C,0,0.
 703581,-0.232771,0.602616\C,0,1.84207,-0.69205,-0.158572\H,0,-1.32607,
 2.19337,-0.226139\H,0,0.93545,-0.304414,1.68826\N,0,-0.828213,1.29502,
 -0.17196\N,0,2.80928,-0.984907,-0.735289\O,0,1.30939,2.02962,0.182617\
 O,0,-2.76307,0.128902,-0.444705\O,0,-0.842789,-2.20065,0.267336\\Versi

 Normal termination of Gaussian 16 at Tue Apr  8 19:12:20 2025.
