 Gaussian 16, Revision C.01,

 ----------------------------------------------------------------------
 #t hf aug-cc-pvdz symm=none int=(grid=ultrafine) guess=(read,tcheck) s
 table=(opt,rrhf)
 ----------------------------------------------------------------------
 -----
 title
 -----
 Symbolic Z-matrix:
 Charge =  0 Multiplicity = 1

 SCF Done:  E(RHF) =  -903.391491161     A.U. after   14 cycles
 Normal termination of Gaussian 16 at Tue Apr  8 20:13:35 2025.
 Gaussian 16:  ES64L-G16RevC.01  3-Jul-2019

 ----------------------------------------------------------------------
 #t hf aug-cc-pvdz iop(5/13=1,5/36=2,99/5=2) pseudo=read geom=check gue
 ss=(read,tcheck) scf=(maxcycle=1)
 ----------------------------------------------------------------------
 -----
 title
 -----
 Structure from the checkpoint file:  "ANI1ccx_1597_conf3_mol1.chk"
 Charge =  0 Multiplicity = 1

                         Standard orientation:
 ---------------------------------------------------------------------
 Center     Atomic      Atomic             Coordinates (Angstroms)
 Number     Number       Type             X           Y           Z
 ---------------------------------------------------------------------
      1          6           0        1.966509   -1.359942    0.275791
      2          6           0        0.693934   -1.102301   -0.476566
      3          6           0        3.127789   -0.519701   -0.176832
      4          6           0        2.958210    0.960024    0.304258
      5          6           0       -1.173280    0.454297   -0.869950
      6          6           0       -1.681679    1.823770   -0.529975
      7          6           0       -2.347901   -0.525614   -0.868440
      8          6           0       -2.876671   -0.975259    0.523463
      9          1           0       -1.577979    3.177770    0.768451
     10          1           0       -1.845210    0.399215    1.688810
     11          1           0       -2.980971   -0.692566    2.524680
     12          1           0       -2.087461   -1.458819   -1.335640
     13          1           0       -3.211890   -0.088999   -1.403200
     14          1           0       -0.811555    0.608306   -1.940650
     15          1           0        0.153522    0.516863    0.778789
     16          1           0        4.938420    1.269337   -0.251130
     17          1           0        4.061579   -0.853923    0.307894
     18          1           0        3.342379   -0.584564   -1.254900
     19          1           0        1.761279   -1.239401    1.333770
     20          1           0        1.438418   -3.308371    0.692088
     21          1           0        2.121798   -3.111692   -0.724572
     22          1           0        4.152821    2.637677    0.408156
     23          7           0        2.216218   -2.797362    0.231063
     24          7           0        4.081711    1.700227    0.065570
     25          7           0       -0.132575   -0.091080   -0.013344
     26          7           0       -2.679680   -0.223089    1.646010
     27          8           0       -3.559551   -1.975158    0.611683
     28          8           0        0.408457   -1.723741   -1.503700
     29          8           0        2.013791    1.421148    0.952339
     30          8           0       -2.432049    2.482001   -1.229820
     31          8           0       -1.162689    2.305330    0.645985
 ---------------------------------------------------------------------

 SCF Done:  E(RHF) =  -903.664317401     A.U. after    2 cycles

 The electronic state is 1-A.
 Alpha  occ. eigenvalues --  -20.64989 -20.58708 -20.57115 -20.55510 -20.52831
 Alpha  occ. eigenvalues --  -15.67527 -15.66193 -15.64718 -15.62153 -11.42734
 Alpha  occ. eigenvalues --  -11.40599 -11.38021 -11.36175 -11.32043 -11.30012
 Alpha  occ. eigenvalues --  -11.29048 -11.25598  -1.44078  -1.37251  -1.36076
 Alpha  occ. eigenvalues --   -1.34568  -1.34249  -1.21688  -1.20539  -1.18418
 Alpha  occ. eigenvalues --   -1.16066  -1.06656  -1.04137  -0.95695  -0.91787
 Alpha  occ. eigenvalues --   -0.84176  -0.83240  -0.79218  -0.77664  -0.76190
 Alpha  occ. eigenvalues --   -0.74769  -0.73143  -0.71787  -0.71381  -0.70687
 Alpha  occ. eigenvalues --   -0.68056  -0.66376  -0.66151  -0.64732  -0.64125
 Alpha  occ. eigenvalues --   -0.63398  -0.63316  -0.61408  -0.60459  -0.58718
 Alpha  occ. eigenvalues --   -0.57834  -0.55996  -0.55406  -0.54298  -0.52811
 Alpha  occ. eigenvalues --   -0.52024  -0.51804  -0.49378  -0.47233  -0.46604
 Alpha  occ. eigenvalues --   -0.44725  -0.43283  -0.42137  -0.41200  -0.39983
 Alpha virt. eigenvalues --    0.01559   0.02880   0.03428   0.03897   0.04707
 Alpha virt. eigenvalues --    0.05117   0.05734   0.05920   0.06892   0.07799
 Alpha virt. eigenvalues --    0.08144   0.08786   0.09572   0.10107   0.10582

 Mulliken charges:
               1
     1  C    0.722197
     2  C    0.171807
     3  C    0.350170
     4  C    0.705984
     5  C   -0.010654
     6  C    0.941098
     7  C    0.241467
     8  C    0.578038
     9  H    0.237517
    10  H    0.151495
    11  H    0.024681
    12  H    0.000396
    13  H    0.035324
    14  H    0.088338
    15  H    0.147436
    16  H   -0.017499
    17  H    0.036408
    18  H   -0.047028
    19  H   -0.275939
    20  H    0.050886
    21  H    0.061589
    22  H   -0.038251
    23  N   -0.404230
    24  N   -0.160114
    25  N   -0.328104
    26  N   -0.295313
    27  O   -0.585304
    28  O   -0.600484
    29  O   -0.523091
    30  O   -0.575531
    31  O   -0.683289
 Sum of Mulliken charges =  -0.00000

 Dipole moment (field-independent basis, Debye):
    X=              8.0549    Y=              4.0281    Z=              2.1148  Tot=              9.2509

 Test job not archived.
 1\1\GINC-SE460\SP\RHF\Aug-CC-pVDZ\C8H14N4O5\OHZDE\08-Apr-2025\0\\#t hf
  aug-cc-pvdz iop(5/13=1,5/36=2,99/5=2) pseudo=read geom=check guess=(r
 ead,tcheck) scf=(maxcycle=1)\\title\\0,1\C,0,1.96651,-1.35994,0.275791
 \C,0,0.693935,-1.1023,-0.476566\C,0,3.12779,-0.519699,-0.176832\C,0,2.
 95821,0.960026,0.304258\C,0,-1.17328,0.454297,-0.86995\C,0,-1.68168,1.
 82377,-0.529975\C,0,-2.3479,-0.525615,-0.86844\C,0,-2.87667,-0.97526,0
 .523463\H,0,-1.57798,3.17777,0.768451\H,0,-1.84521,0.399214,1.68881\H,
 0,-2.98097,-0.692567,2.52468\H,0,-2.08746,-1.45882,-1.33564\H,0,-3.211

 Normal termination of Gaussian 16 at Tue Apr  8 20:14:16 2025.
