 Gaussian 16, Revision C.01,

 ----------------------------------------------------------------------
 #t hf aug-cc-pvdz symm=none int=(grid=ultrafine) guess=(read,tcheck) s
 table=(opt,rrhf)
 ----------------------------------------------------------------------
 -----
 title
 -----
 Symbolic Z-matrix:
 Charge =  0 Multiplicity = 1

 SCF Done:  E(RHF) =  -982.107324567     A.U. after   14 cycles
 Normal termination of Gaussian 16 at Tue Apr  8 20:39:59 2025.
 Gaussian 16:  ES64L-G16RevC.01  3-Jul-2019

 ----------------------------------------------------------------------
 #t hf aug-cc-pvdz iop(5/13=1,5/36=2,99/5=2) pseudo=read geom=check gue
 ss=(read,tcheck) scf=(maxcycle=1)
 ----------------------------------------------------------------------
 -----
 title
 -----
 Structure from the checkpoint file:  "ANI1ccx_1743_conf11_mol1.chk"
 Charge =  0 Multiplicity = 1

                         Standard orientation:
 ---------------------------------------------------------------------
 Center     Atomic      Atomic             Coordinates (Angstroms)
 Number     Number       Type             X           Y           Z
 ---------------------------------------------------------------------
      1          6           0        1.196949   -1.773890    0.103542
      2          6           0       -0.074913   -1.034690   -0.325477
      3          6           0        2.418409   -1.503791   -0.798108
      4          6           0        2.861229   -0.054829   -0.927405
      5          6           0        3.306460    0.533974    0.386575
      6          6           0       -1.460220    0.977774   -0.182159
      7          6           0       -1.105030    2.428840   -0.370521
      8          6           0       -2.672700    0.732138    0.735989
      9          6           0       -3.204021   -0.725829    0.604530
     10          1           0        0.430772    3.570660   -0.414621
     11          1           0       -4.327971   -1.653229   -0.656694
     12          1           0       -2.325380    0.857084    1.812920
     13          1           0       -3.454860    1.398771    0.410463
     14          1           0       -1.740310    0.682551   -1.201230
     15          1           0        0.371618    0.635204    0.874926
     16          1           0        4.726350    1.180249    1.353540
     17          1           0        3.722099    0.038996   -1.619830
     18          1           0        2.092650    0.584419   -1.453360
     19          1           0        2.186699   -1.957851   -1.790050
     20          1           0        3.163529   -2.133411   -0.291058
     21          1           0        1.355599   -1.533181    1.202890
     22          1           0        0.163416   -3.445470    0.655546
     23          1           0        0.385098   -3.318630   -0.944883
     24          7           0        0.841767   -3.202440   -0.074370
     25          7           0       -0.242964    0.191910    0.161140
     26          8           0       -0.945591   -1.531850   -1.049990
     27          8           0        2.531340    0.871228    1.237140
     28          8           0        4.639350    0.700967    0.550203
     29          8           0       -1.896820    3.327890   -0.586710
     30          8           0       -2.898251   -1.654939    1.311060
     31          8           0       -3.998121   -0.773904   -0.447151
     32          8           0        0.250855    2.646780   -0.253020
 ---------------------------------------------------------------------

 SCF Done:  E(RHF) =  -982.406834411     A.U. after    2 cycles

 The electronic state is 1-A.
 Alpha  occ. eigenvalues --  -20.64392 -20.64228 -20.62756 -20.58629 -20.58549
 Alpha  occ. eigenvalues --  -20.56133 -20.53404 -15.65827 -15.59865 -11.42627
 Alpha  occ. eigenvalues --  -11.42108 -11.40375 -11.36107 -11.32121 -11.29207
 Alpha  occ. eigenvalues --  -11.27708 -11.27688 -11.26709  -1.45510  -1.43568
 Alpha  occ. eigenvalues --   -1.43185  -1.35459  -1.34898  -1.34184  -1.32963
 Alpha  occ. eigenvalues --   -1.20881  -1.16217  -1.08017  -1.06899  -0.98168
 Alpha  occ. eigenvalues --   -0.95846  -0.88417  -0.86734  -0.83896  -0.82109
 Alpha  occ. eigenvalues --   -0.79608  -0.74920  -0.74030  -0.73112  -0.72163
 Alpha  occ. eigenvalues --   -0.71556  -0.69952  -0.69336  -0.68012  -0.67198
 Alpha  occ. eigenvalues --   -0.66650  -0.64537  -0.63846  -0.63444  -0.61888
 Alpha  occ. eigenvalues --   -0.61511  -0.60878  -0.58951  -0.58262  -0.57501
 Alpha  occ. eigenvalues --   -0.56112  -0.54130  -0.53997  -0.53275  -0.51525
 Alpha  occ. eigenvalues --   -0.51438  -0.50004  -0.49762  -0.49234  -0.47746
 Alpha  occ. eigenvalues --   -0.46403  -0.44347  -0.40651  -0.38980
 Alpha virt. eigenvalues --    0.02313   0.03537   0.03846   0.04049   0.05028
 Alpha virt. eigenvalues --    0.05521   0.06176   0.06223   0.06422   0.07170
 Alpha virt. eigenvalues --    0.08009   0.08389   0.09142   0.09623   0.10096

 Mulliken charges:
               1
     1  C   -0.267134
     2  C    0.639519
     3  C    0.363102
     4  C    0.531214
     5  C    0.568570
     6  C   -0.549193
     7  C    0.963775
     8  C    0.452701
     9  C    0.780291
    10  H    0.200892
    11  H    0.172597
    12  H    0.114576
    13  H   -0.035972
    14  H    0.006650
    15  H    0.069322
    16  H    0.132644
    17  H   -0.091890
    18  H    0.097655
    19  H    0.007352
    20  H    0.050688
    21  H   -0.103737
    22  H    0.048048
    23  H    0.039725
    24  N   -0.226032
    25  N   -0.264597
    26  O   -0.636170
    27  O   -0.462904
    28  O   -0.483007
    29  O   -0.533223
    30  O   -0.532048
    31  O   -0.471762
    32  O   -0.581655
 Sum of Mulliken charges =  -0.00000

 Dipole moment (field-independent basis, Debye):
    X=              3.1940    Y=              2.4900    Z=             -0.4179  Tot=              4.0714

 Test job not archived.
 1\1\GINC-SE219\SP\RHF\Aug-CC-pVDZ\C9H14N2O7\OHZDE\08-Apr-2025\0\\#t hf
  aug-cc-pvdz iop(5/13=1,5/36=2,99/5=2) pseudo=read geom=check guess=(r
 ead,tcheck) scf=(maxcycle=1)\\title\\0,1\C,0,1.19695,-1.77389,0.103542
 \C,0,-0.0749119,-1.03469,-0.325477\C,0,2.41841,-1.50379,-0.798108\C,0,
 2.86123,-0.0548279,-0.927405\C,0,3.30646,0.533975,0.386575\C,0,-1.4602
 2,0.977774,-0.182159\C,0,-1.10503,2.42884,-0.370521\C,0,-2.6727,0.7321
 37,0.735989\C,0,-3.20402,-0.72583,0.60453\H,0,0.430772,3.57066,-0.4146
 21\H,0,-4.32797,-1.65323,-0.656694\H,0,-2.32538,0.857083,1.81292\H,0,-

 Normal termination of Gaussian 16 at Tue Apr  8 20:40:51 2025.
