 Gaussian 16, Revision C.01,

 ----------------------------------------------------------------------
 #t hf aug-cc-pvdz symm=none int=(grid=ultrafine) guess=(read,tcheck) s
 table=(opt,rrhf)
 ----------------------------------------------------------------------
 -----
 title
 -----
 Symbolic Z-matrix:
 Charge =  0 Multiplicity = 1

 SCF Done:  E(RHF) =  -736.679541332     A.U. after   14 cycles
 Normal termination of Gaussian 16 at Tue Apr  8 19:37:32 2025.
 Gaussian 16:  ES64L-G16RevC.01  3-Jul-2019

 ----------------------------------------------------------------------
 #t hf aug-cc-pvdz iop(5/13=1,5/36=2,99/5=2) pseudo=read geom=check gue
 ss=(read,tcheck) scf=(maxcycle=1)
 ----------------------------------------------------------------------
 -----
 title
 -----
 Structure from the checkpoint file:  "ANI1ccx_1451_conf3_mol2.chk"
 Charge =  0 Multiplicity = 1

                         Standard orientation:
 ---------------------------------------------------------------------
 Center     Atomic      Atomic             Coordinates (Angstroms)
 Number     Number       Type             X           Y           Z
 ---------------------------------------------------------------------
      1          6           0       -1.365470    2.455459   -0.432916
      2          6           0       -0.316645    2.240209    0.629709
      3          6           0        0.617872    0.124858   -0.141491
      4          6           0        2.925960    0.894574   -0.034531
      5          6           0        3.790410   -0.415995   -0.062059
      6          6           0       -0.657180   -1.947301    0.200923
      7          6           0       -2.086359   -1.593451   -0.028853
      8          1           0       -3.779319   -2.304021   -0.144567
      9          1           0       -0.574271   -2.964841   -0.064981
     10          1           0       -0.645657   -1.887561    1.296550
     11          1           0        2.348791   -1.732650    0.008954
     12          1           0        4.628500   -0.119901    0.554818
     13          1           0        4.220540   -0.542940   -1.080760
     14          1           0        3.598740    1.639490   -0.436782
     15          1           0        2.714530    1.090600    1.010090
     16          1           0        1.873990    0.129922   -1.659690
     17          1           0       -0.845259    0.358684    1.280900
     18          1           0       -0.702513    2.693079    1.584010
     19          1           0        0.650701    2.698979    0.297106
     20          1           0       -1.249000    3.490549   -0.786997
     21          1           0       -1.092960    1.850699   -1.293460
     22          1           0       -3.010390    1.357749    0.204861
     23          7           0       -0.068320    0.807232    0.793489
     24          7           0        1.672200    0.721726   -0.849334
     25          7           0        0.354365   -1.130521   -0.478665
     26          8           0       -2.687570    2.282989    0.033203
     27          8           0        3.160671   -1.546920    0.481580
     28          8           0       -2.856239   -2.630711   -0.065818
     29          8           0       -2.528820   -0.492485   -0.175610
 ---------------------------------------------------------------------

 SCF Done:  E(RHF) =  -736.908391904     A.U. after    2 cycles

 The electronic state is 1-A.
 Alpha  occ. eigenvalues --  -20.64695 -20.57280 -20.56062 -20.55286 -15.65134
 Alpha  occ. eigenvalues --  -15.64460 -15.59901 -11.40699 -11.37674 -11.29048
 Alpha  occ. eigenvalues --  -11.28596 -11.28237 -11.27852 -11.27675  -1.47078
 Alpha  occ. eigenvalues --   -1.35210  -1.31973  -1.29817  -1.27961  -1.17622
 Alpha  occ. eigenvalues --   -1.14291  -1.02920  -0.99053  -0.97526  -0.87426
 Alpha  occ. eigenvalues --   -0.84852  -0.83926  -0.80433  -0.75783  -0.73398
 Alpha  occ. eigenvalues --   -0.70985  -0.70647  -0.69773  -0.68127  -0.65925
 Alpha  occ. eigenvalues --   -0.65475  -0.63265  -0.62856  -0.61780  -0.61019
 Alpha  occ. eigenvalues --   -0.59784  -0.57607  -0.56259  -0.55232  -0.53854
 Alpha  occ. eigenvalues --   -0.52670  -0.51812  -0.50509  -0.49544  -0.47368
 Alpha  occ. eigenvalues --   -0.46452  -0.45107  -0.40795  -0.38818  -0.34380
 Alpha virt. eigenvalues --    0.02756   0.03171   0.03573   0.04264   0.05219
 Alpha virt. eigenvalues --    0.05855   0.06379   0.06635   0.06986   0.07313
 Alpha virt. eigenvalues --    0.08261   0.09114   0.09307   0.09420   0.09958

 Mulliken charges:
               1
     1  C    1.057167
     2  C    0.228837
     3  C    0.567389
     4  C    0.657077
     5  C    0.769042
     6  C    0.680529
     7  C    0.311278
     8  H    0.203192
     9  H   -0.314314
    10  H    0.130075
    11  H    0.184194
    12  H   -0.166626
    13  H   -0.059925
    14  H   -0.133481
    15  H   -0.153603
    16  H    0.027763
    17  H   -0.032138
    18  H   -0.134258
    19  H   -0.046918
    20  H   -0.146539
    21  H   -0.160297
    22  H    0.221157
    23  N   -0.148339
    24  N   -0.698620
    25  N   -0.808002
    26  O   -0.619628
    27  O   -0.490170
    28  O   -0.447145
    29  O   -0.477698
 Sum of Mulliken charges =  -0.00000

 Dipole moment (field-independent basis, Debye):
    X=              0.1714    Y=             -0.3365    Z=              0.5064  Tot=              0.6317

 Test job not archived.
 1\1\GINC-SE462\SP\RHF\Aug-CC-pVDZ\C7H15N3O4\OHZDE\08-Apr-2025\0\\#t hf
  aug-cc-pvdz iop(5/13=1,5/36=2,99/5=2) pseudo=read geom=check guess=(r
 ead,tcheck) scf=(maxcycle=1)\\title\\0,1\C,0,-1.36547,2.45546,-0.43291
 6\C,0,-0.316645,2.24021,0.629709\C,0,0.617872,0.124859,-0.141491\C,0,2
 .92596,0.894574,-0.0345309\C,0,3.79041,-0.415995,-0.0620592\C,0,-0.657
 181,-1.9473,0.200923\C,0,-2.08636,-1.59345,-0.028853\H,0,-3.77932,-2.3
 0402,-0.144567\H,0,-0.574272,-2.96484,-0.0649808\H,0,-0.645658,-1.8875
 6,1.29655\H,0,2.34879,-1.73265,0.0089546\H,0,4.6285,-0.119901,0.554818

 Normal termination of Gaussian 16 at Tue Apr  8 19:38:02 2025.
