 Gaussian 16, Revision C.01,

 ----------------------------------------------------------------------
 #t hf aug-cc-pvdz symm=none int=(grid=ultrafine) guess=(read,tcheck) s
 table=(opt,rrhf)
 ----------------------------------------------------------------------
 -----
 title
 -----
 Symbolic Z-matrix:
 Charge =  0 Multiplicity = 1

 SCF Done:  E(RHF) =  -456.266790540     A.U. after   11 cycles
 Normal termination of Gaussian 16 at Tue Apr  8 21:04:41 2025.
 Gaussian 16:  ES64L-G16RevC.01  3-Jul-2019

 ----------------------------------------------------------------------
 #t hf aug-cc-pvdz iop(5/13=1,5/36=2,99/5=2) pseudo=read geom=check gue
 ss=(read,tcheck) scf=(maxcycle=1)
 ----------------------------------------------------------------------
 -----
 title
 -----
 Structure from the checkpoint file:  "ANI1ccx_1844_conf114_mol1.chk"
 Charge =  0 Multiplicity = 1

                         Standard orientation:
 ---------------------------------------------------------------------
 Center     Atomic      Atomic             Coordinates (Angstroms)
 Number     Number       Type             X           Y           Z
 ---------------------------------------------------------------------
      1          1           0       -2.331711   -0.616366   -0.674423
      2          1           0        1.921472    1.965017   -1.332420
      3          1           0        2.356460    0.507589   -0.685266
      4          1           0       -2.468809    1.627313   -1.196200
      5          1           0       -1.763859    1.394222    0.090081
      6          1           0       -0.021097    2.022420    1.671450
      7          1           0       -2.922173   -1.892137    0.012503
      8          1           0        0.713017    1.557199    0.339570
      9          1           0        0.015845   -0.524076    1.114570
     10          1           0       -0.574829   -1.742420    0.326834
     11          1           0        1.602188   -1.354922   -0.063258
     12          1           0        3.106458   -1.416224    0.342631
     13          8           0       -2.589519    1.159533   -0.371624
     14          8           0        0.219891   -1.482061    0.827474
     15          8           0        2.133541    1.476197   -0.473407
     16          8           0       -0.105839    1.441070    0.933367
     17          8           0       -2.112712   -1.555998   -0.453762
     18          8           0        2.500518   -1.229693   -0.455307
 ---------------------------------------------------------------------

 SCF Done:  E(RHF) =  -456.417094521     A.U. after    2 cycles

 The electronic state is 1-A.
 Alpha  occ. eigenvalues --  -20.59257 -20.58596 -20.58562 -20.57416 -20.56303
 Alpha  occ. eigenvalues --  -20.55090  -1.33176  -1.32166  -1.30246  -1.29948
 Alpha  occ. eigenvalues --   -1.28580  -1.26555  -0.75573  -0.73881  -0.73364
 Alpha  occ. eigenvalues --   -0.71975  -0.71060  -0.69696  -0.64849  -0.62219
 Alpha  occ. eigenvalues --   -0.61111  -0.59674  -0.58739  -0.56156  -0.53665
 Alpha  occ. eigenvalues --   -0.53267  -0.53154  -0.51478  -0.50913  -0.49733
 Alpha virt. eigenvalues --    0.02333   0.04542   0.04696   0.05305   0.06022
 Alpha virt. eigenvalues --    0.07631   0.08144   0.08653   0.08887   0.09968
 Alpha virt. eigenvalues --    0.10717   0.12298   0.15745   0.18874   0.19294

 Mulliken charges:
               1
     1  H    0.241928
     2  H    0.223866
     3  H    0.293423
     4  H    0.169462
     5  H    0.253802
     6  H    0.178609
     7  H    0.207580
     8  H    0.407304
     9  H    0.285856
    10  H    0.283356
    11  H    0.279432
    12  H    0.239925
    13  O   -0.401393
    14  O   -0.553275
    15  O   -0.499204
    16  O   -0.650955
    17  O   -0.436169
    18  O   -0.523547
 Sum of Mulliken charges =  -0.00000

 Dipole moment (field-independent basis, Debye):
    X=             -0.8908    Y=              3.4972    Z=             -0.1661  Tot=              3.6127

 Test job not archived.
 1\1\GINC-SE454\SP\RHF\Aug-CC-pVDZ\H12O6\OHZDE\08-Apr-2025\0\\#t hf aug
 -cc-pvdz iop(5/13=1,5/36=2,99/5=2) pseudo=read geom=check guess=(read,
 tcheck) scf=(maxcycle=1)\\title\\0,1\H,0,-2.33171,-0.616368,-0.674423\
 H,0,1.92147,1.96502,-1.33242\H,0,2.35646,0.507592,-0.685266\H,0,-2.468
 81,1.62731,-1.1962\H,0,-1.76386,1.39422,0.0900811\H,0,-0.0210985,2.022
 42,1.67145\H,0,-2.92217,-1.89214,0.0125029\H,0,0.713016,1.5572,0.33957
 \H,0,0.0158463,-0.524076,1.11457\H,0,-0.574826,-1.74242,0.326834\H,0,1
 .60219,-1.35492,-0.0632578\H,0,3.10646,-1.41622,0.342631\O,0,-2.58952,

 Normal termination of Gaussian 16 at Tue Apr  8 21:04:45 2025.
