 Gaussian 16, Revision C.01,

 ----------------------------------------------------------------------
 #t hf aug-cc-pvdz symm=none int=(grid=ultrafine) guess=(read,tcheck) s
 table=(opt,rrhf)
 ----------------------------------------------------------------------
 -----
 title
 -----
 Symbolic Z-matrix:
 Charge =  0 Multiplicity = 1

 SCF Done:  E(RHF) =  -638.817943478     A.U. after   14 cycles
 Normal termination of Gaussian 16 at Tue Apr  8 19:16:35 2025.
 Gaussian 16:  ES64L-G16RevC.01  3-Jul-2019

 ----------------------------------------------------------------------
 #t hf aug-cc-pvdz iop(5/13=1,5/36=2,99/5=2) pseudo=read geom=check gue
 ss=(read,tcheck) scf=(maxcycle=1)
 ----------------------------------------------------------------------
 -----
 title
 -----
 Structure from the checkpoint file:  "ANI1ccx_1034_conf2_mol1.chk"
 Charge =  0 Multiplicity = 1

                         Standard orientation:
 ---------------------------------------------------------------------
 Center     Atomic      Atomic             Coordinates (Angstroms)
 Number     Number       Type             X           Y           Z
 ---------------------------------------------------------------------
      1          6           0       -2.377319   -0.789905    0.141519
      2          6           0       -1.241459    1.229200    0.080961
      3          6           0        1.226331    1.043199    0.770343
      4          6           0        1.941731    0.180136   -0.325433
      5          6           0        3.379851    0.023685    0.202746
      6          1           0        3.469870   -1.779471   -0.444697
      7          1           0        4.028291    0.939904    0.081318
      8          1           0        3.272531   -0.215929    1.300920
      9          1           0        0.475484   -1.027701   -0.706811
     10          1           0        2.065441    0.715108   -1.302120
     11          1           0        1.907471    1.810149    1.134710
     12          1           0        0.146726    2.700729    0.057882
     13          1           0       -2.893680   -2.785470    0.151299
     14          1           0       -1.759000   -2.308460    1.405010
     15          1           0       -4.163619   -0.926044   -0.993774
     16          1           0       -3.068109    0.360337   -1.229200
     17          1           0        0.949011    0.339527    1.598680
     18          7           0       -3.319629   -0.476169   -0.723499
     19          7           0       -2.496140   -2.029320    0.734697
     20          7           0       -1.310499   -0.063114    0.460684
     21          7           0        0.067555    1.722809    0.283912
     22          8           0        1.379730   -1.101521   -0.486056
     23          8           0       -2.071849    1.878710   -0.505241
     24          8           0        4.117840   -1.029691   -0.454275
 ---------------------------------------------------------------------

 SCF Done:  E(RHF) =  -639.014110197     A.U. after    2 cycles

 The electronic state is 1-A.
 Alpha  occ. eigenvalues --  -20.57083 -20.55880 -20.52669 -15.67099 -15.66783
 Alpha  occ. eigenvalues --  -15.62486 -15.59778 -11.40944 -11.37836 -11.29146
 Alpha  occ. eigenvalues --  -11.28612 -11.27510  -1.36699  -1.33924  -1.29823
 Alpha  occ. eigenvalues --   -1.29027  -1.19382  -1.16500  -1.13668  -1.01558
 Alpha  occ. eigenvalues --   -0.91338  -0.87874  -0.82155  -0.80629  -0.77248
 Alpha  occ. eigenvalues --   -0.72543  -0.71555  -0.69307  -0.67920  -0.66268
 Alpha  occ. eigenvalues --   -0.64752  -0.63494  -0.62440  -0.60737  -0.58488
 Alpha  occ. eigenvalues --   -0.57753  -0.56560  -0.54807  -0.52509  -0.49855
 Alpha  occ. eigenvalues --   -0.48070  -0.47721  -0.44198  -0.42933  -0.41778
 Alpha  occ. eigenvalues --   -0.39615  -0.35976
 Alpha virt. eigenvalues --    0.01654   0.03178   0.03936   0.04611   0.05436
 Alpha virt. eigenvalues --    0.05948   0.06512   0.07460   0.07906   0.08178
 Alpha virt. eigenvalues --    0.09009   0.09465   0.10561   0.12085   0.12887

 Mulliken charges:
               1
     1  C    0.929367
     2  C    0.617047
     3  C    0.585982
     4  C    0.366230
     5  C    0.728589
     6  H    0.201441
     7  H   -0.112654
     8  H   -0.002885
     9  H    0.118213
    10  H   -0.110718
    11  H   -0.244385
    12  H   -0.089642
    13  H    0.003713
    14  H    0.066794
    15  H   -0.084752
    16  H    0.132396
    17  H    0.011687
    18  N   -0.101404
    19  N   -0.381328
    20  N   -0.572224
    21  N   -0.310488
    22  O   -0.596936
    23  O   -0.551969
    24  O   -0.602074
 Sum of Mulliken charges =  -0.00000

 Dipole moment (field-independent basis, Debye):
    X=             -4.1581    Y=             -2.6626    Z=              0.2899  Tot=              4.9460

 Test job not archived.
 1\1\GINC-SE104\SP\RHF\Aug-CC-pVDZ\C5H12N4O3\OHZDE\08-Apr-2025\0\\#t hf
  aug-cc-pvdz iop(5/13=1,5/36=2,99/5=2) pseudo=read geom=check guess=(r
 ead,tcheck) scf=(maxcycle=1)\\title\\0,1\C,0,-2.37732,-0.789905,0.1415
 19\C,0,-1.24146,1.2292,0.0809607\C,0,1.22633,1.0432,0.770343\C,0,1.941
 73,0.180137,-0.325433\C,0,3.37985,0.0236864,0.202746\H,0,3.46987,-1.77
 947,-0.444697\H,0,4.02829,0.939905,0.0813179\H,0,3.27253,-0.215928,1.3
 0092\H,0,0.475484,-1.0277,-0.706811\H,0,2.06544,0.715109,-1.30212\H,0,
 1.90747,1.81015,1.13471\H,0,0.146725,2.70073,0.0578818\H,0,-2.89368,-2

 Normal termination of Gaussian 16 at Tue Apr  8 19:16:53 2025.
