 Gaussian 16, Revision C.01,

 ----------------------------------------------------------------------
 #t hf aug-cc-pvdz symm=none int=(grid=ultrafine) guess=(read,tcheck) s
 table=(opt,rrhf)
 ----------------------------------------------------------------------
 -----
 title
 -----
 Symbolic Z-matrix:
 Charge =  0 Multiplicity = 1

 SCF Done:  E(RHF) =  -404.752197543     A.U. after   16 cycles
 Normal termination of Gaussian 16 at Tue Apr  8 21:44:50 2025.
 Gaussian 16:  ES64L-G16RevC.01  3-Jul-2019

 ----------------------------------------------------------------------
 #t hf aug-cc-pvdz iop(5/13=1,5/36=2,99/5=2) pseudo=read geom=check gue
 ss=(read,tcheck) scf=(maxcycle=1)
 ----------------------------------------------------------------------
 -----
 title
 -----
 Structure from the checkpoint file:  "ANI1ccx_523_conf2_mol1.chk"
 Charge =  0 Multiplicity = 1

                         Standard orientation:
 ---------------------------------------------------------------------
 Center     Atomic      Atomic             Coordinates (Angstroms)
 Number     Number       Type             X           Y           Z
 ---------------------------------------------------------------------
      1          6           0        1.117169   -0.210479   -0.057408
      2          6           0       -1.103511   -0.313297   -0.065391
      3          1           0        2.280648   -1.947990    0.277782
      4          1           0        3.192469   -0.541503    0.210072
      5          1           0       -2.439632   -1.945769    0.267692
      6          1           0       -3.180791   -0.367791    0.366439
      7          7           0        2.260769   -0.954263    0.074040
      8          7           0        1.165459    1.127910   -0.049239
      9          7           0       -0.034849    1.750770    0.028157
     10          7           0       -1.128101    1.115210    0.063250
     11          7           0       -2.290751   -0.933855   -0.015145
     12          7           0        0.036811   -0.970672   -0.156090
 ---------------------------------------------------------------------

 SCF Done:  E(RHF) =  -404.868732680     A.U. after    2 cycles

 The electronic state is 1-A.
 Alpha  occ. eigenvalues --  -15.74447 -15.69092 -15.67318 -15.65783 -15.64885
 Alpha  occ. eigenvalues --  -15.63910 -11.40364 -11.38876  -1.38372  -1.26772
 Alpha  occ. eigenvalues --   -1.24623  -1.14765  -1.12722  -0.93912  -0.90567
 Alpha  occ. eigenvalues --   -0.79123  -0.76940  -0.68649  -0.66814  -0.64441
 Alpha  occ. eigenvalues --   -0.62893  -0.60417  -0.53632  -0.51798  -0.50864
 Alpha  occ. eigenvalues --   -0.43614  -0.40109  -0.38726  -0.36140
 Alpha virt. eigenvalues --    0.02105   0.02813   0.05105   0.06402   0.07556
 Alpha virt. eigenvalues --    0.09216   0.10123   0.11677   0.12069   0.12380
 Alpha virt. eigenvalues --    0.13851   0.14781   0.14900   0.16958   0.17104

 Mulliken charges:
               1
     1  C    1.033849
     2  C    1.135965
     3  H   -0.028905
     4  H    0.002165
     5  H    0.059708
     6  H    0.166831
     7  N   -0.312335
     8  N   -0.432353
     9  N   -0.139721
    10  N   -0.484273
    11  N   -0.526723
    12  N   -0.474209
 Sum of Mulliken charges =  -0.00000

 Dipole moment (field-independent basis, Debye):
    X=             -0.9331    Y=             -4.7875    Z=              1.4556  Tot=              5.0901

 Test job not archived.
 1\1\GINC-SE048\SP\RHF\Aug-CC-pVDZ\C2H4N6\OHZDE\08-Apr-2025\0\\#t hf au
 g-cc-pvdz iop(5/13=1,5/36=2,99/5=2) pseudo=read geom=check guess=(read
 ,tcheck) scf=(maxcycle=1)\\title\\0,1\C,0,1.11717,-0.210479,-0.0574082
 \C,0,-1.10351,-0.313297,-0.0653908\H,0,2.28065,-1.94799,0.277782\H,0,3
 .19247,-0.541503,0.210072\H,0,-2.43963,-1.94577,0.267692\H,0,-3.18079,
 -0.367792,0.366439\N,0,2.26077,-0.954263,0.0740401\N,0,1.16546,1.12791
 ,-0.0492392\N,0,-0.0348478,1.75077,0.0281572\N,0,-1.1281,1.11521,0.063
 2502\N,0,-2.29075,-0.933856,-0.0151454\N,0,0.0368129,-0.970672,-0.1560

 Normal termination of Gaussian 16 at Tue Apr  8 21:44:56 2025.
