 Gaussian 16, Revision C.01,

 ----------------------------------------------------------------------
 #t hf aug-cc-pvdz symm=none int=(grid=ultrafine) guess=(read,tcheck) s
 table=(opt,rrhf)
 ----------------------------------------------------------------------
 -----
 title
 -----
 Symbolic Z-matrix:
 Charge =  0 Multiplicity = 1

 SCF Done:  E(RHF) =  -809.797731327     A.U. after   14 cycles
 Normal termination of Gaussian 16 at Tue Apr  8 20:31:02 2025.
 Gaussian 16:  ES64L-G16RevC.01  3-Jul-2019

 ----------------------------------------------------------------------
 #t hf aug-cc-pvdz iop(5/13=1,5/36=2,99/5=2) pseudo=read geom=check gue
 ss=(read,tcheck) scf=(maxcycle=1)
 ----------------------------------------------------------------------
 -----
 title
 -----
 Structure from the checkpoint file:  "ANI1ccx_1634_conf9_mol1.chk"
 Charge =  0 Multiplicity = 1

                         Standard orientation:
 ---------------------------------------------------------------------
 Center     Atomic      Atomic             Coordinates (Angstroms)
 Number     Number       Type             X           Y           Z
 ---------------------------------------------------------------------
      1          6           0       -3.417370    0.005056    0.523167
      2          6           0       -2.210751   -0.760142   -0.013905
      3          6           0       -0.556742    1.093971    0.506166
      4          6           0       -0.165531    1.792781   -0.892446
      5          6           0        0.480448    1.238190    1.676751
      6          6           0        1.542330    0.142107    1.884011
      7          6           0        2.852740    0.231895    1.137581
      8          6           0        2.183259   -1.249061   -0.665317
      9          1           0        1.269551    2.733090   -1.687689
     10          1           0        3.936468   -2.123652    0.029359
     11          1           0        2.817658   -3.198901   -0.712253
     12          1           0        1.101768   -2.225460   -1.836679
     13          1           0        2.272190    0.785488   -0.725686
     14          1           0        3.266821    1.226178    1.219931
     15          1           0        3.523289   -0.523836    1.590331
     16          1           0        1.791100    0.251556    2.952661
     17          1           0        1.155169   -0.885177    1.712591
     18          1           0       -0.093743    1.326410    2.597401
     19          1           0        1.000401    2.192840    1.535451
     20          1           0       -1.442289    1.684431    0.794689
     21          1           0       -0.265824   -0.847102   -0.284129
     22          1           0       -3.238810    0.477792    1.511751
     23          1           0       -3.623880    0.858869   -0.114780
     24          1           0       -4.900221   -0.970420   -0.464578
     25          1           0       -4.506061   -1.667967    0.945669
     26          7           0       -4.615241   -0.771820    0.489899
     27          7           0       -0.939370   -0.246439    0.181565
     28          7           0        2.670080   -0.024245   -0.248759
     29          7           0        1.203459   -1.256860   -1.484099
     30          7           0        2.950578   -2.332781   -0.208684
     31          8           0       -2.327291   -1.891498   -0.448805
     32          8           0       -0.911033    1.908781   -1.810789
     33          8           0        1.088271    2.277980   -0.879093
 ---------------------------------------------------------------------

 SCF Done:  E(RHF) =  -810.042765193     A.U. after    2 cycles

 The electronic state is 1-A.
 Alpha  occ. eigenvalues --  -20.64228 -20.57432 -20.52326 -15.65562 -15.62553
 Alpha  occ. eigenvalues --  -15.62514 -15.59345 -15.59336 -11.40749 -11.36748
 Alpha  occ. eigenvalues --  -11.34869 -11.31433 -11.27602 -11.26722 -11.25564
 Alpha  occ. eigenvalues --  -11.24192  -1.44869  -1.35057  -1.33685  -1.27953
 Alpha  occ. eigenvalues --   -1.19365  -1.16661  -1.14724  -1.12203  -1.05717
 Alpha  occ. eigenvalues --   -0.99315  -0.93030  -0.91774  -0.86529  -0.83249
 Alpha  occ. eigenvalues --   -0.79714  -0.76629  -0.73901  -0.71571  -0.71496
 Alpha  occ. eigenvalues --   -0.69563  -0.69176  -0.67949  -0.66952  -0.65511
 Alpha  occ. eigenvalues --   -0.64262  -0.63716  -0.62589  -0.60346  -0.59967
 Alpha  occ. eigenvalues --   -0.58189  -0.57343  -0.56277  -0.55261  -0.53799
 Alpha  occ. eigenvalues --   -0.52562  -0.52224  -0.50308  -0.49762  -0.48336
 Alpha  occ. eigenvalues --   -0.47252  -0.43925  -0.43430  -0.40242  -0.38193
 Alpha  occ. eigenvalues --   -0.37733  -0.35994
 Alpha virt. eigenvalues --    0.02156   0.02749   0.03322   0.03945   0.05174
 Alpha virt. eigenvalues --    0.05419   0.05827   0.05958   0.06455   0.06987
 Alpha virt. eigenvalues --    0.07730   0.08371   0.08713   0.09262   0.09393

 Mulliken charges:
               1
     1  C    0.800394
     2  C    0.450013
     3  C   -0.392104
     4  C    0.954858
     5  C    0.482644
     6  C    0.343072
     7  C    0.591731
     8  C    0.523815
     9  H    0.210845
    10  H    0.048662
    11  H   -0.062467
    12  H    0.017122
    13  H   -0.019713
    14  H   -0.203072
    15  H   -0.127185
    16  H   -0.087715
    17  H   -0.126373
    18  H   -0.127965
    19  H   -0.087771
    20  H   -0.038823
    21  H   -0.137425
    22  H   -0.090412
    23  H   -0.098325
    24  H    0.026744
    25  H    0.011718
    26  N   -0.319992
    27  N    0.019640
    28  N   -0.240783
    29  N   -0.383171
    30  N   -0.171060
    31  O   -0.587283
    32  O   -0.501121
    33  O   -0.678498
 Sum of Mulliken charges =  -0.00000

 Dipole moment (field-independent basis, Debye):
    X=              6.1749    Y=              1.8939    Z=              2.7771  Tot=              7.0305

 Test job not archived.
 1\1\GINC-SE015\SP\RHF\Aug-CC-pVDZ\C8H17N5O3\OHZDE\08-Apr-2025\0\\#t hf
  aug-cc-pvdz iop(5/13=1,5/36=2,99/5=2) pseudo=read geom=check guess=(r
 ead,tcheck) scf=(maxcycle=1)\\title\\0,1\C,0,-3.41737,0.0050533,0.5231
 66\C,0,-2.21075,-0.760144,-0.0139054\C,0,-0.556742,1.09397,0.506165\C,
 0,-0.165532,1.79278,-0.892447\C,0,0.480447,1.23819,1.67675\C,0,1.54233
 ,0.142108,1.88401\C,0,2.85274,0.231896,1.13758\C,0,2.18326,-1.24906,-0
 .665318\H,0,1.26955,2.73309,-1.68769\H,0,3.93647,-2.12365,0.0293588\H,
 0,2.81766,-3.1989,-0.712254\H,0,1.10177,-2.22546,-1.83668\H,0,2.27219,

 Normal termination of Gaussian 16 at Tue Apr  8 20:31:51 2025.
