 Gaussian 16, Revision C.01,

 ----------------------------------------------------------------------
 #t hf aug-cc-pvdz symm=none int=(grid=ultrafine) guess=(read,tcheck) s
 table=(opt,rrhf)
 ----------------------------------------------------------------------
 -----
 title
 -----
 Symbolic Z-matrix:
 Charge =  0 Multiplicity = 1

 SCF Done:  E(RHF) =  -532.268721000     A.U. after   11 cycles
 Normal termination of Gaussian 16 at Tue Apr  8 21:10:11 2025.
 Gaussian 16:  ES64L-G16RevC.01  3-Jul-2019

 ----------------------------------------------------------------------
 #t hf aug-cc-pvdz iop(5/13=1,5/36=2,99/5=2) pseudo=read geom=check gue
 ss=(read,tcheck) scf=(maxcycle=1)
 ----------------------------------------------------------------------
 -----
 title
 -----
 Structure from the checkpoint file:  "ANI1ccx_1845_conf465_mol1.chk"
 Charge =  0 Multiplicity = 1

                         Standard orientation:
 ---------------------------------------------------------------------
 Center     Atomic      Atomic             Coordinates (Angstroms)
 Number     Number       Type             X           Y           Z
 ---------------------------------------------------------------------
      1          1           0        0.933604   -1.204969    0.501689
      2          1           0       -2.013759   -0.439684   -1.219770
      3          1           0       -2.735769   -1.194528   -0.117733
      4          1           0       -2.452429    0.679161    0.677198
      5          1           0        1.948451   -0.002946    2.232190
      6          1           0        2.548071   -1.319499    1.856700
      7          1           0       -0.617942    1.802661    0.345934
      8          1           0       -3.844909    1.335492    0.462859
      9          1           0        3.219261   -0.079823   -1.992560
     10          1           0        1.979191   -0.875089   -1.007180
     11          1           0        2.111861    1.275671   -0.408331
     12          1           0        1.136331    2.288431   -0.832932
     13          1           0       -0.564376   -1.494099   -0.436029
     14          1           0       -0.180174    0.384725   -0.041549
     15          8           0       -3.409179    0.514261    0.655657
     16          8           0        0.393919   -1.264179   -0.311348
     17          8           0        1.531411    2.008061   -0.022579
     18          8           0        2.712111   -0.228106   -1.119160
     19          8           0       -0.948959    1.037651   -0.217734
     20          8           0        1.716271   -0.903417    1.948230
     21          8           0       -2.178999   -1.308709   -0.935628
 ---------------------------------------------------------------------

 SCF Done:  E(RHF) =  -532.444373615     A.U. after    2 cycles

 The electronic state is 1-A.
 Alpha  occ. eigenvalues --  -20.61664 -20.58403 -20.57395 -20.56344 -20.56006
 Alpha  occ. eigenvalues --  -20.55594 -20.54935  -1.36281  -1.32190  -1.30800
 Alpha  occ. eigenvalues --   -1.29829  -1.29231  -1.28768  -1.27189  -0.79025
 Alpha  occ. eigenvalues --   -0.77201  -0.74839  -0.73871  -0.72515  -0.70953
 Alpha  occ. eigenvalues --   -0.69309  -0.65126  -0.62517  -0.61433  -0.60671
 Alpha  occ. eigenvalues --   -0.58731  -0.57463  -0.56317  -0.54492  -0.53009
 Alpha  occ. eigenvalues --   -0.52582  -0.51454  -0.50852  -0.50391  -0.49470
 Alpha virt. eigenvalues --    0.02511   0.04105   0.04244   0.05669   0.06532
 Alpha virt. eigenvalues --    0.07136   0.07545   0.07667   0.09021   0.09851
 Alpha virt. eigenvalues --    0.10162   0.10724   0.11347   0.12988   0.17707

 Mulliken charges:
               1
     1  H    0.314170
     2  H    0.195627
     3  H    0.276836
     4  H    0.202405
     5  H    0.213407
     6  H    0.160925
     7  H    0.252715
     8  H    0.154147
     9  H    0.262729
    10  H    0.270392
    11  H    0.269117
    12  H    0.145763
    13  H    0.322818
    14  H    0.391607
    15  O   -0.349655
    16  O   -0.671543
    17  O   -0.408575
    18  O   -0.528858
    19  O   -0.623331
    20  O   -0.394942
    21  O   -0.455756
 Sum of Mulliken charges =   0.00000

 Dipole moment (field-independent basis, Debye):
    X=              3.5413    Y=              1.7927    Z=              0.3572  Tot=              3.9853

 Test job not archived.
 1\1\GINC-SE028\SP\RHF\Aug-CC-pVDZ\H14O7\OHZDE\08-Apr-2025\0\\#t hf aug
 -cc-pvdz iop(5/13=1,5/36=2,99/5=2) pseudo=read geom=check guess=(read,
 tcheck) scf=(maxcycle=1)\\title\\0,1\H,0,0.933603,-1.20497,0.501689\H,
 0,-2.01376,-0.439685,-1.21977\H,0,-2.73577,-1.19453,-0.117733\H,0,-2.4
 5243,0.679159,0.677198\H,0,1.94845,-0.00294667,2.23219\H,0,2.54807,-1.
 3195,1.8567\H,0,-0.617943,1.80266,0.345934\H,0,-3.84491,1.33549,0.4628
 59\H,0,3.21926,-0.0798234,-1.99256\H,0,1.97919,-0.87509,-1.00718\H,0,2
 .11186,1.27567,-0.408331\H,0,1.13633,2.28843,-0.832932\H,0,-0.564377,-

 Normal termination of Gaussian 16 at Tue Apr  8 21:10:18 2025.
