 Gaussian 16, Revision C.01,

 ----------------------------------------------------------------------
 #t hf aug-cc-pvdz symm=none int=(grid=ultrafine) guess=(read,tcheck) s
 table=(opt,rrhf)
 ----------------------------------------------------------------------
 -----
 title
 -----
 Symbolic Z-matrix:
 Charge =  0 Multiplicity = 1

 SCF Done:  E(RHF) =  -716.199964218     A.U. after   13 cycles
 Normal termination of Gaussian 16 at Tue Apr  8 20:22:49 2025.
 Gaussian 16:  ES64L-G16RevC.01  3-Jul-2019

 ----------------------------------------------------------------------
 #t hf aug-cc-pvdz iop(5/13=1,5/36=2,99/5=2) pseudo=read geom=check gue
 ss=(read,tcheck) scf=(maxcycle=1)
 ----------------------------------------------------------------------
 -----
 title
 -----
 Structure from the checkpoint file:  "ANI1ccx_1645_conf3_mol2.chk"
 Charge =  0 Multiplicity = 1

                         Standard orientation:
 ---------------------------------------------------------------------
 Center     Atomic      Atomic             Coordinates (Angstroms)
 Number     Number       Type             X           Y           Z
 ---------------------------------------------------------------------
      1          6           0        1.537249    1.958311   -0.262208
      2          6           0        3.258410    0.051959   -0.140887
      3          6           0        2.760681   -0.945976    0.982449
      4          6           0        2.192681   -2.232049    0.293275
      5          6           0       -0.133316   -1.990250    0.222062
      6          6           0       -1.207029   -1.946081   -0.848155
      7          6           0       -2.587679   -1.624572   -0.301592
      8          6           0       -3.027960    0.767227    0.275551
      9          1           0       -1.298258   -2.910211   -1.432900
     10          1           0       -0.808961   -1.196470   -1.504450
     11          1           0       -3.311689   -1.451072   -1.102180
     12          1           0       -3.012798   -2.474782    0.232381
     13          1           0       -4.241441    2.217638    0.774768
     14          1           0       -1.506671    1.281339   -1.114850
     15          1           0       -2.809181    2.218958   -1.156170
     16          1           0       -0.193444   -2.860640    0.874072
     17          1           0       -3.084019   -0.708900    1.528380
     18          1           0       -0.298561   -1.134440    0.917414
     19          1           0        2.919382   -2.698388   -0.343082
     20          1           0        1.979472   -2.957819    1.081670
     21          1           0        2.008970   -0.552288    1.677060
     22          1           0        3.627891   -1.177148    1.595390
     23          1           0        2.835810   -0.311444   -1.139240
     24          1           0        4.330230    0.004849   -0.191080
     25          1           0        3.204899    1.868542    0.868738
     26          1           0        0.942060    0.327532   -0.840638
     27          1           0        2.072258    3.943241   -0.225885
     28          1           0        0.471217    3.542830    0.049621
     29          7           0        1.421428    3.270761    0.213321
     30          7           0        0.525088    1.264220   -0.771374
     31          7           0        2.839929    1.473112    0.002606
     32          7           0       -2.562190   -0.523926    0.664861
     33          7           0       -2.479431    1.322239   -0.903251
     34          7           0       -3.899221    1.305728    1.091420
     35          8           0        1.061921   -1.998459   -0.494385
 ---------------------------------------------------------------------

 SCF Done:  E(RHF) =  -716.415721795     A.U. after    2 cycles

 The electronic state is 1-A.
 Alpha  occ. eigenvalues --  -20.57633 -15.64902 -15.64741 -15.61301 -15.60896
 Alpha  occ. eigenvalues --  -15.59698 -15.56613 -11.37414 -11.34759 -11.29080
 Alpha  occ. eigenvalues --  -11.29036 -11.27260 -11.26005 -11.24775 -11.22092
 Alpha  occ. eigenvalues --   -1.35395  -1.26295  -1.22972  -1.15326  -1.13170
 Alpha  occ. eigenvalues --   -1.10535  -1.08015  -1.04752  -1.00848  -0.93484
 Alpha  occ. eigenvalues --   -0.89423  -0.82962  -0.81430  -0.77515  -0.76935
 Alpha  occ. eigenvalues --   -0.73039  -0.69753  -0.69185  -0.68200  -0.67708
 Alpha  occ. eigenvalues --   -0.66143  -0.65071  -0.62556  -0.61829  -0.60357
 Alpha  occ. eigenvalues --   -0.59830  -0.57916  -0.57281  -0.55819  -0.53893
 Alpha  occ. eigenvalues --   -0.53297  -0.51383  -0.50447  -0.49627  -0.49393
 Alpha  occ. eigenvalues --   -0.48703  -0.46066  -0.44947  -0.43145  -0.41055
 Alpha  occ. eigenvalues --   -0.40002  -0.38436  -0.35968  -0.32634
 Alpha virt. eigenvalues --    0.02464   0.02858   0.03793   0.03820   0.04662
 Alpha virt. eigenvalues --    0.05008   0.05679   0.06192   0.06412   0.07077
 Alpha virt. eigenvalues --    0.07333   0.07761   0.08227   0.09000   0.09288

 Mulliken charges:
               1
     1  C    0.504631
     2  C    0.622967
     3  C    0.545999
     4  C    0.761038
     5  C    0.756314
     6  C    0.052761
     7  C    1.061499
     8  C    0.892867
     9  H    0.011218
    10  H   -0.269969
    11  H   -0.162341
    12  H   -0.235476
    13  H   -0.036538
    14  H   -0.000602
    15  H   -0.063925
    16  H   -0.360216
    17  H    0.006413
    18  H   -0.142143
    19  H   -0.407948
    20  H   -0.090806
    21  H   -0.248690
    22  H   -0.112752
    23  H   -0.098061
    24  H   -0.301852
    25  H   -0.000465
    26  H    0.010181
    27  H    0.054149
    28  H   -0.005246
    29  N   -0.254289
    30  N   -0.231505
    31  N   -0.413151
    32  N   -0.623874
    33  N   -0.086210
    34  N   -0.479812
    35  O   -0.654163
 Sum of Mulliken charges =  -0.00000

 Dipole moment (field-independent basis, Debye):
    X=              5.0932    Y=              0.2027    Z=             -0.0823  Tot=              5.0979

 Test job not archived.
 1\1\GINC-SE458\SP\RHF\Aug-CC-pVDZ\C8H20N6O1\OHZDE\08-Apr-2025\0\\#t hf
  aug-cc-pvdz iop(5/13=1,5/36=2,99/5=2) pseudo=read geom=check guess=(r
 ead,tcheck) scf=(maxcycle=1)\\title\\0,1\C,0,1.53725,1.95831,-0.262208
 \C,0,3.25841,0.0519571,-0.140887\C,0,2.76068,-0.945978,0.982449\C,0,2.
 19268,-2.23205,0.293275\C,0,-0.133317,-1.99025,0.222062\C,0,-1.20703,-
 1.94608,-0.848155\C,0,-2.58768,-1.62457,-0.301592\C,0,-3.02796,0.76722
 9,0.275551\H,0,-1.29826,-2.91021,-1.4329\H,0,-0.808962,-1.19647,-1.504
 45\H,0,-3.31169,-1.45107,-1.10218\H,0,-3.0128,-2.47478,0.232381\H,0,-4

 Normal termination of Gaussian 16 at Tue Apr  8 20:23:35 2025.
