 Gaussian 16, Revision C.01,

 ----------------------------------------------------------------------
 #t hf aug-cc-pvdz symm=none int=(grid=ultrafine) guess=(read,tcheck) s
 table=(opt,rrhf)
 ----------------------------------------------------------------------
 -----
 title
 -----
 Symbolic Z-matrix:
 Charge =  0 Multiplicity = 1

 SCF Done:  E(RHF) =  -390.239469445     A.U. after   16 cycles
 Normal termination of Gaussian 16 at Tue Apr  8 21:53:58 2025.
 Gaussian 16:  ES64L-G16RevC.01  3-Jul-2019

 ----------------------------------------------------------------------
 #t hf aug-cc-pvdz iop(5/13=1,5/36=2,99/5=2) pseudo=read geom=check gue
 ss=(read,tcheck) scf=(maxcycle=1)
 ----------------------------------------------------------------------
 -----
 title
 -----
 Structure from the checkpoint file:  "ANI1ccx_847_conf9_mol1.chk"
 Charge =  0 Multiplicity = 1

                         Standard orientation:
 ---------------------------------------------------------------------
 Center     Atomic      Atomic             Coordinates (Angstroms)
 Number     Number       Type             X           Y           Z
 ---------------------------------------------------------------------
      1          6           0       -1.522502   -0.274196    0.009690
      2          6           0       -1.118932    1.235339    0.008977
      3          6           0        0.640470   -0.078393   -0.032203
      4          6           0        2.037768   -0.148100    0.051675
      5          1           0       -1.675902    2.154549    0.016864
      6          7           0        0.159006    1.308619   -0.022224
      7          7           0       -0.189710   -0.987401   -0.044629
      8          7           0        3.190858   -0.346799    0.005162
      9          8           0       -2.583252   -0.797924    0.023267
 ---------------------------------------------------------------------

 SCF Done:  E(RHF) =  -390.351037531     A.U. after    2 cycles

 The electronic state is 1-A.
 Alpha  occ. eigenvalues --  -20.64925 -15.70708 -15.70281 -15.69748 -11.44210
 Alpha  occ. eigenvalues --  -11.41154 -11.37069 -11.33417  -1.44809  -1.35918
 Alpha  occ. eigenvalues --   -1.23098  -1.20927  -1.03596  -0.88711  -0.86073
 Alpha  occ. eigenvalues --   -0.78104  -0.72647  -0.68187  -0.66839  -0.60688
 Alpha  occ. eigenvalues --   -0.59648  -0.58463  -0.51062  -0.50772  -0.49049
 Alpha  occ. eigenvalues --   -0.48495  -0.45782
 Alpha virt. eigenvalues --   -0.02800   0.02364   0.06007   0.06587   0.06719
 Alpha virt. eigenvalues --    0.09382   0.09717   0.09975   0.10546   0.11813
 Alpha virt. eigenvalues --    0.12588   0.12966   0.13102   0.14284   0.15041

 Mulliken charges:
               1
     1  C    0.543864
     2  C    0.530901
     3  C    1.059570
     4  C   -0.447876
     5  H   -0.229055
     6  N   -0.506460
     7  N   -0.487953
     8  N   -0.127353
     9  O   -0.335638
 Sum of Mulliken charges =  -0.00000

 Dipole moment (field-independent basis, Debye):
    X=             -1.9994    Y=              2.7665    Z=              0.0453  Tot=              3.4137

 Test job not archived.
 1\1\GINC-SE334\SP\RHF\Aug-CC-pVDZ\C4H1N3O1\OHZDE\08-Apr-2025\0\\#t hf
 aug-cc-pvdz iop(5/13=1,5/36=2,99/5=2) pseudo=read geom=check guess=(re
 ad,tcheck) scf=(maxcycle=1)\\title\\0,1\C,0,-1.5225,-0.274195,0.009690
 02\C,0,-1.11893,1.23534,0.00897715\C,0,0.640472,-0.0783922,-0.0322029\
 C,0,2.03777,-0.148099,0.0516755\H,0,-1.6759,2.15455,0.0168637\N,0,0.15
 9008,1.30862,-0.0222236\N,0,-0.189708,-0.9874,-0.0446292\N,0,3.19086,-
 0.346798,0.00516167\O,0,-2.58325,-0.797924,0.023267\\Version=ES64L-G16
 RevC.01\State=1-A\HF=-390.3510375\RMSD=5.249e-03\Dipole=-0.7866139,1.0

 Normal termination of Gaussian 16 at Tue Apr  8 21:54:02 2025.
