 Gaussian 16, Revision C.01,

 ----------------------------------------------------------------------
 #t hf aug-cc-pvdz symm=none int=(grid=ultrafine) guess=(read,tcheck) s
 table=(opt,rrhf)
 ----------------------------------------------------------------------
 -----
 title
 -----
 Symbolic Z-matrix:
 Charge =  0 Multiplicity = 1

 SCF Done:  E(RHF) =  -456.277054403     A.U. after   11 cycles
 Normal termination of Gaussian 16 at Tue Apr  8 21:08:46 2025.
 Gaussian 16:  ES64L-G16RevC.01  3-Jul-2019

 ----------------------------------------------------------------------
 #t hf aug-cc-pvdz iop(5/13=1,5/36=2,99/5=2) pseudo=read geom=check gue
 ss=(read,tcheck) scf=(maxcycle=1)
 ----------------------------------------------------------------------
 -----
 title
 -----
 Structure from the checkpoint file:  "ANI1ccx_1844_conf87_mol1.chk"
 Charge =  0 Multiplicity = 1

                         Standard orientation:
 ---------------------------------------------------------------------
 Center     Atomic      Atomic             Coordinates (Angstroms)
 Number     Number       Type             X           Y           Z
 ---------------------------------------------------------------------
      1          1           0       -1.166877   -1.828783    1.587010
      2          1           0       -2.104182    0.796559   -0.182402
      3          1           0       -3.367871    0.122548   -0.815127
      4          1           0        1.824417    1.199113    0.375221
      5          1           0        1.193426    2.125552    1.447440
      6          1           0       -0.186997    2.038569   -0.227310
      7          1           0       -1.958388   -1.393474    0.348713
      8          1           0       -1.399666    2.940737   -0.264392
      9          1           0        1.368245   -2.902678   -0.729540
     10          1           0        0.109784   -2.123680   -0.292949
     11          1           0        2.234831   -0.849417   -0.085342
     12          1           0        3.224730    0.032565   -0.793579
     13          8           0        1.322776    2.066392    0.503292
     14          8           0        1.022664   -1.994749   -0.737087
     15          8           0       -2.805801    0.123020   -0.006610
     16          8           0       -1.089994    2.084617   -0.602443
     17          8           0       -1.368056   -2.102793    0.669839
     18          8           0        2.946980   -0.196189    0.127040
 ---------------------------------------------------------------------

 SCF Done:  E(RHF) =  -456.429039605     A.U. after    2 cycles

 The electronic state is 1-A.
 Alpha  occ. eigenvalues --  -20.58432 -20.58059 -20.57766 -20.57564 -20.57323
 Alpha  occ. eigenvalues --  -20.56893  -1.32597  -1.31422  -1.31223  -1.30137
 Alpha  occ. eigenvalues --   -1.29369  -1.28702  -0.73518  -0.73247  -0.72710
 Alpha  occ. eigenvalues --   -0.72497  -0.71700  -0.71288  -0.64403  -0.63110
 Alpha  occ. eigenvalues --   -0.62357  -0.59599  -0.58576  -0.57102  -0.53203
 Alpha  occ. eigenvalues --   -0.52775  -0.52497  -0.52198  -0.52046  -0.51546
 Alpha virt. eigenvalues --    0.02819   0.04333   0.04790   0.05186   0.06306
 Alpha virt. eigenvalues --    0.06931   0.08212   0.09060   0.09730   0.09995
 Alpha virt. eigenvalues --    0.10657   0.11015   0.17163   0.18114   0.18658

 Mulliken charges:
               1
     1  H    0.204854
     2  H    0.296288
     3  H    0.181035
     4  H    0.278893
     5  H    0.178926
     6  H    0.262039
     7  H    0.248593
     8  H    0.174774
     9  H    0.185056
    10  H    0.307548
    11  H    0.264704
    12  H    0.211502
    13  O   -0.464171
    14  O   -0.471054
    15  O   -0.445567
    16  O   -0.443427
    17  O   -0.484711
    18  O   -0.485282
 Sum of Mulliken charges =  -0.00000

 Dipole moment (field-independent basis, Debye):
    X=             -0.3168    Y=              0.4788    Z=              0.8193  Tot=              1.0004

 Test job not archived.
 1\1\GINC-SE177\SP\RHF\Aug-CC-pVDZ\H12O6\OHZDE\08-Apr-2025\0\\#t hf aug
 -cc-pvdz iop(5/13=1,5/36=2,99/5=2) pseudo=read geom=check guess=(read,
 tcheck) scf=(maxcycle=1)\\title\\0,1\H,0,-1.16688,-1.82878,1.58701\H,0
 ,-2.10418,0.796564,-0.182402\H,0,-3.36787,0.122555,-0.815127\H,0,1.824
 42,1.19911,0.375221\H,0,1.19343,2.12555,1.44744\H,0,-0.186993,2.03857,
 -0.22731\H,0,-1.95839,-1.39347,0.348713\H,0,-1.39966,2.94074,-0.264392
 \H,0,1.36824,-2.90268,-0.72954\H,0,0.10978,-2.12368,-0.292949\H,0,2.23
 483,-0.849421,-0.0853423\H,0,3.22473,0.0325589,-0.793579\O,0,1.32278,2

 Normal termination of Gaussian 16 at Tue Apr  8 21:08:51 2025.
