 Gaussian 16, Revision C.01,

 ----------------------------------------------------------------------
 #t hf aug-cc-pvdz symm=none int=(grid=ultrafine) guess=(read,tcheck) s
 table=(opt,rrhf)
 ----------------------------------------------------------------------
 -----
 title
 -----
 Symbolic Z-matrix:
 Charge =  0 Multiplicity = 1

 SCF Done:  E(RHF) =  -604.208382369     A.U. after   14 cycles
 Normal termination of Gaussian 16 at Tue Apr  8 22:07:58 2025.
 Gaussian 16:  ES64L-G16RevC.01  3-Jul-2019

 ----------------------------------------------------------------------
 #t hf aug-cc-pvdz iop(5/13=1,5/36=2,99/5=2) pseudo=read geom=check gue
 ss=(read,tcheck) scf=(maxcycle=1)
 ----------------------------------------------------------------------
 -----
 title
 -----
 Structure from the checkpoint file:  "ANI1ccx_934_conf8_mol1.chk"
 Charge =  0 Multiplicity = 1

                         Standard orientation:
 ---------------------------------------------------------------------
 Center     Atomic      Atomic             Coordinates (Angstroms)
 Number     Number       Type             X           Y           Z
 ---------------------------------------------------------------------
      1          6           0        0.563734   -1.007200    0.018850
      2          6           0       -0.729992   -0.510921   -0.740518
      3          6           0       -1.068070    0.826933   -0.136575
      4          6           0        1.583300    0.132798    0.009514
      5          1           0       -0.629277   -1.645140    1.402860
      6          1           0        0.823446   -1.907960   -0.564581
      7          1           0       -0.609309   -0.527448   -1.804100
      8          1           0       -2.556000   -1.080570   -0.489489
      9          1           0       -2.621370    1.848470    0.212104
     10          1           0        1.933130   -0.629187   -1.666230
     11          8           0        0.240582   -1.183290    1.345210
     12          8           0       -1.638800   -1.425730   -0.345831
     13          8           0       -2.325980    0.934978    0.174808
     14          8           0       -0.266130    1.737990   -0.020805
     15          8           0        2.258530    0.126614   -1.152210
     16          8           0        1.927490    0.720958    0.999054
 ---------------------------------------------------------------------

 SCF Done:  E(RHF) =  -604.398916076     A.U. after    2 cycles

 The electronic state is 1-A.
 Alpha  occ. eigenvalues --  -20.66086 -20.62740 -20.62248 -20.59239 -20.58081
 Alpha  occ. eigenvalues --  -20.54453 -11.42078 -11.39287 -11.34291 -11.33538
 Alpha  occ. eigenvalues --   -1.47712  -1.42341  -1.40488  -1.35616  -1.34560
 Alpha  occ. eigenvalues --   -1.31849  -1.06159  -0.96481  -0.89339  -0.83839
 Alpha  occ. eigenvalues --   -0.81101  -0.76714  -0.74636  -0.74266  -0.72471
 Alpha  occ. eigenvalues --   -0.68446  -0.67283  -0.65802  -0.64194  -0.62034
 Alpha  occ. eigenvalues --   -0.59928  -0.59675  -0.55930  -0.54678  -0.51783
 Alpha  occ. eigenvalues --   -0.49511  -0.47966  -0.46179  -0.44964
 Alpha virt. eigenvalues --    0.01707   0.02846   0.04043   0.04456   0.06313
 Alpha virt. eigenvalues --    0.06410   0.08845   0.10656   0.10949   0.11659
 Alpha virt. eigenvalues --    0.11793   0.12503   0.13150   0.13856   0.13945

 Mulliken charges:
               1
     1  C    0.455881
     2  C    0.608448
     3  C    0.563374
     4  C    1.011754
     5  H    0.224165
     6  H   -0.068863
     7  H   -0.191064
     8  H    0.250973
     9  H    0.190478
    10  H    0.215327
    11  O   -0.622866
    12  O   -0.666042
    13  O   -0.489045
    14  O   -0.475115
    15  O   -0.542512
    16  O   -0.464891
 Sum of Mulliken charges =  -0.00000

 Dipole moment (field-independent basis, Debye):
    X=             -6.3631    Y=             -3.0877    Z=             -4.6715  Tot=              8.4762

 Test job not archived.
 1\1\GINC-SE365\SP\RHF\Aug-CC-pVDZ\C4H6O6\OHZDE\08-Apr-2025\0\\#t hf au
 g-cc-pvdz iop(5/13=1,5/36=2,99/5=2) pseudo=read geom=check guess=(read
 ,tcheck) scf=(maxcycle=1)\\title\\0,1\C,0,0.563734,-1.0072,0.0188494\C
 ,0,-0.729992,-0.510921,-0.740518\C,0,-1.06807,0.826933,-0.136575\C,0,1
 .5833,0.132798,0.00951406\H,0,-0.629277,-1.64514,1.40286\H,0,0.823446,
 -1.90796,-0.564581\H,0,-0.609309,-0.527448,-1.8041\H,0,-2.556,-1.08057
 ,-0.489489\H,0,-2.62137,1.84847,0.212104\H,0,1.93313,-0.629187,-1.6662
 3\O,0,0.240582,-1.18329,1.34521\O,0,-1.6388,-1.42573,-0.345831\O,0,-2.

 Normal termination of Gaussian 16 at Tue Apr  8 22:08:04 2025.
