 Gaussian 16, Revision C.01,

 ----------------------------------------------------------------------
 #t hf aug-cc-pvdz symm=none int=(grid=ultrafine) guess=(read,tcheck) s
 table=(opt,rrhf)
 ----------------------------------------------------------------------
 -----
 title
 -----
 Symbolic Z-matrix:
 Charge =  0 Multiplicity = 1

 SCF Done:  E(RHF) =  -425.756535944     A.U. after   14 cycles
 Normal termination of Gaussian 16 at Tue Apr  8 21:45:10 2025.
 Gaussian 16:  ES64L-G16RevC.01  3-Jul-2019

 ----------------------------------------------------------------------
 #t hf aug-cc-pvdz iop(5/13=1,5/36=2,99/5=2) pseudo=read geom=check gue
 ss=(read,tcheck) scf=(maxcycle=1)
 ----------------------------------------------------------------------
 -----
 title
 -----
 Structure from the checkpoint file:  "ANI1ccx_543_conf1_mol1.chk"
 Charge =  0 Multiplicity = 1

                         Standard orientation:
 ---------------------------------------------------------------------
 Center     Atomic      Atomic             Coordinates (Angstroms)
 Number     Number       Type             X           Y           Z
 ---------------------------------------------------------------------
      1          6           0        1.344539   -0.091961    0.085931
      2          6           0       -0.745719    0.848715    0.008854
      3          1           0        2.972578   -1.149522    0.086109
      4          1           0        3.298349    0.487553    0.043756
      5          1           0       -2.158372   -1.780728    0.883517
      6          1           0       -2.664662   -1.096258   -0.615648
      7          1           0        1.127280    1.941610    0.008876
      8          7           0        2.663079   -0.260689   -0.108919
      9          7           0        0.437759   -1.109360   -0.030886
     10          7           0       -0.812126   -0.539148    0.051371
     11          7           0       -1.897382   -1.446688   -0.069903
     12          7           0        0.628555    1.094150    0.056878
     13          8           0       -1.663410    1.611121   -0.033139
 ---------------------------------------------------------------------

 SCF Done:  E(RHF) =  -425.884699541     A.U. after    2 cycles

 The electronic state is 1-A.
 Alpha  occ. eigenvalues --  -20.53423 -15.70351 -15.69288 -15.67136 -15.66272
 Alpha  occ. eigenvalues --  -15.63737 -11.40191 -11.38218  -1.39494  -1.32729
 Alpha  occ. eigenvalues --   -1.25851  -1.20449  -1.11769  -1.00545  -0.86138
 Alpha  occ. eigenvalues --   -0.84782  -0.77252  -0.72533  -0.71285  -0.69269
 Alpha  occ. eigenvalues --   -0.65453  -0.64168  -0.62185  -0.55726  -0.50312
 Alpha  occ. eigenvalues --   -0.48266  -0.45336  -0.43726  -0.41175  -0.29471
 Alpha virt. eigenvalues --    0.01549   0.03613   0.04431   0.05748   0.06434
 Alpha virt. eigenvalues --    0.08947   0.10220   0.11169   0.12597   0.13821
 Alpha virt. eigenvalues --    0.14148   0.14361   0.15809   0.16334   0.17400

 Mulliken charges:
               1
     1  C    1.088574
     2  C    0.628084
     3  H   -0.046506
     4  H   -0.015323
     5  H    0.145753
     6  H    0.021782
     7  H   -0.126057
     8  N   -0.059935
     9  N   -0.656365
    10  N   -0.336510
    11  N    0.172619
    12  N   -0.401807
    13  O   -0.414310
 Sum of Mulliken charges =   0.00000

 Dipole moment (field-independent basis, Debye):
    X=              4.6497    Y=              0.3948    Z=              1.1794  Tot=              4.8131

 Test job not archived.
 1\1\GINC-SE460\SP\RHF\Aug-CC-pVDZ\C2H5N5O1\OHZDE\08-Apr-2025\0\\#t hf
 aug-cc-pvdz iop(5/13=1,5/36=2,99/5=2) pseudo=read geom=check guess=(re
 ad,tcheck) scf=(maxcycle=1)\\title\\0,1\C,0,1.34454,-0.0919604,0.08593
 07\C,0,-0.745719,0.848714,0.00885422\H,0,2.97258,-1.14952,0.0861092\H,
 0,3.29835,0.487555,0.0437564\H,0,-2.15837,-1.78073,0.883517\H,0,-2.664
 66,-1.09626,-0.615648\H,0,1.12728,1.94161,0.00887604\N,0,2.66308,-0.26
 0688,-0.108919\N,0,0.437761,-1.10936,-0.0308863\N,0,-0.812125,-0.53914
 9,0.0513709\N,0,-1.89738,-1.44669,-0.0699028\N,0,0.628555,1.09415,0.05

 Normal termination of Gaussian 16 at Tue Apr  8 21:45:14 2025.
