 Gaussian 16, Revision C.01,

 ----------------------------------------------------------------------
 #t hf aug-cc-pvdz symm=none int=(grid=ultrafine) guess=(read,tcheck) s
 table=(opt,rrhf)
 ----------------------------------------------------------------------
 -----
 title
 -----
 Symbolic Z-matrix:
 Charge =  0 Multiplicity = 1

 SCF Done:  E(RHF) =  -601.274743895     A.U. after   14 cycles
 Normal termination of Gaussian 16 at Tue Apr  8 19:14:19 2025.
 Gaussian 16:  ES64L-G16RevC.01  3-Jul-2019

 ----------------------------------------------------------------------
 #t hf aug-cc-pvdz iop(5/13=1,5/36=2,99/5=2) pseudo=read geom=check gue
 ss=(read,tcheck) scf=(maxcycle=1)
 ----------------------------------------------------------------------
 -----
 title
 -----
 Structure from the checkpoint file:  "ANI1ccx_1119_conf6_mol1.chk"
 Charge =  0 Multiplicity = 1

                         Standard orientation:
 ---------------------------------------------------------------------
 Center     Atomic      Atomic             Coordinates (Angstroms)
 Number     Number       Type             X           Y           Z
 ---------------------------------------------------------------------
      1          6           0       -1.933421   -0.226692   -0.176272
      2          6           0       -0.813407   -0.281088    0.903539
      3          6           0        0.111974   -1.404339    0.919470
      4          6           0        1.343200   -1.041478    0.056529
      5          6           0        0.919236    1.419331   -0.039349
      6          1           0       -0.618657    1.968960    1.300220
      7          1           0        2.478169    0.330839   -0.752766
      8          1           0        0.523176   -1.626449    1.889060
      9          1           0       -1.120411   -0.091311    1.972630
     10          1           0       -0.521987   -0.959105   -1.265600
     11          1           0       -0.211392   -2.333330    0.547497
     12          7           0        1.646539    0.282235   -0.225399
     13          7           0       -0.123904    1.172210    0.810684
     14          8           0        2.037871   -1.943758   -0.357829
     15          8           0       -1.438930   -0.631256   -1.389120
     16          8           0       -3.014741    0.264282   -0.084701
     17          8           0        1.296697    2.527592   -0.389795
 ---------------------------------------------------------------------

 SCF Done:  E(RHF) =  -601.458869906     A.U. after    2 cycles

 The electronic state is 1-A.
 Alpha  occ. eigenvalues --  -20.65654 -20.59905 -20.59628 -20.56681 -15.70634
 Alpha  occ. eigenvalues --  -15.69389 -11.43905 -11.43456 -11.42512 -11.36641
 Alpha  occ. eigenvalues --  -11.30947  -1.45000  -1.41619  -1.38838  -1.36522
 Alpha  occ. eigenvalues --   -1.27031  -1.20108  -1.11922  -0.97493  -0.91982
 Alpha  occ. eigenvalues --   -0.86735  -0.83781  -0.79172  -0.75885  -0.72114
 Alpha  occ. eigenvalues --   -0.70897  -0.68957  -0.68303  -0.67630  -0.66581
 Alpha  occ. eigenvalues --   -0.64102  -0.63745  -0.60338  -0.60040  -0.57226
 Alpha  occ. eigenvalues --   -0.53370  -0.51011  -0.48729  -0.48327  -0.46202
 Alpha  occ. eigenvalues --   -0.43650
 Alpha virt. eigenvalues --    0.01667   0.03495   0.04134   0.04366   0.06049
 Alpha virt. eigenvalues --    0.06817   0.08137   0.08204   0.09129   0.09247
 Alpha virt. eigenvalues --    0.10510   0.11813   0.12105   0.12982   0.13048

 Mulliken charges:
               1
     1  C    0.711070
     2  C    0.496151
     3  C    0.636802
     4  C    0.351196
     5  C    0.735370
     6  H   -0.020859
     7  H   -0.110114
     8  H   -0.047548
     9  H   -0.144511
    10  H    0.237830
    11  H   -0.158909
    12  N   -0.285619
    13  N   -0.560768
    14  O   -0.514727
    15  O   -0.478943
    16  O   -0.402213
    17  O   -0.444208
 Sum of Mulliken charges =  -0.00000

 Dipole moment (field-independent basis, Debye):
    X=              0.6802    Y=             -2.6636    Z=              4.1490  Tot=              4.9771

 Test job not archived.
 1\1\GINC-SE028\SP\RHF\Aug-CC-pVDZ\C5H6N2O4\OHZDE\08-Apr-2025\0\\#t hf
 aug-cc-pvdz iop(5/13=1,5/36=2,99/5=2) pseudo=read geom=check guess=(re
 ad,tcheck) scf=(maxcycle=1)\\title\\0,1\C,0,-1.93342,-0.226691,-0.1762
 72\C,0,-0.813406,-0.281088,0.903539\C,0,0.111974,-1.40434,0.91947\C,0,
 1.3432,-1.04148,0.0565286\C,0,0.919238,1.41933,-0.0393489\H,0,-0.61865
 4,1.96896,1.30022\H,0,2.47817,0.330836,-0.752766\H,0,0.523176,-1.62645
 ,1.88906\H,0,-1.12041,-0.0913108,1.97263\H,0,-0.521987,-0.959105,-1.26
 56\H,0,-0.211393,-2.33333,0.547497\N,0,1.64654,0.282233,-0.225399\N,0,

 Normal termination of Gaussian 16 at Tue Apr  8 19:14:28 2025.
