 Gaussian 16, Revision C.01,

 ----------------------------------------------------------------------
 #t hf aug-cc-pvdz symm=none int=(grid=ultrafine) guess=(read,tcheck) s
 table=(opt,rrhf)
 ----------------------------------------------------------------------
 -----
 title
 -----
 Symbolic Z-matrix:
 Charge =  0 Multiplicity = 1

 SCF Done:  E(RHF) =  -791.926477796     A.U. after   14 cycles
 Normal termination of Gaussian 16 at Tue Apr  8 19:25:02 2025.
 Gaussian 16:  ES64L-G16RevC.01  3-Jul-2019

 ----------------------------------------------------------------------
 #t hf aug-cc-pvdz iop(5/13=1,5/36=2,99/5=2) pseudo=read geom=check gue
 ss=(read,tcheck) scf=(maxcycle=1)
 ----------------------------------------------------------------------
 -----
 title
 -----
 Structure from the checkpoint file:  "ANI1ccx_1216_conf21_mol1.chk"
 Charge =  0 Multiplicity = 1

                         Standard orientation:
 ---------------------------------------------------------------------
 Center     Atomic      Atomic             Coordinates (Angstroms)
 Number     Number       Type             X           Y           Z
 ---------------------------------------------------------------------
      1          6           0        0.510635    2.052680    0.196560
      2          6           0       -1.814980    0.271413   -1.204290
      3          6           0       -0.167250   -1.690370   -1.257270
      4          6           0        2.168520    0.306821   -0.257895
      5          6           0        0.945448    0.305264    1.833160
      6          6           0       -1.709429   -1.159771    0.735160
      7          1           0       -2.783990   -0.676252    0.736933
      8          1           0       -1.858289   -2.326571    0.912791
      9          1           0        1.869620    0.106855    2.342090
     10          1           0        0.494741    1.124460    2.484240
     11          1           0        2.980510   -0.294602    0.347920
     12          1           0        2.678770    1.171821   -0.779103
     13          1           0       -0.288454   -2.785920   -1.074060
     14          1           0       -1.443720    0.516693   -2.218640
     15          1           0       -2.896500    0.089008   -1.166170
     16          1           0        0.075322    2.569860    1.008770
     17          1           0        1.370439    2.836141   -0.036263
     18          1           0       -0.345057   -1.545350   -2.396800
     19          7           0       -1.190439   -0.919298   -0.583241
     20          7           0        1.061980    0.743931    0.555034
     21          8           0        0.199527   -0.915325    1.915450
     22          8           0       -0.370177    1.998630   -0.954970
     23          8           0       -1.649601    1.601849   -0.480283
     24          8           0        1.232931   -1.695229   -0.756270
     25          8           0        1.884130   -0.548183   -1.441130
     26          8           0       -1.115790   -0.451092    1.687600
 ---------------------------------------------------------------------

 SCF Done:  E(RHF) =  -792.167701839     A.U. after    2 cycles

 The electronic state is 1-A.
 Alpha  occ. eigenvalues --  -20.63777 -20.63665 -20.63547 -20.63465 -20.63408
 Alpha  occ. eigenvalues --  -20.63367 -15.64198 -15.63853 -11.34939 -11.34837
 Alpha  occ. eigenvalues --  -11.34652 -11.34538 -11.34533 -11.33304  -1.46721
 Alpha  occ. eigenvalues --   -1.43092  -1.39920  -1.28189  -1.22301  -1.21170
 Alpha  occ. eigenvalues --   -1.19321  -1.13991  -0.96042  -0.95081  -0.92618
 Alpha  occ. eigenvalues --   -0.91630  -0.83304  -0.81297  -0.74446  -0.73776
 Alpha  occ. eigenvalues --   -0.72856  -0.71591  -0.69432  -0.69087  -0.68654
 Alpha  occ. eigenvalues --   -0.66907  -0.64780  -0.63474  -0.62494  -0.62009
 Alpha  occ. eigenvalues --   -0.59402  -0.56640  -0.55889  -0.54944  -0.53569
 Alpha  occ. eigenvalues --   -0.52316  -0.51289  -0.50005  -0.49453  -0.48884
 Alpha  occ. eigenvalues --   -0.48232  -0.46248  -0.44633  -0.40547  -0.38211
 Alpha virt. eigenvalues --    0.03240   0.03641   0.04331   0.04407   0.05412
 Alpha virt. eigenvalues --    0.05497   0.06839   0.06931   0.07415   0.08029
 Alpha virt. eigenvalues --    0.08380   0.09043   0.10110   0.10953   0.11972

 Mulliken charges:
               1
     1  C    0.968443
     2  C    0.978076
     3  C    0.778825
     4  C    0.742711
     5  C    0.876204
     6  C    0.469189
     7  H   -0.044103
     8  H   -0.010639
     9  H   -0.487275
    10  H   -0.121262
    11  H   -0.035419
    12  H   -0.259079
    13  H   -0.325086
    14  H   -0.212422
    15  H   -0.191197
    16  H   -0.541045
    17  H    0.017077
    18  H    0.026227
    19  N   -0.031582
    20  N    0.492603
    21  O   -0.509212
    22  O   -0.540699
    23  O   -0.559473
    24  O   -0.510644
    25  O   -0.552662
    26  O   -0.417557
 Sum of Mulliken charges =  -0.00000

 Dipole moment (field-independent basis, Debye):
    X=             -0.1404    Y=              0.7182    Z=              0.5202  Tot=              0.8979

 Test job not archived.
 1\1\GINC-SE322\SP\RHF\Aug-CC-pVDZ\C6H12N2O6\OHZDE\08-Apr-2025\0\\#t hf
  aug-cc-pvdz iop(5/13=1,5/36=2,99/5=2) pseudo=read geom=check guess=(r
 ead,tcheck) scf=(maxcycle=1)\\title\\0,1\C,0,0.510636,2.05268,0.19656\
 C,0,-1.81498,0.271414,-1.20429\C,0,-0.167251,-1.69037,-1.25727\C,0,2.1
 6852,0.30682,-0.257895\C,0,0.945448,0.305264,1.83316\C,0,-1.70943,-1.1
 5977,0.73516\H,0,-2.78399,-0.676251,0.736933\H,0,-1.85829,-2.32657,0.9
 12791\H,0,1.86962,0.106854,2.34209\H,0,0.494741,1.12446,2.48424\H,0,2.
 98051,-0.294603,0.34792\H,0,2.67877,1.17182,-0.779103\H,0,-0.288455,-2

 Normal termination of Gaussian 16 at Tue Apr  8 19:25:30 2025.
