 Gaussian 16, Revision C.01,

 ----------------------------------------------------------------------
 #t hf aug-cc-pvdz symm=none int=(grid=ultrafine) guess=(read,tcheck) s
 table=(opt,rrhf)
 ----------------------------------------------------------------------
 -----
 title
 -----
 Symbolic Z-matrix:
 Charge =  0 Multiplicity = 1

 SCF Done:  E(RHF) =  -868.311117618     A.U. after   16 cycles
 Normal termination of Gaussian 16 at Tue Apr  8 20:42:31 2025.
 Gaussian 16:  ES64L-G16RevC.01  3-Jul-2019

 ----------------------------------------------------------------------
 #t hf aug-cc-pvdz iop(5/13=1,5/36=2,99/5=2) pseudo=read geom=check gue
 ss=(read,tcheck) scf=(maxcycle=1)
 ----------------------------------------------------------------------
 -----
 title
 -----
 Structure from the checkpoint file:  "ANI1ccx_170_conf14_mol1.chk"
 Charge =  0 Multiplicity = 1

                         Standard orientation:
 ---------------------------------------------------------------------
 Center     Atomic      Atomic             Coordinates (Angstroms)
 Number     Number       Type             X           Y           Z
 ---------------------------------------------------------------------
      1          6           0       -0.629846    0.896053    1.168981
      2          6           0        1.610812   -2.023919    0.154728
      3          6           0        3.598902   -0.677139    0.234346
      4          6           0        2.228471    1.035001   -1.013849
      5          6           0        2.402321    0.243238    0.272014
      6          6           0        3.026122   -1.943539   -0.371194
      7          6           0       -2.697508   -0.706796   -1.230769
      8          6           0       -2.566709    0.278311   -0.317918
      9          6           0       -1.338669    1.140110   -0.152795
     10          6           0        0.146151   -0.392830    1.218641
     11          6           0       -4.608979   -0.374032   -0.167294
     12          1           0        3.888832   -0.840483    1.293441
     13          1           0        1.393991    2.155611    0.010190
     14          1           0        0.932014   -2.432170   -0.567326
     15          1           0        1.500192   -2.532869    1.085141
     16          1           0        3.427792   -2.923509   -0.081047
     17          1           0        2.988042   -1.865109   -1.443929
     18          1           0        4.567091   -0.345061   -0.229922
     19          1           0        2.328211    1.049481    1.068841
     20          1           0       -2.061508   -1.164501   -1.985989
     21          1           0       -5.671869   -0.441205    0.197764
     22          1           0       -0.680641    1.042790   -1.007509
     23          1           0       -1.639350    2.206230   -0.041799
     24          1           0       -1.363519    0.855263    1.983421
     25          1           0       -0.242113    2.926320    1.489541
     26          1           0        0.906900    1.834610    2.211701
     27          1           0       -4.631228   -1.635272   -1.798879
     28          7           0        0.363573    2.073290    1.375761
     29          7           0       -3.807359    0.525014    0.386448
     30          7           0       -4.073838   -1.126781   -1.131999
     31          7           0        1.222301   -0.630935    0.428101
     32          8           0        2.736171    0.603826   -2.042069
     33          8           0       -0.305769   -1.362010    1.934161
     34          8           0        1.494351    2.180561   -0.937230
 ---------------------------------------------------------------------

 SCF Done:  E(RHF) =  -868.565443187     A.U. after    2 cycles

 The electronic state is 1-A.
 Alpha  occ. eigenvalues --  -20.60423 -20.55119 -20.54483 -15.68675 -15.66048
 Alpha  occ. eigenvalues --  -15.65678 -15.62052 -11.38930 -11.37526 -11.32344
 Alpha  occ. eigenvalues --  -11.31596 -11.30417 -11.28001 -11.27506 -11.26187
 Alpha  occ. eigenvalues --  -11.25882 -11.25870 -11.23589  -1.40850  -1.32765
 Alpha  occ. eigenvalues --   -1.31813  -1.30175  -1.23212  -1.18316  -1.12933
 Alpha  occ. eigenvalues --   -1.07426  -1.05391  -1.02636  -0.98987  -0.92096
 Alpha  occ. eigenvalues --   -0.88153  -0.82876  -0.81525  -0.80800  -0.78620
 Alpha  occ. eigenvalues --   -0.77815  -0.75312  -0.72964  -0.70067  -0.67704
 Alpha  occ. eigenvalues --   -0.66770  -0.66346  -0.65886  -0.63489  -0.62675
 Alpha  occ. eigenvalues --   -0.61452  -0.61188  -0.60461  -0.59080  -0.58248
 Alpha  occ. eigenvalues --   -0.57496  -0.56460  -0.54857  -0.53784  -0.52288
 Alpha  occ. eigenvalues --   -0.52031  -0.51373  -0.50229  -0.48611  -0.47816
 Alpha  occ. eigenvalues --   -0.45668  -0.44635  -0.44173  -0.43935  -0.38792
 Alpha  occ. eigenvalues --   -0.37886  -0.33580
 Alpha virt. eigenvalues --    0.02442   0.02596   0.03525   0.03946   0.04614
 Alpha virt. eigenvalues --    0.04880   0.05885   0.06183   0.06481   0.07228
 Alpha virt. eigenvalues --    0.07855   0.08347   0.08424   0.08894   0.09324

 Mulliken charges:
               1
     1  C    0.398049
     2  C    0.838842
     3  C    0.648238
     4  C    0.551904
     5  C    0.412268
     6  C    0.414287
     7  C    1.183741
     8  C    0.236866
     9  C    0.734871
    10  C    0.005280
    11  C    0.710684
    12  H    0.013218
    13  H    0.462862
    14  H   -0.294066
    15  H   -0.384435
    16  H    0.020329
    17  H   -0.144910
    18  H   -0.087494
    19  H   -0.305138
    20  H   -0.359129
    21  H   -0.188718
    22  H   -0.181156
    23  H   -0.009713
    24  H   -0.253138
    25  H    0.103368
    26  H    0.185732
    27  H   -0.074311
    28  N   -0.771193
    29  N   -0.873301
    30  N   -0.535174
    31  N   -0.678615
    32  O   -0.565064
    33  O   -0.714498
    34  O   -0.500484
 Sum of Mulliken charges =   0.00000

 Dipole moment (field-independent basis, Debye):
    X=             -1.0900    Y=             -0.3616    Z=              0.8661  Tot=              1.4384

 Test job not archived.
 1\1\GINC-SE252\SP\RHF\Aug-CC-pVDZ\C11H16N4O3\OHZDE\08-Apr-2025\0\\#t h
 f aug-cc-pvdz iop(5/13=1,5/36=2,99/5=2) pseudo=read geom=check guess=(
 read,tcheck) scf=(maxcycle=1)\\title\\0,1\C,0,-0.629847,0.896053,1.168
 98\C,0,1.61081,-2.02392,0.154727\C,0,3.5989,-0.67714,0.234345\C,0,2.22
 847,1.035,-1.01385\C,0,2.40232,0.243237,0.272013\C,0,3.02612,-1.94354,
 -0.371195\C,0,-2.69751,-0.706795,-1.23077\C,0,-2.56671,0.278312,-0.317
 919\C,0,-1.33867,1.14011,-0.152796\C,0,0.14615,-0.39283,1.21864\C,0,-4
 .60898,-0.37403,-0.167295\H,0,3.88883,-0.840484,1.29344\H,0,1.39399,2.

 Normal termination of Gaussian 16 at Tue Apr  8 20:43:30 2025.
