 Gaussian 16, Revision C.01,

 ----------------------------------------------------------------------
 #t hf aug-cc-pvdz symm=none int=(grid=ultrafine) guess=(read,tcheck) s
 table=(opt,rrhf)
 ----------------------------------------------------------------------
 -----
 title
 -----
 Symbolic Z-matrix:
 Charge =  0 Multiplicity = 1

 SCF Done:  E(RHF) =  -602.133284370     A.U. after   16 cycles
 Normal termination of Gaussian 16 at Tue Apr  8 19:35:30 2025.
 Gaussian 16:  ES64L-G16RevC.01  3-Jul-2019

 ----------------------------------------------------------------------
 #t hf aug-cc-pvdz iop(5/13=1,5/36=2,99/5=2) pseudo=read geom=check gue
 ss=(read,tcheck) scf=(maxcycle=1)
 ----------------------------------------------------------------------
 -----
 title
 -----
 Structure from the checkpoint file:  "ANI1ccx_1496_conf2_mol1.chk"
 Charge =  0 Multiplicity = 1

                         Standard orientation:
 ---------------------------------------------------------------------
 Center     Atomic      Atomic             Coordinates (Angstroms)
 Number     Number       Type             X           Y           Z
 ---------------------------------------------------------------------
      1          6           0        0.543154    1.553491   -0.219418
      2          6           0       -0.536965    0.446325   -0.013421
      3          6           0       -2.709050   -0.013832    0.112927
      4          6           0       -2.370780   -1.313499   -0.006767
      5          6           0       -1.066170   -1.768209   -0.248483
      6          6           0       -0.091558   -0.814423   -0.188705
      7          6           0        1.441100   -1.171719    0.035251
      8          1           0        2.580830   -1.012129    1.621070
      9          1           0       -0.926653   -2.829789   -0.300211
     10          1           0       -3.135900   -2.031879   -0.190691
     11          1           0       -0.876798    3.015071    0.175749
     12          1           0        0.824578    3.484741   -0.055722
     13          1           0       -3.806290    0.261683    0.168368
     14          7           0        0.103001    2.764311    0.003865
     15          7           0       -1.780120    0.925937    0.157513
     16          8           0        1.743700   -0.755821    1.258240
     17          8           0        1.769670    1.365451   -0.424708
     18          8           0        2.214340   -1.638159   -0.755595
 ---------------------------------------------------------------------

 SCF Done:  E(RHF) =  -602.314692206     A.U. after    2 cycles

 The electronic state is 1-A.
 Alpha  occ. eigenvalues --  -20.61980 -20.56393 -20.52934 -15.66814 -15.65236
 Alpha  occ. eigenvalues --  -11.41713 -11.37145 -11.31962 -11.31227 -11.29443
 Alpha  occ. eigenvalues --  -11.28854 -11.26675  -1.42911  -1.33352  -1.33151
 Alpha  occ. eigenvalues --   -1.27648  -1.18485  -1.12303  -1.07247  -0.92911
 Alpha  occ. eigenvalues --   -0.91428  -0.86413  -0.81338  -0.76628  -0.72864
 Alpha  occ. eigenvalues --   -0.71915  -0.70967  -0.68421  -0.65281  -0.64962
 Alpha  occ. eigenvalues --   -0.62020  -0.60817  -0.60308  -0.58571  -0.56000
 Alpha  occ. eigenvalues --   -0.54787  -0.50101  -0.48629  -0.46412  -0.43316
 Alpha  occ. eigenvalues --   -0.41826  -0.40704  -0.38059
 Alpha virt. eigenvalues --    0.02439   0.03243   0.03787   0.04935   0.05539
 Alpha virt. eigenvalues --    0.05885   0.07261   0.07640   0.08203   0.09441
 Alpha virt. eigenvalues --    0.10687   0.11150   0.11703   0.12760   0.12767

 Mulliken charges:
               1
     1  C    0.341924
     2  C    0.632811
     3  C    0.447622
     4  C    0.605560
     5  C    0.085421
     6  C    0.336068
     7  C    0.669087
     8  H    0.184182
     9  H   -0.421915
    10  H   -0.437724
    11  H    0.055097
    12  H    0.044778
    13  H   -0.235860
    14  N   -0.112852
    15  N   -0.648379
    16  O   -0.486899
    17  O   -0.582792
    18  O   -0.476129
 Sum of Mulliken charges =   0.00000

 Dipole moment (field-independent basis, Debye):
    X=             -5.2652    Y=             -0.0071    Z=              2.5298  Tot=              5.8414

 Test job not archived.
 1\1\GINC-SE179\SP\RHF\Aug-CC-pVDZ\C7H6N2O3\OHZDE\08-Apr-2025\0\\#t hf
 aug-cc-pvdz iop(5/13=1,5/36=2,99/5=2) pseudo=read geom=check guess=(re
 ad,tcheck) scf=(maxcycle=1)\\title\\0,1\C,0,0.543154,1.55349,-0.219418
 \C,0,-0.536965,0.446324,-0.0134211\C,0,-2.70905,-0.0138329,0.112927\C,
 0,-2.37078,-1.3135,-0.00676665\C,0,-1.06617,-1.76821,-0.248483\C,0,-0.
 0915576,-0.814424,-0.188705\C,0,1.4411,-1.17172,0.0352517\H,0,2.58083,
 -1.01213,1.62107\H,0,-0.926653,-2.82979,-0.300211\H,0,-3.1359,-2.03188
 ,-0.190691\H,0,-0.876798,3.01507,0.175749\H,0,0.824578,3.48474,-0.0557

 Normal termination of Gaussian 16 at Tue Apr  8 19:35:44 2025.
