 Gaussian 16, Revision C.01,

 ----------------------------------------------------------------------
 #t hf aug-cc-pvdz symm=none int=(grid=ultrafine) guess=(read,tcheck) s
 table=(opt,rrhf)
 ----------------------------------------------------------------------
 -----
 title
 -----
 Symbolic Z-matrix:
 Charge =  0 Multiplicity = 1

 SCF Done:  E(RHF) =  -403.510093180     A.U. after   15 cycles
 Normal termination of Gaussian 16 at Tue Apr  8 21:42:14 2025.
 Gaussian 16:  ES64L-G16RevC.01  3-Jul-2019

 ----------------------------------------------------------------------
 #t hf aug-cc-pvdz iop(5/13=1,5/36=2,99/5=2) pseudo=read geom=check gue
 ss=(read,tcheck) scf=(maxcycle=1)
 ----------------------------------------------------------------------
 -----
 title
 -----
 Structure from the checkpoint file:  "ANI1ccx_490_conf2_mol2.chk"
 Charge =  0 Multiplicity = 1

                         Standard orientation:
 ---------------------------------------------------------------------
 Center     Atomic      Atomic             Coordinates (Angstroms)
 Number     Number       Type             X           Y           Z
 ---------------------------------------------------------------------
      1          6           0        0.001216   -0.682060   -0.033245
      2          6           0        0.000932    0.681541   -0.023025
      3          1           0       -1.806289   -1.876391    0.066135
      4          1           0        1.828549    1.873201    0.019838
      5          7           0        2.036790   -0.149433    0.011211
      6          7           0        1.267280   -1.181269    0.003559
      7          7           0       -1.316580   -0.991481    0.000647
      8          7           0       -2.049690    0.145909    0.009599
      9          7           0       -1.262951    1.181699    0.003605
     10          7           0        1.320129    0.995476    0.007328
 ---------------------------------------------------------------------

 SCF Done:  E(RHF) =  -403.621603950     A.U. after    2 cycles

 The electronic state is 1-A.
 Alpha  occ. eigenvalues --  -15.74636 -15.74584 -15.74445 -15.74392 -15.69886
 Alpha  occ. eigenvalues --  -15.69800 -11.32555 -11.32413  -1.44554  -1.40360
 Alpha  occ. eigenvalues --   -1.22107  -1.17546  -1.10467  -0.92283  -0.88971
 Alpha  occ. eigenvalues --   -0.87517  -0.80284  -0.73232  -0.70091  -0.65048
 Alpha  occ. eigenvalues --   -0.61382  -0.56456  -0.55342  -0.49138  -0.46002
 Alpha  occ. eigenvalues --   -0.45518  -0.39711  -0.35848
 Alpha virt. eigenvalues --    0.02462   0.03352   0.07635   0.08400   0.08518
 Alpha virt. eigenvalues --    0.09048   0.11168   0.12304   0.12885   0.13354
 Alpha virt. eigenvalues --    0.15247   0.15767   0.16127   0.16435   0.17325

 Mulliken charges:
               1
     1  C    0.765438
     2  C    0.793973
     3  H   -0.034106
     4  H   -0.031996
     5  N   -0.267809
     6  N   -0.408127
     7  N   -0.057441
     8  N   -0.270186
     9  N   -0.416685
    10  N   -0.073061
 Sum of Mulliken charges =  -0.00000

 Dipole moment (field-independent basis, Debye):
    X=              0.0710    Y=             -0.0282    Z=              0.0905  Tot=              0.1185

 Test job not archived.
 1\1\GINC-SE364\SP\RHF\Aug-CC-pVDZ\C2H2N6\OHZDE\08-Apr-2025\0\\#t hf au
 g-cc-pvdz iop(5/13=1,5/36=2,99/5=2) pseudo=read geom=check guess=(read
 ,tcheck) scf=(maxcycle=1)\\title\\0,1\C,0,0.00121577,-0.68206,-0.03324
 47\C,0,0.00093225,0.681541,-0.0230251\H,0,-1.80629,-1.87639,0.0661352\
 H,0,1.82855,1.8732,0.0198381\N,0,2.03679,-0.149434,0.011211\N,0,1.2672
 8,-1.18127,0.00355882\N,0,-1.31658,-0.99148,0.00064727\N,0,-2.04969,0.
 14591,0.00959948\N,0,-1.26295,1.1817,0.00360517\N,0,1.32013,0.995475,0
 .00732761\\Version=ES64L-G16RevC.01\State=1-A\HF=-403.6216039\RMSD=4.2

 Normal termination of Gaussian 16 at Tue Apr  8 21:42:18 2025.
