 Gaussian 16, Revision C.01,

 ----------------------------------------------------------------------
 #t hf aug-cc-pvdz symm=none int=(grid=ultrafine) guess=(read,tcheck) s
 table=(opt,rrhf)
 ----------------------------------------------------------------------
 -----
 title
 -----
 Symbolic Z-matrix:
 Charge =  0 Multiplicity = 1

 SCF Done:  E(RHF) =  -294.641981132     A.U. after   15 cycles
 Normal termination of Gaussian 16 at Tue Apr  8 21:42:07 2025.
 Gaussian 16:  ES64L-G16RevC.01  3-Jul-2019

 ----------------------------------------------------------------------
 #t hf aug-cc-pvdz iop(5/13=1,5/36=2,99/5=2) pseudo=read geom=check gue
 ss=(read,tcheck) scf=(maxcycle=1)
 ----------------------------------------------------------------------
 -----
 title
 -----
 Structure from the checkpoint file:  "ANI1ccx_486_conf4_mol1.chk"
 Charge =  0 Multiplicity = 1

                         Standard orientation:
 ---------------------------------------------------------------------
 Center     Atomic      Atomic             Coordinates (Angstroms)
 Number     Number       Type             X           Y           Z
 ---------------------------------------------------------------------
      1          6           0        1.096898    0.560278   -0.008873
      2          6           0       -1.044494    0.657252   -0.014130
      3          1           0        2.076069    0.978955    0.030068
      4          1           0       -2.041523    1.059477    0.083724
      5          7           0        0.037595    1.400491   -0.009149
      6          7           0       -1.159956   -0.671396    0.014855
      7          7           0       -0.044278   -1.338250   -0.026937
      8          7           0        1.116785   -0.725646    0.024692
 ---------------------------------------------------------------------

 SCF Done:  E(RHF) =  -294.723499600     A.U. after    2 cycles

 The electronic state is 1-A.
 Alpha  occ. eigenvalues --  -15.76509 -15.70660 -15.69941 -15.69549 -11.36812
 Alpha  occ. eigenvalues --  -11.36632  -1.42645  -1.26122  -1.22969  -1.00657
 Alpha  occ. eigenvalues --   -0.95824  -0.79593  -0.76916  -0.65909  -0.63316
 Alpha  occ. eigenvalues --   -0.61432  -0.55202  -0.48402  -0.46462  -0.46038
 Alpha  occ. eigenvalues --   -0.42906
 Alpha virt. eigenvalues --    0.03194   0.03448   0.04211   0.06883   0.07209
 Alpha virt. eigenvalues --    0.08393   0.10140   0.10421   0.13909   0.14108
 Alpha virt. eigenvalues --    0.14913   0.16168   0.17168   0.18392   0.19387

 Mulliken charges:
               1
     1  C    0.752756
     2  C    0.674126
     3  H   -0.241442
     4  H   -0.190226
     5  N   -0.415195
     6  N   -0.273570
     7  N   -0.093654
     8  N   -0.212794
 Sum of Mulliken charges =  -0.00000

 Dipole moment (field-independent basis, Debye):
    X=              0.0438    Y=              2.3012    Z=              0.0234  Tot=              2.3018

 Test job not archived.
 1\1\GINC-SE404\SP\RHF\Aug-CC-pVDZ\C2H2N4\OHZDE\08-Apr-2025\0\\#t hf au
 g-cc-pvdz iop(5/13=1,5/36=2,99/5=2) pseudo=read geom=check guess=(read
 ,tcheck) scf=(maxcycle=1)\\title\\0,1\C,0,1.09691,0.560254,-0.00887336
 \C,0,-1.04448,0.657274,-0.0141299\H,0,2.07609,0.97891,0.0300679\H,0,-2
 .0415,1.05952,0.0837236\N,0,0.0376255,1.40049,-0.00914871\N,0,-1.15997
 ,-0.671372,0.0148553\N,0,-0.0443064,-1.33825,-0.0269372\N,0,1.11677,-0
 .725671,0.0246917\\Version=ES64L-G16RevC.01\State=1-A\HF=-294.7234996\
 RMSD=3.135e-03\Dipole=0.0172678,0.9053752,0.0092\Quadrupole=2.4977168,

 Normal termination of Gaussian 16 at Tue Apr  8 21:42:09 2025.
