 Gaussian 16, Revision C.01,

 ----------------------------------------------------------------------
 #t hf aug-cc-pvdz symm=none int=(grid=ultrafine) guess=(read,tcheck) s
 table=(opt,rrhf)
 ----------------------------------------------------------------------
 -----
 title
 -----
 Symbolic Z-matrix:
 Charge =  0 Multiplicity = 1

 SCF Done:  E(RHF) =  -513.862266383     A.U. after   14 cycles
 Normal termination of Gaussian 16 at Tue Apr  8 19:19:37 2025.
 Gaussian 16:  ES64L-G16RevC.01  3-Jul-2019

 ----------------------------------------------------------------------
 #t hf aug-cc-pvdz iop(5/13=1,5/36=2,99/5=2) pseudo=read geom=check gue
 ss=(read,tcheck) scf=(maxcycle=1)
 ----------------------------------------------------------------------
 -----
 title
 -----
 Structure from the checkpoint file:  "ANI1ccx_1231_conf1_mol1.chk"
 Charge =  0 Multiplicity = 1

                         Standard orientation:
 ---------------------------------------------------------------------
 Center     Atomic      Atomic             Coordinates (Angstroms)
 Number     Number       Type             X           Y           Z
 ---------------------------------------------------------------------
      1          6           0        0.814446    0.467851    0.417465
      2          6           0        0.029058    1.068770   -0.845099
      3          6           0       -1.386210    1.423170   -0.527523
      4          6           0       -2.424400    0.278021   -0.574911
      5          6           0       -2.402530   -0.537897    0.743944
      6          6           0        1.759200   -0.639456   -0.123762
      7          1           0        0.197595   -1.591860   -0.337179
      8          1           0       -1.546300   -2.320380    0.999085
      9          1           0       -2.104150    0.068765    1.598340
     10          1           0       -3.352370   -1.089300    0.895250
     11          1           0       -2.265900   -0.398046   -1.408570
     12          1           0       -3.380700    0.815351   -0.685377
     13          1           0       -1.420640    1.927820    0.452649
     14          1           0        0.519071    1.962210   -1.292160
     15          1           0        0.011992    0.285324   -1.572530
     16          1           0        0.092495   -0.002310    1.092050
     17          1           0        2.431800    1.576120    0.588383
     18          1           0        1.113970    2.397840    1.100390
     19          1           0       -1.691910    2.307000   -1.170660
     20          7           0        1.595450    1.500660    1.137560
     21          8           0        1.153040   -1.682120   -0.661130
     22          8           0       -1.352510   -1.469470    0.512223
     23          8           0        2.935660   -0.449150   -0.196503
 ---------------------------------------------------------------------

 SCF Done:  E(RHF) =  -514.020765696     A.U. after    2 cycles

 The electronic state is 1-A.
 Alpha  occ. eigenvalues --  -20.61771 -20.60844 -20.54122 -15.60114 -11.37642
 Alpha  occ. eigenvalues --  -11.32085 -11.27991 -11.25556 -11.24932 -11.24223
 Alpha  occ. eigenvalues --   -1.41247  -1.36404  -1.31911  -1.15205  -1.08250
 Alpha  occ. eigenvalues --   -1.00442  -0.93273  -0.87129  -0.81960  -0.80307
 Alpha  occ. eigenvalues --   -0.75201  -0.72369  -0.68804  -0.66806  -0.65490
 Alpha  occ. eigenvalues --   -0.64410  -0.63074  -0.62155  -0.59320  -0.57382
 Alpha  occ. eigenvalues --   -0.56175  -0.54815  -0.53304  -0.51141  -0.50074
 Alpha  occ. eigenvalues --   -0.49031  -0.47684  -0.47046  -0.43386  -0.38088
 Alpha virt. eigenvalues --    0.02016   0.03061   0.04061   0.04172   0.05406
 Alpha virt. eigenvalues --    0.05954   0.06322   0.06801   0.07256   0.08682
 Alpha virt. eigenvalues --    0.09121   0.09204   0.09917   0.11809   0.12328

 Mulliken charges:
               1
     1  C    0.413304
     2  C    0.506818
     3  C    0.413017
     4  C    0.209971
     5  C    0.818953
     6  C    0.712808
     7  H    0.330979
     8  H    0.251145
     9  H   -0.161883
    10  H   -0.185610
    11  H   -0.160185
    12  H   -0.055949
    13  H   -0.207262
    14  H   -0.091594
    15  H   -0.384735
    16  H   -0.272366
    17  H    0.060901
    18  H    0.011996
    19  H   -0.140544
    20  N   -0.396573
    21  O   -0.491175
    22  O   -0.696569
    23  O   -0.485448
 Sum of Mulliken charges =   0.00000

 Dipole moment (field-independent basis, Debye):
    X=             -7.6746    Y=              0.7380    Z=              0.7744  Tot=              7.7488

 Test job not archived.
 1\1\GINC-SE041\SP\RHF\Aug-CC-pVDZ\C6H13N1O3\OHZDE\08-Apr-2025\0\\#t hf
  aug-cc-pvdz iop(5/13=1,5/36=2,99/5=2) pseudo=read geom=check guess=(r
 ead,tcheck) scf=(maxcycle=1)\\title\\0,1\C,0,0.814446,0.467851,0.41746
 5\C,0,0.0290577,1.06877,-0.845099\C,0,-1.38621,1.42317,-0.527523\C,0,-
 2.4244,0.278021,-0.574911\C,0,-2.40253,-0.537897,0.743944\C,0,1.7592,-
 0.639456,-0.123762\H,0,0.197595,-1.59186,-0.337179\H,0,-1.5463,-2.3203
 8,0.999085\H,0,-2.10415,0.0687649,1.59834\H,0,-3.35237,-1.0893,0.89525
 \H,0,-2.2659,-0.398046,-1.40857\H,0,-3.3807,0.81535,-0.685377\H,0,-1.4

 Normal termination of Gaussian 16 at Tue Apr  8 19:19:52 2025.
