 Gaussian 16, Revision C.01,

 ----------------------------------------------------------------------
 #t hf aug-cc-pvdz symm=none int=(grid=ultrafine) guess=(read,tcheck) s
 table=(opt,rrhf)
 ----------------------------------------------------------------------
 -----
 title
 -----
 Symbolic Z-matrix:
 Charge =  0 Multiplicity = 1

 SCF Done:  E(RHF) =  -604.213749131     A.U. after   15 cycles
 Normal termination of Gaussian 16 at Tue Apr  8 22:07:41 2025.
 Gaussian 16:  ES64L-G16RevC.01  3-Jul-2019

 ----------------------------------------------------------------------
 #t hf aug-cc-pvdz iop(5/13=1,5/36=2,99/5=2) pseudo=read geom=check gue
 ss=(read,tcheck) scf=(maxcycle=1)
 ----------------------------------------------------------------------
 -----
 title
 -----
 Structure from the checkpoint file:  "ANI1ccx_934_conf4_mol1.chk"
 Charge =  0 Multiplicity = 1

                         Standard orientation:
 ---------------------------------------------------------------------
 Center     Atomic      Atomic             Coordinates (Angstroms)
 Number     Number       Type             X           Y           Z
 ---------------------------------------------------------------------
      1          6           0        0.621293   -0.819874    0.286364
      2          6           0       -0.558464   -0.575772   -0.654104
      3          6           0       -1.293160    0.740399   -0.283857
      4          6           0        1.701220    0.176193   -0.011039
      5          1           0       -0.507138   -1.269669    1.662590
      6          1           0        0.985366   -1.843139    0.069136
      7          1           0       -0.271676   -0.506234   -1.702890
      8          1           0       -2.289380   -1.514339   -0.440421
      9          1           0       -2.900700    1.429441    0.088648
     10          1           0        2.792970   -1.179109   -0.892936
     11          8           0        0.267597   -0.663390    1.578670
     12          8           0       -1.369110   -1.767349   -0.336233
     13          8           0       -2.601530    0.463988   -0.067114
     14          8           0       -0.850110    1.800981   -0.095356
     15          8           0        2.743630   -0.205728   -0.793780
     16          8           0        1.730180    1.341171    0.362773
 ---------------------------------------------------------------------

 SCF Done:  E(RHF) =  -604.402623421     A.U. after    2 cycles

 The electronic state is 1-A.
 Alpha  occ. eigenvalues --  -20.65237 -20.63262 -20.61970 -20.60927 -20.58956
 Alpha  occ. eigenvalues --  -20.55638 -11.42074 -11.39950 -11.35542 -11.34455
 Alpha  occ. eigenvalues --   -1.46701  -1.42231  -1.39200  -1.36641  -1.34573
 Alpha  occ. eigenvalues --   -1.31141  -1.07279  -0.96239  -0.86280  -0.83618
 Alpha  occ. eigenvalues --   -0.79141  -0.75480  -0.74389  -0.73285  -0.71674
 Alpha  occ. eigenvalues --   -0.68153  -0.66554  -0.65327  -0.64836  -0.61833
 Alpha  occ. eigenvalues --   -0.61783  -0.60435  -0.56853  -0.55336  -0.52864
 Alpha  occ. eigenvalues --   -0.50103  -0.49400  -0.47185  -0.45941
 Alpha virt. eigenvalues --    0.02358   0.03178   0.04156   0.04826   0.06046
 Alpha virt. eigenvalues --    0.06551   0.08782   0.10451   0.11284   0.11418
 Alpha virt. eigenvalues --    0.12230   0.12988   0.13270   0.13568   0.14346

 Mulliken charges:
               1
     1  C    0.929762
     2  C    0.210676
     3  C    0.648791
     4  C    0.740234
     5  H    0.246280
     6  H   -0.142339
     7  H   -0.054624
     8  H    0.206747
     9  H    0.232272
    10  H    0.196757
    11  O   -0.621800
    12  O   -0.632082
    13  O   -0.591735
    14  O   -0.364064
    15  O   -0.519021
    16  O   -0.485853
 Sum of Mulliken charges =  -0.00000

 Dipole moment (field-independent basis, Debye):
    X=             -3.4949    Y=             -4.8592    Z=             -2.2847  Tot=              6.4067

 Test job not archived.
 1\1\GINC-SE227\SP\RHF\Aug-CC-pVDZ\C4H6O6\OHZDE\08-Apr-2025\0\\#t hf au
 g-cc-pvdz iop(5/13=1,5/36=2,99/5=2) pseudo=read geom=check guess=(read
 ,tcheck) scf=(maxcycle=1)\\title\\0,1\C,0,0.621293,-0.819875,0.286364\
 C,0,-0.558464,-0.575773,-0.654104\C,0,-1.29316,0.740398,-0.283857\C,0,
 1.70122,0.176192,-0.0110396\H,0,-0.507138,-1.26967,1.66259\H,0,0.98536
 6,-1.84314,0.069136\H,0,-0.271676,-0.506235,-1.70289\H,0,-2.28938,-1.5
 1434,-0.440421\H,0,-2.9007,1.42944,0.0886474\H,0,2.79297,-1.17911,-0.8
 92936\O,0,0.267597,-0.663391,1.57867\O,0,-1.36911,-1.76735,-0.336233\O

 Normal termination of Gaussian 16 at Tue Apr  8 22:07:48 2025.
