 Gaussian 16, Revision C.01,

 ----------------------------------------------------------------------
 #t hf aug-cc-pvdz symm=none int=(grid=ultrafine) guess=(read,tcheck) s
 table=(opt,rrhf)
 ----------------------------------------------------------------------
 -----
 title
 -----
 Symbolic Z-matrix:
 Charge =  0 Multiplicity = 1

 SCF Done:  E(RHF) =  -585.392500231     A.U. after   15 cycles
 Normal termination of Gaussian 16 at Tue Apr  8 22:14:09 2025.
 Gaussian 16:  ES64L-G16RevC.01  3-Jul-2019

 ----------------------------------------------------------------------
 #t hf aug-cc-pvdz iop(5/13=1,5/36=2,99/5=2) pseudo=read geom=check gue
 ss=(read,tcheck) scf=(maxcycle=1)
 ----------------------------------------------------------------------
 -----
 title
 -----
 Structure from the checkpoint file:  "ANI1ccx_978_conf9_mol1.chk"
 Charge =  0 Multiplicity = 1

                         Standard orientation:
 ---------------------------------------------------------------------
 Center     Atomic      Atomic             Coordinates (Angstroms)
 Number     Number       Type             X           Y           Z
 ---------------------------------------------------------------------
      1          6           0        0.283790   -1.336980   -0.584399
      2          6           0       -0.198196   -0.194689    0.345180
      3          6           0       -1.603700   -0.590318    0.884903
      4          6           0        0.839602    0.032268    1.441980
      5          1           0        2.407769   -0.020333    0.477288
      6          1           0        1.108610   -1.039279    1.787840
      7          1           0        0.294156    0.614337    2.200300
      8          1           0       -2.067511    0.228881    1.551280
      9          1           0       -3.209190   -0.859929    0.016862
     10          1           0        0.138823   -2.324090   -0.189267
     11          1           0       -0.232355   -1.336370   -1.560380
     12          1           0        1.915100   -0.677182   -1.517650
     13          1           0       -1.486340   -1.590080    1.478810
     14          7           0       -0.239743    1.018010   -0.479742
     15          8           0        0.572063    1.067690   -1.432200
     16          8           0        1.685210   -1.291909   -0.804389
     17          8           0       -2.342270   -0.709487   -0.313201
     18          8           0        2.002219    0.647591    1.022140
     19          8           0       -1.057201    1.838150   -0.148964
 ---------------------------------------------------------------------

 SCF Done:  E(RHF) =  -585.570998671     A.U. after    2 cycles

 The electronic state is 1-A.
 Alpha  occ. eigenvalues --  -20.63438 -20.61393 -20.60810 -20.58740 -20.57768
 Alpha  occ. eigenvalues --  -15.91505 -11.34503 -11.32251 -11.32129 -11.31092
 Alpha  occ. eigenvalues --   -1.55285  -1.37553  -1.37385  -1.35610  -1.33346
 Alpha  occ. eigenvalues --   -1.13885  -0.95823  -0.94432  -0.93382  -0.82535
 Alpha  occ. eigenvalues --   -0.77472  -0.76467  -0.74644  -0.72450  -0.72047
 Alpha  occ. eigenvalues --   -0.68017  -0.67313  -0.65677  -0.62943  -0.60924
 Alpha  occ. eigenvalues --   -0.60745  -0.57480  -0.55204  -0.53119  -0.51924
 Alpha  occ. eigenvalues --   -0.50455  -0.49470  -0.48077  -0.46507  -0.45394
 Alpha virt. eigenvalues --    0.02334   0.03830   0.04079   0.04926   0.06196
 Alpha virt. eigenvalues --    0.06570   0.06698   0.07111   0.08355   0.09024
 Alpha virt. eigenvalues --    0.10698   0.12049   0.12829   0.13518   0.14246

 Mulliken charges:
               1
     1  C    1.210730
     2  C   -1.109809
     3  C    0.927997
     4  C    0.914866
     5  H    0.184956
     6  H    0.141974
     7  H   -0.043837
     8  H    0.075663
     9  H    0.135234
    10  H   -0.330771
    11  H    0.015134
    12  H    0.225063
    13  H    0.171110
    14  N    0.185362
    15  O   -0.618491
    16  O   -0.622204
    17  O   -0.471825
    18  O   -0.443211
    19  O   -0.547941
 Sum of Mulliken charges =  -0.00000

 Dipole moment (field-independent basis, Debye):
    X=             -2.7440    Y=             -4.0998    Z=              2.4213  Tot=              5.4955

 Test job not archived.
 1\1\GINC-SE095\SP\RHF\Aug-CC-pVDZ\C4H9N1O5\OHZDE\08-Apr-2025\0\\#t hf
 aug-cc-pvdz iop(5/13=1,5/36=2,99/5=2) pseudo=read geom=check guess=(re
 ad,tcheck) scf=(maxcycle=1)\\title\\0,1\C,0,0.28379,-1.33698,-0.584399
 \C,0,-0.198196,-0.194689,0.34518\C,0,-1.6037,-0.590317,0.884903\C,0,0.
 839603,0.0322677,1.44198\H,0,2.40777,-0.0203344,0.477288\H,0,1.10861,-
 1.03928,1.78784\H,0,0.294157,0.614337,2.2003\H,0,-2.06751,0.228882,1.5
 5128\H,0,-3.20919,-0.859928,0.0168617\H,0,0.138823,-2.32409,-0.189267\
 H,0,-0.232355,-1.33637,-1.56038\H,0,1.9151,-0.677183,-1.51765\H,0,-1.4

 Normal termination of Gaussian 16 at Tue Apr  8 22:14:20 2025.
