 Gaussian 16, Revision C.01,

 ----------------------------------------------------------------------
 #t hf aug-cc-pvdz symm=none int=(grid=ultrafine) guess=(read,tcheck) s
 table=(opt,rrhf)
 ----------------------------------------------------------------------
 -----
 title
 -----
 Symbolic Z-matrix:
 Charge =  0 Multiplicity = 1

 SCF Done:  E(RHF) =  -663.599975108     A.U. after   13 cycles
 Normal termination of Gaussian 16 at Tue Apr  8 19:21:04 2025.
 Gaussian 16:  ES64L-G16RevC.01  3-Jul-2019

 ----------------------------------------------------------------------
 #t hf aug-cc-pvdz iop(5/13=1,5/36=2,99/5=2) pseudo=read geom=check gue
 ss=(read,tcheck) scf=(maxcycle=1)
 ----------------------------------------------------------------------
 -----
 title
 -----
 Structure from the checkpoint file:  "ANI1ccx_1233_conf1_mol2.chk"
 Charge =  0 Multiplicity = 1

                         Standard orientation:
 ---------------------------------------------------------------------
 Center     Atomic      Atomic             Coordinates (Angstroms)
 Number     Number       Type             X           Y           Z
 ---------------------------------------------------------------------
      1          6           0        0.120852   -0.558032   -1.034370
      2          6           0        1.091040    0.665108   -0.939099
      3          6           0        0.480588    1.562190    0.121638
      4          6           0        0.028815    0.568678    1.179160
      5          6           0       -0.553763   -0.689872    0.413312
      6          6           0       -2.095150   -0.698727    0.334141
      7          1           0       -2.272270    1.094710   -0.540205
      8          1           0       -2.446450   -1.709180   -0.013697
      9          1           0       -2.465670   -0.507087    1.333930
     10          1           0        0.669946   -1.533450    1.587490
     11          1           0        1.963220    0.169276    1.505320
     12          1           0       -0.676479    0.999351    1.886660
     13          1           0       -0.639541    2.691300   -1.224980
     14          1           0        1.205159    2.309990    0.498073
     15          1           0        2.440430   -0.638740   -0.888352
     16          1           0        1.165210    1.053960   -1.946810
     17          1           0       -0.663723   -0.251347   -1.739570
     18          1           0        0.599080   -1.890860   -2.469950
     19          1           0        0.688355   -2.522140   -0.884195
     20          7           0        0.825356   -1.746350   -1.491280
     21          8           0        2.398190    0.249610   -0.457482
     22          8           0       -0.759035    2.144350   -0.430715
     23          8           0        1.115130    0.208549    2.014360
     24          8           0       -0.111475   -1.830090    1.105140
     25          8           0       -2.615190    0.210406   -0.620489
 ---------------------------------------------------------------------

 SCF Done:  E(RHF) =  -663.797493408     A.U. after    2 cycles

 The electronic state is 1-A.
 Alpha  occ. eigenvalues --  -20.60725 -20.58809 -20.58758 -20.57304 -20.55271
 Alpha  occ. eigenvalues --  -15.62214 -11.32060 -11.30668 -11.30554 -11.30229
 Alpha  occ. eigenvalues --  -11.28788 -11.27384  -1.36870  -1.34218  -1.32908
 Alpha  occ. eigenvalues --   -1.31833  -1.30748  -1.16678  -1.07949  -0.98540
 Alpha  occ. eigenvalues --   -0.94803  -0.89863  -0.82334  -0.79219  -0.74841
 Alpha  occ. eigenvalues --   -0.74508  -0.71197  -0.70043  -0.68955  -0.67636
 Alpha  occ. eigenvalues --   -0.67009  -0.65054  -0.62554  -0.61876  -0.59550
 Alpha  occ. eigenvalues --   -0.58200  -0.57463  -0.56704  -0.55200  -0.54227
 Alpha  occ. eigenvalues --   -0.53207  -0.50621  -0.48833  -0.48013  -0.46786
 Alpha  occ. eigenvalues --   -0.44706  -0.42504  -0.39305
 Alpha virt. eigenvalues --    0.02685   0.03564   0.04224   0.04693   0.05771
 Alpha virt. eigenvalues --    0.05815   0.06190   0.06474   0.07082   0.08608
 Alpha virt. eigenvalues --    0.08965   0.09551   0.09783   0.11841   0.12200

 Mulliken charges:
               1
     1  C    0.437447
     2  C    0.517276
     3  C    0.643119
     4  C    0.856034
     5  C   -0.271339
     6  C    1.226067
     7  H    0.194549
     8  H    0.005835
     9  H   -0.050993
    10  H    0.178459
    11  H    0.259231
    12  H   -0.338705
    13  H    0.200332
    14  H   -0.079557
    15  H    0.298562
    16  H   -0.247807
    17  H   -0.177452
    18  H    0.105419
    19  H    0.084200
    20  N   -0.471793
    21  O   -0.719873
    22  O   -0.726969
    23  O   -0.681969
    24  O   -0.719653
    25  O   -0.520420
 Sum of Mulliken charges =   0.00000

 Dipole moment (field-independent basis, Debye):
    X=              1.3097    Y=              1.4210    Z=             -2.6464  Tot=              3.2769

 Test job not archived.
 1\1\GINC-SE114\SP\RHF\Aug-CC-pVDZ\C6H13N1O5\OHZDE\08-Apr-2025\0\\#t hf
  aug-cc-pvdz iop(5/13=1,5/36=2,99/5=2) pseudo=read geom=check guess=(r
 ead,tcheck) scf=(maxcycle=1)\\title\\0,1\C,0,0.120852,-0.558032,-1.034
 37\C,0,1.09104,0.665108,-0.939099\C,0,0.480589,1.56219,0.121638\C,0,0.
 0288153,0.568678,1.17916\C,0,-0.553763,-0.689872,0.413312\C,0,-2.09515
 ,-0.698727,0.334141\H,0,-2.27227,1.09471,-0.540205\H,0,-2.44645,-1.709
 18,-0.0136976\H,0,-2.46567,-0.507087,1.33393\H,0,0.669946,-1.53345,1.5
 8749\H,0,1.96322,0.169276,1.50532\H,0,-0.676479,0.999351,1.88666\H,0,-

 Normal termination of Gaussian 16 at Tue Apr  8 19:21:26 2025.
