 Gaussian 16, Revision C.01,

 ----------------------------------------------------------------------
 #t hf aug-cc-pvdz symm=none int=(grid=ultrafine) guess=(read,tcheck) s
 table=(opt,rrhf)
 ----------------------------------------------------------------------
 -----
 title
 -----
 Symbolic Z-matrix:
 Charge =  0 Multiplicity = 1

 SCF Done:  E(RHF) =  -539.052989626     A.U. after   16 cycles
 Normal termination of Gaussian 16 at Tue Apr  8 21:40:57 2025.
 Gaussian 16:  ES64L-G16RevC.01  3-Jul-2019

 ----------------------------------------------------------------------
 #t hf aug-cc-pvdz iop(5/13=1,5/36=2,99/5=2) pseudo=read geom=check gue
 ss=(read,tcheck) scf=(maxcycle=1)
 ----------------------------------------------------------------------
 -----
 title
 -----
 Structure from the checkpoint file:  "ANI1ccx_475_conf2_mol1.chk"
 Charge =  0 Multiplicity = 1

                         Standard orientation:
 ---------------------------------------------------------------------
 Center     Atomic      Atomic             Coordinates (Angstroms)
 Number     Number       Type             X           Y           Z
 ---------------------------------------------------------------------
      1          6           0        1.655370   -0.285534    0.033343
      2          6           0       -1.895260   -0.124941    0.103946
      3          1           0        3.405700    0.590359    0.161507
      4          7           0        0.309426    0.080032   -0.062306
      5          7           0       -0.167249    1.329011   -0.233634
      6          7           0       -1.456000    1.229271   -0.161810
      7          8           0        2.432870    0.861177    0.311068
      8          8           0        2.136230   -1.403989   -0.252606
      9          8           0       -2.960970   -0.660191    0.110270
     10          8           0       -0.704330   -0.871460    0.108645
 ---------------------------------------------------------------------

 SCF Done:  E(RHF) =  -539.214693027     A.U. after    2 cycles

 The electronic state is 1-A.
 Alpha  occ. eigenvalues --  -20.73777 -20.68421 -20.62506 -20.62472 -15.85155
 Alpha  occ. eigenvalues --  -15.83715 -15.75149 -11.51532 -11.48689  -1.56295
 Alpha  occ. eigenvalues --   -1.45319  -1.42298  -1.37812  -1.35576  -1.23436
 Alpha  occ. eigenvalues --   -1.01827  -0.93069  -0.91103  -0.79998  -0.78574
 Alpha  occ. eigenvalues --   -0.75668  -0.73813  -0.71417  -0.68248  -0.67269
 Alpha  occ. eigenvalues --   -0.62480  -0.61310  -0.59238  -0.57395  -0.55143
 Alpha  occ. eigenvalues --   -0.53827  -0.50206  -0.44480
 Alpha virt. eigenvalues --    0.00785   0.02331   0.05972   0.06848   0.07799
 Alpha virt. eigenvalues --    0.09236   0.10642   0.11221   0.12184   0.12661
 Alpha virt. eigenvalues --    0.13077   0.14651   0.16637   0.17182   0.17858

 Mulliken charges:
               1
     1  C    0.960986
     2  C    0.920710
     3  H    0.252476
     4  N    0.160849
     5  N   -0.007420
     6  N   -0.308609
     7  O   -0.547020
     8  O   -0.412590
     9  O   -0.315468
    10  O   -0.703914
 Sum of Mulliken charges =  -0.00000

 Dipole moment (field-independent basis, Debye):
    X=              3.6550    Y=              2.1330    Z=              0.4581  Tot=              4.2566

 Test job not archived.
 1\1\GINC-SE338\SP\RHF\Aug-CC-pVDZ\C2H1N3O4\OHZDE\08-Apr-2025\0\\#t hf
 aug-cc-pvdz iop(5/13=1,5/36=2,99/5=2) pseudo=read geom=check guess=(re
 ad,tcheck) scf=(maxcycle=1)\\title\\0,1\C,0,1.65537,-0.285535,0.033343
 1\C,0,-1.89526,-0.124942,0.103946\H,0,3.4057,0.590357,0.161507\N,0,0.3
 09426,0.0800306,-0.0623064\N,0,-0.167249,1.32901,-0.233634\N,0,-1.456,
 1.22927,-0.16181\O,0,2.43287,0.861176,0.311068\O,0,2.13623,-1.40399,-0
 .252606\O,0,-2.96097,-0.660192,0.11027\O,0,-0.70433,-0.871461,0.108645
 \\Version=ES64L-G16RevC.01\State=1-A\HF=-539.214693\RMSD=2.917e-03\Dip

 Normal termination of Gaussian 16 at Tue Apr  8 21:41:01 2025.
