 Gaussian 16, Revision C.01,

 ----------------------------------------------------------------------
 #t hf aug-cc-pvdz symm=none int=(grid=ultrafine) guess=(read,tcheck) s
 table=(opt,rrhf)
 ----------------------------------------------------------------------
 -----
 title
 -----
 Symbolic Z-matrix:
 Charge =  0 Multiplicity = 1

 SCF Done:  E(RHF) =  -337.208892081     A.U. after   13 cycles

 1\1\GINC-SE074\Stability\RHF\Aug-CC-pVDZ\C3H10N4\OHZDE\08-Apr-2025\0\\
 #t hf aug-cc-pvdz symm=none int=(grid=ultrafine) guess=(read,tcheck) s
 table=(opt,rrhf)\\title\\0,1\C,0,2.55428,0.0272224,0.261695\C,0,0.1074
 09,-0.298724,-0.0617632\C,0,-1.16885,1.74031,-0.347485\H,0,-2.07854,1.
 14501,-0.536721\H,0,-0.719311,2.01027,-1.30548\H,0,-1.43647,2.64805,0.
 202109\H,0,0.582398,1.50334,0.720044\H,0,1.52924,-1.4592,-0.759509\H,0
 ,3.47722,-0.384856,-0.151658\H,0,2.5323,-0.23697,1.33927\H,0,2.60835,1
 .11663,0.15933\H,0,-2.04184,-0.500244,1.08607\H,0,-2.47458,-1.90622,0.

 Normal termination of Gaussian 16 at Tue Apr  8 21:47:24 2025.
 Gaussian 16:  ES64L-G16RevC.01  3-Jul-2019

 ----------------------------------------------------------------------
 #t hf aug-cc-pvdz iop(5/13=1,5/36=2,99/5=2) pseudo=read geom=check gue
 ss=(read,tcheck) scf=(maxcycle=1)
 ----------------------------------------------------------------------
 -----
 title
 -----
 Structure from the checkpoint file:  "ANI1ccx_616_conf2_mol2.chk"
 Charge =  0 Multiplicity = 1

                         Standard orientation:
 ---------------------------------------------------------------------
 Center     Atomic      Atomic             Coordinates (Angstroms)
 Number     Number       Type             X           Y           Z
 ---------------------------------------------------------------------
      1          6           0        2.554280    0.027224    0.261695
      2          6           0        0.107409   -0.298723   -0.061763
      3          6           0       -1.168851    1.740310   -0.347485
      4          1           0       -2.078541    1.145010   -0.536721
      5          1           0       -0.719312    2.010271   -1.305480
      6          1           0       -1.436471    2.648050    0.202109
      7          1           0        0.582397    1.503341    0.720044
      8          1           0        1.529240   -1.459199   -0.759509
      9          1           0        3.477220   -0.384854   -0.151658
     10          1           0        2.532300   -0.236968    1.339270
     11          1           0        2.608349    1.116632    0.159330
     12          1           0       -2.041840   -0.500244    1.086070
     13          1           0       -2.474579   -1.906220    0.353661
     14          7           0       -2.042300   -1.007440    0.188017
     15          7           0       -0.710450   -1.278139   -0.188714
     16          7           0       -0.238717    0.955085    0.476000
     17          7           0        1.429210   -0.490747   -0.506986
 ---------------------------------------------------------------------

 SCF Done:  E(RHF) =  -337.311613493     A.U. after    2 cycles

 The electronic state is 1-A.
 Alpha  occ. eigenvalues --  -15.63479 -15.62983 -15.62704 -15.61736 -11.33632
 Alpha  occ. eigenvalues --  -11.27877 -11.26140  -1.27826  -1.18859  -1.15569
 Alpha  occ. eigenvalues --   -1.02609  -0.91723  -0.91417  -0.76115  -0.71761
 Alpha  occ. eigenvalues --   -0.68049  -0.64354  -0.61930  -0.60161  -0.59322
 Alpha  occ. eigenvalues --   -0.57740  -0.55193  -0.53865  -0.51580  -0.43942
 Alpha  occ. eigenvalues --   -0.40940  -0.39633  -0.30178
 Alpha virt. eigenvalues --    0.02881   0.03684   0.04117   0.04641   0.06491
 Alpha virt. eigenvalues --    0.06602   0.07268   0.08176   0.08822   0.09612
 Alpha virt. eigenvalues --    0.12116   0.12793   0.13860   0.14015   0.15328

 Mulliken charges:
               1
     1  C    0.808682
     2  C    0.854193
     3  C    0.849271
     4  H   -0.111876
     5  H   -0.129422
     6  H   -0.171880
     7  H   -0.039477
     8  H   -0.074550
     9  H   -0.228137
    10  H   -0.085157
    11  H   -0.144129
    12  H    0.118242
    13  H    0.019911
    14  N   -0.226993
    15  N   -0.396611
    16  N   -0.502894
    17  N   -0.539172
 Sum of Mulliken charges =   0.00000

 Dipole moment (field-independent basis, Debye):
    X=              1.8369    Y=              1.5408    Z=              1.5514  Tot=              2.8557

 Test job not archived.
 1\1\GINC-SE074\SP\RHF\Aug-CC-pVDZ\C3H10N4\OHZDE\08-Apr-2025\0\\#t hf a
 ug-cc-pvdz iop(5/13=1,5/36=2,99/5=2) pseudo=read geom=check guess=(rea
 d,tcheck) scf=(maxcycle=1)\\title\\0,1\C,0,2.55428,0.0272224,0.261695\
 C,0,0.107409,-0.298724,-0.0617632\C,0,-1.16885,1.74031,-0.347485\H,0,-
 2.07854,1.14501,-0.536721\H,0,-0.719311,2.01027,-1.30548\H,0,-1.43647,
 2.64805,0.202109\H,0,0.582398,1.50334,0.720044\H,0,1.52924,-1.4592,-0.
 759509\H,0,3.47722,-0.384856,-0.151658\H,0,2.5323,-0.23697,1.33927\H,0
 ,2.60835,1.11663,0.15933\H,0,-2.04184,-0.500244,1.08607\H,0,-2.47458,-

 Normal termination of Gaussian 16 at Tue Apr  8 21:47:30 2025.
