 Gaussian 16, Revision C.01,

 ----------------------------------------------------------------------
 #t hf aug-cc-pvdz symm=none int=(grid=ultrafine) guess=(read,tcheck) s
 table=(opt,rrhf)
 ----------------------------------------------------------------------
 -----
 title
 -----
 Symbolic Z-matrix:
 Charge =  0 Multiplicity = 1

 SCF Done:  E(RHF) =  -311.842414843     A.U. after   15 cycles
 Normal termination of Gaussian 16 at Tue Apr  8 21:33:39 2025.
 Gaussian 16:  ES64L-G16RevC.01  3-Jul-2019

 ----------------------------------------------------------------------
 #t hf aug-cc-pvdz iop(5/13=1,5/36=2,99/5=2) pseudo=read geom=check gue
 ss=(read,tcheck) scf=(maxcycle=1)
 ----------------------------------------------------------------------
 -----
 title
 -----
 Structure from the checkpoint file:  "ANI1ccx_392_conf8_mol1.chk"
 Charge =  0 Multiplicity = 1

                         Standard orientation:
 ---------------------------------------------------------------------
 Center     Atomic      Atomic             Coordinates (Angstroms)
 Number     Number       Type             X           Y           Z
 ---------------------------------------------------------------------
      1          6           0       -0.599607   -0.007777   -0.059708
      2          1           0       -2.431761    0.852502    0.089530
      3          1           0       -2.496320   -0.843912   -0.018596
      4          1           0        2.122720   -1.084378    0.036196
      5          7           0       -1.967970   -0.027995    0.049716
      6          7           0        0.113897    1.107791   -0.032843
      7          7           0        1.344929    0.738891    0.009423
      8          7           0        1.297450   -0.551098    0.060206
      9          7           0        0.126408   -1.107239   -0.050627
 ---------------------------------------------------------------------

 SCF Done:  E(RHF) =  -311.929795478     A.U. after    2 cycles

 The electronic state is 1-A.
 Alpha  occ. eigenvalues --  -15.76177 -15.73502 -15.67148 -15.65976 -15.64005
 Alpha  occ. eigenvalues --  -11.34912  -1.48574  -1.23744  -1.22840  -1.11677
 Alpha  occ. eigenvalues --   -0.91929  -0.86244  -0.78888  -0.71161  -0.69804
 Alpha  occ. eigenvalues --   -0.65735  -0.57030  -0.51011  -0.49821  -0.46113
 Alpha  occ. eigenvalues --   -0.44441  -0.34272
 Alpha virt. eigenvalues --    0.02910   0.03439   0.05696   0.08541   0.10650
 Alpha virt. eigenvalues --    0.11303   0.12786   0.14098   0.15164   0.15311
 Alpha virt. eigenvalues --    0.16877   0.17652   0.17891   0.20054   0.20172

 Mulliken charges:
               1
     1  C    1.046728
     2  H   -0.039907
     3  H   -0.099769
     4  H   -0.013431
     5  N   -0.167537
     6  N   -0.334898
     7  N   -0.180383
     8  N    0.259715
     9  N   -0.470518
 Sum of Mulliken charges =  -0.00000

 Dipole moment (field-independent basis, Debye):
    X=             -0.5640    Y=             -1.8950    Z=             -0.0125  Tot=              1.9772

 Test job not archived.
 1\1\GINC-SE404\SP\RHF\Aug-CC-pVDZ\C1H3N5\OHZDE\08-Apr-2025\0\\#t hf au
 g-cc-pvdz iop(5/13=1,5/36=2,99/5=2) pseudo=read geom=check guess=(read
 ,tcheck) scf=(maxcycle=1)\\title\\0,1\C,0,-0.599607,-0.00777748,-0.059
 7078\H,0,-2.43176,0.852503,0.0895299\H,0,-2.49632,-0.843911,-0.0185965
 \H,0,2.12272,-1.08438,0.0361955\N,0,-1.96797,-0.027994,0.0497157\N,0,0
 .113898,1.10779,-0.0328435\N,0,1.34493,0.73889,0.00942284\N,0,1.29745,
 -0.551099,0.0602058\N,0,0.126408,-1.10724,-0.0506269\\Version=ES64L-G1
 6RevC.01\State=1-A\HF=-311.9297955\RMSD=3.144e-03\Dipole=-0.2218923,-0

 Normal termination of Gaussian 16 at Tue Apr  8 21:33:42 2025.
