 Gaussian 16, Revision C.01,

 ----------------------------------------------------------------------
 #t hf aug-cc-pvdz symm=none int=(grid=ultrafine) guess=(read,tcheck) s
 table=(opt,rrhf)
 ----------------------------------------------------------------------
 -----
 title
 -----
 Symbolic Z-matrix:
 Charge =  0 Multiplicity = 1

 SCF Done:  E(RHF) =  -446.816115279     A.U. after   14 cycles
 Normal termination of Gaussian 16 at Tue Apr  8 21:46:22 2025.
 Gaussian 16:  ES64L-G16RevC.01  3-Jul-2019

 ----------------------------------------------------------------------
 #t hf aug-cc-pvdz iop(5/13=1,5/36=2,99/5=2) pseudo=read geom=check gue
 ss=(read,tcheck) scf=(maxcycle=1)
 ----------------------------------------------------------------------
 -----
 title
 -----
 Structure from the checkpoint file:  "ANI1ccx_555_conf6_mol1.chk"
 Charge =  0 Multiplicity = 1

                         Standard orientation:
 ---------------------------------------------------------------------
 Center     Atomic      Atomic             Coordinates (Angstroms)
 Number     Number       Type             X           Y           Z
 ---------------------------------------------------------------------
      1          6           0       -1.546470   -0.146694    0.188514
      2          6           0        1.629730    0.010524   -0.029474
      3          1           0       -3.494660    0.597012    0.039633
      4          1           0       -2.324990    1.082640   -1.161240
      5          1           0       -0.713994   -0.298611   -1.699990
      6          1           0        1.009700   -1.756120   -0.681112
      7          1           0        0.358355    1.603150   -0.215257
      8          1           0        2.079120    1.918960    0.433780
      9          7           0       -2.668910    0.342049   -0.490034
     10          7           0       -0.514341   -0.337798   -0.747130
     11          7           0        0.637642   -0.891952   -0.239245
     12          7           0        1.295320    1.346060    0.154187
     13          8           0       -1.389770   -0.376252    1.387090
     14          8           0        2.807140   -0.316062    0.061096
 ---------------------------------------------------------------------

 SCF Done:  E(RHF) =  -446.954580368     A.U. after    2 cycles

 The electronic state is 1-A.
 Alpha  occ. eigenvalues --  -20.55891 -20.52357 -15.70467 -15.69931 -15.67966
 Alpha  occ. eigenvalues --  -15.64657 -11.42226 -11.38929  -1.38816  -1.35602
 Alpha  occ. eigenvalues --   -1.28970  -1.20715  -1.15793  -1.08950  -0.85884
 Alpha  occ. eigenvalues --   -0.81800  -0.79772  -0.74405  -0.73377  -0.69295
 Alpha  occ. eigenvalues --   -0.66693  -0.65318  -0.62000  -0.60246  -0.59383
 Alpha  occ. eigenvalues --   -0.48572  -0.47081  -0.45927  -0.45381  -0.41642
 Alpha  occ. eigenvalues --   -0.41250
 Alpha virt. eigenvalues --    0.01282   0.02915   0.03755   0.04788   0.06841
 Alpha virt. eigenvalues --    0.07497   0.09681   0.11346   0.12185   0.12426
 Alpha virt. eigenvalues --    0.13575   0.14333   0.14916   0.15440   0.15989

 Mulliken charges:
               1
     1  C    1.019329
     2  C    0.765132
     3  H    0.013965
     4  H    0.112556
     5  H   -0.176569
     6  H    0.049157
     7  H    0.120034
     8  H   -0.014248
     9  N   -0.333823
    10  N   -0.027088
    11  N   -0.272784
    12  N   -0.241278
    13  O   -0.487897
    14  O   -0.526486
 Sum of Mulliken charges =  -0.00000

 Dipole moment (field-independent basis, Debye):
    X=             -4.6384    Y=              2.8500    Z=             -5.1903  Tot=              7.5218

 Test job not archived.
 1\1\GINC-SE252\SP\RHF\Aug-CC-pVDZ\C2H6N4O2\OHZDE\08-Apr-2025\0\\#t hf
 aug-cc-pvdz iop(5/13=1,5/36=2,99/5=2) pseudo=read geom=check guess=(re
 ad,tcheck) scf=(maxcycle=1)\\title\\0,1\C,0,-1.54647,-0.146694,0.18851
 4\C,0,1.62973,0.0105237,-0.0294737\H,0,-3.49466,0.597012,0.039633\H,0,
 -2.32499,1.08264,-1.16124\H,0,-0.713994,-0.298611,-1.69999\H,0,1.0097,
 -1.75612,-0.681112\H,0,0.358355,1.60315,-0.215257\H,0,2.07912,1.91896,
 0.43378\N,0,-2.66891,0.342049,-0.490034\N,0,-0.514341,-0.337798,-0.747
 13\N,0,0.637642,-0.891952,-0.239245\N,0,1.29532,1.34606,0.154187\O,0,-

 Normal termination of Gaussian 16 at Tue Apr  8 21:46:27 2025.
