 Gaussian 16, Revision C.01,

 ----------------------------------------------------------------------
 #t hf aug-cc-pvdz symm=none int=(grid=ultrafine) guess=(read,tcheck) s
 table=(opt,rrhf)
 ----------------------------------------------------------------------
 -----
 title
 -----
 Symbolic Z-matrix:
 Charge =  0 Multiplicity = 1

 SCF Done:  E(RHF) =  -371.628273560     A.U. after   16 cycles
 Normal termination of Gaussian 16 at Tue Apr  8 21:56:55 2025.
 Gaussian 16:  ES64L-G16RevC.01  3-Jul-2019

 ----------------------------------------------------------------------
 #t hf aug-cc-pvdz iop(5/13=1,5/36=2,99/5=2) pseudo=read geom=check gue
 ss=(read,tcheck) scf=(maxcycle=1)
 ----------------------------------------------------------------------
 -----
 title
 -----
 Structure from the checkpoint file:  "ANI1ccx_880_conf1_mol1.chk"
 Charge =  0 Multiplicity = 1

                         Standard orientation:
 ---------------------------------------------------------------------
 Center     Atomic      Atomic             Coordinates (Angstroms)
 Number     Number       Type             X           Y           Z
 ---------------------------------------------------------------------
      1          6           0        1.420900   -0.087474   -0.073745
      2          6           0       -0.149803    1.329310    0.010349
      3          6           0       -0.796289    0.115152   -0.038311
      4          6           0       -2.221250   -0.176914   -0.014223
      5          1           0        2.582420   -1.591780    0.560178
      6          1           0        3.412340   -0.087399    0.126918
      7          1           0       -0.620891    2.320539   -0.000804
      8          1           0        0.104532   -1.836230   -0.262600
      9          7           0        2.634680   -0.720566   -0.013466
     10          7           0        1.174710    1.192020    0.027519
     11          7           0        0.261603   -0.835904   -0.038805
     12          7           0       -3.356670   -0.476346    0.063593
 ---------------------------------------------------------------------

 SCF Done:  E(RHF) =  -371.735073739     A.U. after    2 cycles

 The electronic state is 1-A.
 Alpha  occ. eigenvalues --  -15.70987 -15.67603 -15.64996 -15.62741 -11.38907
 Alpha  occ. eigenvalues --  -11.31591 -11.30693 -11.30035  -1.35075  -1.20984
 Alpha  occ. eigenvalues --   -1.18438  -1.16573  -1.01956  -0.87222  -0.83766
 Alpha  occ. eigenvalues --   -0.79463  -0.73210  -0.66795  -0.65563  -0.64616
 Alpha  occ. eigenvalues --   -0.60766  -0.55180  -0.51636  -0.48012  -0.46748
 Alpha  occ. eigenvalues --   -0.44909  -0.43553  -0.31857
 Alpha virt. eigenvalues --    0.01714   0.03504   0.04163   0.05404   0.07794
 Alpha virt. eigenvalues --    0.08935   0.09697   0.10649   0.11323   0.11869
 Alpha virt. eigenvalues --    0.12656   0.13515   0.13748   0.14351   0.15549

 Mulliken charges:
               1
     1  C    0.720397
     2  C    0.367377
     3  C    1.467624
     4  C   -0.686503
     5  H    0.055292
     6  H    0.030494
     7  H   -0.231623
     8  H   -0.050284
     9  N   -0.339200
    10  N   -0.491436
    11  N   -0.684788
    12  N   -0.157349
 Sum of Mulliken charges =   0.00000

 Dipole moment (field-independent basis, Debye):
    X=              4.8946    Y=             -2.2262    Z=              0.4490  Tot=              5.3958

 Test job not archived.
 1\1\GINC-SE102\SP\RHF\Aug-CC-pVDZ\C4H4N4\OHZDE\08-Apr-2025\0\\#t hf au
 g-cc-pvdz iop(5/13=1,5/36=2,99/5=2) pseudo=read geom=check guess=(read
 ,tcheck) scf=(maxcycle=1)\\title\\0,1\C,0,1.4209,-0.0874736,-0.0737448
 \C,0,-0.149803,1.32931,0.0103491\C,0,-0.796289,0.115153,-0.038311\C,0,
 -2.22125,-0.176913,-0.0142228\H,0,2.58242,-1.59178,0.560178\H,0,3.4123
 4,-0.0873993,0.126918\H,0,-0.620891,2.32054,-0.000804\H,0,0.104532,-1.
 83623,-0.2626\N,0,2.63468,-0.720566,-0.0134661\N,0,1.17471,1.19202,0.0
 275195\N,0,0.261603,-0.835904,-0.0388053\N,0,-3.35667,-0.476345,0.0635

 Normal termination of Gaussian 16 at Tue Apr  8 21:57:00 2025.
