 Gaussian 16, Revision C.01,

 ----------------------------------------------------------------------
 #t hf aug-cc-pvdz symm=none int=(grid=ultrafine) guess=(read,tcheck) s
 table=(opt,rrhf)
 ----------------------------------------------------------------------
 -----
 title
 -----
 Symbolic Z-matrix:
 Charge =  0 Multiplicity = 1

 SCF Done:  E(RHF) =  -302.699248702     A.U. after   13 cycles
 Normal termination of Gaussian 16 at Tue Apr  8 21:44:47 2025.
 Gaussian 16:  ES64L-G16RevC.01  3-Jul-2019

 ----------------------------------------------------------------------
 #t hf aug-cc-pvdz iop(5/13=1,5/36=2,99/5=2) pseudo=read geom=check gue
 ss=(read,tcheck) scf=(maxcycle=1)
 ----------------------------------------------------------------------
 -----
 title
 -----
 Structure from the checkpoint file:  "ANI1ccx_528_conf34_mol1.chk"
 Charge =  0 Multiplicity = 1

                         Standard orientation:
 ---------------------------------------------------------------------
 Center     Atomic      Atomic             Coordinates (Angstroms)
 Number     Number       Type             X           Y           Z
 ---------------------------------------------------------------------
      1          6           0       -0.684242   -0.780881    0.064762
      2          6           0        0.515124    0.114659   -0.029230
      3          1           0       -1.614129    0.920392    0.131861
      4          1           0       -0.595923   -1.359719    0.993213
      5          1           0       -0.681466   -1.574130   -0.746576
      6          1           0        1.766791   -1.330799   -0.124429
      7          8           0       -1.842869   -0.021269   -0.065236
      8          8           0        1.774841   -0.385564   -0.009386
      9          8           0        0.335457    1.324531    0.016214
 ---------------------------------------------------------------------

 SCF Done:  E(RHF) =  -302.796104042     A.U. after    2 cycles

 The electronic state is 1-A.
 Alpha  occ. eigenvalues --  -20.65335 -20.58847 -20.58150 -11.42225 -11.33463
 Alpha  occ. eigenvalues --   -1.44246  -1.36243  -1.32691  -1.00411  -0.86761
 Alpha  occ. eigenvalues --   -0.79130  -0.71094  -0.69835  -0.65869  -0.64553
 Alpha  occ. eigenvalues --   -0.62707  -0.55287  -0.51627  -0.49608  -0.48191
 Alpha virt. eigenvalues --    0.02147   0.04637   0.04918   0.06332   0.09190
 Alpha virt. eigenvalues --    0.10924   0.11380   0.11789   0.13230   0.14091
 Alpha virt. eigenvalues --    0.15682   0.15830   0.18975   0.21368   0.21591

 Mulliken charges:
               1
     1  C    0.639994
     2  C    0.533559
     3  H    0.222757
     4  H   -0.016117
     5  H   -0.023109
     6  H    0.160966
     7  O   -0.542532
     8  O   -0.466192
     9  O   -0.509325
 Sum of Mulliken charges =   0.00000

 Dipole moment (field-independent basis, Debye):
    X=              0.8583    Y=             -4.0694    Z=              0.2051  Tot=              4.1640

 Test job not archived.
 1\1\GINC-SE177\SP\RHF\Aug-CC-pVDZ\C2H4O3\OHZDE\08-Apr-2025\0\\#t hf au
 g-cc-pvdz iop(5/13=1,5/36=2,99/5=2) pseudo=read geom=check guess=(read
 ,tcheck) scf=(maxcycle=1)\\title\\0,1\C,0,-0.684243,-0.780881,0.064761
 7\C,0,0.515123,0.114658,-0.02923\H,0,-1.61413,0.920392,0.131861\H,0,-0
 .595924,-1.35972,0.993213\H,0,-0.681467,-1.57413,-0.746576\H,0,1.76679
 ,-1.3308,-0.124429\O,0,-1.84287,-0.0212688,-0.0652358\O,0,1.77484,-0.3
 85565,-0.00938594\O,0,0.335456,1.32453,0.0162143\\Version=ES64L-G16Rev
 C.01\State=1-A\HF=-302.796104\RMSD=3.591e-03\Dipole=0.3376758,-1.60103

 Normal termination of Gaussian 16 at Tue Apr  8 21:44:49 2025.
