 Gaussian 16, Revision C.01,

 ----------------------------------------------------------------------
 #t hf aug-cc-pvdz symm=none int=(grid=ultrafine) guess=(read,tcheck) s
 table=(opt,rrhf)
 ----------------------------------------------------------------------
 -----
 title
 -----
 Symbolic Z-matrix:
 Charge =  0 Multiplicity = 1

 SCF Done:  E(RHF) =  -446.846462763     A.U. after   13 cycles
 Normal termination of Gaussian 16 at Tue Apr  8 21:46:25 2025.
 Gaussian 16:  ES64L-G16RevC.01  3-Jul-2019

 ----------------------------------------------------------------------
 #t hf aug-cc-pvdz iop(5/13=1,5/36=2,99/5=2) pseudo=read geom=check gue
 ss=(read,tcheck) scf=(maxcycle=1)
 ----------------------------------------------------------------------
 -----
 title
 -----
 Structure from the checkpoint file:  "ANI1ccx_555_conf1_mol2.chk"
 Charge =  0 Multiplicity = 1

                         Standard orientation:
 ---------------------------------------------------------------------
 Center     Atomic      Atomic             Coordinates (Angstroms)
 Number     Number       Type             X           Y           Z
 ---------------------------------------------------------------------
      1          6           0        1.557021   -0.167326   -0.058292
      2          6           0       -1.709919    0.004305    0.048657
      3          1           0        3.373711   -0.014280   -0.703346
      4          1           0        2.810191    1.457310   -0.282782
      5          1           0        0.851990    1.109660    1.382040
      6          1           0       -0.477515   -1.214961    0.954958
      7          1           0       -0.827812    1.612979   -0.705302
      8          1           0       -2.411279    1.346929   -1.236810
      9          7           0        2.777371    0.465600   -0.059904
     10          7           0        0.547188    0.487301    0.615476
     11          7           0       -0.590721   -0.231372    0.824280
     12          7           0       -1.736089    1.246829   -0.502141
     13          8           0        1.378251   -1.263790   -0.572025
     14          8           0       -2.551519   -0.873462   -0.114840
 ---------------------------------------------------------------------

 SCF Done:  E(RHF) =  -446.984848804     A.U. after    2 cycles

 The electronic state is 1-A.
 Alpha  occ. eigenvalues --  -20.56053 -20.53245 -15.71284 -15.68268 -15.67339
 Alpha  occ. eigenvalues --  -15.64924 -11.41992 -11.39476  -1.40096  -1.36130
 Alpha  occ. eigenvalues --   -1.29193  -1.21462  -1.18846  -1.08937  -0.86150
 Alpha  occ. eigenvalues --   -0.83290  -0.77820  -0.75868  -0.75189  -0.68626
 Alpha  occ. eigenvalues --   -0.66677  -0.65187  -0.62703  -0.61756  -0.59516
 Alpha  occ. eigenvalues --   -0.49456  -0.48054  -0.46749  -0.45918  -0.43212
 Alpha  occ. eigenvalues --   -0.41185
 Alpha virt. eigenvalues --    0.01338   0.03447   0.03562   0.04932   0.07140
 Alpha virt. eigenvalues --    0.07203   0.10093   0.10697   0.12273   0.13278
 Alpha virt. eigenvalues --    0.13470   0.14644   0.15190   0.15430   0.16080

 Mulliken charges:
               1
     1  C    0.870568
     2  C    0.822295
     3  H    0.036188
     4  H    0.016328
     5  H    0.039048
     6  H   -0.031374
     7  H    0.054467
     8  H    0.023104
     9  N   -0.194478
    10  N   -0.386257
    11  N   -0.096948
    12  N   -0.159062
    13  O   -0.486843
    14  O   -0.507035
 Sum of Mulliken charges =  -0.00000

 Dipole moment (field-independent basis, Debye):
    X=              4.7597    Y=              5.9207    Z=              0.0509  Tot=              7.5969

 Test job not archived.
 1\1\GINC-SE096\SP\RHF\Aug-CC-pVDZ\C2H6N4O2\OHZDE\08-Apr-2025\0\\#t hf
 aug-cc-pvdz iop(5/13=1,5/36=2,99/5=2) pseudo=read geom=check guess=(re
 ad,tcheck) scf=(maxcycle=1)\\title\\0,1\C,0,1.55702,-0.167326,-0.05829
 19\C,0,-1.70992,0.00430651,0.0486566\H,0,3.37371,-0.0142801,-0.703346\
 H,0,2.81019,1.45731,-0.282782\H,0,0.851989,1.10966,1.38204\H,0,-0.4775
 16,-1.21496,0.954958\H,0,-0.827813,1.61298,-0.705302\H,0,-2.41128,1.34
 693,-1.23681\N,0,2.77737,0.4656,-0.0599042\N,0,0.547187,0.487302,0.615
 476\N,0,-0.590722,-0.231371,0.82428\N,0,-1.73609,1.24683,-0.502141\O,0

 Normal termination of Gaussian 16 at Tue Apr  8 21:46:31 2025.
