 Gaussian 16, Revision C.01,

 ----------------------------------------------------------------------
 #t hf aug-cc-pvdz symm=none int=(grid=ultrafine) guess=(read,tcheck) s
 table=(opt,rrhf)
 ----------------------------------------------------------------------
 -----
 title
 -----
 Symbolic Z-matrix:
 Charge =  0 Multiplicity = 1

 SCF Done:  E(RHF) =  -480.467638740     A.U. after   17 cycles
 Normal termination of Gaussian 16 at Tue Apr  8 21:57:52 2025.
 Gaussian 16:  ES64L-G16RevC.01  3-Jul-2019

 ----------------------------------------------------------------------
 #t hf aug-cc-pvdz iop(5/13=1,5/36=2,99/5=2) pseudo=read geom=check gue
 ss=(read,tcheck) scf=(maxcycle=1)
 ----------------------------------------------------------------------
 -----
 title
 -----
 Structure from the checkpoint file:  "ANI1ccx_885_conf4_mol2.chk"
 Charge =  0 Multiplicity = 1

                         Standard orientation:
 ---------------------------------------------------------------------
 Center     Atomic      Atomic             Coordinates (Angstroms)
 Number     Number       Type             X           Y           Z
 ---------------------------------------------------------------------
      1          6           0       -1.204150   -0.603007   -0.020145
      2          6           0       -0.081362    1.887390    0.021231
      3          6           0        0.786127    0.782136   -0.035120
      4          6           0        0.184163   -0.463363    0.020191
      5          1           0       -2.844499   -1.790473    0.046967
      6          1           0       -1.301288   -2.632281    0.194523
      7          1           0        0.153090    2.944740    0.076741
      8          1           0        2.882299    1.114993   -0.001263
      9          7           0       -1.817939   -1.787622   -0.040062
     10          7           0       -1.964291    0.516755    0.021663
     11          7           0       -1.374942    1.709579   -0.017192
     12          7           0        2.078369    0.525750   -0.006499
     13          7           0        2.322940   -0.837117    0.004013
     14          7           0        1.184681   -1.449619    0.004662
 ---------------------------------------------------------------------

 SCF Done:  E(RHF) =  -480.602648927     A.U. after    2 cycles

 The electronic state is 1-A.
 Alpha  occ. eigenvalues --  -15.75196 -15.74178 -15.70857 -15.68111 -15.66127
 Alpha  occ. eigenvalues --  -15.65108 -11.35396 -11.33086 -11.29154 -11.28990
 Alpha  occ. eigenvalues --   -1.42165  -1.31264  -1.22980  -1.20197  -1.11400
 Alpha  occ. eigenvalues --   -1.06982  -0.92454  -0.91083  -0.86729  -0.79945
 Alpha  occ. eigenvalues --   -0.76106  -0.71408  -0.69990  -0.67459  -0.65164
 Alpha  occ. eigenvalues --   -0.62123  -0.58346  -0.55972  -0.51104  -0.48215
 Alpha  occ. eigenvalues --   -0.46512  -0.44961  -0.39572  -0.38287  -0.32698
 Alpha virt. eigenvalues --    0.02070   0.03354   0.04665   0.06155   0.07476
 Alpha virt. eigenvalues --    0.08433   0.09537   0.10138   0.11300   0.11909
 Alpha virt. eigenvalues --    0.11991   0.12515   0.13189   0.13371   0.14580

 Mulliken charges:
               1
     1  C    0.709121
     2  C    0.891502
     3  C    0.331842
     4  C    0.770091
     5  H    0.021417
     6  H    0.027672
     7  H   -0.317993
     8  H   -0.038449
     9  N   -0.258008
    10  N   -0.525461
    11  N   -0.381238
    12  N   -0.271695
    13  N   -0.210123
    14  N   -0.748679
 Sum of Mulliken charges =   0.00000

 Dipole moment (field-independent basis, Debye):
    X=              2.4270    Y=             -0.0161    Z=              0.4455  Tot=              2.4677

 Test job not archived.
 1\1\GINC-SE334\SP\RHF\Aug-CC-pVDZ\C4H4N6\OHZDE\08-Apr-2025\0\\#t hf au
 g-cc-pvdz iop(5/13=1,5/36=2,99/5=2) pseudo=read geom=check guess=(read
 ,tcheck) scf=(maxcycle=1)\\title\\0,1\C,0,-1.20415,-0.603006,-0.020144
 6\C,0,-0.0813601,1.88739,0.0212307\C,0,0.786128,0.782135,-0.0351198\C,
 0,0.184163,-0.463363,0.020191\H,0,-2.8445,-1.79047,0.0469667\H,0,-1.30
 129,-2.63228,0.194523\H,0,0.153093,2.94474,0.0767406\H,0,2.8823,1.1149
 9,-0.00126314\N,0,-1.81794,-1.78762,-0.0400624\N,0,-1.96429,0.516757,0
 .0216627\N,0,-1.37494,1.70958,-0.0171921\N,0,2.07837,0.525748,-0.00649

 Normal termination of Gaussian 16 at Tue Apr  8 21:57:59 2025.
