 Gaussian 16, Revision C.01,

 ----------------------------------------------------------------------
 #t hf aug-cc-pvdz symm=none int=(grid=ultrafine) guess=(read,tcheck) s
 table=(opt,rrhf)
 ----------------------------------------------------------------------
 -----
 title
 -----
 Symbolic Z-matrix:
 Charge =  0 Multiplicity = 1

 SCF Done:  E(RHF) =  -678.629513366     A.U. after   16 cycles
 Normal termination of Gaussian 16 at Tue Apr  8 20:06:55 2025.
 Gaussian 16:  ES64L-G16RevC.01  3-Jul-2019

 ----------------------------------------------------------------------
 #t hf aug-cc-pvdz iop(5/13=1,5/36=2,99/5=2) pseudo=read geom=check gue
 ss=(read,tcheck) scf=(maxcycle=1)
 ----------------------------------------------------------------------
 -----
 title
 -----
 Structure from the checkpoint file:  "ANI1ccx_1596_conf2_mol2.chk"
 Charge =  0 Multiplicity = 1

                         Standard orientation:
 ---------------------------------------------------------------------
 Center     Atomic      Atomic             Coordinates (Angstroms)
 Number     Number       Type             X           Y           Z
 ---------------------------------------------------------------------
      1          6           0        4.286219   -0.542386   -0.026636
      2          6           0        3.163518   -1.101873   -0.931325
      3          6           0        1.852428   -1.073262   -0.213789
      4          6           0        0.513415    0.383710    1.232150
      5          6           0       -1.416592   -1.279668    1.177870
      6          6           0       -2.709062   -1.504647   -0.728615
      7          6           0       -1.321850    0.544512   -0.414116
      8          6           0       -0.517829    2.731031   -0.234726
      9          1           0       -2.075050    0.018501   -2.109300
     10          1           0       -3.733092   -1.568056   -1.129520
     11          1           0       -2.140183   -2.391368   -1.016620
     12          1           0       -0.770174   -2.173209    0.993684
     13          1           0       -1.542772   -1.162858    2.263620
     14          1           0        0.440781    1.479390    1.407370
     15          1           0        0.649494   -0.258032    2.115600
     16          1           0        1.860528   -1.775922    0.621042
     17          1           0        3.235217   -2.192323   -1.176910
     18          1           0        3.132339   -0.535107   -1.886760
     19          1           0        5.282559   -0.506937   -0.551437
     20          1           0        4.412448   -1.187244    0.860171
     21          1           0        4.085890    0.477967    0.320605
     22          1           0        1.082358   -1.412281   -0.934460
     23          7           0       -0.774293   -0.045696    0.697915
     24          7           0       -2.172191   -0.251817   -1.127340
     25          7           0       -1.052129    1.738781   -0.964722
     26          7           0        0.009839    3.551070    0.433617
     27          8           0        1.569350    0.212564    0.308196
     28          8           0       -2.706902   -1.550487    0.664526
 ---------------------------------------------------------------------

 SCF Done:  E(RHF) =  -678.836325373     A.U. after    2 cycles

 The electronic state is 1-A.
 Alpha  occ. eigenvalues --  -20.63010 -20.58672 -15.68702 -15.67656 -15.63297
 Alpha  occ. eigenvalues --  -15.60039 -11.42689 -11.37558 -11.37020 -11.35409
 Alpha  occ. eigenvalues --  -11.30131 -11.30066 -11.24763 -11.23184  -1.42168
 Alpha  occ. eigenvalues --   -1.36242  -1.30545  -1.22024  -1.19285  -1.12126
 Alpha  occ. eigenvalues --   -1.06721  -1.01214  -0.96189  -0.95116  -0.90869
 Alpha  occ. eigenvalues --   -0.81893  -0.81411  -0.77758  -0.76857  -0.75017
 Alpha  occ. eigenvalues --   -0.70495  -0.70140  -0.68528  -0.67157  -0.65809
 Alpha  occ. eigenvalues --   -0.62773  -0.60910  -0.60601  -0.58044  -0.57647
 Alpha  occ. eigenvalues --   -0.56314  -0.53938  -0.52875  -0.51233  -0.50898
 Alpha  occ. eigenvalues --   -0.50327  -0.49007  -0.48595  -0.47057  -0.45597
 Alpha  occ. eigenvalues --   -0.40960  -0.38485  -0.34734
 Alpha virt. eigenvalues --    0.01774   0.02695   0.03258   0.04155   0.04847
 Alpha virt. eigenvalues --    0.05203   0.05683   0.06205   0.06986   0.07459
 Alpha virt. eigenvalues --    0.07942   0.08548   0.09088   0.09234   0.10099

 Mulliken charges:
               1
     1  C    0.435399
     2  C   -0.057130
     3  C    0.636661
     4  C    1.175583
     5  C    1.146133
     6  C    1.035965
     7  C    0.691754
     8  C   -0.531743
     9  H   -0.049987
    10  H   -0.250247
    11  H   -0.160077
    12  H   -0.137613
    13  H   -0.279431
    14  H   -0.260430
    15  H   -0.235579
    16  H   -0.322287
    17  H    0.073657
    18  H   -0.023243
    19  H   -0.066930
    20  H   -0.069216
    21  H   -0.042750
    22  H   -0.247749
    23  N   -0.300270
    24  N   -0.400172
    25  N   -0.301645
    26  N   -0.115543
    27  O   -0.683851
    28  O   -0.659262
 Sum of Mulliken charges =  -0.00000

 Dipole moment (field-independent basis, Debye):
    X=             -1.1403    Y=             -8.7456    Z=             -0.6841  Tot=              8.8461

 Test job not archived.
 1\1\GINC-SE159\SP\RHF\Aug-CC-pVDZ\C8H14N4O2\OHZDE\08-Apr-2025\0\\#t hf
  aug-cc-pvdz iop(5/13=1,5/36=2,99/5=2) pseudo=read geom=check guess=(r
 ead,tcheck) scf=(maxcycle=1)\\title\\0,1\C,0,4.28622,-0.542382,-0.0266
 362\C,0,3.16352,-1.10187,-0.931325\C,0,1.85243,-1.07326,-0.213789\C,0,
 0.513415,0.38371,1.23215\C,0,-1.41659,-1.27967,1.17787\C,0,-2.70906,-1
 .50465,-0.728615\C,0,-1.32185,0.54451,-0.414116\C,0,-0.517831,2.73103,
 -0.234726\H,0,-2.07505,0.0184986,-2.1093\H,0,-3.73309,-1.56806,-1.1295
 2\H,0,-2.14018,-2.39137,-1.01662\H,0,-0.770171,-2.17321,0.993684\H,0,-

 Normal termination of Gaussian 16 at Tue Apr  8 20:07:25 2025.
