 Gaussian 16, Revision C.01,

 ----------------------------------------------------------------------
 #t hf aug-cc-pvdz symm=none int=(grid=ultrafine) guess=(read,tcheck) s
 table=(opt,rrhf)
 ----------------------------------------------------------------------
 -----
 title
 -----
 Symbolic Z-matrix:
 Charge =  0 Multiplicity = 1

 SCF Done:  E(RHF) =  -489.654998070     A.U. after   14 cycles
 Normal termination of Gaussian 16 at Tue Apr  8 22:11:42 2025.
 Gaussian 16:  ES64L-G16RevC.01  3-Jul-2019

 ----------------------------------------------------------------------
 #t hf aug-cc-pvdz iop(5/13=1,5/36=2,99/5=2) pseudo=read geom=check gue
 ss=(read,tcheck) scf=(maxcycle=1)
 ----------------------------------------------------------------------
 -----
 title
 -----
 Structure from the checkpoint file:  "ANI1ccx_957_conf133_mol1.chk"
 Charge =  0 Multiplicity = 1

                         Standard orientation:
 ---------------------------------------------------------------------
 Center     Atomic      Atomic             Coordinates (Angstroms)
 Number     Number       Type             X           Y           Z
 ---------------------------------------------------------------------
      1          6           0        0.655768    0.790812    0.539480
      2          6           0        1.446360   -0.456704    0.199709
      3          6           0       -0.750556    0.348196    1.114780
      4          6           0       -1.736630   -0.128829   -0.067315
      5          1           0        2.227860    0.838718   -0.628837
      6          1           0       -0.251729   -1.443771   -0.593354
      7          1           0       -1.709819   -1.775221   -1.406210
      8          1           0       -0.603827   -0.497184    1.704200
      9          1           0        1.055940    1.186050    1.448400
     10          1           0        0.118976    2.612470   -0.332226
     11          1           0        0.708425    1.540780   -1.516470
     12          1           0       -1.270061    1.281829    1.453210
     13          7           0        0.720443    1.766360   -0.414834
     14          7           0       -1.255299   -1.259021   -0.729393
     15          8           0       -2.840960    0.356290   -0.236237
     16          8           0        1.220991   -1.577590    0.634721
     17          8           0        2.342290   -0.105687   -0.753363
 ---------------------------------------------------------------------

 SCF Done:  E(RHF) =  -489.805597025     A.U. after    2 cycles

 The electronic state is 1-A.
 Alpha  occ. eigenvalues --  -20.64564 -20.59458 -20.54452 -15.67283 -15.63757
 Alpha  occ. eigenvalues --  -11.43307 -11.37449 -11.32136 -11.27011  -1.45289
 Alpha  occ. eigenvalues --   -1.36368  -1.34545  -1.22601  -1.16827  -1.03589
 Alpha  occ. eigenvalues --   -0.93838  -0.84295  -0.81087  -0.77819  -0.73658
 Alpha  occ. eigenvalues --   -0.72120  -0.69452  -0.67907  -0.65805  -0.63570
 Alpha  occ. eigenvalues --   -0.63019  -0.61953  -0.58455  -0.55581  -0.54972
 Alpha  occ. eigenvalues --   -0.52040  -0.48776  -0.44034  -0.41468  -0.41154
 Alpha virt. eigenvalues --    0.02350   0.03242   0.04195   0.04621   0.06282
 Alpha virt. eigenvalues --    0.07264   0.07402   0.08173   0.09751   0.11216
 Alpha virt. eigenvalues --    0.11605   0.12630   0.12840   0.13608   0.14129

 Mulliken charges:
               1
     1  C    0.583554
     2  C    0.609112
     3  C    0.381300
     4  C    0.598213
     5  H    0.262698
     6  H    0.140598
     7  H   -0.144337
     8  H   -0.082650
     9  H   -0.083160
    10  H   -0.012691
    11  H    0.165464
    12  H   -0.002199
    13  N   -0.655563
    14  N   -0.172489
    15  O   -0.520764
    16  O   -0.542440
    17  O   -0.524646
 Sum of Mulliken charges =  -0.00000

 Dipole moment (field-independent basis, Debye):
    X=              2.5491    Y=              3.0348    Z=             -0.3939  Tot=              3.9829

 Test job not archived.
 1\1\GINC-SE184\SP\RHF\Aug-CC-pVDZ\C4H8N2O3\OHZDE\08-Apr-2025\0\\#t hf
 aug-cc-pvdz iop(5/13=1,5/36=2,99/5=2) pseudo=read geom=check guess=(re
 ad,tcheck) scf=(maxcycle=1)\\title\\0,1\C,0,0.655768,0.790812,0.53948\
 C,0,1.44636,-0.456704,0.199709\C,0,-0.750556,0.348197,1.11478\C,0,-1.7
 3663,-0.128827,-0.0673152\H,0,2.22786,0.838717,-0.628837\H,0,-0.25173,
 -1.44377,-0.593354\H,0,-1.70982,-1.77522,-1.40621\H,0,-0.603828,-0.497
 183,1.7042\H,0,1.05594,1.18605,1.4484\H,0,0.118977,2.61247,-0.332226\H
 ,0,0.708426,1.54078,-1.51647\H,0,-1.27006,1.28183,1.45321\N,0,0.720444

 Normal termination of Gaussian 16 at Tue Apr  8 22:11:50 2025.
