 Gaussian 16, Revision C.01,

 ----------------------------------------------------------------------
 #t hf aug-cc-pvdz symm=none int=(grid=ultrafine) guess=(read,tcheck) s
 table=(opt,rrhf)
 ----------------------------------------------------------------------
 -----
 title
 -----
 Symbolic Z-matrix:
 Charge =  0 Multiplicity = 1

 SCF Done:  E(RHF) =  -414.370325366     A.U. after   14 cycles
 Normal termination of Gaussian 16 at Tue Apr  8 21:35:41 2025.
 Gaussian 16:  ES64L-G16RevC.01  3-Jul-2019

 ----------------------------------------------------------------------
 #t hf aug-cc-pvdz iop(5/13=1,5/36=2,99/5=2) pseudo=read geom=check gue
 ss=(read,tcheck) scf=(maxcycle=1)
 ----------------------------------------------------------------------
 -----
 title
 -----
 Structure from the checkpoint file:  "ANI1ccx_410_conf6_mol1.chk"
 Charge =  0 Multiplicity = 1

                         Standard orientation:
 ---------------------------------------------------------------------
 Center     Atomic      Atomic             Coordinates (Angstroms)
 Number     Number       Type             X           Y           Z
 ---------------------------------------------------------------------
      1          6           0       -2.025810   -0.184153    0.073694
      2          1           0        3.385511    0.224840    1.021200
      3          1           0        0.928462   -0.897891   -0.313334
      4          1           0       -1.591789    1.703281    0.226290
      5          1           0       -0.955430   -0.342100    0.164311
      6          8           0        3.207180   -0.359557    0.274645
      7          8           0        2.250261    0.347227   -0.465507
      8          8           0        1.029181    0.014596   -0.025749
      9          8           0       -2.356529    1.105591    0.088506
     10          8           0       -2.831580   -1.055758   -0.064474
 ---------------------------------------------------------------------

 SCF Done:  E(RHF) =  -414.509169781     A.U. after    2 cycles

 The electronic state is 1-A.
 Alpha  occ. eigenvalues --  -20.73364 -20.68477 -20.67761 -20.63663 -20.57036
 Alpha  occ. eigenvalues --  -11.40161  -1.56420  -1.43048  -1.37682  -1.34047
 Alpha  occ. eigenvalues --   -1.14959  -0.88107  -0.85063  -0.80821  -0.75390
 Alpha  occ. eigenvalues --   -0.75092  -0.70529  -0.68310  -0.65046  -0.60673
 Alpha  occ. eigenvalues --   -0.57033  -0.56301  -0.53331  -0.50601  -0.48037
 Alpha virt. eigenvalues --    0.02583   0.04289   0.04892   0.06825   0.09600
 Alpha virt. eigenvalues --    0.10907   0.12364   0.12578   0.15638   0.15846
 Alpha virt. eigenvalues --    0.16839   0.17394   0.18488   0.21035   0.21106

 Mulliken charges:
               1
     1  C    0.978720
     2  H    0.234335
     3  H    0.261119
     4  H    0.217669
     5  H   -0.307118
     6  O   -0.176511
     7  O   -0.107995
     8  O   -0.200795
     9  O   -0.459295
    10  O   -0.440128
 Sum of Mulliken charges =   0.00000

 Dipole moment (field-independent basis, Debye):
    X=              4.4202    Y=              1.8962    Z=              1.6538  Tot=              5.0862

 Test job not archived.
 1\1\GINC-SE455\SP\RHF\Aug-CC-pVDZ\C1H4O5\OHZDE\08-Apr-2025\0\\#t hf au
 g-cc-pvdz iop(5/13=1,5/36=2,99/5=2) pseudo=read geom=check guess=(read
 ,tcheck) scf=(maxcycle=1)\\title\\0,1\C,0,-2.02581,-0.184154,0.073694\
 H,0,3.38551,0.224841,1.0212\H,0,0.928462,-0.897891,-0.313334\H,0,-1.59
 179,1.70328,0.22629\H,0,-0.95543,-0.342101,0.164311\O,0,3.20718,-0.359
 556,0.274645\O,0,2.25026,0.347227,-0.465507\O,0,1.02918,0.0145957,-0.0
 257492\O,0,-2.35653,1.10559,0.0885055\O,0,-2.83158,-1.05576,-0.0644738
 \\Version=ES64L-G16RevC.01\State=1-A\HF=-414.5091698\RMSD=2.546e-03\Di

 Normal termination of Gaussian 16 at Tue Apr  8 21:35:44 2025.
