 Gaussian 16, Revision C.01,

 ----------------------------------------------------------------------
 #t hf aug-cc-pvdz symm=none int=(grid=ultrafine) guess=(read,tcheck) s
 table=(opt,rrhf)
 ----------------------------------------------------------------------
 -----
 title
 -----
 Symbolic Z-matrix:
 Charge =  0 Multiplicity = 1

 SCF Done:  E(RHF) =  -334.535933693     A.U. after   14 cycles
 Normal termination of Gaussian 16 at Tue Apr  8 21:09:17 2025.
 Gaussian 16:  ES64L-G16RevC.01  3-Jul-2019

 ----------------------------------------------------------------------
 #t hf aug-cc-pvdz iop(5/13=1,5/36=2,99/5=2) pseudo=read geom=check gue
 ss=(read,tcheck) scf=(maxcycle=1)
 ----------------------------------------------------------------------
 -----
 title
 -----
 Structure from the checkpoint file:  "ANI1ccx_1859_conf3_mol1.chk"
 Charge =  0 Multiplicity = 1

                         Standard orientation:
 ---------------------------------------------------------------------
 Center     Atomic      Atomic             Coordinates (Angstroms)
 Number     Number       Type             X           Y           Z
 ---------------------------------------------------------------------
      1          1           0       -2.031660   -0.846722    0.846112
      2          1           0       -1.457091    1.319600   -0.810361
      3          7           0        2.171589    0.366579    0.180264
      4          7           0        1.950550   -0.636694   -0.178430
      5          8           0       -1.657790   -0.946646   -0.034111
      6          8           0       -0.530167   -0.108983    0.000642
      7          8           0       -0.982821    1.232870    0.027395
 ---------------------------------------------------------------------

 SCF Done:  E(RHF) =  -334.644205129     A.U. after    2 cycles

 The electronic state is 1-A.
 Alpha  occ. eigenvalues --  -20.71885 -20.66543 -20.66449 -15.73454 -15.73068
 Alpha  occ. eigenvalues --   -1.51638  -1.41590  -1.34621  -1.13920  -0.81560
 Alpha  occ. eigenvalues --   -0.73585  -0.71750  -0.71355  -0.68954  -0.60746
 Alpha  occ. eigenvalues --   -0.59654  -0.59521  -0.55902  -0.54140  -0.51541
 Alpha virt. eigenvalues --    0.03688   0.05014   0.10251   0.13077   0.13398
 Alpha virt. eigenvalues --    0.14434   0.14890   0.16304   0.16572   0.17088
 Alpha virt. eigenvalues --    0.19119   0.19398   0.20935   0.23621   0.25206

 Mulliken charges:
               1
     1  H    0.234100
     2  H    0.238261
     3  N   -0.031606
     4  N   -0.009128
     5  O   -0.206973
     6  O   -0.002927
     7  O   -0.221727
 Sum of Mulliken charges =  -0.00000

 Dipole moment (field-independent basis, Debye):
    X=             -1.9940    Y=              0.3876    Z=              0.0799  Tot=              2.0329

 Test job not archived.
 1\1\GINC-SE393\SP\RHF\Aug-CC-pVDZ\H2N2O3\OHZDE\08-Apr-2025\0\\#t hf au
 g-cc-pvdz iop(5/13=1,5/36=2,99/5=2) pseudo=read geom=check guess=(read
 ,tcheck) scf=(maxcycle=1)\\title\\0,1\H,0,-2.03166,-0.846722,0.846112\
 H,0,-1.45709,1.3196,-0.810361\N,0,2.17159,0.366578,0.180264\N,0,1.9505
 5,-0.636695,-0.17843\O,0,-1.65779,-0.946646,-0.0341111\O,0,-0.530166,-
 0.108983,0.00064213\O,0,-0.98282,1.23287,0.0273953\\Version=ES64L-G16R
 evC.01\State=1-A\HF=-334.6442051\RMSD=2.504e-03\Dipole=-0.7844929,0.15
 24888,0.031435\Quadrupole=1.6785991,-2.3291962,0.6505972,-0.9733789,-0

 Normal termination of Gaussian 16 at Tue Apr  8 21:09:19 2025.
