 Gaussian 16, Revision C.01,

 ----------------------------------------------------------------------
 #t hf aug-cc-pvdz symm=none int=(grid=ultrafine) guess=(read,tcheck) s
 table=(opt,rrhf)
 ----------------------------------------------------------------------
 -----
 title
 -----
 Symbolic Z-matrix:
 Charge =  0 Multiplicity = 1

 SCF Done:  E(RHF) =  -603.568583051     A.U. after   15 cycles
 Normal termination of Gaussian 16 at Tue Apr  8 22:17:17 2025.
 Gaussian 16:  ES64L-G16RevC.01  3-Jul-2019

 ----------------------------------------------------------------------
 #t hf aug-cc-pvdz iop(5/13=1,5/36=2,99/5=2) pseudo=read geom=check gue
 ss=(read,tcheck) scf=(maxcycle=1)
 ----------------------------------------------------------------------
 -----
 title
 -----
 Structure from the checkpoint file:  "ANI1ccx_999_conf19_mol1.chk"
 Charge =  0 Multiplicity = 1

                         Standard orientation:
 ---------------------------------------------------------------------
 Center     Atomic      Atomic             Coordinates (Angstroms)
 Number     Number       Type             X           Y           Z
 ---------------------------------------------------------------------
      1          6           0       -2.233150    0.086479   -0.546925
      2          6           0       -1.507870    0.147817    0.801234
      3          6           0        0.738163    0.209121   -0.223894
      4          6           0        1.718901   -0.879342    0.097051
      5          6           0        1.427849    1.556440   -0.341565
      6          1           0        0.363655   -2.177181   -0.298197
      7          1           0       -0.022481    2.716589   -0.038135
      8          1           0        2.269099    1.447411   -1.016780
      9          1           0        1.843609    1.848981    0.616203
     10          1           0        0.422492   -0.065536   -1.222790
     11          1           0       -1.763261    0.789345   -1.243140
     12          1           0       -3.175110    0.421504   -0.215354
     13          1           0       -1.890899   -1.258562   -2.193570
     14          1           0       -3.056139   -1.659563   -1.234550
     15          1           0        0.297786    0.091977    1.768380
     16          7           0       -2.190649   -1.215423   -1.209280
     17          7           0       -0.156501    0.074107    0.866118
     18          8           0        0.573482    2.528330   -0.869273
     19          8           0       -2.188700    0.241255    1.722390
     20          8           0        2.819670   -0.716041    0.611064
     21          8           0        1.330292   -2.164650   -0.368594
 ---------------------------------------------------------------------

 SCF Done:  E(RHF) =  -603.756977123     A.U. after    2 cycles

 The electronic state is 1-A.
 Alpha  occ. eigenvalues --  -20.62735 -20.61121 -20.58741 -20.55857 -15.67845
 Alpha  occ. eigenvalues --  -15.64068 -11.41835 -11.37111 -11.32014 -11.30877
 Alpha  occ. eigenvalues --  -11.29181  -1.42074  -1.40901  -1.35190  -1.33007
 Alpha  occ. eigenvalues --   -1.25365  -1.18167  -1.05607  -0.97695  -0.91871
 Alpha  occ. eigenvalues --   -0.83563  -0.82194  -0.76085  -0.73937  -0.72768
 Alpha  occ. eigenvalues --   -0.71290  -0.68932  -0.68663  -0.66564  -0.65664
 Alpha  occ. eigenvalues --   -0.63302  -0.62580  -0.61159  -0.59777  -0.58004
 Alpha  occ. eigenvalues --   -0.55880  -0.53965  -0.51760  -0.50186  -0.49409
 Alpha  occ. eigenvalues --   -0.47580  -0.42224  -0.40817
 Alpha virt. eigenvalues --    0.02384   0.03247   0.03935   0.04332   0.05904
 Alpha virt. eigenvalues --    0.06084   0.06510   0.07741   0.07975   0.09027
 Alpha virt. eigenvalues --    0.10018   0.11127   0.11754   0.12270   0.12407

 Mulliken charges:
               1
     1  C    0.739926
     2  C    0.149189
     3  C   -0.008702
     4  C    0.673675
     5  C    1.389038
     6  H    0.199947
     7  H    0.287023
     8  H   -0.156261
     9  H   -0.089746
    10  H   -0.086648
    11  H    0.005541
    12  H   -0.159574
    13  H   -0.001264
    14  H   -0.080711
    15  H   -0.061043
    16  N   -0.225567
    17  N   -0.483846
    18  O   -0.646960
    19  O   -0.385239
    20  O   -0.493220
    21  O   -0.565557
 Sum of Mulliken charges =  -0.00000

 Dipole moment (field-independent basis, Debye):
    X=             -3.0164    Y=              1.0022    Z=             -2.6391  Tot=              4.1313

 Test job not archived.
 1\1\GINC-SE364\SP\RHF\Aug-CC-pVDZ\C5H10N2O4\OHZDE\08-Apr-2025\0\\#t hf
  aug-cc-pvdz iop(5/13=1,5/36=2,99/5=2) pseudo=read geom=check guess=(r
 ead,tcheck) scf=(maxcycle=1)\\title\\0,1\C,0,-2.23315,0.0864811,-0.546
 925\C,0,-1.50787,0.147819,0.801234\C,0,0.738163,0.209121,-0.223894\C,0
 ,1.7189,-0.879343,0.0970515\C,0,1.42785,1.55644,-0.341565\H,0,0.363653
 ,-2.17718,-0.298197\H,0,-0.0224788,2.71659,-0.0381341\H,0,2.2691,1.447
 41,-1.01678\H,0,1.84361,1.84898,0.616203\H,0,0.422492,-0.0655358,-1.22
 279\H,0,-1.76326,0.789347,-1.24314\H,0,-3.17511,0.421507,-0.215354\H,0

 Normal termination of Gaussian 16 at Tue Apr  8 22:17:30 2025.
