 Gaussian 16, Revision C.01,

 ----------------------------------------------------------------------
 #t hf aug-cc-pvdz symm=none int=(grid=ultrafine) guess=(read,tcheck) s
 table=(opt,rrhf)
 ----------------------------------------------------------------------
 -----
 title
 -----
 Symbolic Z-matrix:
 Charge =  0 Multiplicity = 1

 SCF Done:  E(RHF) =  -356.586904728     A.U. after   14 cycles
 Normal termination of Gaussian 16 at Tue Apr  8 21:11:21 2025.
 Gaussian 16:  ES64L-G16RevC.01  3-Jul-2019

 ----------------------------------------------------------------------
 #t hf aug-cc-pvdz iop(5/13=1,5/36=2,99/5=2) pseudo=read geom=check gue
 ss=(read,tcheck) scf=(maxcycle=1)
 ----------------------------------------------------------------------
 -----
 title
 -----
 Structure from the checkpoint file:  "ANI1ccx_1890_conf1_mol1.chk"
 Charge =  0 Multiplicity = 1

                         Standard orientation:
 ---------------------------------------------------------------------
 Center     Atomic      Atomic             Coordinates (Angstroms)
 Number     Number       Type             X           Y           Z
 ---------------------------------------------------------------------
      1          1           0       -0.519855    1.036689   -0.870679
      2          1           0       -2.667412   -0.974156   -0.223652
      3          1           0        1.888817    0.683623    1.131560
      4          1           0        2.928547    0.531816   -0.802649
      5          1           0        3.195157   -0.810133    0.106233
      6          7           0        2.482177   -0.311703   -0.443889
      7          8           0       -1.297263    1.168398   -0.315211
      8          8           0       -1.271403    0.036893    0.534429
      9          8           0       -1.696572   -1.075222   -0.223684
     10          8           0        1.490177    0.084190    0.475268
 ---------------------------------------------------------------------

 SCF Done:  E(RHF) =  -356.702948282     A.U. after    2 cycles

 The electronic state is 1-A.
 Alpha  occ. eigenvalues --  -20.69456 -20.64310 -20.63899 -20.60811 -15.67917
 Alpha  occ. eigenvalues --   -1.48708  -1.36538  -1.32034  -1.11043  -1.05488
 Alpha  occ. eigenvalues --   -0.78657  -0.73508  -0.70049  -0.69308  -0.68883
 Alpha  occ. eigenvalues --   -0.65881  -0.59314  -0.52506  -0.52039  -0.50378
 Alpha  occ. eigenvalues --   -0.49839  -0.43122
 Alpha virt. eigenvalues --    0.03075   0.04799   0.05061   0.05290   0.07494
 Alpha virt. eigenvalues --    0.13738   0.13967   0.15441   0.18069   0.18904
 Alpha virt. eigenvalues --    0.19137   0.20149   0.20480   0.22094   0.22727

 Mulliken charges:
               1
     1  H    0.245163
     2  H    0.245553
     3  H    0.183575
     4  H    0.075249
     5  H    0.099959
     6  N    0.084398
     7  O   -0.198027
     8  O   -0.065098
     9  O   -0.218272
    10  O   -0.452501
 Sum of Mulliken charges =  -0.00000

 Dipole moment (field-independent basis, Debye):
    X=              2.4657    Y=              1.3278    Z=              0.0504  Tot=              2.8009

 Test job not archived.
 1\1\GINC-SE368\SP\RHF\Aug-CC-pVDZ\H5N1O4\OHZDE\08-Apr-2025\0\\#t hf au
 g-cc-pvdz iop(5/13=1,5/36=2,99/5=2) pseudo=read geom=check guess=(read
 ,tcheck) scf=(maxcycle=1)\\title\\0,1\H,0,-0.519852,1.03669,-0.870679\
 H,0,-2.66741,-0.974154,-0.223652\H,0,1.88882,0.683623,1.13156\H,0,2.92
 855,0.531815,-0.802649\H,0,3.19516,-0.810134,0.106233\N,0,2.48218,-0.3
 11703,-0.443889\O,0,-1.29726,1.1684,-0.315211\O,0,-1.2714,0.036895,0.5
 34429\O,0,-1.69657,-1.07522,-0.223684\O,0,1.49018,0.0841902,0.475268\\
 Version=ES64L-G16RevC.01\State=1-A\HF=-356.7029483\RMSD=2.121e-03\Dipo

 Normal termination of Gaussian 16 at Tue Apr  8 21:11:23 2025.
