 Gaussian 16, Revision C.01,

 ----------------------------------------------------------------------
 #t hf aug-cc-pvdz symm=none int=(grid=ultrafine) guess=(read,tcheck) s
 table=(opt,rrhf)
 ----------------------------------------------------------------------
 -----
 title
 -----
 Symbolic Z-matrix:
 Charge =  0 Multiplicity = 1

 SCF Done:  E(RHF) =  -509.541782453     A.U. after   14 cycles
 Normal termination of Gaussian 16 at Tue Apr  8 22:08:55 2025.
 Gaussian 16:  ES64L-G16RevC.01  3-Jul-2019

 ----------------------------------------------------------------------
 #t hf aug-cc-pvdz iop(5/13=1,5/36=2,99/5=2) pseudo=read geom=check gue
 ss=(read,tcheck) scf=(maxcycle=1)
 ----------------------------------------------------------------------
 -----
 title
 -----
 Structure from the checkpoint file:  "ANI1ccx_939_conf24_mol1.chk"
 Charge =  0 Multiplicity = 1

                         Standard orientation:
 ---------------------------------------------------------------------
 Center     Atomic      Atomic             Coordinates (Angstroms)
 Number     Number       Type             X           Y           Z
 ---------------------------------------------------------------------
      1          6           0       -0.790633    0.674891   -0.657505
      2          6           0       -1.259521   -0.654364   -0.078229
      3          6           0        0.760731    0.857968   -0.862910
      4          6           0        1.641809    0.072065    0.116589
      5          1           0       -1.933711    2.396900   -0.354139
      6          1           0       -1.722541    1.348400    0.900052
      7          1           0       -1.232101    0.705843   -1.648260
      8          1           0        1.097049    0.557124   -1.844220
      9          1           0        0.931789    1.876771   -0.641122
     10          1           0        1.837779   -0.417409    1.956830
     11          1           0       -1.090360   -2.583160   -0.349324
     12          7           0       -1.241521    1.780460    0.137100
     13          8           0       -2.134141   -0.693564    0.808099
     14          8           0        2.635369   -0.515085   -0.310561
     15          8           0        1.283619    0.182067    1.402300
     16          8           0       -0.698795   -1.729800   -0.660740
 ---------------------------------------------------------------------

 SCF Done:  E(RHF) =  -509.698848645     A.U. after    2 cycles

 The electronic state is 1-A.
 Alpha  occ. eigenvalues --  -20.65438 -20.64142 -20.58198 -20.56332 -15.61551
 Alpha  occ. eigenvalues --  -11.42597 -11.40696 -11.30824 -11.26027  -1.43532
 Alpha  occ. eigenvalues --   -1.42542  -1.33208  -1.32123  -1.18548  -1.03753
 Alpha  occ. eigenvalues --   -0.95299  -0.86298  -0.82161  -0.74403  -0.73267
 Alpha  occ. eigenvalues --   -0.72164  -0.69336  -0.67493  -0.65930  -0.64163
 Alpha  occ. eigenvalues --   -0.62848  -0.59032  -0.57532  -0.56403  -0.53901
 Alpha  occ. eigenvalues --   -0.51382  -0.49606  -0.48456  -0.46718  -0.40390
 Alpha virt. eigenvalues --    0.02796   0.03559   0.04225   0.05020   0.05775
 Alpha virt. eigenvalues --    0.07128   0.07771   0.09769   0.10607   0.11754
 Alpha virt. eigenvalues --    0.12371   0.13307   0.13459   0.14051   0.14427

 Mulliken charges:
               1
     1  C    0.005079
     2  C    0.887035
     3  C    0.396356
     4  C    0.689064
     5  H    0.059160
     6  H    0.071136
     7  H   -0.027788
     8  H   -0.036741
     9  H    0.017276
    10  H    0.213866
    11  H    0.228396
    12  N   -0.276363
    13  O   -0.567747
    14  O   -0.536769
    15  O   -0.544515
    16  O   -0.577443
 Sum of Mulliken charges =  -0.00000

 Dipole moment (field-independent basis, Debye):
    X=             -1.7429    Y=             -0.1269    Z=             -0.9894  Tot=              2.0082

 Test job not archived.
 1\1\GINC-SE082\SP\RHF\Aug-CC-pVDZ\C4H7N1O4\OHZDE\08-Apr-2025\0\\#t hf
 aug-cc-pvdz iop(5/13=1,5/36=2,99/5=2) pseudo=read geom=check guess=(re
 ad,tcheck) scf=(maxcycle=1)\\title\\0,1\C,0,-0.790632,0.674891,-0.6575
 05\C,0,-1.25952,-0.654364,-0.0782296\C,0,0.760732,0.857967,-0.86291\C,
 0,1.64181,0.0720646,0.116589\H,0,-1.93371,2.3969,-0.354139\H,0,-1.7225
 4,1.3484,0.900052\H,0,-1.2321,0.705843,-1.64826\H,0,1.09705,0.557123,-
 1.84422\H,0,0.93179,1.87677,-0.641122\H,0,1.83778,-0.41741,1.95683\H,0
 ,-1.09036,-2.58316,-0.349324\N,0,-1.24152,1.78046,0.1371\O,0,-2.13414,

 Normal termination of Gaussian 16 at Tue Apr  8 22:09:02 2025.
