 Gaussian 16, Revision C.01,

 ----------------------------------------------------------------------
 #t hf aug-cc-pvdz symm=none int=(grid=ultrafine) guess=(read,tcheck) s
 table=(opt,rrhf)
 ----------------------------------------------------------------------
 -----
 title
 -----
 Symbolic Z-matrix:
 Charge =  0 Multiplicity = 1

 SCF Done:  E(RHF) =  -509.550747759     A.U. after   14 cycles
 Normal termination of Gaussian 16 at Tue Apr  8 22:08:58 2025.
 Gaussian 16:  ES64L-G16RevC.01  3-Jul-2019

 ----------------------------------------------------------------------
 #t hf aug-cc-pvdz iop(5/13=1,5/36=2,99/5=2) pseudo=read geom=check gue
 ss=(read,tcheck) scf=(maxcycle=1)
 ----------------------------------------------------------------------
 -----
 title
 -----
 Structure from the checkpoint file:  "ANI1ccx_939_conf1_mol1.chk"
 Charge =  0 Multiplicity = 1

                         Standard orientation:
 ---------------------------------------------------------------------
 Center     Atomic      Atomic             Coordinates (Angstroms)
 Number     Number       Type             X           Y           Z
 ---------------------------------------------------------------------
      1          6           0       -0.828064    0.654489   -0.719774
      2          6           0       -1.256330   -0.641633   -0.100417
      3          6           0        0.693959    0.652979   -0.956487
      4          6           0        1.596080    0.120651    0.117442
      5          1           0       -1.483280    2.565111   -0.291824
      6          1           0       -1.949500    1.308751    0.766476
      7          1           0       -1.376220    0.815889   -1.624801
      8          1           0        1.000680    0.209914   -1.910011
      9          1           0        1.092880    1.684141   -1.094581
     10          1           0        1.735550   -0.263171    1.894919
     11          1           0       -0.809382   -2.461229   -0.205080
     12          7           0       -1.195460    1.721581    0.246335
     13          8           0       -2.122380   -0.742773    0.737752
     14          8           0        2.656730   -0.390571   -0.131491
     15          8           0        1.093010    0.203369    1.353499
     16          8           0       -0.511906   -1.648699   -0.622767
 ---------------------------------------------------------------------

 SCF Done:  E(RHF) =  -509.709424894     A.U. after    2 cycles

 The electronic state is 1-A.
 Alpha  occ. eigenvalues --  -20.64744 -20.62932 -20.58821 -20.56136 -15.61644
 Alpha  occ. eigenvalues --  -11.41960 -11.40195 -11.30453 -11.26648  -1.44623
 Alpha  occ. eigenvalues --   -1.43565  -1.35364  -1.33143  -1.17644  -1.04582
 Alpha  occ. eigenvalues --   -0.95671  -0.85565  -0.81616  -0.74961  -0.74305
 Alpha  occ. eigenvalues --   -0.72692  -0.69095  -0.67492  -0.66287  -0.64673
 Alpha  occ. eigenvalues --   -0.62311  -0.59953  -0.58334  -0.56864  -0.53289
 Alpha  occ. eigenvalues --   -0.52523  -0.50129  -0.48579  -0.46801  -0.40456
 Alpha virt. eigenvalues --    0.02770   0.03652   0.04391   0.04964   0.05692
 Alpha virt. eigenvalues --    0.06831   0.07671   0.09770   0.10953   0.11461
 Alpha virt. eigenvalues --    0.12233   0.13176   0.13678   0.14163   0.14660

 Mulliken charges:
               1
     1  C    0.269815
     2  C    0.788149
     3  C    0.317926
     4  C    0.530887
     5  H    0.054914
     6  H    0.049132
     7  H   -0.061398
     8  H   -0.013348
     9  H    0.082291
    10  H    0.188806
    11  H    0.188866
    12  N   -0.327526
    13  O   -0.513255
    14  O   -0.509299
    15  O   -0.523850
    16  O   -0.522110
 Sum of Mulliken charges =  -0.00000

 Dipole moment (field-independent basis, Debye):
    X=             -1.6318    Y=              0.3547    Z=             -1.6632  Tot=              2.3568

 Test job not archived.
 1\1\GINC-SE329\SP\RHF\Aug-CC-pVDZ\C4H7N1O4\OHZDE\08-Apr-2025\0\\#t hf
 aug-cc-pvdz iop(5/13=1,5/36=2,99/5=2) pseudo=read geom=check guess=(re
 ad,tcheck) scf=(maxcycle=1)\\title\\0,1\C,0,-0.828064,0.654488,-0.7197
 73\C,0,-1.25633,-0.641634,-0.100416\C,0,0.693959,0.652978,-0.956486\C,
 0,1.59608,0.12065,0.117443\H,0,-1.48328,2.56511,-0.291823\H,0,-1.9495,
 1.30875,0.766477\H,0,-1.37622,0.815888,-1.6248\H,0,1.00068,0.209913,-1
 .91001\H,0,1.09288,1.68414,-1.09458\H,0,1.73555,-0.263172,1.89492\H,0,
 -0.809381,-2.46123,-0.205079\N,0,-1.19546,1.72158,0.246336\O,0,-2.1223

 Normal termination of Gaussian 16 at Tue Apr  8 22:09:05 2025.
