 Gaussian 16, Revision C.01,

 ----------------------------------------------------------------------
 #t hf aug-cc-pvdz symm=none int=(grid=ultrafine) guess=(read,tcheck) s
 table=(opt,rrhf)
 ----------------------------------------------------------------------
 -----
 title
 -----
 Symbolic Z-matrix:
 Charge =  0 Multiplicity = 1

 SCF Done:  E(RHF) =  -480.777385868     A.U. after   14 cycles
 Normal termination of Gaussian 16 at Tue Apr  8 21:46:37 2025.
 Gaussian 16:  ES64L-G16RevC.01  3-Jul-2019

 ----------------------------------------------------------------------
 #t hf aug-cc-pvdz iop(5/13=1,5/36=2,99/5=2) pseudo=read geom=check gue
 ss=(read,tcheck) scf=(maxcycle=1)
 ----------------------------------------------------------------------
 -----
 title
 -----
 Structure from the checkpoint file:  "ANI1ccx_558_conf3_mol2.chk"
 Charge =  0 Multiplicity = 1

                         Standard orientation:
 ---------------------------------------------------------------------
 Center     Atomic      Atomic             Coordinates (Angstroms)
 Number     Number       Type             X           Y           Z
 ---------------------------------------------------------------------
      1          6           0        1.181699   -0.719287   -0.094107
      2          6           0       -1.102081   -0.679812    0.126145
      3          1           0       -2.026026    1.943834    0.397841
      4          1           0       -1.979437    1.280843   -1.095390
      5          1           0        1.215255    2.522947   -0.252139
      6          1           0        1.424554    1.825267    1.216580
      7          1           0       -0.038107   -2.491960    0.012357
      8          1           0       -2.544514   -1.979775    0.046019
      9          7           0       -1.396746    1.630362   -0.328664
     10          7           0       -0.648334    0.641246    0.281957
     11          7           0        0.689464    0.593053   -0.210195
     12          7           0        1.507194    1.648807    0.214871
     13          7           0        0.048425   -1.501871    0.066503
     14          7           0       -2.359542   -0.978106    0.084758
     15          8           0        2.323418   -1.117625   -0.160263
 ---------------------------------------------------------------------

 SCF Done:  E(RHF) =  -480.919242495     A.U. after    2 cycles

 The electronic state is 1-A.
 Alpha  occ. eigenvalues --  -20.56106 -15.73305 -15.72690 -15.69971 -15.67253
 Alpha  occ. eigenvalues --  -15.66891 -15.62408 -11.42555 -11.39992  -1.42227
 Alpha  occ. eigenvalues --   -1.35680  -1.26322  -1.24179  -1.15880  -1.08991
 Alpha  occ. eigenvalues --   -0.99745  -0.87385  -0.83313  -0.76480  -0.74449
 Alpha  occ. eigenvalues --   -0.70896  -0.70043  -0.67117  -0.66706  -0.65757
 Alpha  occ. eigenvalues --   -0.62034  -0.54532  -0.51112  -0.49060  -0.46329
 Alpha  occ. eigenvalues --   -0.44514  -0.43657  -0.42028  -0.36864
 Alpha virt. eigenvalues --    0.02413   0.03092   0.03704   0.04742   0.06630
 Alpha virt. eigenvalues --    0.07596   0.09800   0.10959   0.11183   0.12497
 Alpha virt. eigenvalues --    0.13041   0.13745   0.14614   0.15186   0.16035

 Mulliken charges:
               1
     1  C    0.902076
     2  C    1.136208
     3  H    0.093995
     4  H    0.077788
     5  H    0.122404
     6  H    0.085726
     7  H   -0.110304
     8  H   -0.010690
     9  N   -0.007075
    10  N   -0.605997
    11  N   -0.488651
    12  N    0.034386
    13  N   -0.391673
    14  N   -0.408480
    15  O   -0.429714
 Sum of Mulliken charges =  -0.00000

 Dipole moment (field-independent basis, Debye):
    X=             -3.4819    Y=              0.3123    Z=              0.7127  Tot=              3.5678

 Test job not archived.
 1\1\GINC-SE071\SP\RHF\Aug-CC-pVDZ\C2H6N6O1\OHZDE\08-Apr-2025\0\\#t hf
 aug-cc-pvdz iop(5/13=1,5/36=2,99/5=2) pseudo=read geom=check guess=(re
 ad,tcheck) scf=(maxcycle=1)\\title\\0,1\C,0,1.1817,-0.719284,-0.094106
 8\C,0,-1.10208,-0.679814,0.126145\H,0,-2.02603,1.94383,0.397841\H,0,-1
 .97944,1.28084,-1.09539\H,0,1.21525,2.52295,-0.252139\H,0,1.42455,1.82
 527,1.21658\H,0,-0.0381025,-2.49196,0.0123571\H,0,-2.54451,-1.97978,0.
 0460192\N,0,-1.39675,1.63036,-0.328664\N,0,-0.648336,0.641245,0.281957
 \N,0,0.689463,0.593055,-0.210195\N,0,1.50719,1.64881,0.214871\N,0,0.04

 Normal termination of Gaussian 16 at Tue Apr  8 21:46:43 2025.
