 Gaussian 16, Revision C.01,

 ----------------------------------------------------------------------
 #t hf aug-cc-pvdz symm=none int=(grid=ultrafine) guess=(read,tcheck) s
 table=(opt,rrhf)
 ----------------------------------------------------------------------
 -----
 title
 -----
 Symbolic Z-matrix:
 Charge =  0 Multiplicity = 1

 SCF Done:  E(RHF) =  -791.455025972     A.U. after   14 cycles
 Normal termination of Gaussian 16 at Tue Apr  8 20:36:40 2025.
 Gaussian 16:  ES64L-G16RevC.01  3-Jul-2019

 ----------------------------------------------------------------------
 #t hf aug-cc-pvdz iop(5/13=1,5/36=2,99/5=2) pseudo=read geom=check gue
 ss=(read,tcheck) scf=(maxcycle=1)
 ----------------------------------------------------------------------
 -----
 title
 -----
 Structure from the checkpoint file:  "ANI1ccx_1745_conf14_mol2.chk"
 Charge =  0 Multiplicity = 1

                         Standard orientation:
 ---------------------------------------------------------------------
 Center     Atomic      Atomic             Coordinates (Angstroms)
 Number     Number       Type             X           Y           Z
 ---------------------------------------------------------------------
      1          6           0        2.128479   -1.872291    0.133527
      2          6           0        1.514340   -0.414655    0.333164
      3          6           0        3.259279   -2.103562    1.158990
      4          6           0       -0.237398    1.151720   -0.482676
      5          6           0        0.701175    2.414570   -0.276916
      6          6           0       -1.339299    1.128141    0.582053
      7          6           0       -2.338410    0.089418    0.262984
      8          6           0       -3.453100   -0.259961    0.944262
      9          6           0       -3.144811   -1.503927   -0.815055
     10          1           0        2.326182    3.100849   -0.949813
     11          1           0       -4.808601   -1.825186    0.417101
     12          1           0       -3.238421   -2.332177   -1.522100
     13          1           0       -3.875070    0.152198    1.820540
     14          1           0       -1.834488    2.043312    0.662621
     15          1           0       -0.925270    0.932596    1.597850
     16          1           0       -0.720972    1.267241   -1.531670
     17          1           0        2.934069   -1.983472    2.231780
     18          1           0        3.984739   -1.369443    1.006990
     19          1           0        3.794108   -3.100732    0.995848
     20          1           0        1.370608   -2.569041    0.321477
     21          1           0        3.266419   -1.316962   -1.499430
     22          1           0        1.957769   -2.321971   -1.869550
     23          1           0        0.208597   -0.866314   -1.211720
     24          7           0        2.704949   -2.148592   -1.155500
     25          7           0        0.545012   -0.081582   -0.614463
     26          7           0       -2.136250   -0.727109   -0.834928
     27          7           0       -3.992911   -1.301677    0.237321
     28          8           0        0.354348    3.410430    0.348993
     29          8           0        1.935750    0.328949    1.202930
     30          8           0        1.856552    2.288759   -0.919295
 ---------------------------------------------------------------------

 SCF Done:  E(RHF) =  -791.691559189     A.U. after    2 cycles

 The electronic state is 1-A.
 Alpha  occ. eigenvalues --  -20.61839 -20.55473 -20.53770 -15.69398 -15.64701
 Alpha  occ. eigenvalues --  -15.62333 -15.62162 -11.40134 -11.35827 -11.32029
 Alpha  occ. eigenvalues --  -11.31181 -11.27364 -11.27293 -11.26467 -11.23599
 Alpha  occ. eigenvalues --  -11.21507  -1.42275  -1.34188  -1.33361  -1.31396
 Alpha  occ. eigenvalues --   -1.19550  -1.16578  -1.15525  -1.06305  -1.00082
 Alpha  occ. eigenvalues --   -0.97230  -0.92558  -0.86528  -0.83984  -0.82342
 Alpha  occ. eigenvalues --   -0.79504  -0.77281  -0.74026  -0.71766  -0.70781
 Alpha  occ. eigenvalues --   -0.69273  -0.66788  -0.64797  -0.64300  -0.63178
 Alpha  occ. eigenvalues --   -0.62444  -0.61639  -0.60538  -0.59025  -0.58411
 Alpha  occ. eigenvalues --   -0.56988  -0.54371  -0.53142  -0.52161  -0.50838
 Alpha  occ. eigenvalues --   -0.50778  -0.50092  -0.48938  -0.46715  -0.45685
 Alpha  occ. eigenvalues --   -0.45461  -0.41690  -0.39366  -0.37259  -0.32789
 Alpha virt. eigenvalues --    0.01727   0.02674   0.03621   0.04023   0.04785
 Alpha virt. eigenvalues --    0.05493   0.05810   0.06383   0.06940   0.07434
 Alpha virt. eigenvalues --    0.08176   0.08482   0.08778   0.09592   0.10023

 Mulliken charges:
               1
     1  C    0.485460
     2  C    0.254654
     3  C    0.743561
     4  C    0.160753
     5  C    0.971958
     6  C    0.470808
     7  C   -0.810382
     8  C    1.596613
     9  C    0.625835
    10  H    0.205192
    11  H   -0.116478
    12  H   -0.323256
    13  H   -0.412306
    14  H   -0.071098
    15  H    0.108967
    16  H    0.047382
    17  H   -0.003544
    18  H   -0.290456
    19  H    0.067453
    20  H   -0.373012
    21  H    0.131098
    22  H    0.030839
    23  H    0.042515
    24  N   -0.467392
    25  N   -0.391985
    26  N   -0.437773
    27  N   -0.611417
    28  O   -0.558320
    29  O   -0.501436
    30  O   -0.574232
 Sum of Mulliken charges =  -0.00000

 Dipole moment (field-independent basis, Debye):
    X=             -5.3550    Y=             -3.8057    Z=             -2.6752  Tot=              7.0934

 Test job not archived.
 1\1\GINC-SE038\SP\RHF\Aug-CC-pVDZ\C9H14N4O3\OHZDE\08-Apr-2025\0\\#t hf
  aug-cc-pvdz iop(5/13=1,5/36=2,99/5=2) pseudo=read geom=check guess=(r
 ead,tcheck) scf=(maxcycle=1)\\title\\0,1\C,0,2.12848,-1.87229,0.133527
 \C,0,1.51434,-0.414654,0.333164\C,0,3.25928,-2.10356,1.15899\C,0,-0.23
 7399,1.15172,-0.482676\C,0,0.701173,2.41457,-0.276916\C,0,-1.3393,1.12
 814,0.582053\C,0,-2.33841,0.089416,0.262984\C,0,-3.4531,-0.259964,0.94
 4262\C,0,-3.14481,-1.50393,-0.815055\H,0,2.32618,3.10085,-0.949813\H,0
 ,-4.8086,-1.82519,0.417101\H,0,-3.23842,-2.33218,-1.5221\H,0,-3.87507,

 Normal termination of Gaussian 16 at Tue Apr  8 20:37:19 2025.
