 Gaussian 16, Revision C.01,

 ----------------------------------------------------------------------
 #t hf aug-cc-pvdz symm=none int=(grid=ultrafine) guess=(read,tcheck) s
 table=(opt,rrhf)
 ----------------------------------------------------------------------
 -----
 title
 -----
 Symbolic Z-matrix:
 Charge =  0 Multiplicity = 1

 SCF Done:  E(RHF) =  -723.898283305     A.U. after   15 cycles
 Normal termination of Gaussian 16 at Tue Apr  8 22:07:01 2025.
 Gaussian 16:  ES64L-G16RevC.01  3-Jul-2019

 ----------------------------------------------------------------------
 #t hf aug-cc-pvdz iop(5/13=1,5/36=2,99/5=2) pseudo=read geom=check gue
 ss=(read,tcheck) scf=(maxcycle=1)
 ----------------------------------------------------------------------
 -----
 title
 -----
 Structure from the checkpoint file:  "ANI1ccx_85_conf1_mol1.chk"
 Charge =  0 Multiplicity = 1

                         Standard orientation:
 ---------------------------------------------------------------------
 Center     Atomic      Atomic             Coordinates (Angstroms)
 Number     Number       Type             X           Y           Z
 ---------------------------------------------------------------------
      1          6           0       -1.513379    0.126448   -0.275651
      2          6           0        3.711361    1.028678   -0.851579
      3          6           0        2.469781    1.130239    0.075990
      4          6           0        1.990920   -1.460051   -0.104236
      5          6           0        1.436741    0.005116   -0.091440
      6          6           0        1.819931    2.495969    0.087588
      7          6           0       -4.046230   -0.643698    0.158148
      8          6           0       -3.020919    0.474306   -0.114993
      9          6           0       -0.820711    0.169305    1.050460
     10          6           0       -3.476579    1.316161   -1.323890
     11          1           0        0.828848    0.134524   -0.998850
     12          1           0        0.404030   -1.903511   -1.029670
     13          1           0        1.370211    2.707799    1.070580
     14          1           0        2.643922    3.218349   -0.131309
     15          1           0        1.017181    2.653959   -0.687410
     16          1           0        3.525791    1.163718   -1.902120
     17          1           0        4.483641    1.770658   -0.521188
     18          1           0        4.215991    0.072147   -0.781680
     19          1           0        2.788651    0.895842    1.147470
     20          1           0        0.951541    0.096759    1.929880
     21          1           0       -4.454319    1.675511   -1.252270
     22          1           0       -3.382909    0.736336   -2.239160
     23          1           0       -3.796960   -1.360369    0.943889
     24          1           0       -5.019329   -0.226612    0.504491
     25          1           0       -4.311250   -1.168689   -0.783138
     26          1           0       -3.013739    1.018020    0.786194
     27          1           0       -1.072369    0.717158   -1.032330
     28          1           0       -1.899160   -1.601890   -1.403970
     29          1           0       -1.385130   -1.865280    0.050450
     30          1           0       -2.764869    2.203490   -1.415670
     31          7           0       -1.220500   -1.249720   -0.768951
     32          7           0        0.523884    0.084254    1.000140
     33          8           0        3.076840   -1.653811    0.339509
     34          8           0       -1.437999    0.161671    2.117140
     35          8           0        1.166290   -2.337171   -0.648512
 ---------------------------------------------------------------------

 SCF Done:  E(RHF) =  -724.120705234     A.U. after    2 cycles

 The electronic state is 1-A.
 Alpha  occ. eigenvalues --  -20.60685 -20.55672 -20.55020 -15.66435 -15.65307
 Alpha  occ. eigenvalues --  -11.39220 -11.37910 -11.30380 -11.29824 -11.26127
 Alpha  occ. eigenvalues --  -11.24835 -11.24435 -11.24154 -11.24091 -11.22807
 Alpha  occ. eigenvalues --   -1.42327  -1.36087  -1.34094  -1.23710  -1.20026
 Alpha  occ. eigenvalues --   -1.07961  -1.07410  -0.98507  -0.96307  -0.93907
 Alpha  occ. eigenvalues --   -0.93533  -0.85544  -0.83875  -0.80391  -0.78327
 Alpha  occ. eigenvalues --   -0.75159  -0.74133  -0.68621  -0.67871  -0.66884
 Alpha  occ. eigenvalues --   -0.65328  -0.63921  -0.62976  -0.62714  -0.61808
 Alpha  occ. eigenvalues --   -0.60688  -0.59268  -0.57509  -0.56169  -0.55896
 Alpha  occ. eigenvalues --   -0.55419  -0.54224  -0.53530  -0.51979  -0.51161
 Alpha  occ. eigenvalues --   -0.50358  -0.49427  -0.49034  -0.48488  -0.47169
 Alpha  occ. eigenvalues --   -0.46647  -0.45269  -0.43297  -0.39368
 Alpha virt. eigenvalues --    0.02290   0.03175   0.03494   0.04015   0.05094
 Alpha virt. eigenvalues --    0.05333   0.05575   0.06196   0.06473   0.06987
 Alpha virt. eigenvalues --    0.07093   0.07475   0.08153   0.08311   0.09148

 Mulliken charges:
               1
     1  C    0.899399
     2  C    0.820277
     3  C   -0.630331
     4  C    0.754508
     5  C    0.205134
     6  C    0.741759
     7  C    0.767440
     8  C   -0.451315
     9  C   -0.125067
    10  C    1.083858
    11  H   -0.260219
    12  H    0.280076
    13  H    0.034151
    14  H   -0.063131
    15  H    0.058665
    16  H   -0.123301
    17  H    0.012025
    18  H   -0.138419
    19  H   -0.013501
    20  H   -0.052566
    21  H   -0.343882
    22  H    0.028387
    23  H   -0.112875
    24  H   -0.066114
    25  H   -0.008226
    26  H   -0.221887
    27  H   -0.849450
    28  H   -0.023689
    29  H    0.216984
    30  H    0.146651
    31  N   -0.725748
    32  N   -0.439202
    33  O   -0.490059
    34  O   -0.529763
    35  O   -0.380569
 Sum of Mulliken charges =  -0.00000

 Dipole moment (field-independent basis, Debye):
    X=             -3.0773    Y=              2.5739    Z=             -3.7010  Tot=              5.4582

 Test job not archived.
 1\1\GINC-SE338\SP\RHF\Aug-CC-pVDZ\C10H20N2O3\OHZDE\08-Apr-2025\0\\#t h
 f aug-cc-pvdz iop(5/13=1,5/36=2,99/5=2) pseudo=read geom=check guess=(
 read,tcheck) scf=(maxcycle=1)\\title\\0,1\C,0,-1.51338,0.126448,-0.275
 651\C,0,3.71136,1.02868,-0.851579\C,0,2.46978,1.13024,0.0759899\C,0,1.
 99092,-1.46005,-0.104236\C,0,1.43674,0.00511669,-0.0914399\C,0,1.81993
 ,2.49597,0.0875881\C,0,-4.04623,-0.643699,0.158148\C,0,-3.02092,0.4743
 06,-0.114993\C,0,-0.820712,0.169305,1.05046\C,0,-3.47658,1.31616,-1.32
 389\H,0,0.828847,0.134525,-0.99885\H,0,0.40403,-1.90351,-1.02967\H,0,1

 Normal termination of Gaussian 16 at Tue Apr  8 22:07:44 2025.
