 Gaussian 16, Revision C.01,

 ----------------------------------------------------------------------
 #t hf aug-cc-pvdz symm=none int=(grid=ultrafine) guess=(read,tcheck) s
 table=(opt,rrhf)
 ----------------------------------------------------------------------
 -----
 title
 -----
 Symbolic Z-matrix:
 Charge =  0 Multiplicity = 1

 SCF Done:  E(RHF) =  -491.028158411     A.U. after   15 cycles

 1\1\GINC-SE103\Stability\RHF\Aug-CC-pVDZ\C7H14N4\OHZDE\08-Apr-2025\0\\
 #t hf aug-cc-pvdz symm=none int=(grid=ultrafine) guess=(read,tcheck) s
 table=(opt,rrhf)\\title\\0,1\C,0,1.47649,-0.597576,2.04779\C,0,2.03001
 ,0.172624,0.827036\C,0,1.32268,-0.231064,-0.467912\C,0,1.79381,0.67659
 9,-1.6262\C,0,1.58308,-1.69457,-0.759009\C,0,-0.854385,0.817674,-0.054
 9937\C,0,-2.78378,-0.581002,-0.0170705\H,0,-2.8393,1.35749,-0.431409\H
 ,0,0.480031,2.27663,0.37766\H,0,-1.04886,2.46751,1.05645\H,0,1.1062,-2
 .27658,0.0554665\H,0,1.00563,-1.97221,-1.63287\H,0,2.68311,-1.84739,-0

 Normal termination of Gaussian 16 at Tue Apr  8 19:35:02 2025.
 Gaussian 16:  ES64L-G16RevC.01  3-Jul-2019

 ----------------------------------------------------------------------
 #t hf aug-cc-pvdz iop(5/13=1,5/36=2,99/5=2) pseudo=read geom=check gue
 ss=(read,tcheck) scf=(maxcycle=1)
 ----------------------------------------------------------------------
 -----
 title
 -----
 Structure from the checkpoint file:  "ANI1ccx_1436_conf3_mol1.chk"
 Charge =  0 Multiplicity = 1

                         Standard orientation:
 ---------------------------------------------------------------------
 Center     Atomic      Atomic             Coordinates (Angstroms)
 Number     Number       Type             X           Y           Z
 ---------------------------------------------------------------------
      1          6           0        1.476491   -0.597576    2.047790
      2          6           0        2.030011    0.172624    0.827036
      3          6           0        1.322681   -0.231064   -0.467912
      4          6           0        1.793811    0.676599   -1.626200
      5          6           0        1.583081   -1.694570   -0.759009
      6          6           0       -0.854384    0.817673   -0.054994
      7          6           0       -2.783779   -0.581003   -0.017071
      8          1           0       -2.839299    1.357489   -0.431409
      9          1           0        0.480032    2.276630    0.377660
     10          1           0       -1.048859    2.467509    1.056450
     11          1           0        1.106202   -2.276580    0.055466
     12          1           0        1.005632   -1.972210   -1.632870
     13          1           0        2.683111   -1.847390   -0.840913
     14          1           0        1.358921    1.734820   -1.472630
     15          1           0        2.934621    0.766437   -1.688040
     16          1           0        3.078291    0.026401    0.579794
     17          1           0        1.885241    1.242130    1.051000
     18          1           0        1.892961   -1.639780    2.099780
     19          1           0        0.312286   -0.771510    1.906670
     20          1           0        1.684001   -0.066886    3.082500
     21          1           0        1.388051    0.230771   -2.570300
     22          7           0       -2.273989    0.651076    0.090508
     23          7           0       -0.155306   -0.147699   -0.423799
     24          7           0       -0.537996    2.179539    0.243738
     25          7           0       -3.222519   -1.669191   -0.092018
 ---------------------------------------------------------------------

 SCF Done:  E(RHF) =  -491.172257632     A.U. after    2 cycles

 The electronic state is 1-A.
 Alpha  occ. eigenvalues --  -15.70450 -15.66772 -15.63182 -15.61207 -11.38628
 Alpha  occ. eigenvalues --  -11.32031 -11.28494 -11.25285 -11.24981 -11.24729
 Alpha  occ. eigenvalues --  -11.22250  -1.30773  -1.21494  -1.16912  -1.14501
 Alpha  occ. eigenvalues --   -1.07417  -0.98860  -0.93258  -0.87076  -0.85101
 Alpha  occ. eigenvalues --   -0.80330  -0.74647  -0.71760  -0.66714  -0.66430
 Alpha  occ. eigenvalues --   -0.63499  -0.61104  -0.59400  -0.58023  -0.55744
 Alpha  occ. eigenvalues --   -0.54229  -0.53958  -0.51906  -0.51684  -0.50838
 Alpha  occ. eigenvalues --   -0.49970  -0.47395  -0.46273  -0.44946  -0.41503
 Alpha  occ. eigenvalues --   -0.40078  -0.38029
 Alpha virt. eigenvalues --    0.02162   0.03116   0.03419   0.04461   0.05742
 Alpha virt. eigenvalues --    0.05928   0.06544   0.06758   0.07207   0.07991
 Alpha virt. eigenvalues --    0.08852   0.09066   0.09260   0.10292   0.10797

 Mulliken charges:
               1
     1  C    0.092045
     2  C    1.055192
     3  C   -2.910185
     4  C    0.898596
     5  C    1.093427
     6  C    0.573250
     7  C   -0.346918
     8  H    0.096488
     9  H    0.119529
    10  H   -0.010379
    11  H    0.078842
    12  H   -0.025447
    13  H    0.165769
    14  H    0.062498
    15  H    0.078610
    16  H   -0.136074
    17  H   -0.201933
    18  H   -0.067315
    19  H    0.072993
    20  H    0.010230
    21  H    0.080575
    22  N   -0.350930
    23  N   -0.038166
    24  N   -0.250991
    25  N   -0.139708
 Sum of Mulliken charges =  -0.00000

 Dipole moment (field-independent basis, Debye):
    X=              2.9637    Y=              4.9943    Z=              0.8830  Tot=              5.8742

 Test job not archived.
 1\1\GINC-SE103\SP\RHF\Aug-CC-pVDZ\C7H14N4\OHZDE\08-Apr-2025\0\\#t hf a
 ug-cc-pvdz iop(5/13=1,5/36=2,99/5=2) pseudo=read geom=check guess=(rea
 d,tcheck) scf=(maxcycle=1)\\title\\0,1\C,0,1.47649,-0.597576,2.04779\C
 ,0,2.03001,0.172624,0.827036\C,0,1.32268,-0.231064,-0.467912\C,0,1.793
 81,0.676599,-1.6262\C,0,1.58308,-1.69457,-0.759009\C,0,-0.854385,0.817
 674,-0.0549937\C,0,-2.78378,-0.581002,-0.0170705\H,0,-2.8393,1.35749,-
 0.431409\H,0,0.480031,2.27663,0.37766\H,0,-1.04886,2.46751,1.05645\H,0
 ,1.1062,-2.27658,0.0554665\H,0,1.00563,-1.97221,-1.63287\H,0,2.68311,-

 Normal termination of Gaussian 16 at Tue Apr  8 19:35:26 2025.
