 Gaussian 16, Revision C.01,

 ----------------------------------------------------------------------
 #t hf aug-cc-pvdz symm=none int=(grid=ultrafine) guess=(read,tcheck) s
 table=(opt,rrhf)
 ----------------------------------------------------------------------
 -----
 title
 -----
 Symbolic Z-matrix:
 Charge =  0 Multiplicity = 1

 SCF Done:  E(RHF) =  -849.434243614     A.U. after   14 cycles
 Normal termination of Gaussian 16 at Tue Apr  8 20:14:57 2025.
 Gaussian 16:  ES64L-G16RevC.01  3-Jul-2019

 ----------------------------------------------------------------------
 #t hf aug-cc-pvdz iop(5/13=1,5/36=2,99/5=2) pseudo=read geom=check gue
 ss=(read,tcheck) scf=(maxcycle=1)
 ----------------------------------------------------------------------
 -----
 title
 -----
 Structure from the checkpoint file:  "ANI1ccx_1611_conf14_mol1.chk"
 Charge =  0 Multiplicity = 1

                         Standard orientation:
 ---------------------------------------------------------------------
 Center     Atomic      Atomic             Coordinates (Angstroms)
 Number     Number       Type             X           Y           Z
 ---------------------------------------------------------------------
      1          6           0        2.185859    0.389547   -0.822812
      2          6           0        0.962708   -0.509183   -0.301599
      3          6           0        3.539860    0.025410   -0.037400
      4          6           0        3.954839    0.676056    1.254000
      5          6           0       -1.208630   -0.485758    0.691085
      6          6           0       -2.243779   -1.415712    0.087991
      7          6           0       -2.008991    0.667302    1.292080
      8          6           0       -2.470461    1.595768    0.152452
      9          1           0       -1.084849   -2.289361   -1.149540
     10          1           0       -3.857460    0.230277   -0.271310
     11          1           0       -3.740961    1.585687   -1.511470
     12          1           0       -2.846191    0.308813    1.840950
     13          1           0       -1.428321    1.344859    1.949270
     14          1           0       -0.608270   -1.164901    1.353610
     15          1           0       -0.053067    1.101390    0.065108
     16          1           0        4.211579    1.726662    1.113180
     17          1           0        3.193079    0.809830    1.927470
     18          1           0        4.981850    0.245606    1.653930
     19          1           0        3.127201   -1.794958    0.601252
     20          1           0        4.309470    0.270968   -0.807105
     21          1           0        2.428610   -0.003610   -1.812180
     22          1           0        2.825188    2.163232   -1.529530
     23          1           0        1.913078    2.339891   -0.131707
     24          7           0        2.024208    1.850961   -0.971895
     25          7           0       -0.139366    0.132981   -0.089069
     26          7           0       -3.498021    1.165168   -0.603875
     27          8           0        1.101561   -1.756750   -0.279234
     28          8           0        3.752331   -1.402708    0.042457
     29          8           0       -3.277289   -1.523582    0.737877
     30          8           0       -1.794302    2.533289   -0.169268
     31          8           0       -2.075689   -2.172592   -1.023440
 ---------------------------------------------------------------------

 SCF Done:  E(RHF) =  -849.691712347     A.U. after    2 cycles

 The electronic state is 1-A.
 Alpha  occ. eigenvalues --  -20.65022 -20.58370 -20.56406 -20.55455 -20.55067
 Alpha  occ. eigenvalues --  -15.68668 -15.66242 -15.63602 -11.43258 -11.39402
 Alpha  occ. eigenvalues --  -11.37880 -11.34529 -11.31068 -11.30848 -11.27793
 Alpha  occ. eigenvalues --  -11.24306  -1.43617  -1.37954  -1.36947  -1.34530
 Alpha  occ. eigenvalues --   -1.31495  -1.26100  -1.19008  -1.17832  -1.08898
 Alpha  occ. eigenvalues --   -1.02630  -0.96977  -0.94434  -0.86851  -0.84475
 Alpha  occ. eigenvalues --   -0.83059  -0.80112  -0.77801  -0.74484  -0.72812
 Alpha  occ. eigenvalues --   -0.70753  -0.70434  -0.69297  -0.68575  -0.66989
 Alpha  occ. eigenvalues --   -0.65857  -0.64110  -0.63157  -0.62672  -0.62023
 Alpha  occ. eigenvalues --   -0.61108  -0.60442  -0.58735  -0.57702  -0.55928
 Alpha  occ. eigenvalues --   -0.55312  -0.53916  -0.51618  -0.51352  -0.50659
 Alpha  occ. eigenvalues --   -0.50220  -0.47523  -0.45840  -0.45549  -0.43702
 Alpha  occ. eigenvalues --   -0.42948  -0.39481
 Alpha virt. eigenvalues --    0.02291   0.03058   0.03542   0.04147   0.04888
 Alpha virt. eigenvalues --    0.05327   0.06050   0.06316   0.07006   0.07194
 Alpha virt. eigenvalues --    0.07546   0.08107   0.08910   0.09426   0.09606

 Mulliken charges:
               1
     1  C    0.665127
     2  C   -0.284921
     3  C    0.518581
     4  C    0.462033
     5  C    0.346817
     6  C    0.822049
     7  C    0.688920
     8  C    0.635504
     9  H    0.235595
    10  H    0.185612
    11  H    0.000931
    12  H   -0.254036
    13  H   -0.027773
    14  H    0.020298
    15  H    0.009871
    16  H   -0.107615
    17  H   -0.318682
    18  H    0.163431
    19  H    0.134115
    20  H   -0.217881
    21  H   -0.009832
    22  H    0.053375
    23  H   -0.017310
    24  N   -0.278820
    25  N   -0.115886
    26  N   -0.369870
    27  O   -0.617040
    28  O   -0.578809
    29  O   -0.607986
    30  O   -0.562382
    31  O   -0.573418
 Sum of Mulliken charges =  -0.00000

 Dipole moment (field-independent basis, Debye):
    X=              0.9607    Y=              3.1160    Z=              1.2369  Tot=              3.4874

 Test job not archived.
 1\1\GINC-SE078\SP\RHF\Aug-CC-pVDZ\C8H15N3O5\OHZDE\08-Apr-2025\0\\#t hf
  aug-cc-pvdz iop(5/13=1,5/36=2,99/5=2) pseudo=read geom=check guess=(r
 ead,tcheck) scf=(maxcycle=1)\\title\\0,1\C,0,2.18586,0.389546,-0.82281
 2\C,0,0.962708,-0.509183,-0.301599\C,0,3.53986,0.0254077,-0.0374007\C,
 0,3.95484,0.676054,1.254\C,0,-1.20863,-0.485757,0.691085\C,0,-2.24378,
 -1.41571,0.0879907\C,0,-2.00899,0.667304,1.29208\C,0,-2.47046,1.59577,
 0.152452\H,0,-1.08485,-2.28936,-1.14954\H,0,-3.85746,0.23028,-0.27131\
 H,0,-3.74096,1.58569,-1.51147\H,0,-2.84619,0.308815,1.84095\H,0,-1.428

 Normal termination of Gaussian 16 at Tue Apr  8 20:15:37 2025.
