 Gaussian 16, Revision C.01,

 ----------------------------------------------------------------------
 #t hf aug-cc-pvdz symm=none int=(grid=ultrafine) guess=(read,tcheck) s
 table=(opt,rrhf)
 ----------------------------------------------------------------------
 -----
 title
 -----
 Symbolic Z-matrix:
 Charge =  0 Multiplicity = 1

 SCF Done:  E(RHF) =  -446.831561865     A.U. after   13 cycles
 Normal termination of Gaussian 16 at Tue Apr  8 21:46:21 2025.
 Gaussian 16:  ES64L-G16RevC.01  3-Jul-2019

 ----------------------------------------------------------------------
 #t hf aug-cc-pvdz iop(5/13=1,5/36=2,99/5=2) pseudo=read geom=check gue
 ss=(read,tcheck) scf=(maxcycle=1)
 ----------------------------------------------------------------------
 -----
 title
 -----
 Structure from the checkpoint file:  "ANI1ccx_555_conf2_mol1.chk"
 Charge =  0 Multiplicity = 1

                         Standard orientation:
 ---------------------------------------------------------------------
 Center     Atomic      Atomic             Coordinates (Angstroms)
 Number     Number       Type             X           Y           Z
 ---------------------------------------------------------------------
      1          6           0        1.638711   -0.181298   -0.104713
      2          6           0       -1.744939   -0.033166    0.022916
      3          1           0        3.611541    0.347483   -0.431059
      4          1           0        2.666990    1.679761    0.330617
      5          1           0        0.664895    1.065710    1.247800
      6          1           0       -0.407193   -1.345121    0.842012
      7          1           0       -1.035220    1.786879   -0.848571
      8          1           0       -2.718430    1.572708   -0.851177
      9          7           0        2.771660    0.657667    0.060094
     10          7           0        0.501843    0.397540    0.484128
     11          7           0       -0.632030   -0.375006    0.697056
     12          7           0       -1.828690    1.254468   -0.484482
     13          8           0        1.649902   -1.309849   -0.616910
     14          8           0       -2.629239   -0.860566   -0.020142
 ---------------------------------------------------------------------

 SCF Done:  E(RHF) =  -446.970914385     A.U. after    2 cycles

 The electronic state is 1-A.
 Alpha  occ. eigenvalues --  -20.56281 -20.52538 -15.70472 -15.68621 -15.67921
 Alpha  occ. eigenvalues --  -15.65299 -11.43086 -11.39616  -1.38415  -1.36189
 Alpha  occ. eigenvalues --   -1.28398  -1.19035  -1.16717  -1.08128  -0.85330
 Alpha  occ. eigenvalues --   -0.84239  -0.76179  -0.75025  -0.73839  -0.68375
 Alpha  occ. eigenvalues --   -0.66580  -0.64907  -0.62817  -0.60958  -0.59276
 Alpha  occ. eigenvalues --   -0.49075  -0.47275  -0.46453  -0.44629  -0.42491
 Alpha  occ. eigenvalues --   -0.40223
 Alpha virt. eigenvalues --    0.01305   0.03249   0.03696   0.04938   0.06518
 Alpha virt. eigenvalues --    0.07296   0.10572   0.10702   0.12261   0.13012
 Alpha virt. eigenvalues --    0.13896   0.14282   0.14980   0.15508   0.16492

 Mulliken charges:
               1
     1  C    1.029137
     2  C    0.783142
     3  H    0.028307
     4  H    0.068485
     5  H    0.018690
     6  H   -0.009926
     7  H    0.058772
     8  H    0.001900
     9  N   -0.333497
    10  N   -0.453862
    11  N   -0.005160
    12  N   -0.198310
    13  O   -0.500429
    14  O   -0.487249
 Sum of Mulliken charges =  -0.00000

 Dipole moment (field-independent basis, Debye):
    X=              4.0994    Y=              6.6432    Z=              1.0275  Tot=              7.8736

 Test job not archived.
 1\1\GINC-SE094\SP\RHF\Aug-CC-pVDZ\C2H6N4O2\OHZDE\08-Apr-2025\0\\#t hf
 aug-cc-pvdz iop(5/13=1,5/36=2,99/5=2) pseudo=read geom=check guess=(re
 ad,tcheck) scf=(maxcycle=1)\\title\\0,1\C,0,1.63871,-0.181299,-0.10471
 3\C,0,-1.74494,-0.0331642,0.0229158\H,0,3.61154,0.347481,-0.431059\H,0
 ,2.66699,1.67976,0.330617\H,0,0.664895,1.06571,1.2478\H,0,-0.407195,-1
 .34512,0.842012\H,0,-1.03522,1.78688,-0.848571\H,0,-2.71843,1.57271,-0
 .851177\N,0,2.77166,0.657666,0.0600944\N,0,0.501843,0.39754,0.484128\N
 ,0,-0.632031,-0.375005,0.697056\N,0,-1.82869,1.25447,-0.484482\O,0,1.6

 Normal termination of Gaussian 16 at Tue Apr  8 21:46:26 2025.
