 Gaussian 16, Revision C.01,

 ----------------------------------------------------------------------
 #t hf aug-cc-pvdz symm=none int=(grid=ultrafine) guess=(read,tcheck) s
 table=(opt,rrhf)
 ----------------------------------------------------------------------
 -----
 title
 -----
 Symbolic Z-matrix:
 Charge =  0 Multiplicity = 1

 SCF Done:  E(RHF) =  -356.582158727     A.U. after   15 cycles
 Normal termination of Gaussian 16 at Tue Apr  8 21:42:37 2025.
 Gaussian 16:  ES64L-G16RevC.01  3-Jul-2019

 ----------------------------------------------------------------------
 #t hf aug-cc-pvdz iop(5/13=1,5/36=2,99/5=2) pseudo=read geom=check gue
 ss=(read,tcheck) scf=(maxcycle=1)
 ----------------------------------------------------------------------
 -----
 title
 -----
 Structure from the checkpoint file:  "ANI1ccx_498_conf1_mol1.chk"
 Charge =  0 Multiplicity = 1

                         Standard orientation:
 ---------------------------------------------------------------------
 Center     Atomic      Atomic             Coordinates (Angstroms)
 Number     Number       Type             X           Y           Z
 ---------------------------------------------------------------------
      1          6           0       -0.794451   -0.208873    0.099604
      2          6           0        0.785029   -0.106687    0.053391
      3          1           0       -2.371811    1.012607    0.271870
      4          1           0       -0.973278    1.898388    0.106349
      5          1           0        2.067469    1.178491   -0.079984
      6          7           0       -1.373341    1.006668   -0.141198
      7          8           0       -1.345588   -1.258802   -0.010223
      8          8           0        1.144909    1.135051    0.029853
      9          8           0        1.569121   -1.031599   -0.048107
 ---------------------------------------------------------------------

 SCF Done:  E(RHF) =  -356.695854683     A.U. after    2 cycles

 The electronic state is 1-A.
 Alpha  occ. eigenvalues --  -20.66073 -20.58726 -20.58036 -15.67875 -11.42764
 Alpha  occ. eigenvalues --  -11.40494  -1.48615  -1.39683  -1.34920  -1.20284
 Alpha  occ. eigenvalues --   -0.97012  -0.83410  -0.78552  -0.75215  -0.70030
 Alpha  occ. eigenvalues --   -0.68428  -0.66143  -0.63490  -0.60524  -0.52629
 Alpha  occ. eigenvalues --   -0.51910  -0.46826  -0.44821
 Alpha virt. eigenvalues --    0.02296   0.03355   0.05923   0.07000   0.09347
 Alpha virt. eigenvalues --    0.10055   0.10576   0.11772   0.12699   0.14173
 Alpha virt. eigenvalues --    0.15054   0.16529   0.16946   0.18735   0.20063

 Mulliken charges:
               1
     1  C    0.506290
     2  C    0.614706
     3  H    0.159199
     4  H    0.033206
     5  H    0.166941
     6  N   -0.256589
     7  O   -0.418141
     8  O   -0.368551
     9  O   -0.437062
 Sum of Mulliken charges =  -0.00000

 Dipole moment (field-independent basis, Debye):
    X=              0.0450    Y=              5.8083    Z=              1.2078  Tot=              5.9327

 Test job not archived.
 1\1\GINC-SE099\SP\RHF\Aug-CC-pVDZ\C2H3N1O3\OHZDE\08-Apr-2025\0\\#t hf
 aug-cc-pvdz iop(5/13=1,5/36=2,99/5=2) pseudo=read geom=check guess=(re
 ad,tcheck) scf=(maxcycle=1)\\title\\0,1\C,0,-0.794452,-0.208872,0.0996
 038\C,0,0.785028,-0.106687,0.0533912\H,0,-2.37181,1.01261,0.27187\H,0,
 -0.973277,1.89839,0.106349\H,0,2.06747,1.17849,-0.0799835\N,0,-1.37334
 ,1.00667,-0.141198\O,0,-1.34559,-1.2588,-0.0102232\O,0,1.14491,1.13505
 ,0.0298532\O,0,1.56912,-1.0316,-0.0481071\\Version=ES64L-G16RevC.01\St
 ate=1-A\HF=-356.6958547\RMSD=3.637e-03\Dipole=0.0176878,2.2851648,0.47

 Normal termination of Gaussian 16 at Tue Apr  8 21:42:40 2025.
