 Gaussian 16, Revision C.01,

 ----------------------------------------------------------------------
 #t hf aug-cc-pvdz symm=none int=(grid=ultrafine) guess=(read,tcheck) s
 table=(opt,rrhf)
 ----------------------------------------------------------------------
 -----
 title
 -----
 Symbolic Z-matrix:
 Charge =  0 Multiplicity = 1

 SCF Done:  E(RHF) =  -635.465836727     A.U. after   17 cycles

 1\1\GINC-SE367\Stability\RHF\Aug-CC-pVDZ\C8H10N6\OHZDE\08-Apr-2025\0\\
 #t hf aug-cc-pvdz symm=none int=(grid=ultrafine) guess=(read,tcheck) s
 table=(opt,rrhf)\\title\\0,1\C,0,1.36958,-0.750453,-0.0165764\C,0,-1.0
 8897,-0.714763,0.0418545\C,0,-2.30686,-1.3759,-0.00798286\C,0,-3.51666
 ,-0.68538,-0.0171052\C,0,-3.49009,0.716359,-0.0147688\C,0,-2.28024,1.3
 8083,-0.00110659\C,0,-1.07172,0.683935,0.0123089\C,0,1.38552,0.745912,
 -0.00283216\H,0,3.17623,3.20266,0.296301\H,0,2.10227,3.13714,-0.878633
 \H,0,0.186042,2.33735,0.1457\H,0,-2.23208,2.47759,0.0167319\H,0,-4.398

 Normal termination of Gaussian 16 at Tue Apr  8 19:48:44 2025.
 Gaussian 16:  ES64L-G16RevC.01  3-Jul-2019

 ----------------------------------------------------------------------
 #t hf aug-cc-pvdz iop(5/13=1,5/36=2,99/5=2) pseudo=read geom=check gue
 ss=(read,tcheck) scf=(maxcycle=1)
 ----------------------------------------------------------------------
 -----
 title
 -----
 Structure from the checkpoint file:  "ANI1ccx_1548_conf11_mol2.chk"
 Charge =  0 Multiplicity = 1

                         Standard orientation:
 ---------------------------------------------------------------------
 Center     Atomic      Atomic             Coordinates (Angstroms)
 Number     Number       Type             X           Y           Z
 ---------------------------------------------------------------------
      1          6           0        1.369580   -0.750454   -0.016576
      2          6           0       -1.088970   -0.714763    0.041854
      3          6           0       -2.306860   -1.375899   -0.007983
      4          6           0       -3.516660   -0.685379   -0.017105
      5          6           0       -3.490089    0.716360   -0.014769
      6          6           0       -2.280239    1.380831   -0.001107
      7          6           0       -1.071719    0.683935    0.012309
      8          6           0        1.385521    0.745911   -0.002832
      9          1           0        3.176232    3.202658    0.296301
     10          1           0        2.102272    3.137139   -0.878633
     11          1           0        0.186044    2.337350    0.145700
     12          1           0       -2.232078    2.477591    0.016732
     13          1           0       -4.398489    1.332782   -0.009456
     14          1           0       -2.286600   -2.447809   -0.037232
     15          1           0        0.204582   -2.364370   -0.134870
     16          1           0        3.180939   -3.231932   -0.240564
     17          1           0        2.044839   -3.048561    0.904011
     18          1           0       -4.465040   -1.224458   -0.012370
     19          7           0        2.498951    1.390319    0.056706
     20          7           0        2.260329   -2.804931   -0.057772
     21          7           0        2.475720   -1.383881   -0.119402
     22          7           0        0.143491   -1.376020    0.096180
     23          7           0        0.144381    1.352480   -0.063019
     24          7           0        2.260542    2.797229    0.085540
 ---------------------------------------------------------------------

 SCF Done:  E(RHF) =  -635.646336973     A.U. after    2 cycles

 The electronic state is 1-A.
 Alpha  occ. eigenvalues --  -15.66786 -15.66745 -15.64977 -15.64952 -15.63947
 Alpha  occ. eigenvalues --  -15.63890 -11.33947 -11.33712 -11.30237 -11.30129
 Alpha  occ. eigenvalues --  -11.25425 -11.25368 -11.25276 -11.25131  -1.31414
 Alpha  occ. eigenvalues --   -1.27014  -1.23383  -1.18697  -1.13923  -1.07933
 Alpha  occ. eigenvalues --   -1.03766  -1.00385  -0.99585  -0.89373  -0.85358
 Alpha  occ. eigenvalues --   -0.84295  -0.75995  -0.72569  -0.72065  -0.71946
 Alpha  occ. eigenvalues --   -0.67473  -0.67000  -0.63957  -0.63440  -0.62371
 Alpha  occ. eigenvalues --   -0.61444  -0.60472  -0.56469  -0.55301  -0.54734
 Alpha  occ. eigenvalues --   -0.53644  -0.51577  -0.50095  -0.48991  -0.42597
 Alpha  occ. eigenvalues --   -0.41773  -0.37799  -0.35719  -0.31443  -0.28426
 Alpha virt. eigenvalues --    0.02825   0.02987   0.03832   0.04606   0.05030
 Alpha virt. eigenvalues --    0.05161   0.06524   0.07043   0.08632   0.09233
 Alpha virt. eigenvalues --    0.09631   0.10005   0.11341   0.11776   0.12090

 Mulliken charges:
               1
     1  C    0.635693
     2  C   -0.023801
     3  C    1.297459
     4  C    0.494639
     5  C    0.472573
     6  C    0.712989
     7  C    0.075608
     8  C    0.700787
     9  H    0.034069
    10  H    0.099670
    11  H   -0.014088
    12  H   -0.636953
    13  H   -0.444123
    14  H   -0.688802
    15  H    0.009589
    16  H    0.047156
    17  H    0.075331
    18  H   -0.436424
    19  N   -0.589729
    20  N   -0.116957
    21  N   -0.580316
    22  N   -0.527106
    23  N   -0.455223
    24  N   -0.142039
 Sum of Mulliken charges =  -0.00000

 Dipole moment (field-independent basis, Debye):
    X=             -2.1283    Y=              0.0478    Z=              0.0910  Tot=              2.1307

 Test job not archived.
 1\1\GINC-SE367\SP\RHF\Aug-CC-pVDZ\C8H10N6\OHZDE\08-Apr-2025\0\\#t hf a
 ug-cc-pvdz iop(5/13=1,5/36=2,99/5=2) pseudo=read geom=check guess=(rea
 d,tcheck) scf=(maxcycle=1)\\title\\0,1\C,0,1.36958,-0.750453,-0.016576
 4\C,0,-1.08897,-0.714763,0.0418545\C,0,-2.30686,-1.3759,-0.00798286\C,
 0,-3.51666,-0.68538,-0.0171052\C,0,-3.49009,0.716359,-0.0147688\C,0,-2
 .28024,1.38083,-0.00110659\C,0,-1.07172,0.683935,0.0123089\C,0,1.38552
 ,0.745912,-0.00283216\H,0,3.17623,3.20266,0.296301\H,0,2.10227,3.13714
 ,-0.878633\H,0,0.186042,2.33735,0.1457\H,0,-2.23208,2.47759,0.0167319\

 Normal termination of Gaussian 16 at Tue Apr  8 19:49:03 2025.
