 Gaussian 16, Revision C.01,

 ----------------------------------------------------------------------
 #t hf aug-cc-pvdz symm=none int=(grid=ultrafine) guess=(read,tcheck) s
 table=(opt,rrhf)
 ----------------------------------------------------------------------
 -----
 title
 -----
 Symbolic Z-matrix:
 Charge =  0 Multiplicity = 1

 SCF Done:  E(RHF) =  -720.698202453     A.U. after   14 cycles
 Normal termination of Gaussian 16 at Tue Apr  8 20:14:48 2025.
 Gaussian 16:  ES64L-G16RevC.01  3-Jul-2019

 ----------------------------------------------------------------------
 #t hf aug-cc-pvdz iop(5/13=1,5/36=2,99/5=2) pseudo=read geom=check gue
 ss=(read,tcheck) scf=(maxcycle=1)
 ----------------------------------------------------------------------
 -----
 title
 -----
 Structure from the checkpoint file:  "ANI1ccx_1618_conf11_mol1.chk"
 Charge =  0 Multiplicity = 1

                         Standard orientation:
 ---------------------------------------------------------------------
 Center     Atomic      Atomic             Coordinates (Angstroms)
 Number     Number       Type             X           Y           Z
 ---------------------------------------------------------------------
      1          6           0       -2.329750   -0.676468   -0.172696
      2          6           0       -0.833575   -0.709842    0.164761
      3          6           0       -2.727940    0.812692   -0.006647
      4          6           0        1.284880    0.310486   -0.673504
      5          6           0        2.322400   -0.844055   -0.647862
      6          6           0        1.623180    1.343900    0.497531
      7          6           0        0.740598    2.568110    0.389827
      8          6           0        1.546170    0.702552    1.886981
      9          1           0        1.169180   -2.018820    0.209163
     10          1           0        1.965370   -0.339908    1.922031
     11          1           0        0.512914    0.615170    2.303931
     12          1           0        2.095810    1.355460    2.582961
     13          1           0        1.030330    3.349820    1.066191
     14          1           0       -0.349311    2.427850    0.564810
     15          1           0        0.793486    3.042700   -0.650256
     16          1           0        2.709830    1.635310    0.259392
     17          1           0       -0.668527    0.529957   -1.414939
     18          1           0       -2.963210    2.386840   -1.129329
     19          1           0       -2.176070    1.358250    0.760333
     20          1           0       -3.741550    0.684673    0.422232
     21          1           0       -2.416570   -0.836030   -1.249249
     22          1           0       -3.090050   -2.562990   -0.026353
     23          1           0       -2.831290   -1.723730    1.407331
     24          1           0        1.488700    0.861448   -1.613029
     25          7           0       -3.200690   -1.657280    0.459932
     26          7           0       -0.130226   -0.056761   -0.784515
     27          8           0        3.458480   -0.491218   -0.970265
     28          8           0       -0.405188   -1.490900    0.993702
     29          8           0       -2.503820    1.536020   -1.177389
     30          8           0        1.954480   -2.030400   -0.317728
 ---------------------------------------------------------------------

 SCF Done:  E(RHF) =  -720.918058039     A.U. after    2 cycles

 The electronic state is 1-A.
 Alpha  occ. eigenvalues --  -20.61787 -20.61531 -20.57134 -20.54384 -15.67055
 Alpha  occ. eigenvalues --  -15.63491 -11.39545 -11.38599 -11.31596 -11.30638
 Alpha  occ. eigenvalues --  -11.29790 -11.26614 -11.24467 -11.23702  -1.43526
 Alpha  occ. eigenvalues --   -1.38660  -1.37091  -1.31405  -1.23262  -1.17939
 Alpha  occ. eigenvalues --   -1.08317  -1.01981  -0.96798  -0.93612  -0.88694
 Alpha  occ. eigenvalues --   -0.86308  -0.81933  -0.79445  -0.76630  -0.75019
 Alpha  occ. eigenvalues --   -0.72974  -0.69228  -0.68161  -0.67556  -0.66072
 Alpha  occ. eigenvalues --   -0.64369  -0.63914  -0.62629  -0.60928  -0.59917
 Alpha  occ. eigenvalues --   -0.59482  -0.57816  -0.56643  -0.54700  -0.54153
 Alpha  occ. eigenvalues --   -0.51328  -0.50832  -0.49937  -0.48890  -0.48851
 Alpha  occ. eigenvalues --   -0.47249  -0.46445  -0.45975  -0.41374  -0.40435
 Alpha virt. eigenvalues --    0.02019   0.03415   0.03463   0.03818   0.05306
 Alpha virt. eigenvalues --    0.05446   0.05772   0.05998   0.07004   0.07851
 Alpha virt. eigenvalues --    0.08025   0.08174   0.08798   0.09212   0.10400

 Mulliken charges:
               1
     1  C    0.384985
     2  C    0.105424
     3  C    1.161318
     4  C    0.485725
     5  C    0.740318
     6  C   -1.228694
     7  C    0.987691
     8  C    0.725288
     9  H    0.201607
    10  H   -0.021468
    11  H    0.033911
    12  H   -0.123477
    13  H   -0.124924
    14  H   -0.354305
    15  H    0.067977
    16  H    0.013190
    17  H    0.011307
    18  H    0.179469
    19  H   -0.378082
    20  H   -0.037609
    21  H   -0.058194
    22  H    0.054615
    23  H    0.086201
    24  H   -0.183435
    25  N   -0.428555
    26  N   -0.128415
    27  O   -0.570946
    28  O   -0.572408
    29  O   -0.626882
    30  O   -0.401633
 Sum of Mulliken charges =  -0.00000

 Dipole moment (field-independent basis, Debye):
    X=             -5.9832    Y=              3.9703    Z=              0.2331  Tot=              7.1845

 Test job not archived.
 1\1\GINC-SE116\SP\RHF\Aug-CC-pVDZ\C8H16N2O4\OHZDE\08-Apr-2025\0\\#t hf
  aug-cc-pvdz iop(5/13=1,5/36=2,99/5=2) pseudo=read geom=check guess=(r
 ead,tcheck) scf=(maxcycle=1)\\title\\0,1\C,0,-2.32975,-0.676468,-0.172
 697\C,0,-0.833575,-0.709842,0.16476\C,0,-2.72794,0.812692,-0.00664771\
 C,0,1.28488,0.310486,-0.673505\C,0,2.3224,-0.844055,-0.647863\C,0,1.62
 318,1.3439,0.49753\C,0,0.740598,2.56811,0.389826\C,0,1.54617,0.702552,
 1.88698\H,0,1.16918,-2.01882,0.209162\H,0,1.96537,-0.339908,1.92203\H,
 0,0.512914,0.61517,2.30393\H,0,2.09581,1.35546,2.58296\H,0,1.03033,3.3

 Normal termination of Gaussian 16 at Tue Apr  8 20:15:25 2025.
