 Gaussian 16, Revision C.01,

 ----------------------------------------------------------------------
 #t hf aug-cc-pvdz symm=none int=(grid=ultrafine) guess=(read,tcheck) s
 table=(opt,rrhf)
 ----------------------------------------------------------------------
 -----
 title
 -----
 Symbolic Z-matrix:
 Charge =  0 Multiplicity = 1

 SCF Done:  E(RHF) =  -480.061119769     A.U. after   16 cycles
 Normal termination of Gaussian 16 at Tue Apr  8 21:38:47 2025.
 Gaussian 16:  ES64L-G16RevC.01  3-Jul-2019

 ----------------------------------------------------------------------
 #t hf aug-cc-pvdz iop(5/13=1,5/36=2,99/5=2) pseudo=read geom=check gue
 ss=(read,tcheck) scf=(maxcycle=1)
 ----------------------------------------------------------------------
 -----
 title
 -----
 Structure from the checkpoint file:  "ANI1ccx_456_conf12_mol2.chk"
 Charge =  0 Multiplicity = 1

                         Standard orientation:
 ---------------------------------------------------------------------
 Center     Atomic      Atomic             Coordinates (Angstroms)
 Number     Number       Type             X           Y           Z
 ---------------------------------------------------------------------
      1          6           0       -0.051966   -0.072282   -0.024951
      2          7           0        1.404879   -0.010741   -0.023252
      3          7           0       -0.771384   -1.149850   -0.032051
      4          7           0       -2.040032   -0.651655    0.004836
      5          7           0       -2.075381    0.590684    0.023136
      6          8           0        1.837379    1.120189   -0.009259
      7          8           0        1.993258   -1.063581    0.041208
      8          8           0       -0.744984    1.066470    0.010678
 ---------------------------------------------------------------------

 SCF Done:  E(RHF) =  -480.200773644     A.U. after    2 cycles

 The electronic state is 1-A.
 Alpha  occ. eigenvalues --  -20.76042 -20.68188 -20.68078 -15.99020 -15.82737
 Alpha  occ. eigenvalues --  -15.79333 -15.75261 -11.48282  -1.62950  -1.58656
 Alpha  occ. eigenvalues --   -1.44531  -1.38006  -1.26933  -1.08773  -0.96454
 Alpha  occ. eigenvalues --   -0.90668  -0.85866  -0.81484  -0.79808  -0.75967
 Alpha  occ. eigenvalues --   -0.75679  -0.64800  -0.59101  -0.58031  -0.57799
 Alpha  occ. eigenvalues --   -0.54791  -0.53627  -0.52705  -0.49575
 Alpha virt. eigenvalues --   -0.01995   0.06278   0.06438   0.07607   0.08537
 Alpha virt. eigenvalues --    0.09009   0.11662   0.12468   0.15044   0.15203
 Alpha virt. eigenvalues --    0.16745   0.17465   0.18259   0.19133   0.19996

 Mulliken charges:
               1
     1  C    1.184155
     2  N    0.388965
     3  N   -0.238030
     4  N   -0.017270
     5  N    0.151382
     6  O   -0.505473
     7  O   -0.496954
     8  O   -0.466775
 Sum of Mulliken charges =   0.00000

 Dipole moment (field-independent basis, Debye):
    X=             -1.0042    Y=              0.3019    Z=             -0.1264  Tot=              1.0562

 Test job not archived.
 1\1\GINC-SE364\SP\RHF\Aug-CC-pVDZ\C1N4O3\OHZDE\08-Apr-2025\0\\#t hf au
 g-cc-pvdz iop(5/13=1,5/36=2,99/5=2) pseudo=read geom=check guess=(read
 ,tcheck) scf=(maxcycle=1)\\title\\0,1\C,0,-0.0519644,-0.0722821,-0.024
 9508\N,0,1.40488,-0.0107406,-0.0232524\N,0,-0.771382,-1.14985,-0.03205
 14\N,0,-2.04003,-0.651656,0.004836\N,0,-2.07538,0.590683,0.0231364\O,0
 ,1.83738,1.12019,-0.0092587\O,0,1.99326,-1.06358,0.0412085\O,0,-0.7449
 83,1.06647,0.0106783\\Version=ES64L-G16RevC.01\State=1-A\HF=-480.20077
 36\RMSD=3.584e-03\Dipole=-0.3950816,0.1187751,-0.0497234\Quadrupole=-2

 Normal termination of Gaussian 16 at Tue Apr  8 21:38:50 2025.
