 Gaussian 16, Revision C.01,

 ----------------------------------------------------------------------
 #t hf aug-cc-pvdz symm=none int=(grid=ultrafine) guess=(read,tcheck) s
 table=(opt,rrhf)
 ----------------------------------------------------------------------
 -----
 title
 -----
 Symbolic Z-matrix:
 Charge =  0 Multiplicity = 1

 SCF Done:  E(RHF) =  -334.539160115     A.U. after   14 cycles
 Normal termination of Gaussian 16 at Tue Apr  8 21:09:18 2025.
 Gaussian 16:  ES64L-G16RevC.01  3-Jul-2019

 ----------------------------------------------------------------------
 #t hf aug-cc-pvdz iop(5/13=1,5/36=2,99/5=2) pseudo=read geom=check gue
 ss=(read,tcheck) scf=(maxcycle=1)
 ----------------------------------------------------------------------
 -----
 title
 -----
 Structure from the checkpoint file:  "ANI1ccx_1859_conf1_mol1.chk"
 Charge =  0 Multiplicity = 1

                         Standard orientation:
 ---------------------------------------------------------------------
 Center     Atomic      Atomic             Coordinates (Angstroms)
 Number     Number       Type             X           Y           Z
 ---------------------------------------------------------------------
      1          1           0        1.696361    1.492807   -0.541639
      2          1           0        0.908837   -1.469332   -0.454267
      3          7           0       -2.674781   -0.571468   -0.011163
      4          7           0       -2.138950    0.401445    0.013142
      5          8           0        0.851076    1.098738   -0.235470
      6          8           0        1.303480    0.048160    0.595454
      7          8           0        1.731809   -1.001063   -0.237227
 ---------------------------------------------------------------------

 SCF Done:  E(RHF) =  -334.645700646     A.U. after    2 cycles

 The electronic state is 1-A.
 Alpha  occ. eigenvalues --  -20.71702 -20.66181 -20.66169 -15.75656 -15.75318
 Alpha  occ. eigenvalues --   -1.51007  -1.41411  -1.34047  -1.12897  -0.80713
 Alpha  occ. eigenvalues --   -0.75408  -0.71749  -0.71023  -0.67662  -0.61863
 Alpha  occ. eigenvalues --   -0.59999  -0.59962  -0.54379  -0.53943  -0.52278
 Alpha virt. eigenvalues --    0.03987   0.04934   0.10792   0.12070   0.12921
 Alpha virt. eigenvalues --    0.13059   0.14233   0.15086   0.15783   0.18207
 Alpha virt. eigenvalues --    0.19187   0.20700   0.21875   0.21968   0.23030

 Mulliken charges:
               1
     1  H    0.272873
     2  H    0.226167
     3  N   -0.028904
     4  N    0.025089
     5  O   -0.213628
     6  O   -0.105693
     7  O   -0.175904
 Sum of Mulliken charges =  -0.00000

 Dipole moment (field-independent basis, Debye):
    X=              0.0759    Y=             -0.0010    Z=             -1.2289  Tot=              1.2313

 Test job not archived.
 1\1\GINC-SE362\SP\RHF\Aug-CC-pVDZ\H2N2O3\OHZDE\08-Apr-2025\0\\#t hf au
 g-cc-pvdz iop(5/13=1,5/36=2,99/5=2) pseudo=read geom=check guess=(read
 ,tcheck) scf=(maxcycle=1)\\title\\0,1\H,0,1.69636,1.49281,-0.541639\H,
 0,0.908838,-1.46933,-0.454267\N,0,-2.67478,-0.571468,-0.011163\N,0,-2.
 13895,0.401445,0.0131416\O,0,0.851075,1.09874,-0.23547\O,0,1.30348,0.0
 481627,0.595454\O,0,1.73181,-1.00106,-0.237227\\Version=ES64L-G16RevC.
 01\State=1-A\HF=-334.6457006\RMSD=2.392e-03\Dipole=0.0298716,-0.000392
 2,-0.4834895\Quadrupole=-1.1309376,1.8301189,-0.6991813,2.6454363,-1.3

 Normal termination of Gaussian 16 at Tue Apr  8 21:09:19 2025.
