 Gaussian 16, Revision C.01,

 ----------------------------------------------------------------------
 #t hf aug-cc-pvdz symm=none int=(grid=ultrafine) guess=(read,tcheck) s
 table=(opt,rrhf)
 ----------------------------------------------------------------------
 -----
 title
 -----
 Symbolic Z-matrix:
 Charge =  0 Multiplicity = 1

 SCF Done:  E(RHF) =  -355.463529441     A.U. after   17 cycles
 Normal termination of Gaussian 16 at Tue Apr  8 21:10:18 2025.
 Gaussian 16:  ES64L-G16RevC.01  3-Jul-2019

 ----------------------------------------------------------------------
 #t hf aug-cc-pvdz iop(5/13=1,5/36=2,99/5=2) pseudo=read geom=check gue
 ss=(read,tcheck) scf=(maxcycle=1)
 ----------------------------------------------------------------------
 -----
 title
 -----
 Structure from the checkpoint file:  "ANI1ccx_1871_conf9_mol1.chk"
 Charge =  0 Multiplicity = 1

                         Standard orientation:
 ---------------------------------------------------------------------
 Center     Atomic      Atomic             Coordinates (Angstroms)
 Number     Number       Type             X           Y           Z
 ---------------------------------------------------------------------
      1          1           0        3.421382   -0.142245   -0.518066
      2          1           0       -1.488068    0.927697   -0.450405
      3          1           0       -3.414018   -0.352109    0.589446
      4          7           0        1.664492    0.452821   -0.182439
      5          8           0        2.654132   -0.464114   -0.011225
      6          8           0        0.612012    0.134174    0.332045
      7          8           0       -1.639398    0.178176    0.120597
      8          8           0       -2.898088   -0.298622   -0.234405
 ---------------------------------------------------------------------

 SCF Done:  E(RHF) =  -355.577851869     A.U. after    2 cycles

 The electronic state is 1-A.
 Alpha  occ. eigenvalues --  -20.66935 -20.65976 -20.62246 -20.62156 -15.85440
 Alpha  occ. eigenvalues --   -1.52749  -1.43364  -1.37879  -1.17384  -0.94937
 Alpha  occ. eigenvalues --   -0.79649  -0.74604  -0.73129  -0.71561  -0.69139
 Alpha  occ. eigenvalues --   -0.64267  -0.61053  -0.53704  -0.52007  -0.47110
 Alpha  occ. eigenvalues --   -0.46936
 Alpha virt. eigenvalues --    0.03053   0.04760   0.05936   0.08108   0.12140
 Alpha virt. eigenvalues --    0.13575   0.15817   0.15869   0.17460   0.19320
 Alpha virt. eigenvalues --    0.19895   0.20853   0.21489   0.22230   0.24436

 Mulliken charges:
               1
     1  H    0.239430
     2  H    0.207221
     3  H    0.205943
     4  N    0.528522
     5  O   -0.452113
     6  O   -0.304586
     7  O   -0.187809
     8  O   -0.236608
 Sum of Mulliken charges =   0.00000

 Dipole moment (field-independent basis, Debye):
    X=              2.1315    Y=              1.8160    Z=             -0.7574  Tot=              2.9008

 Test job not archived.
 1\1\GINC-SE328\SP\RHF\Aug-CC-pVDZ\H3N1O4\OHZDE\08-Apr-2025\0\\#t hf au
 g-cc-pvdz iop(5/13=1,5/36=2,99/5=2) pseudo=read geom=check guess=(read
 ,tcheck) scf=(maxcycle=1)\\title\\0,1\H,0,3.42138,-0.142245,-0.518066\
 H,0,-1.48807,0.927697,-0.450405\H,0,-3.41402,-0.352109,0.589446\N,0,1.
 66449,0.452821,-0.182439\O,0,2.65413,-0.464114,-0.0112253\O,0,0.61201,
 0.134174,0.332045\O,0,-1.6394,0.178176,0.120597\O,0,-2.89809,-0.298622
 ,-0.234405\\Version=ES64L-G16RevC.01\State=1-A\HF=-355.5778519\RMSD=2.
 601e-03\Dipole=0.8385856,0.7144638,-0.2979751\Quadrupole=7.2753223,-4.

 Normal termination of Gaussian 16 at Tue Apr  8 21:10:20 2025.
