 Gaussian 16, Revision C.01,

 ----------------------------------------------------------------------
 #t hf aug-cc-pvdz symm=none int=(grid=ultrafine) guess=(read,tcheck) s
 table=(opt,rrhf)
 ----------------------------------------------------------------------
 -----
 title
 -----
 Symbolic Z-matrix:
 Charge =  0 Multiplicity = 1

 SCF Done:  E(RHF) =  -756.514818424     A.U. after   14 cycles
 Normal termination of Gaussian 16 at Tue Apr  8 19:38:10 2025.
 Gaussian 16:  ES64L-G16RevC.01  3-Jul-2019

 ----------------------------------------------------------------------
 #t hf aug-cc-pvdz iop(5/13=1,5/36=2,99/5=2) pseudo=read geom=check gue
 ss=(read,tcheck) scf=(maxcycle=1)
 ----------------------------------------------------------------------
 -----
 title
 -----
 Structure from the checkpoint file:  "ANI1ccx_1435_conf38_mol1.chk"
 Charge =  0 Multiplicity = 1

                         Standard orientation:
 ---------------------------------------------------------------------
 Center     Atomic      Atomic             Coordinates (Angstroms)
 Number     Number       Type             X           Y           Z
 ---------------------------------------------------------------------
      1          6           0        2.086050   -0.706394    0.369111
      2          6           0        0.871739   -0.832560   -0.448657
      3          6           0        2.329520    0.756097    0.769732
      4          6           0        2.562150    1.685840   -0.430685
      5          6           0       -1.526380   -0.571815   -0.540286
      6          6           0       -2.097880    0.918776   -0.618599
      7          6           0       -2.551760   -1.426150    0.277412
      8          1           0       -1.354960    2.752240   -0.282055
      9          1           0       -2.870770   -1.685530    2.100790
     10          1           0       -2.264480   -2.548340    0.163863
     11          1           0       -3.573490   -1.198030   -0.041490
     12          1           0       -1.304930   -0.950814   -1.488080
     13          1           0       -0.312887   -0.352034    1.064140
     14          1           0        2.949650    1.199810   -1.327820
     15          1           0        1.714310    2.303660   -0.799560
     16          1           0        3.269780    2.486520   -0.175398
     17          1           0        0.479070    1.501350    0.827644
     18          1           0        3.131390    0.718958    1.504020
     19          1           0        1.811170   -1.184150    1.323480
     20          1           0        3.336160   -1.283510   -1.164650
     21          1           0        3.140450   -2.421320   -0.071074
     22          7           0        3.153430   -1.472420   -0.241187
     23          7           0       -0.317096   -0.616220    0.130321
     24          8           0        0.992166   -1.180220   -1.585070
     25          8           0        1.108800    1.267830    1.536370
     26          8           0       -3.242750    1.117180   -1.008390
     27          8           0       -2.472190   -0.941564    1.580880
     28          8           0       -1.141700    1.779140   -0.164530
 ---------------------------------------------------------------------

 SCF Done:  E(RHF) =  -756.745896687     A.U. after    2 cycles

 The electronic state is 1-A.
 Alpha  occ. eigenvalues --  -20.66214 -20.60005 -20.58724 -20.57049 -20.53188
 Alpha  occ. eigenvalues --  -15.63736 -15.59436 -11.42661 -11.34705 -11.31468
 Alpha  occ. eigenvalues --  -11.31307 -11.30122 -11.27772 -11.24084  -1.43108
 Alpha  occ. eigenvalues --   -1.37356  -1.35882  -1.34447  -1.29746  -1.23180
 Alpha  occ. eigenvalues --   -1.16805  -1.04573  -1.01883  -0.94865  -0.91276
 Alpha  occ. eigenvalues --   -0.86125  -0.83079  -0.81373  -0.74589  -0.74060
 Alpha  occ. eigenvalues --   -0.72362  -0.71943  -0.69231  -0.67264  -0.66455
 Alpha  occ. eigenvalues --   -0.66127  -0.65173  -0.63610  -0.62446  -0.60431
 Alpha  occ. eigenvalues --   -0.59635  -0.58805  -0.57809  -0.57178  -0.53257
 Alpha  occ. eigenvalues --   -0.52505  -0.51723  -0.51361  -0.50915  -0.49524
 Alpha  occ. eigenvalues --   -0.48059  -0.46399  -0.44238  -0.39354  -0.38439
 Alpha virt. eigenvalues --    0.02651   0.03030   0.03981   0.04287   0.04945
 Alpha virt. eigenvalues --    0.05813   0.05999   0.06660   0.07275   0.07753
 Alpha virt. eigenvalues --    0.08237   0.09043   0.09934   0.10480   0.11452

 Mulliken charges:
               1
     1  C    0.040761
     2  C    0.400395
     3  C    0.525578
     4  C    0.777377
     5  C    0.202124
     6  C    0.763485
     7  C    1.012333
     8  H    0.252365
     9  H    0.215786
    10  H    0.015688
    11  H   -0.234054
    12  H   -0.401310
    13  H   -0.035226
    14  H   -0.151268
    15  H   -0.216281
    16  H   -0.095861
    17  H    0.307640
    18  H   -0.262601
    19  H    0.044817
    20  H   -0.067443
    21  H   -0.098131
    22  N    0.016482
    23  N   -0.048618
    24  O   -0.585390
    25  O   -0.657557
    26  O   -0.494009
    27  O   -0.608147
    28  O   -0.618933
 Sum of Mulliken charges =  -0.00000

 Dipole moment (field-independent basis, Debye):
    X=             -0.1500    Y=             -0.7706    Z=              1.2641  Tot=              1.4880

 Test job not archived.
 1\1\GINC-SE086\SP\RHF\Aug-CC-pVDZ\C7H14N2O5\OHZDE\08-Apr-2025\0\\#t hf
  aug-cc-pvdz iop(5/13=1,5/36=2,99/5=2) pseudo=read geom=check guess=(r
 ead,tcheck) scf=(maxcycle=1)\\title\\0,1\C,0,2.08605,-0.706394,0.36911
 1\C,0,0.871739,-0.83256,-0.448657\C,0,2.32952,0.756097,0.769732\C,0,2.
 56215,1.68584,-0.430685\C,0,-1.52638,-0.571815,-0.540286\C,0,-2.09788,
 0.918776,-0.618599\C,0,-2.55176,-1.42615,0.277412\H,0,-1.35496,2.75224
 ,-0.282055\H,0,-2.87077,-1.68553,2.10079\H,0,-2.26448,-2.54834,0.16386
 3\H,0,-3.57349,-1.19803,-0.0414898\H,0,-1.30493,-0.950814,-1.48808\H,0

 Normal termination of Gaussian 16 at Tue Apr  8 19:38:40 2025.
