 Gaussian 16, Revision C.01,

 ----------------------------------------------------------------------
 #t hf aug-cc-pvdz symm=none int=(grid=ultrafine) guess=(read,tcheck) s
 table=(opt,rrhf)
 ----------------------------------------------------------------------
 -----
 title
 -----
 Symbolic Z-matrix:
 Charge =  0 Multiplicity = 1

 SCF Done:  E(RHF) =  -927.498460541     A.U. after   15 cycles
 Normal termination of Gaussian 16 at Tue Apr  8 22:08:21 2025.
 Gaussian 16:  ES64L-G16RevC.01  3-Jul-2019

 ----------------------------------------------------------------------
 #t hf aug-cc-pvdz iop(5/13=1,5/36=2,99/5=2) pseudo=read geom=check gue
 ss=(read,tcheck) scf=(maxcycle=1)
 ----------------------------------------------------------------------
 -----
 title
 -----
 Structure from the checkpoint file:  "ANI1ccx_79_conf5_mol1.chk"
 Charge =  0 Multiplicity = 1

                         Standard orientation:
 ---------------------------------------------------------------------
 Center     Atomic      Atomic             Coordinates (Angstroms)
 Number     Number       Type             X           Y           Z
 ---------------------------------------------------------------------
      1          6           0       -2.231231    0.068849    0.792488
      2          6           0        4.350919   -1.120739    0.745447
      3          6           0        3.160919   -0.351827    0.088942
      4          6           0        2.042889    0.047652    1.134260
      5          6           0        0.939577    2.109100   -0.030711
      6          6           0        5.317930   -1.727838   -0.231964
      7          6           0       -4.497921   -0.548110   -0.188055
      8          6           0       -3.545411   -0.663171    0.912989
      9          6           0       -1.245361   -0.858674    0.027180
     10          6           0        0.731130    0.668237    0.549126
     11          1           0        2.619049   -0.913936   -0.759783
     12          1           0       -0.810802    1.802790   -0.877014
     13          1           0        6.024529   -0.904449   -2.122920
     14          1           0        6.806309   -0.219439   -1.025140
     15          1           0        6.086580   -2.221188    0.321014
     16          1           0        4.805790   -2.293519   -0.991159
     17          1           0        4.971739   -0.493604    1.470760
     18          1           0        3.894860   -1.933679    1.290030
     19          1           0        3.431779    0.632384   -0.369594
     20          1           0        2.014469   -0.667006    1.985640
     21          1           0       -2.332481    2.167029    0.720778
     22          1           0        0.083356    0.943201    1.406790
     23          1           0        0.442546   -0.684602   -1.057490
     24          1           0       -5.858020   -1.529322   -1.083660
     25          1           0       -3.958271   -0.057765    1.776090
     26          1           0       -3.455570   -1.685421    1.266310
     27          1           0       -1.753661    0.244275    1.745250
     28          1           0       -3.002161    1.363829   -0.588685
     29          1           0        2.506049    0.906523    1.723270
     30          7           0       -2.264021    1.326049    0.123393
     31          7           0       -0.024551   -0.259433   -0.236183
     32          7           0        5.851829   -0.626530   -1.150180
     33          8           0       -5.304740   -1.625851   -0.230196
     34          8           0        1.822518    2.924791    0.211728
     35          8           0       -1.618180   -1.965880   -0.398410
     36          8           0       -4.561471    0.313294   -1.065390
     37          8           0       -0.038069    2.443950   -0.866213
 ---------------------------------------------------------------------

 SCF Done:  E(RHF) =  -927.778819999     A.U. after    2 cycles

 The electronic state is 1-A.
 Alpha  occ. eigenvalues --  -20.64569 -20.59578 -20.58492 -20.56820 -20.55041
 Alpha  occ. eigenvalues --  -15.67014 -15.64122 -15.60402 -11.42743 -11.39730
 Alpha  occ. eigenvalues --  -11.39108 -11.32709 -11.31861 -11.27945 -11.26517
 Alpha  occ. eigenvalues --  -11.25309 -11.24623 -11.24002  -1.43795  -1.40098
 Alpha  occ. eigenvalues --   -1.35794  -1.33409  -1.30168  -1.23121  -1.20248
 Alpha  occ. eigenvalues --   -1.12900  -1.06918  -1.05650  -1.01078  -0.95422
 Alpha  occ. eigenvalues --   -0.93877  -0.85126  -0.84742  -0.82365  -0.79596
 Alpha  occ. eigenvalues --   -0.78551  -0.75108  -0.74727  -0.73699  -0.71506
 Alpha  occ. eigenvalues --   -0.68325  -0.67995  -0.66938  -0.66293  -0.65649
 Alpha  occ. eigenvalues --   -0.63841  -0.63569  -0.63459  -0.62060  -0.60772
 Alpha  occ. eigenvalues --   -0.59592  -0.58783  -0.58428  -0.56258  -0.55674
 Alpha  occ. eigenvalues --   -0.54931  -0.53749  -0.52587  -0.51358  -0.49797
 Alpha  occ. eigenvalues --   -0.49678  -0.48472  -0.48331  -0.48094  -0.46821
 Alpha  occ. eigenvalues --   -0.45956  -0.45287  -0.41572  -0.40218  -0.37997
 Alpha virt. eigenvalues --    0.01936   0.03115   0.03388   0.03915   0.04288
 Alpha virt. eigenvalues --    0.04854   0.04991   0.05779   0.06551   0.06792
 Alpha virt. eigenvalues --    0.07303   0.07596   0.08060   0.08466   0.09124

 Mulliken charges:
               1
     1  C    0.324620
     2  C    0.102405
     3  C    0.296171
     4  C    0.887339
     5  C    0.779081
     6  C    1.127804
     7  C    0.811332
     8  C    0.473998
     9  C    0.346918
    10  C   -0.557566
    11  H   -0.138373
    12  H    0.412071
    13  H   -0.018243
    14  H    0.010469
    15  H   -0.109803
    16  H   -0.191457
    17  H   -0.040902
    18  H   -0.116185
    19  H   -0.082161
    20  H   -0.413603
    21  H    0.097624
    22  H    0.062607
    23  H   -0.029014
    24  H    0.265063
    25  H    0.273282
    26  H   -0.100644
    27  H   -0.218318
    28  H    0.157134
    29  H    0.045496
    30  N   -0.808462
    31  N   -0.490426
    32  N   -0.433103
    33  O   -0.591048
    34  O   -0.527688
    35  O   -0.535913
    36  O   -0.544575
    37  O   -0.525935
 Sum of Mulliken charges =  -0.00000

 Dipole moment (field-independent basis, Debye):
    X=             -1.6000    Y=             -3.2750    Z=              3.2052  Tot=              4.8538

 Test job not archived.
 1\1\GINC-SE332\SP\RHF\Aug-CC-pVDZ\C10H19N3O5\OHZDE\08-Apr-2025\0\\#t h
 f aug-cc-pvdz iop(5/13=1,5/36=2,99/5=2) pseudo=read geom=check guess=(
 read,tcheck) scf=(maxcycle=1)\\title\\0,1\C,0,-2.23123,0.06885,0.79248
 8\C,0,4.35092,-1.12074,0.745447\C,0,3.16092,-0.351828,0.0889424\C,0,2.
 04289,0.0476516,1.13426\C,0,0.939578,2.1091,-0.030711\C,0,5.31793,-1.7
 2784,-0.231964\C,0,-4.49792,-0.548109,-0.188055\C,0,-3.54541,-0.66317,
 0.912989\C,0,-1.24536,-0.858674,0.0271802\C,0,0.731131,0.668237,0.5491
 26\H,0,2.61905,-0.913937,-0.759783\H,0,-0.810801,1.80279,-0.877014\H,0

 Normal termination of Gaussian 16 at Tue Apr  8 22:09:10 2025.
