 Gaussian 16, Revision C.01,

 ----------------------------------------------------------------------
 #t hf aug-cc-pvdz symm=none int=(grid=ultrafine) guess=(read,tcheck) s
 table=(opt,rrhf)
 ----------------------------------------------------------------------
 -----
 title
 -----
 Symbolic Z-matrix:
 Charge =  0 Multiplicity = 1

 SCF Done:  E(RHF) =  -505.033098251     A.U. after   15 cycles
 Normal termination of Gaussian 16 at Tue Apr  8 21:39:50 2025.
 Gaussian 16:  ES64L-G16RevC.01  3-Jul-2019

 ----------------------------------------------------------------------
 #t hf aug-cc-pvdz iop(5/13=1,5/36=2,99/5=2) pseudo=read geom=check gue
 ss=(read,tcheck) scf=(maxcycle=1)
 ----------------------------------------------------------------------
 -----
 title
 -----
 Structure from the checkpoint file:  "ANI1ccx_471_conf12_mol1.chk"
 Charge =  0 Multiplicity = 1

                         Standard orientation:
 ---------------------------------------------------------------------
 Center     Atomic      Atomic             Coordinates (Angstroms)
 Number     Number       Type             X           Y           Z
 ---------------------------------------------------------------------
      1          6           0        1.400140   -0.079984    0.003999
      2          6           0       -0.673353    0.783107    0.140392
      3          1           0       -2.041641   -0.503022   -0.726125
      4          7           0       -0.785412   -0.572498    0.521980
      5          8           0       -1.699501   -1.270499   -0.244249
      6          8           0        0.529391   -1.061421    0.078783
      7          8           0        2.557680   -0.085458   -0.237926
      8          8           0        0.683490    1.139469    0.115912
      9          8           0       -1.673709    1.314381   -0.186781
 ---------------------------------------------------------------------

 SCF Done:  E(RHF) =  -505.192666592     A.U. after    2 cycles

 The electronic state is 1-A.
 Alpha  occ. eigenvalues --  -20.72068 -20.71831 -20.69093 -20.65903 -20.62365
 Alpha  occ. eigenvalues --  -15.83967 -11.51494 -11.51196  -1.58394  -1.49293
 Alpha  occ. eigenvalues --   -1.46999  -1.41458  -1.40096  -1.15633  -0.95075
 Alpha  occ. eigenvalues --   -0.93536  -0.82285  -0.80546  -0.79316  -0.76324
 Alpha  occ. eigenvalues --   -0.73193  -0.70026  -0.68532  -0.66234  -0.65075
 Alpha  occ. eigenvalues --   -0.59918  -0.57840  -0.56713  -0.55123  -0.49115
 Alpha virt. eigenvalues --    0.03641   0.06167   0.06846   0.07447   0.08641
 Alpha virt. eigenvalues --    0.10299   0.11131   0.11436   0.11826   0.14101
 Alpha virt. eigenvalues --    0.15045   0.15796   0.16768   0.18897   0.20371

 Mulliken charges:
               1
     1  C    0.758469
     2  C    0.975681
     3  H    0.218085
     4  N    0.001234
     5  O   -0.321704
     6  O   -0.391909
     7  O   -0.321251
     8  O   -0.561015
     9  O   -0.357591
 Sum of Mulliken charges =  -0.00000

 Dipole moment (field-independent basis, Debye):
    X=             -1.9486    Y=              0.3351    Z=              0.1459  Tot=              1.9825

 Test job not archived.
 1\1\GINC-SE454\SP\RHF\Aug-CC-pVDZ\C2H1N1O5\OHZDE\08-Apr-2025\0\\#t hf
 aug-cc-pvdz iop(5/13=1,5/36=2,99/5=2) pseudo=read geom=check guess=(re
 ad,tcheck) scf=(maxcycle=1)\\title\\0,1\C,0,1.40014,-0.0799824,0.00399
 853\C,0,-0.673353,0.783107,0.140392\H,0,-2.04164,-0.503023,-0.726125\N
 ,0,-0.785411,-0.572498,0.52198\O,0,-1.6995,-1.2705,-0.244249\O,0,0.529
 392,-1.06142,0.078783\O,0,2.55768,-0.0854556,-0.237926\O,0,0.683489,1.
 13947,0.115912\O,0,-1.67371,1.31438,-0.186781\\Version=ES64L-G16RevC.0
 1\State=1-A\HF=-505.1926666\RMSD=2.813e-03\Dipole=-0.7666251,0.1318415

 Normal termination of Gaussian 16 at Tue Apr  8 21:39:54 2025.
