 Gaussian 16, Revision C.01,

 ----------------------------------------------------------------------
 #t hf aug-cc-pvdz symm=none int=(grid=ultrafine) guess=(read,tcheck) s
 table=(opt,rrhf)
 ----------------------------------------------------------------------
 -----
 title
 -----
 Symbolic Z-matrix:
 Charge =  0 Multiplicity = 1

 SCF Done:  E(RHF) =  -207.053833521     A.U. after   12 cycles
 Normal termination of Gaussian 16 at Tue Apr  8 21:11:18 2025.
 Gaussian 16:  ES64L-G16RevC.01  3-Jul-2019

 ----------------------------------------------------------------------
 #t hf aug-cc-pvdz iop(5/13=1,5/36=2,99/5=2) pseudo=read geom=check gue
 ss=(read,tcheck) scf=(maxcycle=1)
 ----------------------------------------------------------------------
 -----
 title
 -----
 Structure from the checkpoint file:  "ANI1ccx_1888_conf25_mol2.chk"
 Charge =  0 Multiplicity = 1

                         Standard orientation:
 ---------------------------------------------------------------------
 Center     Atomic      Atomic             Coordinates (Angstroms)
 Number     Number       Type             X           Y           Z
 ---------------------------------------------------------------------
      1          1           0        1.579578   -0.698843    0.574579
      2          1           0        2.701918    0.090878    0.033360
      3          1           0       -0.080237    0.983947    0.174521
      4          1           0       -1.536693   -0.877405    0.806716
      5          1           0       -1.703963   -0.867157   -0.789502
      6          7           0       -1.010652   -0.665767   -0.032431
      7          8           0        1.776818   -0.022133   -0.085082
      8          8           0       -1.012572    0.775751    0.013500
 ---------------------------------------------------------------------

 SCF Done:  E(RHF) =  -207.120565049     A.U. after    2 cycles

 The electronic state is 1-A.
 Alpha  occ. eigenvalues --  -20.58515 -20.58265 -15.66747  -1.33647  -1.32487
 Alpha  occ. eigenvalues --   -1.04381  -0.73915  -0.68223  -0.66223  -0.61560
 Alpha  occ. eigenvalues --   -0.60346  -0.53736  -0.48207  -0.42130
 Alpha virt. eigenvalues --    0.03324   0.04665   0.05594   0.06601   0.07932
 Alpha virt. eigenvalues --    0.13967   0.17318   0.18133   0.19632   0.20411
 Alpha virt. eigenvalues --    0.21929   0.22848   0.23606   0.25247   0.26114

 Mulliken charges:
               1
     1  H    0.165793
     2  H    0.146717
     3  H    0.219166
     4  H    0.108332
     5  H    0.156518
     6  N   -0.006359
     7  O   -0.311654
     8  O   -0.478514
 Sum of Mulliken charges =   0.00000

 Dipole moment (field-independent basis, Debye):
    X=              1.4008    Y=             -1.6849    Z=              1.6277  Tot=              2.7295

 Test job not archived.
 1\1\GINC-SE015\SP\RHF\Aug-CC-pVDZ\H5N1O2\OHZDE\08-Apr-2025\0\\#t hf au
 g-cc-pvdz iop(5/13=1,5/36=2,99/5=2) pseudo=read geom=check guess=(read
 ,tcheck) scf=(maxcycle=1)\\title\\0,1\H,0,1.57958,-0.698843,0.574579\H
 ,0,2.70192,0.0908789,0.0333602\H,0,-0.0802348,0.983947,0.174521\H,0,-1
 .53669,-0.877405,0.806716\H,0,-1.70396,-0.867157,-0.789502\N,0,-1.0106
 5,-0.665767,-0.0324307\O,0,1.77682,-0.0221321,-0.0850824\O,0,-1.01257,
 0.775751,0.0135\\Version=ES64L-G16RevC.01\State=1-A\HF=-207.120565\RMS
 D=1.954e-03\Dipole=0.5511369,-0.6628712,0.6403691\Quadrupole=3.6960387

 Normal termination of Gaussian 16 at Tue Apr  8 21:11:20 2025.
