 Gaussian 16, Revision C.01,

 ----------------------------------------------------------------------
 #t hf aug-cc-pvdz symm=none int=(grid=ultrafine) guess=(read,tcheck) s
 table=(opt,rrhf)
 ----------------------------------------------------------------------
 -----
 title
 -----
 Symbolic Z-matrix:
 Charge =  0 Multiplicity = 1

 SCF Done:  E(RHF) =  -537.841148326     A.U. after   16 cycles
 Normal termination of Gaussian 16 at Tue Apr  8 22:15:14 2025.
 Gaussian 16:  ES64L-G16RevC.01  3-Jul-2019

 ----------------------------------------------------------------------
 #t hf aug-cc-pvdz iop(5/13=1,5/36=2,99/5=2) pseudo=read geom=check gue
 ss=(read,tcheck) scf=(maxcycle=1)
 ----------------------------------------------------------------------
 -----
 title
 -----
 Structure from the checkpoint file:  "ANI1ccx_988_conf12_mol1.chk"
 Charge =  0 Multiplicity = 1

                         Standard orientation:
 ---------------------------------------------------------------------
 Center     Atomic      Atomic             Coordinates (Angstroms)
 Number     Number       Type             X           Y           Z
 ---------------------------------------------------------------------
      1          6           0       -2.281840   -0.352883   -0.152660
      2          6           0       -0.797473    1.550600    0.557661
      3          6           0        0.646021    1.776641    0.089208
      4          6           0        1.414269    0.504494    0.138865
      5          1           0        3.292509    0.832677   -0.929306
      6          1           0        1.122658    2.492931    0.773483
      7          1           0        0.609189    2.323291   -0.837935
      8          1           0       -0.841595    1.109200    1.516040
      9          1           0       -1.341182    2.510489    0.738841
     10          1           0       -3.184690   -0.234790   -1.784900
     11          1           0       -0.938064   -1.135570    1.171010
     12          1           0       -2.466109   -1.893611    1.016480
     13          1           0       -1.657621    1.199349   -1.300540
     14          7           0        2.904530   -1.034768   -0.417372
     15          7           0       -1.926620   -1.028441    1.013020
     16          7           0       -3.322090   -0.759425   -0.875121
     17          7           0       -1.477421    0.725432   -0.453688
     18          7           0        0.899039   -0.674757    0.442079
     19          7           0        1.889240   -1.585349    0.035983
     20          7           0        2.678899    0.346296   -0.339420
 ---------------------------------------------------------------------

 SCF Done:  E(RHF) =  -537.994285017     A.U. after    2 cycles

 The electronic state is 1-A.
 Alpha  occ. eigenvalues --  -15.74112 -15.73836 -15.72736 -15.68048 -15.64315
 Alpha  occ. eigenvalues --  -15.61231 -15.56929 -11.37617 -11.35448 -11.30279
 Alpha  occ. eigenvalues --  -11.29459  -1.45160  -1.26091  -1.21663  -1.19837
 Alpha  occ. eigenvalues --   -1.14962  -1.08318  -1.04499  -0.92124  -0.88011
 Alpha  occ. eigenvalues --   -0.85387  -0.80770  -0.77880  -0.72128  -0.69386
 Alpha  occ. eigenvalues --   -0.67183  -0.65510  -0.61928  -0.61467  -0.59484
 Alpha  occ. eigenvalues --   -0.57148  -0.56718  -0.55288  -0.52671  -0.48724
 Alpha  occ. eigenvalues --   -0.46156  -0.45495  -0.42789  -0.41434  -0.39804
 Alpha  occ. eigenvalues --   -0.32483
 Alpha virt. eigenvalues --    0.00999   0.02805   0.03071   0.05219   0.05512
 Alpha virt. eigenvalues --    0.06125   0.06981   0.08066   0.09174   0.09505
 Alpha virt. eigenvalues --    0.10675   0.10995   0.11277   0.12414   0.13035

 Mulliken charges:
               1
     1  C    0.821896
     2  C    1.093034
     3  C    0.311024
     4  C    0.594098
     5  H   -0.070713
     6  H    0.055532
     7  H   -0.143430
     8  H   -0.348212
     9  H   -0.134854
    10  H    0.012592
    11  H    0.059853
    12  H    0.007811
    13  H   -0.140242
    14  N   -0.168462
    15  N   -0.212164
    16  N   -0.558140
    17  N   -0.392746
    18  N   -0.432053
    19  N   -0.174527
    20  N   -0.180296
 Sum of Mulliken charges =  -0.00000

 Dipole moment (field-independent basis, Debye):
    X=              4.7664    Y=              6.8940    Z=             -0.6277  Tot=              8.4048

 Test job not archived.
 1\1\GINC-SE457\SP\RHF\Aug-CC-pVDZ\C4H9N7\OHZDE\08-Apr-2025\0\\#t hf au
 g-cc-pvdz iop(5/13=1,5/36=2,99/5=2) pseudo=read geom=check guess=(read
 ,tcheck) scf=(maxcycle=1)\\title\\0,1\C,0,-2.28184,-0.352882,-0.15266\
 C,0,-0.797472,1.5506,0.557661\C,0,0.646023,1.77664,0.0892076\C,0,1.414
 27,0.504493,0.138865\H,0,3.29251,0.832675,-0.929306\H,0,1.12266,2.4929
 3,0.773483\H,0,0.609191,2.32329,-0.837935\H,0,-0.841594,1.1092,1.51604
 \H,0,-1.34118,2.51049,0.738841\H,0,-3.18469,-0.234788,-1.7849\H,0,-0.9
 38064,-1.13557,1.17101\H,0,-2.46611,-1.89361,1.01648\H,0,-1.65762,1.19

 Normal termination of Gaussian 16 at Tue Apr  8 22:15:26 2025.
