 Gaussian 16, Revision C.01,

 ----------------------------------------------------------------------
 #t hf aug-cc-pvdz symm=none int=(grid=ultrafine) guess=(read,tcheck) s
 table=(opt,rrhf)
 ----------------------------------------------------------------------
 -----
 title
 -----
 Symbolic Z-matrix:
 Charge =  0 Multiplicity = 1

 SCF Done:  E(RHF) =  -316.916360747     A.U. after   14 cycles
 Normal termination of Gaussian 16 at Tue Apr  8 21:44:53 2025.
 Gaussian 16:  ES64L-G16RevC.01  3-Jul-2019

 ----------------------------------------------------------------------
 #t hf aug-cc-pvdz iop(5/13=1,5/36=2,99/5=2) pseudo=read geom=check gue
 ss=(read,tcheck) scf=(maxcycle=1)
 ----------------------------------------------------------------------
 -----
 title
 -----
 Structure from the checkpoint file:  "ANI1ccx_538_conf2_mol2.chk"
 Charge =  0 Multiplicity = 1

                         Standard orientation:
 ---------------------------------------------------------------------
 Center     Atomic      Atomic             Coordinates (Angstroms)
 Number     Number       Type             X           Y           Z
 ---------------------------------------------------------------------
      1          6           0        0.754365    0.214102    0.036569
      2          6           0       -0.724685   -0.243156   -0.021005
      3          1           0        2.538078   -0.642391   -0.096858
      4          1           0        1.187456   -1.768243    0.060942
      5          1           0        0.426064    2.074588    0.353656
      6          1           0       -2.621269    0.496428   -0.142130
      7          1           0       -1.407797    1.714572   -0.283965
      8          7           0        1.557618   -0.849261   -0.167234
      9          7           0        1.155312    1.420827    0.102663
     10          7           0       -1.617699    0.775177   -0.103807
     11          8           0       -0.995904   -1.390979    0.149202
 ---------------------------------------------------------------------

 SCF Done:  E(RHF) =  -317.014265670     A.U. after    2 cycles

 The electronic state is 1-A.
 Alpha  occ. eigenvalues --  -20.56653 -15.67003 -15.64257 -15.60587 -11.38998
 Alpha  occ. eigenvalues --  -11.34508  -1.39431  -1.24440  -1.20159  -1.12143
 Alpha  occ. eigenvalues --   -0.89716  -0.80466  -0.77916  -0.71605  -0.68228
 Alpha  occ. eigenvalues --   -0.64613  -0.62492  -0.61345  -0.52731  -0.51120
 Alpha  occ. eigenvalues --   -0.44545  -0.41165  -0.36935
 Alpha virt. eigenvalues --    0.02648   0.04006   0.04763   0.06648   0.06986
 Alpha virt. eigenvalues --    0.09617   0.10646   0.12420   0.12570   0.13253
 Alpha virt. eigenvalues --    0.13771   0.14722   0.16167   0.17242   0.18419

 Mulliken charges:
               1
     1  C    0.601151
     2  C    0.637838
     3  H    0.008389
     4  H    0.054252
     5  H   -0.021059
     6  H    0.085431
     7  H   -0.088474
     8  N   -0.226797
     9  N   -0.440876
    10  N   -0.132336
    11  O   -0.477519
 Sum of Mulliken charges =  -0.00000

 Dipole moment (field-independent basis, Debye):
    X=             -1.4804    Y=              1.4209    Z=             -0.1366  Tot=              2.0565

 Test job not archived.
 1\1\GINC-SE273\SP\RHF\Aug-CC-pVDZ\C2H5N3O1\OHZDE\08-Apr-2025\0\\#t hf
 aug-cc-pvdz iop(5/13=1,5/36=2,99/5=2) pseudo=read geom=check guess=(re
 ad,tcheck) scf=(maxcycle=1)\\title\\0,1\C,0,0.754365,0.214104,0.036568
 7\C,0,-0.724684,-0.243156,-0.0210054\H,0,2.53808,-0.642385,-0.0968579\
 H,0,1.18746,-1.76824,0.060942\H,0,0.42606,2.07459,0.353656\H,0,-2.6212
 7,0.496424,-0.14213\H,0,-1.4078,1.71457,-0.283965\N,0,1.55762,-0.84925
 7,-0.167234\N,0,1.15531,1.42083,0.102663\N,0,-1.6177,0.775175,-0.10380
 7\O,0,-0.995901,-1.39098,0.149202\\Version=ES64L-G16RevC.01\State=1-A\

 Normal termination of Gaussian 16 at Tue Apr  8 21:44:57 2025.
