 Gaussian 16, Revision C.01,

 ----------------------------------------------------------------------
 #t hf aug-cc-pvdz symm=none int=(grid=ultrafine) guess=(read,tcheck) s
 table=(opt,rrhf)
 ----------------------------------------------------------------------
 -----
 title
 -----
 Symbolic Z-matrix:
 Charge =  0 Multiplicity = 1

 SCF Done:  E(RHF) =  -456.192862640     A.U. after   12 cycles
 Normal termination of Gaussian 16 at Tue Apr  8 21:07:42 2025.
 Gaussian 16:  ES64L-G16RevC.01  3-Jul-2019

 ----------------------------------------------------------------------
 #t hf aug-cc-pvdz iop(5/13=1,5/36=2,99/5=2) pseudo=read geom=check gue
 ss=(read,tcheck) scf=(maxcycle=1)
 ----------------------------------------------------------------------
 -----
 title
 -----
 Structure from the checkpoint file:  "ANI1ccx_1844_conf677_mol1.chk"
 Charge =  0 Multiplicity = 1

                         Standard orientation:
 ---------------------------------------------------------------------
 Center     Atomic      Atomic             Coordinates (Angstroms)
 Number     Number       Type             X           Y           Z
 ---------------------------------------------------------------------
      1          1           0       -1.008932   -1.855540    1.664250
      2          1           0       -2.479190    0.658424   -0.328081
      3          1           0       -3.417441   -0.537323   -0.696872
      4          1           0        1.717870    1.195748    0.369092
      5          1           0        0.980781    1.798079    1.587760
      6          1           0       -0.447878    1.782320   -0.099977
      7          1           0       -1.705562   -1.101199    0.433359
      8          1           0       -1.444709    2.876380   -0.562318
      9          1           0        1.731767   -2.688802   -0.084948
     10          1           0        0.280660   -1.834871   -0.089785
     11          1           0        2.219649   -0.557331   -0.731714
     12          1           0        3.685749    0.476427   -0.633711
     13          8           0        1.220961    1.983788    0.672387
     14          8           0        1.071918   -1.991452   -0.737530
     15          8           0       -2.830261   -0.182992    0.013299
     16          8           0       -1.286359    1.951640   -0.698276
     17          8           0       -1.028002   -1.812580    0.695307
     18          8           0        2.837649    0.025056   -0.048569
 ---------------------------------------------------------------------

 SCF Done:  E(RHF) =  -456.341281225     A.U. after    2 cycles

 The electronic state is 1-A.
 Alpha  occ. eigenvalues --  -20.59264 -20.58984 -20.57803 -20.56621 -20.56530
 Alpha  occ. eigenvalues --  -20.56155  -1.33366  -1.30813  -1.29826  -1.29333
 Alpha  occ. eigenvalues --   -1.25334  -1.22969  -0.75175  -0.74420  -0.72911
 Alpha  occ. eigenvalues --   -0.71216  -0.69352  -0.66711  -0.63141  -0.61406
 Alpha  occ. eigenvalues --   -0.59277  -0.57559  -0.56417  -0.55121  -0.53302
 Alpha  occ. eigenvalues --   -0.52620  -0.51728  -0.51192  -0.50684  -0.48664
 Alpha virt. eigenvalues --    0.02794   0.04288   0.04733   0.04975   0.06169
 Alpha virt. eigenvalues --    0.07123   0.08507   0.08751   0.09587   0.10688
 Alpha virt. eigenvalues --    0.11139   0.11712   0.16429   0.17533   0.18967

 Mulliken charges:
               1
     1  H    0.171710
     2  H    0.249540
     3  H    0.203920
     4  H    0.272768
     5  H    0.184400
     6  H    0.332633
     7  H    0.369116
     8  H    0.133834
     9  H    0.324109
    10  H    0.356718
    11  H    0.363612
    12  H    0.312737
    13  O   -0.476597
    14  O   -0.659431
    15  O   -0.452413
    16  O   -0.459539
    17  O   -0.547766
    18  O   -0.679351
 Sum of Mulliken charges =   0.00000

 Dipole moment (field-independent basis, Debye):
    X=             -0.7094    Y=              0.7713    Z=              1.6347  Tot=              1.9418

 Test job not archived.
 1\1\GINC-SE078\SP\RHF\Aug-CC-pVDZ\H12O6\OHZDE\08-Apr-2025\0\\#t hf aug
 -cc-pvdz iop(5/13=1,5/36=2,99/5=2) pseudo=read geom=check guess=(read,
 tcheck) scf=(maxcycle=1)\\title\\0,1\H,0,-1.00893,-1.85554,1.66425\H,0
 ,-2.47919,0.658423,-0.328081\H,0,-3.41744,-0.537325,-0.696872\H,0,1.71
 787,1.19575,0.369092\H,0,0.98078,1.79808,1.58776\H,0,-0.447879,1.78232
 ,-0.0999767\H,0,-1.70556,-1.1012,0.433359\H,0,-1.44471,2.87638,-0.5623
 18\H,0,1.73177,-2.6888,-0.0849477\H,0,0.280662,-1.83487,-0.0897847\H,0
 ,2.21965,-0.557329,-0.731714\H,0,3.68575,0.476431,-0.633711\O,0,1.2209

 Normal termination of Gaussian 16 at Tue Apr  8 21:07:47 2025.
