 Gaussian 16, Revision C.01,

 ----------------------------------------------------------------------
 #t hf aug-cc-pvdz symm=none int=(grid=ultrafine) guess=(read,tcheck) s
 table=(opt,rrhf)
 ----------------------------------------------------------------------
 -----
 title
 -----
 Symbolic Z-matrix:
 Charge =  0 Multiplicity = 1

 SCF Done:  E(RHF) =  -370.444881135     A.U. after   16 cycles
 Normal termination of Gaussian 16 at Tue Apr  8 21:54:04 2025.
 Gaussian 16:  ES64L-G16RevC.01  3-Jul-2019

 ----------------------------------------------------------------------
 #t hf aug-cc-pvdz iop(5/13=1,5/36=2,99/5=2) pseudo=read geom=check gue
 ss=(read,tcheck) scf=(maxcycle=1)
 ----------------------------------------------------------------------
 -----
 title
 -----
 Structure from the checkpoint file:  "ANI1ccx_855_conf4_mol1.chk"
 Charge =  0 Multiplicity = 1

                         Standard orientation:
 ---------------------------------------------------------------------
 Center     Atomic      Atomic             Coordinates (Angstroms)
 Number     Number       Type             X           Y           Z
 ---------------------------------------------------------------------
      1          6           0        1.914880    0.061600    0.007308
      2          6           0        0.518218    0.056119   -0.023468
      3          6           0       -1.460171    1.114079    0.025518
      4          6           0       -1.340250   -1.163071   -0.061279
      5          1           0       -2.016571    2.041908    0.018736
      6          1           0       -1.890039   -2.076862   -0.041399
      7          7           0        3.093370   -0.020426    0.045924
      8          7           0       -0.128345    1.194929   -0.085052
      9          7           0       -2.103920   -0.090158    0.094441
     10          7           0        0.011831   -1.138261   -0.007573
 ---------------------------------------------------------------------

 SCF Done:  E(RHF) =  -370.549408576     A.U. after    2 cycles

 The electronic state is 1-A.
 Alpha  occ. eigenvalues --  -15.68443 -15.68346 -15.68318 -15.68225 -11.40050
 Alpha  occ. eigenvalues --  -11.39002 -11.38171 -11.31643  -1.37403  -1.23481
 Alpha  occ. eigenvalues --   -1.22079  -1.19168  -0.99920  -0.96818  -0.84247
 Alpha  occ. eigenvalues --   -0.78527  -0.69781  -0.65691  -0.65593  -0.60201
 Alpha  occ. eigenvalues --   -0.57582  -0.52148  -0.48954  -0.46660  -0.46287
 Alpha  occ. eigenvalues --   -0.46016  -0.43814
 Alpha virt. eigenvalues --    0.02653   0.03076   0.03196   0.04809   0.05832
 Alpha virt. eigenvalues --    0.06407   0.09447   0.09552   0.09816   0.12526
 Alpha virt. eigenvalues --    0.12958   0.13201   0.13874   0.14158   0.15317

 Mulliken charges:
               1
     1  C   -0.601892
     2  C    0.791353
     3  C    0.858823
     4  C    0.900295
     5  H   -0.206131
     6  H   -0.256095
     7  N   -0.131806
     8  N   -0.384274
     9  N   -0.560929
    10  N   -0.409343
 Sum of Mulliken charges =  -0.00000

 Dipole moment (field-independent basis, Debye):
    X=             -4.1718    Y=              0.1775    Z=             -0.1557  Tot=              4.1785

 Test job not archived.
 1\1\GINC-SE074\SP\RHF\Aug-CC-pVDZ\C4H2N4\OHZDE\08-Apr-2025\0\\#t hf au
 g-cc-pvdz iop(5/13=1,5/36=2,99/5=2) pseudo=read geom=check guess=(read
 ,tcheck) scf=(maxcycle=1)\\title\\0,1\C,0,1.91488,0.0616003,0.00730826
 \C,0,0.518218,0.0561193,-0.0234683\C,0,-1.46017,1.11408,0.0255185\C,0,
 -1.34025,-1.16307,-0.0612786\H,0,-2.01657,2.04191,0.0187363\H,0,-1.890
 04,-2.07686,-0.041399\N,0,3.09337,-0.020426,0.0459244\N,0,-0.128344,1.
 19493,-0.0850517\N,0,-2.10392,-0.0901562,0.094441\N,0,0.0118303,-1.138
 26,-0.00757314\\Version=ES64L-G16RevC.01\State=1-A\HF=-370.5494086\RMS

 Normal termination of Gaussian 16 at Tue Apr  8 21:54:08 2025.
