 Gaussian 16, Revision C.01,

 ----------------------------------------------------------------------
 #t hf aug-cc-pvdz symm=none int=(grid=ultrafine) guess=(read,tcheck) s
 table=(opt,rrhf)
 ----------------------------------------------------------------------
 -----
 title
 -----
 Symbolic Z-matrix:
 Charge =  0 Multiplicity = 1

 SCF Done:  E(RHF) =  -352.358527414     A.U. after   16 cycles
 Normal termination of Gaussian 16 at Tue Apr  8 21:47:38 2025.
 Gaussian 16:  ES64L-G16RevC.01  3-Jul-2019

 ----------------------------------------------------------------------
 #t hf aug-cc-pvdz iop(5/13=1,5/36=2,99/5=2) pseudo=read geom=check gue
 ss=(read,tcheck) scf=(maxcycle=1)
 ----------------------------------------------------------------------
 -----
 title
 -----
 Structure from the checkpoint file:  "ANI1ccx_648_conf2_mol2.chk"
 Charge =  0 Multiplicity = 1

                         Standard orientation:
 ---------------------------------------------------------------------
 Center     Atomic      Atomic             Coordinates (Angstroms)
 Number     Number       Type             X           Y           Z
 ---------------------------------------------------------------------
      1          6           0       -1.682069   -0.041783    0.012876
      2          6           0       -0.263686    0.025931   -0.048509
      3          6           0        1.771461   -0.505611    0.087617
      4          1           0        2.646212   -1.226538    0.072560
      5          7           0       -2.863569   -0.037491    0.029262
      6          7           0        0.370232    1.132581    0.000869
      7          7           0        1.668851    0.781612   -0.021830
      8          8           0        0.521369   -1.097699   -0.055321
 ---------------------------------------------------------------------

 SCF Done:  E(RHF) =  -352.459861018     A.U. after    2 cycles

 The electronic state is 1-A.
 Alpha  occ. eigenvalues --  -20.71974 -15.72125 -15.70862 -15.69800 -11.42261
 Alpha  occ. eigenvalues --  -11.40971 -11.33946  -1.52172  -1.33352  -1.22433
 Alpha  occ. eigenvalues --   -1.15596  -0.95576  -0.91963  -0.83258  -0.74296
 Alpha  occ. eigenvalues --   -0.72116  -0.68575  -0.59120  -0.55762  -0.55268
 Alpha  occ. eigenvalues --   -0.52512  -0.50472  -0.48075  -0.41331
 Alpha virt. eigenvalues --    0.02212   0.03921   0.06181   0.07756   0.07905
 Alpha virt. eigenvalues --    0.08915   0.10037   0.11098   0.12561   0.13218
 Alpha virt. eigenvalues --    0.13669   0.14397   0.15241   0.16334   0.17589

 Mulliken charges:
               1
     1  C   -0.527827
     2  C    1.180418
     3  C    0.664713
     4  H   -0.020364
     5  N   -0.126203
     6  N   -0.357911
     7  N   -0.295193
     8  O   -0.517632
 Sum of Mulliken charges =  -0.00000

 Dipole moment (field-independent basis, Debye):
    X=              3.2967    Y=             -2.5818    Z=              0.0884  Tot=              4.1883

 Test job not archived.
 1\1\GINC-SE132\SP\RHF\Aug-CC-pVDZ\C3H1N3O1\OHZDE\08-Apr-2025\0\\#t hf
 aug-cc-pvdz iop(5/13=1,5/36=2,99/5=2) pseudo=read geom=check guess=(re
 ad,tcheck) scf=(maxcycle=1)\\title\\0,1\C,0,-1.68207,-0.0417838,0.0128
 759\C,0,-0.263687,0.0259296,-0.0485094\C,0,1.77146,-0.505613,0.0876166
 \H,0,2.64621,-1.22654,0.0725603\N,0,-2.86357,-0.0374908,0.0292621\N,0,
 0.370231,1.13258,0.00086917\N,0,1.66885,0.78161,-0.0218304\O,0,0.52136
 7,-1.0977,-0.0553207\\Version=ES64L-G16RevC.01\State=1-A\HF=-352.45986
 1\RMSD=5.075e-03\Dipole=1.2970343,-1.015752,0.0347778\Quadrupole=-2.03

 Normal termination of Gaussian 16 at Tue Apr  8 21:47:41 2025.
