 Gaussian 16, Revision C.01,

 ----------------------------------------------------------------------
 #t hf aug-cc-pvdz symm=none int=(grid=ultrafine) guess=(read,tcheck) s
 table=(opt,rrhf)
 ----------------------------------------------------------------------
 -----
 title
 -----
 Symbolic Z-matrix:
 Charge =  0 Multiplicity = 1

 SCF Done:  E(RHF) =  -817.971413822     A.U. after   14 cycles
 Normal termination of Gaussian 16 at Tue Apr  8 21:37:17 2025.
 Gaussian 16:  ES64L-G16RevC.01  3-Jul-2019

 ----------------------------------------------------------------------
 #t hf aug-cc-pvdz iop(5/13=1,5/36=2,99/5=2) pseudo=read geom=check gue
 ss=(read,tcheck) scf=(maxcycle=1)
 ----------------------------------------------------------------------
 -----
 title
 -----
 Structure from the checkpoint file:  "ANI1ccx_211_conf6_mol2.chk"
 Charge =  0 Multiplicity = 1

                         Standard orientation:
 ---------------------------------------------------------------------
 Center     Atomic      Atomic             Coordinates (Angstroms)
 Number     Number       Type             X           Y           Z
 ---------------------------------------------------------------------
      1          6           0        0.936905    1.679621   -0.347336
      2          6           0       -1.685269   -1.126899    1.822270
      3          6           0       -2.142349   -1.661329    0.443155
      4          6           0       -3.622480    0.196511   -0.573423
      5          6           0       -2.255120   -0.597543   -0.753743
      6          6           0       -1.247539   -2.780859    0.033347
      7          6           0        3.483391   -1.348409    0.058408
      8          6           0        2.418010   -0.487929   -0.651596
      9          6           0        1.975420    0.681051    0.195949
     10          6           0       -0.522271    1.116271   -0.067724
     11          6           0        4.770240   -0.631823    0.480729
     12          1           0       -0.543209    0.061826   -1.799410
     13          1           0       -2.588400    1.409701    0.463037
     14          1           0       -1.528229   -3.162069   -0.995717
     15          1           0       -1.397889   -3.588229    0.715598
     16          1           0       -0.206981   -2.398119    0.008863
     17          1           0       -1.797809   -1.955039    2.522770
     18          1           0       -2.178120   -0.227850    2.155370
     19          1           0       -0.615138   -0.857827    1.753980
     20          1           0       -3.100629   -2.081339    0.562692
     21          1           0       -2.419349   -1.157889   -1.677780
     22          1           0        5.104710    0.534511   -1.219960
     23          1           0        3.098541   -1.759099    1.019460
     24          1           0        5.455911   -1.284529    1.012820
     25          1           0        0.402153    2.640021    1.225330
     26          1           0        0.512499    3.616621   -0.008301
     27          1           0        6.479980    0.027124   -0.525540
     28          1           0        2.883330    1.228631    0.467803
     29          1           0        1.592850    0.313258    1.191070
     30          1           0        1.130690    1.799101   -1.426450
     31          1           0        2.933430   -0.087785   -1.537730
     32          1           0        3.756941   -2.226309   -0.565891
     33          1           0        4.662100    0.239449    1.135160
     34          1           0        1.578560   -1.062499   -0.948561
     35          7           0        1.048610    2.853361    0.454940
     36          7           0        5.537590   -0.241191   -0.728065
     37          7           0       -1.054040    0.271212   -0.962098
     38          8           0       -4.684440   -0.279152   -0.958026
     39          8           0       -1.095720    1.451591    0.946488
     40          8           0       -3.544180    1.272901    0.171253
 ---------------------------------------------------------------------

 SCF Done:  E(RHF) =  -818.219988369     A.U. after    2 cycles

 The electronic state is 1-A.
 Alpha  occ. eigenvalues --  -20.60204 -20.58621 -20.54644 -15.69580 -15.62152
 Alpha  occ. eigenvalues --  -15.60750 -11.40303 -11.39362 -11.32366 -11.30803
 Alpha  occ. eigenvalues --  -11.26866 -11.25956 -11.25160 -11.24843 -11.24730
 Alpha  occ. eigenvalues --  -11.24257 -11.23255  -1.42376  -1.40022  -1.30586
 Alpha  occ. eigenvalues --   -1.24171  -1.19371  -1.15322  -1.09774  -1.07566
 Alpha  occ. eigenvalues --   -1.00093  -0.97668  -0.93999  -0.91755  -0.87041
 Alpha  occ. eigenvalues --   -0.83446  -0.83093  -0.80048  -0.79199  -0.75910
 Alpha  occ. eigenvalues --   -0.74213  -0.70323  -0.68655  -0.68089  -0.66497
 Alpha  occ. eigenvalues --   -0.65257  -0.64587  -0.63977  -0.63253  -0.62819
 Alpha  occ. eigenvalues --   -0.61645  -0.60185  -0.59770  -0.57997  -0.56377
 Alpha  occ. eigenvalues --   -0.56289  -0.55526  -0.54750  -0.53054  -0.52317
 Alpha  occ. eigenvalues --   -0.51454  -0.49951  -0.49748  -0.49094  -0.48772
 Alpha  occ. eigenvalues --   -0.47924  -0.47266  -0.46922  -0.46903  -0.41678
 Alpha  occ. eigenvalues --   -0.41326  -0.38813
 Alpha virt. eigenvalues --    0.01980   0.02838   0.03116   0.03719   0.04523
 Alpha virt. eigenvalues --    0.04787   0.05100   0.05315   0.05651   0.06873
 Alpha virt. eigenvalues --    0.07143   0.07528   0.07658   0.07856   0.08381

 Mulliken charges:
               1
     1  C    0.846898
     2  C    1.074052
     3  C   -0.742191
     4  C    0.720907
     5  C    0.512832
     6  C    0.773022
     7  C    0.086965
     8  C    0.624026
     9  C    0.026796
    10  C    0.291593
    11  C    0.924980
    12  H   -0.075851
    13  H    0.346270
    14  H    0.018423
    15  H   -0.081254
    16  H   -0.238762
    17  H   -0.144607
    18  H   -0.080640
    19  H   -0.210399
    20  H   -0.416799
    21  H   -0.271772
    22  H    0.003992
    23  H   -0.027278
    24  H   -0.273485
    25  H    0.129481
    26  H    0.087105
    27  H   -0.057081
    28  H   -0.167094
    29  H   -0.062105
    30  H   -0.243629
    31  H    0.040822
    32  H   -0.080568
    33  H   -0.169902
    34  H   -0.424224
    35  N   -0.425854
    36  N   -0.339324
    37  N   -0.140840
    38  O   -0.561384
    39  O   -0.817899
    40  O   -0.455224
 Sum of Mulliken charges =  -0.00000

 Dipole moment (field-independent basis, Debye):
    X=              6.2315    Y=             -1.0690    Z=             -1.1821  Tot=              6.4321

 Test job not archived.
 1\1\GINC-SE367\SP\RHF\Aug-CC-pVDZ\C11H23N3O3\OHZDE\08-Apr-2025\0\\#t h
 f aug-cc-pvdz iop(5/13=1,5/36=2,99/5=2) pseudo=read geom=check guess=(
 read,tcheck) scf=(maxcycle=1)\\title\\0,1\C,0,0.936905,1.67962,-0.3473
 36\C,0,-1.68527,-1.1269,1.82227\C,0,-2.14235,-1.66133,0.443155\C,0,-3.
 62248,0.19651,-0.573423\C,0,-2.25512,-0.597544,-0.753743\C,0,-1.24754,
 -2.78086,0.033347\C,0,3.48339,-1.34841,0.0584083\C,0,2.41801,-0.48793,
 -0.651596\C,0,1.97542,0.68105,0.195949\C,0,-0.522271,1.11627,-0.067724
 1\C,0,4.77024,-0.631824,0.480729\H,0,-0.543209,0.0618253,-1.79941\H,0,

 Normal termination of Gaussian 16 at Tue Apr  8 21:38:18 2025.
