 Gaussian 16, Revision C.01,

 ----------------------------------------------------------------------
 #t hf aug-cc-pvdz symm=none int=(grid=ultrafine) guess=(read,tcheck) s
 table=(opt,rrhf)
 ----------------------------------------------------------------------
 -----
 title
 -----
 Symbolic Z-matrix:
 Charge =  0 Multiplicity = 1

 SCF Done:  E(RHF) =  -866.308716757     A.U. after   15 cycles
 Normal termination of Gaussian 16 at Tue Apr  8 20:44:52 2025.
 Gaussian 16:  ES64L-G16RevC.01  3-Jul-2019

 ----------------------------------------------------------------------
 #t hf aug-cc-pvdz iop(5/13=1,5/36=2,99/5=2) pseudo=read geom=check gue
 ss=(read,tcheck) scf=(maxcycle=1)
 ----------------------------------------------------------------------
 -----
 title
 -----
 Structure from the checkpoint file:  "ANI1ccx_1746_conf9_mol2.chk"
 Charge =  0 Multiplicity = 1

                         Standard orientation:
 ---------------------------------------------------------------------
 Center     Atomic      Atomic             Coordinates (Angstroms)
 Number     Number       Type             X           Y           Z
 ---------------------------------------------------------------------
      1          6           0       -1.303019   -1.892031    0.509532
      2          6           0       -0.187153   -1.240760   -0.345426
      3          6           0       -2.601209   -1.386352   -0.053354
      4          6           0        1.805570    0.146933   -0.329484
      5          6           0        3.299430   -0.141365   -0.110699
      6          6           0        1.357509    1.523511    0.238503
      7          6           0       -0.137673    1.726220    0.064405
      8          6           0       -0.815721    2.341340   -0.905012
      9          6           0       -2.112662    1.942369    0.822181
     10          1           0        2.845151   -1.982168   -0.393278
     11          1           0       -2.885172    2.722468   -0.980697
     12          1           0       -2.962142    2.051768    1.477860
     13          1           0       -0.714170    2.774170   -1.872550
     14          1           0        1.926478    2.334262   -0.263340
     15          1           0        1.503939    1.400311    1.278750
     16          1           0        1.662000    0.146332   -1.383650
     17          1           0        0.962133   -0.820307    1.304700
     18          1           0       -1.972569   -1.454091   -1.780890
     19          1           0       -3.423669   -1.781842    0.582215
     20          1           0       -2.670140   -0.237775    0.087572
     21          1           0       -1.209628   -2.972561    0.313787
     22          1           0       -1.433748   -2.514381    2.398780
     23          1           0       -1.824900   -0.888654    2.144480
     24          7           0       -1.186579   -1.616271    1.963370
     25          7           0        1.005760   -0.884713    0.235945
     26          7           0       -0.956189    1.443179    1.136340
     27          7           0       -2.053542    2.519379   -0.394587
     28          8           0       -0.341359   -0.889090   -1.521900
     29          8           0       -2.813629   -1.788642   -1.366010
     30          8           0        4.082279    0.718811    0.226094
     31          8           0        3.660191   -1.432047   -0.193823
 ---------------------------------------------------------------------

 SCF Done:  E(RHF) =  -866.567891310     A.U. after    2 cycles

 The electronic state is 1-A.
 Alpha  occ. eigenvalues --  -20.62810 -20.56562 -20.55942 -20.55901 -15.69576
 Alpha  occ. eigenvalues --  -15.67023 -15.63762 -15.62472 -11.39773 -11.39077
 Alpha  occ. eigenvalues --  -11.32062 -11.30468 -11.29875 -11.29844 -11.27465
 Alpha  occ. eigenvalues --  -11.26854 -11.25243  -1.41698  -1.38053  -1.34164
 Alpha  occ. eigenvalues --   -1.32376  -1.32041  -1.22690  -1.18520  -1.15551
 Alpha  occ. eigenvalues --   -1.06462  -1.01969  -0.98955  -0.92740  -0.87599
 Alpha  occ. eigenvalues --   -0.83437  -0.82987  -0.80464  -0.80001  -0.76067
 Alpha  occ. eigenvalues --   -0.74996  -0.73884  -0.70184  -0.68284  -0.67145
 Alpha  occ. eigenvalues --   -0.66849  -0.65230  -0.64970  -0.63139  -0.62331
 Alpha  occ. eigenvalues --   -0.61602  -0.61260  -0.60909  -0.59518  -0.57907
 Alpha  occ. eigenvalues --   -0.56167  -0.55061  -0.53591  -0.53381  -0.51997
 Alpha  occ. eigenvalues --   -0.49350  -0.48412  -0.46687  -0.45626  -0.45061
 Alpha  occ. eigenvalues --   -0.42404  -0.41313  -0.40880  -0.33390
 Alpha virt. eigenvalues --    0.01931   0.02524   0.02944   0.04132   0.04720
 Alpha virt. eigenvalues --    0.05139   0.05898   0.06443   0.07105   0.07353
 Alpha virt. eigenvalues --    0.08076   0.08482   0.09081   0.09565   0.10085

 Mulliken charges:
               1
     1  C    0.316074
     2  C    0.477533
     3  C    0.976607
     4  C    0.122948
     5  C    0.836895
     6  C    0.637984
     7  C    0.283138
     8  C    1.022599
     9  C    0.795644
    10  H    0.291627
    11  H   -0.032578
    12  H   -0.418354
    13  H   -0.445338
    14  H   -0.062643
    15  H   -0.151026
    16  H   -0.163035
    17  H    0.219147
    18  H    0.264340
    19  H   -0.050354
    20  H   -0.255213
    21  H    0.006814
    22  H    0.091149
    23  H    0.091634
    24  N   -0.391079
    25  N   -0.912966
    26  N   -0.646394
    27  N   -0.500908
    28  O   -0.783081
    29  O   -0.596325
    30  O   -0.492647
    31  O   -0.532193
 Sum of Mulliken charges =  -0.00000

 Dipole moment (field-independent basis, Debye):
    X=             -5.9316    Y=              0.6412    Z=              0.9765  Tot=              6.0455

 Test job not archived.
 1\1\GINC-SE247\SP\RHF\Aug-CC-pVDZ\C9H14N4O4\OHZDE\08-Apr-2025\0\\#t hf
  aug-cc-pvdz iop(5/13=1,5/36=2,99/5=2) pseudo=read geom=check guess=(r
 ead,tcheck) scf=(maxcycle=1)\\title\\0,1\C,0,-1.30302,-1.89203,0.50953
 2\C,0,-0.187154,-1.24076,-0.345426\C,0,-2.60121,-1.38635,-0.0533541\C,
 0,1.80557,0.146931,-0.329484\C,0,3.29943,-0.141368,-0.110699\C,0,1.357
 51,1.52351,0.238503\C,0,-0.137671,1.72622,0.064405\C,0,-0.815719,2.341
 34,-0.905012\C,0,-2.11266,1.94237,0.822181\H,0,2.84515,-1.98217,-0.393
 278\H,0,-2.88517,2.72247,-0.980697\H,0,-2.96214,2.05177,1.47786\H,0,-0

 Normal termination of Gaussian 16 at Tue Apr  8 20:45:41 2025.
