 Gaussian 16, Revision C.01,

 ----------------------------------------------------------------------
 #t hf aug-cc-pvdz symm=none int=(grid=ultrafine) guess=(read,tcheck) s
 table=(opt,rrhf)
 ----------------------------------------------------------------------
 -----
 title
 -----
 Symbolic Z-matrix:
 Charge =  0 Multiplicity = 1

 SCF Done:  E(RHF) =  -966.617794948     A.U. after   14 cycles
 Normal termination of Gaussian 16 at Tue Apr  8 21:43:00 2025.
 Gaussian 16:  ES64L-G16RevC.01  3-Jul-2019

 ----------------------------------------------------------------------
 #t hf aug-cc-pvdz iop(5/13=1,5/36=2,99/5=2) pseudo=read geom=check gue
 ss=(read,tcheck) scf=(maxcycle=1)
 ----------------------------------------------------------------------
 -----
 title
 -----
 Structure from the checkpoint file:  "ANI1ccx_203_conf4_mol2.chk"
 Charge =  0 Multiplicity = 1

                         Standard orientation:
 ---------------------------------------------------------------------
 Center     Atomic      Atomic             Coordinates (Angstroms)
 Number     Number       Type             X           Y           Z
 ---------------------------------------------------------------------
      1          6           0        2.504591   -0.300293    1.337660
      2          6           0       -3.786119   -0.199652    0.583323
      3          6           0       -2.336519    0.001582    0.172247
      4          6           0       -1.879419    1.413240    0.266240
      5          6           0       -0.121894    3.142810   -0.472982
      6          6           0       -4.253880   -1.631239    0.621583
      7          6           0        1.350260   -2.124581   -1.067120
      8          6           0        2.017000   -2.566101    0.163603
      9          6           0        3.082150   -1.563911    0.673432
     10          6           0        1.787801    0.619987    0.348308
     11          6           0       -0.409188    1.621090   -0.234717
     12          1           0       -2.255979   -0.287801   -0.904385
     13          1           0        1.622701    2.600749   -0.894840
     14          1           0       -4.519650   -3.258849   -0.639207
     15          1           0       -3.244780   -2.362559   -0.969989
     16          1           0       -3.654580   -2.154899    1.421540
     17          1           0       -5.287470   -1.689389    0.960635
     18          1           0       -3.913169    0.251678    1.581700
     19          1           0       -4.429709    0.382098   -0.097020
     20          1           0       -1.711069   -0.712735    0.774145
     21          1           0       -2.556589    2.094480   -0.282733
     22          1           0        0.195054    0.350206    1.447390
     23          1           0       -0.317023    1.179180   -1.260050
     24          1           0        1.532801    0.209869    3.029760
     25          1           0       -1.910319    1.778610    1.297350
     26          1           0        3.361521    0.298523    1.673320
     27          1           0        3.664100   -2.103921    1.436470
     28          1           0        2.113800   -1.297361    3.081420
     29          1           0        1.321920   -2.788201    0.987915
     30          1           0        2.613130   -3.483041   -0.009225
     31          1           0        1.512320   -1.723731   -2.849410
     32          1           0        3.707881   -1.202991   -0.159141
     33          7           0        1.648401   -0.632379    2.470770
     34          7           0        0.532732    0.976019    0.700462
     35          7           0       -4.225240   -2.258229   -0.696065
     36          8           0       -0.952550    4.000930   -0.450934
     37          8           0        2.320471    1.059599   -0.670082
     38          8           0        0.173291   -1.791880   -1.144320
     39          8           0        2.126510   -2.079981   -2.170960
     40          8           0        1.174172    3.416909   -0.726357
 ---------------------------------------------------------------------

 SCF Done:  E(RHF) =  -966.910854014     A.U. after    2 cycles

 The electronic state is 1-A.
 Alpha  occ. eigenvalues --  -20.64088 -20.58645 -20.57867 -20.56596 -20.54833
 Alpha  occ. eigenvalues --  -15.67258 -15.65624 -15.60758 -11.41858 -11.38995
 Alpha  occ. eigenvalues --  -11.38415 -11.31561 -11.31038 -11.28454 -11.28034
 Alpha  occ. eigenvalues --  -11.25671 -11.24124 -11.23038 -11.22418  -1.44029
 Alpha  occ. eigenvalues --   -1.40528  -1.37733  -1.33051  -1.31656  -1.23575
 Alpha  occ. eigenvalues --   -1.19910  -1.14814  -1.09530  -1.07480  -1.01505
 Alpha  occ. eigenvalues --   -0.99044  -0.93609  -0.89686  -0.84535  -0.83273
 Alpha  occ. eigenvalues --   -0.81310  -0.79396  -0.77816  -0.74410  -0.73582
 Alpha  occ. eigenvalues --   -0.72641  -0.71751  -0.71159  -0.68991  -0.67100
 Alpha  occ. eigenvalues --   -0.65868  -0.65471  -0.65360  -0.64653  -0.63577
 Alpha  occ. eigenvalues --   -0.62430  -0.61152  -0.60776  -0.59555  -0.59315
 Alpha  occ. eigenvalues --   -0.58667  -0.56568  -0.56200  -0.54766  -0.54309
 Alpha  occ. eigenvalues --   -0.52020  -0.51816  -0.51113  -0.50515  -0.48940
 Alpha  occ. eigenvalues --   -0.48520  -0.47827  -0.47578  -0.47194  -0.45980
 Alpha  occ. eigenvalues --   -0.45487  -0.43331  -0.41110  -0.38713
 Alpha virt. eigenvalues --    0.01266   0.02660   0.02817   0.03743   0.04292
 Alpha virt. eigenvalues --    0.04786   0.05241   0.05660   0.06186   0.06572
 Alpha virt. eigenvalues --    0.06954   0.07288   0.07756   0.08361   0.08559

 Mulliken charges:
               1
     1  C    0.336365
     2  C    0.416734
     3  C   -0.130550
     4  C    0.704057
     5  C    0.888244
     6  C    1.060788
     7  C    0.640901
     8  C    0.351602
     9  C    0.233798
    10  C    0.127573
    11  C   -0.215575
    12  H   -0.166736
    13  H    0.191631
    14  H    0.034922
    15  H    0.050585
    16  H   -0.029130
    17  H   -0.205098
    18  H   -0.089994
    19  H   -0.107790
    20  H   -0.195659
    21  H   -0.115306
    22  H    0.091614
    23  H   -0.134263
    24  H    0.054091
    25  H   -0.183846
    26  H    0.023700
    27  H   -0.092134
    28  H   -0.058679
    29  H   -0.055789
    30  H    0.057165
    31  H    0.181968
    32  H   -0.035121
    33  N   -0.218946
    34  N   -0.379753
    35  N   -0.423007
    36  O   -0.449738
    37  O   -0.693313
    38  O   -0.456576
    39  O   -0.536044
    40  O   -0.472693
 Sum of Mulliken charges =  -0.00000

 Dipole moment (field-independent basis, Debye):
    X=              3.4844    Y=             -8.0601    Z=              5.1608  Tot=             10.1853

 Test job not archived.
 1\1\GINC-SE362\SP\RHF\Aug-CC-pVDZ\C11H21N3O5\OHZDE\08-Apr-2025\0\\#t h
 f aug-cc-pvdz iop(5/13=1,5/36=2,99/5=2) pseudo=read geom=check guess=(
 read,tcheck) scf=(maxcycle=1)\\title\\0,1\C,0,2.50459,-0.300292,1.3376
 6\C,0,-3.78612,-0.199653,0.583323\C,0,-2.33652,0.00158197,0.172247\C,0
 ,-1.87942,1.41324,0.26624\C,0,-0.121896,3.14281,-0.472982\C,0,-4.25388
 ,-1.63124,0.621583\C,0,1.35026,-2.12458,-1.06712\C,0,2.017,-2.5661,0.1
 63603\C,0,3.08215,-1.56391,0.673432\C,0,1.7878,0.619988,0.348308\C,0,-
 0.409189,1.62109,-0.234717\H,0,-2.25598,-0.287801,-0.904385\H,0,1.6227

 Normal termination of Gaussian 16 at Tue Apr  8 21:44:08 2025.
