 Gaussian 16, Revision C.01,

 ----------------------------------------------------------------------
 #t hf aug-cc-pvdz symm=none int=(grid=ultrafine) guess=(read,tcheck) s
 table=(opt,rrhf)
 ----------------------------------------------------------------------
 -----
 title
 -----
 Symbolic Z-matrix:
 Charge =  0 Multiplicity = 1

 SCF Done:  E(RHF) =  -809.785073495     A.U. after   14 cycles
 Normal termination of Gaussian 16 at Tue Apr  8 20:27:53 2025.
 Gaussian 16:  ES64L-G16RevC.01  3-Jul-2019

 ----------------------------------------------------------------------
 #t hf aug-cc-pvdz iop(5/13=1,5/36=2,99/5=2) pseudo=read geom=check gue
 ss=(read,tcheck) scf=(maxcycle=1)
 ----------------------------------------------------------------------
 -----
 title
 -----
 Structure from the checkpoint file:  "ANI1ccx_1634_conf21_mol1.chk"
 Charge =  0 Multiplicity = 1

                         Standard orientation:
 ---------------------------------------------------------------------
 Center     Atomic      Atomic             Coordinates (Angstroms)
 Number     Number       Type             X           Y           Z
 ---------------------------------------------------------------------
      1          6           0       -3.206140   -0.445666   -0.695079
      2          6           0       -2.840550   -0.242648    0.716677
      3          6           0       -0.258300    0.066364    0.367663
      4          6           0       -0.112102    1.315060   -0.549645
      5          6           0       -0.097224   -1.314640   -0.385830
      6          6           0        1.186650   -2.067801   -0.210540
      7          6           0        2.465680   -1.638521   -0.953585
      8          6           0        3.310540    0.223810    0.434891
      9          1           0       -1.338919    2.446290    0.602505
     10          1           0        3.552561    2.049199   -0.289115
     11          1           0        4.009011    1.990008    1.304711
     12          1           0        3.805940   -0.284603    2.192681
     13          1           0        2.130081    0.420400   -1.193569
     14          1           0        2.454200   -1.800271   -2.038449
     15          1           0        3.246430   -2.213821   -0.500286
     16          1           0        1.371560   -2.091681    0.885109
     17          1           0        1.008729   -3.081000   -0.502406
     18          1           0       -0.367599   -1.118450   -1.418079
     19          1           0       -0.919170   -1.923610   -0.070838
     20          1           0        0.519417    0.082482    1.134151
     21          1           0       -1.431170   -0.012747    2.094591
     22          1           0       -3.048930   -1.500039   -0.923816
     23          1           0       -2.519380    0.136120   -1.363289
     24          1           0       -5.138470   -0.671532   -0.265074
     25          1           0       -4.761679    0.818723   -0.579730
     26          7           0       -4.611790   -0.095906   -0.898480
     27          7           0       -1.516010    0.101394    1.092941
     28          7           0        2.838440   -0.204066   -0.765642
     29          7           0        3.536410   -0.694132    1.291251
     30          7           0        3.378641    1.606699    0.593566
     31          8           0       -3.670760   -0.399561    1.634811
     32          8           0        0.622658    1.282770   -1.507529
     33          8           0       -0.782371    2.414400   -0.203759
 ---------------------------------------------------------------------

 SCF Done:  E(RHF) =  -810.029632758     A.U. after    2 cycles

 The electronic state is 1-A.
 Alpha  occ. eigenvalues --  -20.64970 -20.58768 -20.56151 -15.67147 -15.64786
 Alpha  occ. eigenvalues --  -15.61820 -15.61313 -15.56812 -11.43166 -11.39105
 Alpha  occ. eigenvalues --  -11.34829 -11.32697 -11.29936 -11.26158 -11.25247
 Alpha  occ. eigenvalues --  -11.23383  -1.44535  -1.35874  -1.35684  -1.26644
 Alpha  occ. eigenvalues --   -1.21986  -1.17781  -1.14801  -1.09940  -1.06749
 Alpha  occ. eigenvalues --   -1.00204  -0.97333  -0.92634  -0.88299  -0.82929
 Alpha  occ. eigenvalues --   -0.80517  -0.77160  -0.75003  -0.73245  -0.72637
 Alpha  occ. eigenvalues --   -0.70173  -0.69627  -0.69032  -0.68288  -0.66718
 Alpha  occ. eigenvalues --   -0.63855  -0.63041  -0.62005  -0.61180  -0.60618
 Alpha  occ. eigenvalues --   -0.59327  -0.57857  -0.57699  -0.55732  -0.53769
 Alpha  occ. eigenvalues --   -0.53471  -0.52892  -0.50748  -0.50572  -0.49093
 Alpha  occ. eigenvalues --   -0.47784  -0.47174  -0.41754  -0.41652  -0.41178
 Alpha  occ. eigenvalues --   -0.40368  -0.33885
 Alpha virt. eigenvalues --    0.02270   0.02992   0.03465   0.03613   0.04743
 Alpha virt. eigenvalues --    0.05167   0.05799   0.06156   0.06674   0.07247
 Alpha virt. eigenvalues --    0.07893   0.08325   0.08595   0.09237   0.09309

 Mulliken charges:
               1
     1  C    0.845044
     2  C    0.564251
     3  C   -0.313281
     4  C    0.826539
     5  C    1.087998
     6  C    0.060403
     7  C    0.683045
     8  C    0.625833
     9  H    0.248479
    10  H   -0.016649
    11  H   -0.008544
    12  H   -0.081156
    13  H    0.017524
    14  H   -0.211805
    15  H   -0.112590
    16  H    0.052370
    17  H   -0.132860
    18  H   -0.285253
    19  H   -0.269718
    20  H   -0.331033
    21  H   -0.047095
    22  H   -0.031400
    23  H   -0.091353
    24  H    0.062352
    25  H   -0.037112
    26  N   -0.321758
    27  N   -0.263496
    28  N   -0.213395
    29  N   -0.337186
    30  N   -0.237852
    31  O   -0.619872
    32  O   -0.559317
    33  O   -0.551111
 Sum of Mulliken charges =  -0.00000

 Dipole moment (field-independent basis, Debye):
    X=              0.7654    Y=              1.5004    Z=              1.3797  Tot=              2.1773

 Test job not archived.
 1\1\GINC-SE078\SP\RHF\Aug-CC-pVDZ\C8H17N5O3\OHZDE\08-Apr-2025\0\\#t hf
  aug-cc-pvdz iop(5/13=1,5/36=2,99/5=2) pseudo=read geom=check guess=(r
 ead,tcheck) scf=(maxcycle=1)\\title\\0,1\C,0,-3.20614,-0.445667,-0.695
 08\C,0,-2.84055,-0.242649,0.716676\C,0,-0.2583,0.0663636,0.367662\C,0,
 -0.112103,1.31506,-0.549646\C,0,-0.0972243,-1.31464,-0.385831\C,0,1.18
 665,-2.0678,-0.210541\C,0,2.46568,-1.63852,-0.953586\C,0,3.31054,0.223
 811,0.43489\H,0,-1.33892,2.44629,0.602504\H,0,3.55256,2.0492,-0.289116
 \H,0,4.00901,1.99001,1.30471\H,0,3.80594,-0.284602,2.19268\H,0,2.13008

 Normal termination of Gaussian 16 at Tue Apr  8 20:28:40 2025.
