 Gaussian 16, Revision C.01,

 ----------------------------------------------------------------------
 #t hf aug-cc-pvdz symm=none int=(grid=ultrafine) guess=(read,tcheck) s
 table=(opt,rrhf)
 ----------------------------------------------------------------------
 -----
 title
 -----
 Symbolic Z-matrix:
 Charge =  0 Multiplicity = 1

 SCF Done:  E(RHF) =  -849.418805794     A.U. after   15 cycles
 Normal termination of Gaussian 16 at Tue Apr  8 20:17:16 2025.
 Gaussian 16:  ES64L-G16RevC.01  3-Jul-2019

 ----------------------------------------------------------------------
 #t hf aug-cc-pvdz iop(5/13=1,5/36=2,99/5=2) pseudo=read geom=check gue
 ss=(read,tcheck) scf=(maxcycle=1)
 ----------------------------------------------------------------------
 -----
 title
 -----
 Structure from the checkpoint file:  "ANI1ccx_1611_conf16_mol1.chk"
 Charge =  0 Multiplicity = 1

                         Standard orientation:
 ---------------------------------------------------------------------
 Center     Atomic      Atomic             Coordinates (Angstroms)
 Number     Number       Type             X           Y           Z
 ---------------------------------------------------------------------
      1          6           0       -2.005219    0.570821    0.254093
      2          6           0       -1.177530   -0.617156   -0.112260
      3          6           0       -3.554459    0.200236    0.534330
      4          6           0       -4.325120   -0.203307   -0.690023
      5          6           0        1.076730    0.107257    0.805917
      6          6           0        1.555491    1.376139    0.217930
      7          6           0        2.158190   -0.850851    1.136720
      8          6           0        3.034310   -1.052041   -0.128168
      9          1           0       -0.001928    1.529440   -0.739925
     10          1           0        4.940990   -1.124372   -0.733783
     11          1           0        4.619490   -0.033160    0.573323
     12          1           0        2.832900   -0.582894    1.947710
     13          1           0        1.760050   -1.903381    1.303590
     14          1           0        0.548019    0.380983    1.637870
     15          1           0        0.604115   -1.245590   -0.624834
     16          1           0       -4.430659    0.741750   -1.223150
     17          1           0       -5.304040   -0.536111   -0.366682
     18          1           0       -3.752710   -0.925770   -1.233970
     19          1           0       -3.162180   -1.668819    0.683499
     20          1           0       -3.935829    1.092951    1.077010
     21          1           0       -1.719239    1.011060    1.203480
     22          1           0       -2.156809    2.416370   -0.568453
     23          1           0       -1.972529    1.260440   -1.716270
     24          7           0       -1.644979    1.565610   -0.788969
     25          7           0        0.198977   -0.494855   -0.116038
     26          7           0        4.312930   -0.563299   -0.219639
     27          8           0       -1.562910   -1.569340   -0.744321
     28          8           0       -3.307360   -0.947937    1.327540
     29          8           0        2.649601    1.844239    0.704064
     30          8           0        2.551030   -1.384921   -1.218930
     31          8           0        0.980576    1.913999   -0.750613
 ---------------------------------------------------------------------

 SCF Done:  E(RHF) =  -849.678356847     A.U. after    2 cycles

 The electronic state is 1-A.
 Alpha  occ. eigenvalues --  -20.60996 -20.58499 -20.56150 -20.54328 -20.52319
 Alpha  occ. eigenvalues --  -15.67664 -15.64213 -15.63755 -11.38765 -11.38038
 Alpha  occ. eigenvalues --  -11.37581 -11.32844 -11.31653 -11.30449 -11.28219
 Alpha  occ. eigenvalues --  -11.24394  -1.43133  -1.39457  -1.35115  -1.34512
 Alpha  occ. eigenvalues --   -1.27004  -1.23753  -1.21119  -1.17022  -1.06803
 Alpha  occ. eigenvalues --   -1.04367  -0.98447  -0.95497  -0.87648  -0.83391
 Alpha  occ. eigenvalues --   -0.80713  -0.79426  -0.76574  -0.75684  -0.71931
 Alpha  occ. eigenvalues --   -0.71216  -0.69407  -0.69183  -0.67647  -0.66674
 Alpha  occ. eigenvalues --   -0.66596  -0.66169  -0.63748  -0.62525  -0.61176
 Alpha  occ. eigenvalues --   -0.59918  -0.59272  -0.58335  -0.57590  -0.56411
 Alpha  occ. eigenvalues --   -0.55581  -0.54767  -0.53879  -0.52011  -0.50621
 Alpha  occ. eigenvalues --   -0.47003  -0.45875  -0.45116  -0.44280  -0.42392
 Alpha  occ. eigenvalues --   -0.41052  -0.40011
 Alpha virt. eigenvalues --    0.01919   0.02916   0.03603   0.03885   0.04667
 Alpha virt. eigenvalues --    0.05460   0.05660   0.06396   0.06811   0.07286
 Alpha virt. eigenvalues --    0.07411   0.08591   0.08967   0.09423   0.10234

 Mulliken charges:
               1
     1  C    0.600526
     2  C    0.267863
     3  C    0.016990
     4  C    0.746801
     5  C    1.092859
     6  C    0.538810
     7  C    0.479382
     8  C    0.703194
     9  H    0.567344
    10  H   -0.031431
    11  H    0.062528
    12  H   -0.219466
    13  H    0.197536
    14  H   -0.364095
    15  H    0.057055
    16  H    0.029431
    17  H   -0.010621
    18  H   -0.099849
    19  H    0.275479
    20  H   -0.077513
    21  H   -0.249892
    22  H    0.061281
    23  H    0.150683
    24  N   -0.795238
    25  N   -0.690780
    26  N   -0.196860
    27  O   -0.583312
    28  O   -0.630436
    29  O   -0.748966
    30  O   -0.666622
    31  O   -0.482682
 Sum of Mulliken charges =  -0.00000

 Dipole moment (field-independent basis, Debye):
    X=             -3.8139    Y=              0.3101    Z=              2.5018  Tot=              4.5718

 Test job not archived.
 1\1\GINC-SE150\SP\RHF\Aug-CC-pVDZ\C8H15N3O5\OHZDE\08-Apr-2025\0\\#t hf
  aug-cc-pvdz iop(5/13=1,5/36=2,99/5=2) pseudo=read geom=check guess=(r
 ead,tcheck) scf=(maxcycle=1)\\title\\0,1\C,0,-2.00522,0.570821,0.25409
 3\C,0,-1.17753,-0.617156,-0.11226\C,0,-3.55446,0.200235,0.53433\C,0,-4
 .32512,-0.203308,-0.690023\C,0,1.07673,0.107258,0.805917\C,0,1.55549,1
 .37614,0.21793\C,0,2.15819,-0.85085,1.13672\C,0,3.03431,-1.05204,-0.12
 8168\H,0,-0.00192858,1.52944,-0.739925\H,0,4.94099,-1.12437,-0.733783\
 H,0,4.61949,-0.0331588,0.573323\H,0,2.8329,-0.582893,1.94771\H,0,1.760

 Normal termination of Gaussian 16 at Tue Apr  8 20:17:59 2025.
