 Gaussian 16, Revision C.01,

 ----------------------------------------------------------------------
 #t hf aug-cc-pvdz symm=none int=(grid=ultrafine) guess=(read,tcheck) s
 table=(opt,rrhf)
 ----------------------------------------------------------------------
 -----
 title
 -----
 Symbolic Z-matrix:
 Charge =  0 Multiplicity = 1

 SCF Done:  E(RHF) =  -276.586149038     A.U. after   15 cycles
 Normal termination of Gaussian 16 at Tue Apr  8 21:15:22 2025.
 Gaussian 16:  ES64L-G16RevC.01  3-Jul-2019

 ----------------------------------------------------------------------
 #t hf aug-cc-pvdz iop(5/13=1,5/36=2,99/5=2) pseudo=read geom=check gue
 ss=(read,tcheck) scf=(maxcycle=1)
 ----------------------------------------------------------------------
 -----
 title
 -----
 Structure from the checkpoint file:  "ANI1ccx_370_conf64_mol1.chk"
 Charge =  0 Multiplicity = 1

                         Standard orientation:
 ---------------------------------------------------------------------
 Center     Atomic      Atomic             Coordinates (Angstroms)
 Number     Number       Type             X           Y           Z
 ---------------------------------------------------------------------
      1          6           0        0.999154    0.281312    0.022443
      2          1           0        2.100400    0.245851    0.001466
      3          7           0        0.085967    1.178171   -0.023958
      4          7           0       -1.048300    0.425122    0.020536
      5          7           0       -0.866634   -0.780489   -0.009379
      6          8           0        0.588431   -0.961669   -0.005814
 ---------------------------------------------------------------------

 SCF Done:  E(RHF) =  -276.665593941     A.U. after    2 cycles

 The electronic state is 1-A.
 Alpha  occ. eigenvalues --  -20.70592 -15.78635 -15.75925 -15.69928 -11.40313
 Alpha  occ. eigenvalues --   -1.54405  -1.34874  -1.22473  -0.92221  -0.91139
 Alpha  occ. eigenvalues --   -0.77740  -0.73554  -0.66559  -0.60451  -0.55133
 Alpha  occ. eigenvalues --   -0.51284  -0.50102  -0.45974
 Alpha virt. eigenvalues --    0.02779   0.06541   0.07652   0.09206   0.10423
 Alpha virt. eigenvalues --    0.12832   0.13065   0.15092   0.15760   0.17557
 Alpha virt. eigenvalues --    0.18848   0.19923   0.20843   0.23089   0.24218

 Mulliken charges:
               1
     1  C    0.805177
     2  H   -0.084810
     3  N   -0.308353
     4  N   -0.013747
     5  N    0.079303
     6  O   -0.477571
 Sum of Mulliken charges =   0.00000

 Dipole moment (field-independent basis, Debye):
    X=              2.7011    Y=             -0.1606    Z=              0.0561  Tot=              2.7064

 Test job not archived.
 1\1\GINC-SE460\SP\RHF\Aug-CC-pVDZ\C1H1N3O1\OHZDE\08-Apr-2025\0\\#t hf
 aug-cc-pvdz iop(5/13=1,5/36=2,99/5=2) pseudo=read geom=check guess=(re
 ad,tcheck) scf=(maxcycle=1)\\title\\0,1\C,0,0.999154,0.28131,0.0224431
 \H,0,2.1004,0.245848,0.00146568\N,0,0.0859683,1.17817,-0.0239582\N,0,-
 1.0483,0.425123,0.0205356\N,0,-0.866635,-0.780488,-0.00937932\O,0,0.58
 843,-0.96167,-0.00581382\\Version=ES64L-G16RevC.01\State=1-A\HF=-276.6
 655939\RMSD=3.395e-03\Dipole=1.0626898,-0.0631893,0.022089\Quadrupole=
 2.6317112,-3.5304303,0.8987191,0.5471439,0.0553625,0.0270706\PG=C01 [X

 Normal termination of Gaussian 16 at Tue Apr  8 21:15:23 2025.
