 Gaussian 16, Revision C.01,

 ----------------------------------------------------------------------
 #t hf aug-cc-pvdz symm=none int=(grid=ultrafine) guess=(read,tcheck) s
 table=(opt,rrhf)
 ----------------------------------------------------------------------
 -----
 title
 -----
 Symbolic Z-matrix:
 Charge =  0 Multiplicity = 1

 SCF Done:  E(RHF) =  -942.453063829     A.U. after   14 cycles
 Normal termination of Gaussian 16 at Tue Apr  8 21:02:37 2025.
 Gaussian 16:  ES64L-G16RevC.01  3-Jul-2019

 ----------------------------------------------------------------------
 #t hf aug-cc-pvdz iop(5/13=1,5/36=2,99/5=2) pseudo=read geom=check gue
 ss=(read,tcheck) scf=(maxcycle=1)
 ----------------------------------------------------------------------
 -----
 title
 -----
 Structure from the checkpoint file:  "ANI1ccx_1763_conf9_mol2.chk"
 Charge =  0 Multiplicity = 1

                         Standard orientation:
 ---------------------------------------------------------------------
 Center     Atomic      Atomic             Coordinates (Angstroms)
 Number     Number       Type             X           Y           Z
 ---------------------------------------------------------------------
      1          6           0        1.963721   -1.565010   -0.674519
      2          6           0       -0.793065    1.560049    1.082869
      3          6           0       -1.478630    0.358091    1.662349
      4          6           0       -2.826760   -1.005042   -0.016225
      5          6           0       -1.232221    1.964359   -0.299084
      6          6           0        2.885760    0.688045    0.077736
      7          6           0        3.204230   -0.705394   -0.364835
      8          6           0        0.903015   -1.367470    0.452353
      9          6           0       -1.533170   -0.904992    0.820542
     10          1           0       -0.963929    0.180511    2.633999
     11          1           0       -3.437620   -1.057482   -1.776061
     12          1           0        0.708960    2.279299   -1.002941
     13          1           0       -0.571617    2.716019   -2.095631
     14          1           0       -0.917841    2.418199    1.754779
     15          1           0        0.276356    1.403319    1.086699
     16          1           0       -2.521380    0.631980    1.940199
     17          1           0       -1.640539   -1.735641    1.532709
     18          1           0       -0.459721   -0.961124   -0.941414
     19          1           0        2.951470    0.129769    2.022239
     20          1           0        2.749849    1.804880    1.750229
     21          1           0        3.780590   -1.208789    0.417067
     22          1           0        3.918770   -0.628783   -1.189431
     23          1           0        2.287611   -2.617060   -0.594314
     24          1           0        2.100100   -1.056470   -2.686131
     25          1           0        1.010871   -2.159600   -2.330931
     26          7           0        1.379450   -1.269980   -1.974061
     27          7           0        3.067090    0.924407    1.411729
     28          7           0       -0.351463   -1.099201    0.005576
     29          7           0       -0.291697    2.418419   -1.173451
     30          8           0        1.182491   -1.523650    1.631309
     31          8           0        2.428030    1.522230   -0.687665
     32          8           0       -3.941040   -0.914411    0.430596
     33          8           0       -2.400401    1.900728   -0.668382
     34          8           0       -2.575690   -1.121192   -1.312951
 ---------------------------------------------------------------------

 SCF Done:  E(RHF) =  -942.738635426     A.U. after    2 cycles

 The electronic state is 1-A.
 Alpha  occ. eigenvalues --  -20.63059 -20.56292 -20.55954 -20.55497 -20.51668
 Alpha  occ. eigenvalues --  -15.66019 -15.65415 -15.64496 -15.62134 -11.40258
 Alpha  occ. eigenvalues --  -11.38914 -11.38287 -11.35009 -11.31965 -11.30608
 Alpha  occ. eigenvalues --  -11.27664 -11.24522 -11.24438  -1.43607  -1.37622
 Alpha  occ. eigenvalues --   -1.36613  -1.32834  -1.32759  -1.23066  -1.20079
 Alpha  occ. eigenvalues --   -1.18984  -1.14840  -1.07486  -1.05026  -1.00262
 Alpha  occ. eigenvalues --   -0.92240  -0.89366  -0.83228  -0.81639  -0.79741
 Alpha  occ. eigenvalues --   -0.76283  -0.75391  -0.73044  -0.72124  -0.71660
 Alpha  occ. eigenvalues --   -0.70728  -0.69389  -0.68140  -0.67733  -0.66737
 Alpha  occ. eigenvalues --   -0.65410  -0.64321  -0.63876  -0.62039  -0.61305
 Alpha  occ. eigenvalues --   -0.60225  -0.59435  -0.58545  -0.57703  -0.56173
 Alpha  occ. eigenvalues --   -0.55113  -0.52940  -0.52693  -0.51440  -0.49605
 Alpha  occ. eigenvalues --   -0.49078  -0.47529  -0.47167  -0.46210  -0.44277
 Alpha  occ. eigenvalues --   -0.42502  -0.41897  -0.40733  -0.39197
 Alpha virt. eigenvalues --    0.01799   0.02945   0.03503   0.03599   0.05068
 Alpha virt. eigenvalues --    0.05511   0.05782   0.06040   0.06241   0.07293
 Alpha virt. eigenvalues --    0.07917   0.08274   0.08861   0.08988   0.09694

 Mulliken charges:
               1
     1  C    0.247296
     2  C    0.616528
     3  C    0.082555
     4  C    0.961902
     5  C    0.689445
     6  C    0.568768
     7  C    0.457450
     8  C    0.300891
     9  C    0.111273
    10  H    0.057064
    11  H    0.243606
    12  H    0.087285
    13  H   -0.059965
    14  H    0.029130
    15  H   -0.504839
    16  H   -0.093832
    17  H   -0.045511
    18  H    0.002346
    19  H    0.127263
    20  H   -0.029530
    21  H   -0.099494
    22  H   -0.048690
    23  H    0.020344
    24  H    0.015866
    25  H    0.043600
    26  N   -0.291610
    27  N   -0.162727
    28  N    0.021006
    29  N   -0.182601
    30  O   -0.673114
    31  O   -0.677642
    32  O   -0.542649
    33  O   -0.642566
    34  O   -0.628849
 Sum of Mulliken charges =  -0.00000

 Dipole moment (field-independent basis, Debye):
    X=              6.4677    Y=             -2.9255    Z=             -1.6458  Tot=              7.2868

 Test job not archived.
 1\1\GINC-SE366\SP\RHF\Aug-CC-pVDZ\C9H16N4O5\OHZDE\08-Apr-2025\0\\#t hf
  aug-cc-pvdz iop(5/13=1,5/36=2,99/5=2) pseudo=read geom=check guess=(r
 ead,tcheck) scf=(maxcycle=1)\\title\\0,1\C,0,1.96372,-1.56501,-0.67451
 8\C,0,-0.793065,1.56005,1.08287\C,0,-1.47863,0.358092,1.66235\C,0,-2.8
 2676,-1.00504,-0.0162243\C,0,-1.23222,1.96436,-0.299083\C,0,2.88576,0.
 688045,0.0777371\C,0,3.20423,-0.705394,-0.364834\C,0,0.903014,-1.36747
 ,0.452354\C,0,-1.53317,-0.904991,0.820543\H,0,-0.963929,0.180512,2.634
 \H,0,-3.43762,-1.05748,-1.77606\H,0,0.708961,2.2793,-1.00294\H,0,-0.57

 Normal termination of Gaussian 16 at Tue Apr  8 21:03:27 2025.
