 Gaussian 16, Revision C.01,

 ----------------------------------------------------------------------
 #t hf aug-cc-pvdz symm=none int=(grid=ultrafine) guess=(read,tcheck) s
 table=(opt,rrhf)
 ----------------------------------------------------------------------
 -----
 title
 -----
 Symbolic Z-matrix:
 Charge =  0 Multiplicity = 1

 SCF Done:  E(RHF) =  -849.428610202     A.U. after   14 cycles
 Normal termination of Gaussian 16 at Tue Apr  8 20:16:19 2025.
 Gaussian 16:  ES64L-G16RevC.01  3-Jul-2019

 ----------------------------------------------------------------------
 #t hf aug-cc-pvdz iop(5/13=1,5/36=2,99/5=2) pseudo=read geom=check gue
 ss=(read,tcheck) scf=(maxcycle=1)
 ----------------------------------------------------------------------
 -----
 title
 -----
 Structure from the checkpoint file:  "ANI1ccx_1611_conf15_mol1.chk"
 Charge =  0 Multiplicity = 1

                         Standard orientation:
 ---------------------------------------------------------------------
 Center     Atomic      Atomic             Coordinates (Angstroms)
 Number     Number       Type             X           Y           Z
 ---------------------------------------------------------------------
      1          6           0       -2.212009   -0.253271    0.877839
      2          6           0       -1.038769   -0.956284    0.149916
      3          6           0       -3.414779    0.031445   -0.044247
      4          6           0       -3.128139    1.022740   -1.170520
      5          6           0        1.203381    0.331702    0.877332
      6          6           0        1.341581    1.473080   -0.125002
      7          6           0        2.565941   -0.246252    1.273020
      8          6           0        3.187301   -0.838079    0.059321
      9          1           0        0.353511    2.719620   -1.170460
     10          1           0        4.534421   -0.970772   -1.246640
     11          1           0        4.631741    0.573882   -0.658283
     12          1           0        3.228711    0.524802    1.607990
     13          1           0        2.377601   -1.081480    1.961010
     14          1           0        0.716515    0.632016    1.830730
     15          1           0        0.730022   -1.282740   -0.410305
     16          1           0       -4.134029    1.304701   -1.440190
     17          1           0       -2.598869    0.407812   -1.950090
     18          1           0       -2.562629    1.798350   -0.734354
     19          1           0       -3.064149   -1.724290   -0.608748
     20          1           0       -4.362409    0.389076    0.501001
     21          1           0       -2.516679   -1.003330    1.611850
     22          1           0       -2.613959    1.782380    1.206790
     23          1           0       -1.943339    1.058380    2.526410
     24          7           0       -2.001989    0.974503    1.520260
     25          7           0        0.267664   -0.591779    0.190034
     26          7           0        4.178391   -0.312429   -0.630778
     27          8           0       -1.341129   -1.842410   -0.668475
     28          8           0       -3.917119   -1.230810   -0.480459
     29          8           0        2.334551    1.807300   -0.693093
     30          8           0        2.682201   -1.880650   -0.368415
     31          8           0        0.127502    2.020200   -0.535716
 ---------------------------------------------------------------------

 SCF Done:  E(RHF) =  -849.688267636     A.U. after    2 cycles

 The electronic state is 1-A.
 Alpha  occ. eigenvalues --  -20.62937 -20.59772 -20.54260 -20.53770 -20.52740
 Alpha  occ. eigenvalues --  -15.65868 -15.65385 -15.61851 -11.42656 -11.38024
 Alpha  occ. eigenvalues --  -11.37763 -11.34752 -11.28768 -11.28690 -11.28433
 Alpha  occ. eigenvalues --  -11.21625  -1.44482  -1.36342  -1.35693  -1.34231
 Alpha  occ. eigenvalues --   -1.28660  -1.21294  -1.19897  -1.17791  -1.08501
 Alpha  occ. eigenvalues --   -1.00402  -0.97405  -0.94376  -0.85372  -0.82699
 Alpha  occ. eigenvalues --   -0.81654  -0.78232  -0.75932  -0.74810  -0.72244
 Alpha  occ. eigenvalues --   -0.70779  -0.70647  -0.68877  -0.67508  -0.66071
 Alpha  occ. eigenvalues --   -0.64292  -0.63904  -0.63450  -0.62290  -0.59922
 Alpha  occ. eigenvalues --   -0.59022  -0.58425  -0.57771  -0.56665  -0.55894
 Alpha  occ. eigenvalues --   -0.54596  -0.53269  -0.52677  -0.51293  -0.50284
 Alpha  occ. eigenvalues --   -0.48759  -0.45400  -0.45178  -0.42534  -0.41607
 Alpha  occ. eigenvalues --   -0.40627  -0.37743
 Alpha virt. eigenvalues --    0.01801   0.02879   0.03150   0.04062   0.04763
 Alpha virt. eigenvalues --    0.05173   0.05633   0.06616   0.06933   0.07564
 Alpha virt. eigenvalues --    0.07945   0.08074   0.09431   0.09645   0.10242

 Mulliken charges:
               1
     1  C    0.543292
     2  C    0.457715
     3  C    0.004271
     4  C    0.569506
     5  C    0.383979
     6  C    0.619651
     7  C    0.645021
     8  C    0.633997
     9  H    0.194606
    10  H   -0.040669
    11  H   -0.042369
    12  H   -0.110024
    13  H    0.134551
    14  H   -0.089006
    15  H    0.076580
    16  H    0.022116
    17  H    0.159462
    18  H   -0.184090
    19  H    0.265205
    20  H   -0.280316
    21  H   -0.043867
    22  H    0.172017
    23  H   -0.076631
    24  N   -0.401342
    25  N   -0.604729
    26  N    0.026047
    27  O   -0.715272
    28  O   -0.649226
    29  O   -0.445060
    30  O   -0.643028
    31  O   -0.582388
 Sum of Mulliken charges =   0.00000

 Dipole moment (field-independent basis, Debye):
    X=              5.0473    Y=              6.5479    Z=              4.8067  Tot=              9.5632

 Test job not archived.
 1\1\GINC-SE079\SP\RHF\Aug-CC-pVDZ\C8H15N3O5\OHZDE\08-Apr-2025\0\\#t hf
  aug-cc-pvdz iop(5/13=1,5/36=2,99/5=2) pseudo=read geom=check guess=(r
 ead,tcheck) scf=(maxcycle=1)\\title\\0,1\C,0,-2.21201,-0.253271,0.8778
 39\C,0,-1.03877,-0.956284,0.149916\C,0,-3.41478,0.0314447,-0.0442472\C
 ,0,-3.12814,1.02274,-1.17052\C,0,1.20338,0.331702,0.877332\C,0,1.34158
 ,1.47308,-0.125002\C,0,2.56594,-0.246252,1.27302\C,0,3.1873,-0.838078,
 0.0593207\H,0,0.35351,2.71962,-1.17046\H,0,4.53442,-0.970771,-1.24664\
 H,0,4.63174,0.573883,-0.658283\H,0,3.22871,0.524803,1.60799\H,0,2.3776

 Normal termination of Gaussian 16 at Tue Apr  8 20:17:00 2025.
