 Gaussian 16, Revision C.01,

 ----------------------------------------------------------------------
 #t hf aug-cc-pvdz symm=none int=(grid=ultrafine) guess=(read,tcheck) s
 table=(opt,rrhf)
 ----------------------------------------------------------------------
 -----
 title
 -----
 Symbolic Z-matrix:
 Charge =  0 Multiplicity = 1

 SCF Done:  E(RHF) =  -456.258316681     A.U. after   11 cycles
 Normal termination of Gaussian 16 at Tue Apr  8 21:05:40 2025.
 Gaussian 16:  ES64L-G16RevC.01  3-Jul-2019

 ----------------------------------------------------------------------
 #t hf aug-cc-pvdz iop(5/13=1,5/36=2,99/5=2) pseudo=read geom=check gue
 ss=(read,tcheck) scf=(maxcycle=1)
 ----------------------------------------------------------------------
 -----
 title
 -----
 Structure from the checkpoint file:  "ANI1ccx_1844_conf196_mol1.chk"
 Charge =  0 Multiplicity = 1

                         Standard orientation:
 ---------------------------------------------------------------------
 Center     Atomic      Atomic             Coordinates (Angstroms)
 Number     Number       Type             X           Y           Z
 ---------------------------------------------------------------------
      1          1           0        0.930840    2.024147    0.170907
      2          1           0        2.297137    0.285709   -0.192505
      3          1           0        3.189535   -0.686441    0.676865
      4          1           0        1.172575   -3.205181   -0.439622
      5          1           0        1.533643   -1.691988    0.000818
      6          1           0       -3.100695    0.443962   -0.903573
      7          1           0        2.248998    2.527998   -0.546177
      8          1           0       -2.314789   -0.253300    0.232183
      9          1           0       -2.173989   -2.680299    0.656647
     10          1           0       -0.907928   -2.148068   -0.084693
     11          1           0       -1.477756    1.853577   -0.267952
     12          1           0       -1.211675    2.970249    0.784603
     13          8           0        0.796320   -2.383494    0.106477
     14          8           0       -1.862674   -2.041586   -0.032325
     15          8           0        2.688754   -0.629823   -0.174151
     16          8           0       -2.714556    0.654990    0.011263
     17          8           0        1.886173    1.915405    0.131646
     18          8           0       -0.817254    2.554463   -0.053847
 ---------------------------------------------------------------------

 SCF Done:  E(RHF) =  -456.409447180     A.U. after    2 cycles

 The electronic state is 1-A.
 Alpha  occ. eigenvalues --  -20.58092 -20.57959 -20.57882 -20.57027 -20.56667
 Alpha  occ. eigenvalues --  -20.56592  -1.32027  -1.30489  -1.30299  -1.29305
 Alpha  occ. eigenvalues --   -1.27829  -1.26316  -0.74393  -0.73402  -0.72757
 Alpha  occ. eigenvalues --   -0.70769  -0.70006  -0.69474  -0.63714  -0.62515
 Alpha  occ. eigenvalues --   -0.61428  -0.58035  -0.57751  -0.55662  -0.52974
 Alpha  occ. eigenvalues --   -0.52136  -0.51692  -0.51603  -0.51389  -0.50846
 Alpha virt. eigenvalues --    0.03175   0.04454   0.04682   0.05866   0.06079
 Alpha virt. eigenvalues --    0.06294   0.08833   0.09105   0.09267   0.09432
 Alpha virt. eigenvalues --    0.11322   0.11670   0.17104   0.18537   0.19493

 Mulliken charges:
               1
     1  H    0.234724
     2  H    0.288993
     3  H    0.201609
     4  H    0.235187
     5  H    0.332203
     6  H    0.222750
     7  H    0.188037
     8  H    0.292833
     9  H    0.187166
    10  H    0.243079
    11  H    0.255606
    12  H    0.216430
    13  O   -0.554657
    14  O   -0.421387
    15  O   -0.503540
    16  O   -0.519371
    17  O   -0.417048
    18  O   -0.482615
 Sum of Mulliken charges =  -0.00000

 Dipole moment (field-independent basis, Debye):
    X=              0.7105    Y=             -0.6768    Z=              0.2231  Tot=              1.0062

 Test job not archived.
 1\1\GINC-SE252\SP\RHF\Aug-CC-pVDZ\H12O6\OHZDE\08-Apr-2025\0\\#t hf aug
 -cc-pvdz iop(5/13=1,5/36=2,99/5=2) pseudo=read geom=check guess=(read,
 tcheck) scf=(maxcycle=1)\\title\\0,1\H,0,0.930858,2.02414,0.170907\H,0
 ,2.29714,0.285691,-0.192505\H,0,3.18953,-0.686467,0.676865\H,0,1.17255
 ,-3.20519,-0.439622\H,0,1.53363,-1.692,0.00081848\H,0,-3.10069,0.44398
 8,-0.903573\H,0,2.24902,2.52798,-0.546177\H,0,-2.31479,-0.25328,0.2321
 83\H,0,-2.17401,-2.68028,0.656647\H,0,-0.907945,-2.14806,-0.0846928\H,
 0,-1.47774,1.85359,-0.267952\H,0,-1.21165,2.97026,0.784603\O,0,0.79630

 Normal termination of Gaussian 16 at Tue Apr  8 21:05:44 2025.
