 Gaussian 16, Revision C.01,

 ----------------------------------------------------------------------
 #t hf aug-cc-pvdz symm=none int=(grid=ultrafine) guess=(read,tcheck) s
 table=(opt,rrhf)
 ----------------------------------------------------------------------
 -----
 title
 -----
 Symbolic Z-matrix:
 Charge =  0 Multiplicity = 1

 SCF Done:  E(RHF) =  -410.441378059     A.U. after   14 cycles
 Normal termination of Gaussian 16 at Tue Apr  8 21:41:37 2025.
 Gaussian 16:  ES64L-G16RevC.01  3-Jul-2019

 ----------------------------------------------------------------------
 #t hf aug-cc-pvdz iop(5/13=1,5/36=2,99/5=2) pseudo=read geom=check gue
 ss=(read,tcheck) scf=(maxcycle=1)
 ----------------------------------------------------------------------
 -----
 title
 -----
 Structure from the checkpoint file:  "ANI1ccx_483_conf2_mol1.chk"
 Charge =  0 Multiplicity = 1

                         Standard orientation:
 ---------------------------------------------------------------------
 Center     Atomic      Atomic             Coordinates (Angstroms)
 Number     Number       Type             X           Y           Z
 ---------------------------------------------------------------------
      1          6           0        1.126280   -0.182157   -0.073630
      2          6           0       -1.143510   -0.212675    0.081809
      3          1           0        1.258629    1.645700    0.510581
      4          1           0       -1.265181    1.747298   -0.430282
      5          7           0        0.680329    1.162239   -0.184929
      6          7           0       -0.671957    1.129309    0.162507
      7          8           0        2.260670   -0.564831    0.067728
      8          8           0       -2.271590   -0.552703   -0.016435
      9          8           0        0.017336   -1.015571   -0.047846
 ---------------------------------------------------------------------

 SCF Done:  E(RHF) =  -410.567860806     A.U. after    2 cycles

 The electronic state is 1-A.
 Alpha  occ. eigenvalues --  -20.69132 -20.61339 -20.60354 -15.73885 -15.73587
 Alpha  occ. eigenvalues --  -11.48084 -11.47552  -1.50726  -1.42634  -1.37779
 Alpha  occ. eigenvalues --   -1.33005  -1.12005  -0.92042  -0.88865  -0.77912
 Alpha  occ. eigenvalues --   -0.77150  -0.72189  -0.70892  -0.67807  -0.65985
 Alpha  occ. eigenvalues --   -0.62107  -0.60433  -0.54592  -0.53475  -0.50659
 Alpha  occ. eigenvalues --   -0.43529
 Alpha virt. eigenvalues --    0.02464   0.03791   0.06917   0.07602   0.10340
 Alpha virt. eigenvalues --    0.10995   0.11709   0.11935   0.12254   0.13466
 Alpha virt. eigenvalues --    0.14248   0.15148   0.16029   0.17011   0.19131

 Mulliken charges:
               1
     1  C    0.792880
     2  C    0.785432
     3  H    0.164482
     4  H    0.144210
     5  N   -0.309008
     6  N   -0.296099
     7  O   -0.394530
     8  O   -0.331263
     9  O   -0.556104
 Sum of Mulliken charges =  -0.00000

 Dipole moment (field-independent basis, Debye):
    X=             -0.3679    Y=              4.1869    Z=              0.0864  Tot=              4.2039

 Test job not archived.
 1\1\GINC-SE090\SP\RHF\Aug-CC-pVDZ\C2H2N2O3\OHZDE\08-Apr-2025\0\\#t hf
 aug-cc-pvdz iop(5/13=1,5/36=2,99/5=2) pseudo=read geom=check guess=(re
 ad,tcheck) scf=(maxcycle=1)\\title\\0,1\C,0,1.12628,-0.182157,-0.07363
 01\C,0,-1.14351,-0.212673,0.0818088\H,0,1.25863,1.6457,0.510581\H,0,-1
 .26518,1.7473,-0.430282\N,0,0.68033,1.16224,-0.184929\N,0,-0.671956,1.
 12931,0.162507\O,0,2.26067,-0.564831,0.0677283\O,0,-2.27159,-0.552701,
 -0.0164349\O,0,0.0173359,-1.01557,-0.047846\\Version=ES64L-G16RevC.01\
 State=1-A\HF=-410.5678608\RMSD=2.716e-03\Dipole=-0.1447524,1.647258,0.

 Normal termination of Gaussian 16 at Tue Apr  8 21:42:03 2025.
