 Gaussian 16, Revision C.01,

 ----------------------------------------------------------------------
 #t hf aug-cc-pvdz symm=none int=(grid=ultrafine) guess=(read,tcheck) s
 table=(opt,rrhf)
 ----------------------------------------------------------------------
 -----
 title
 -----
 Symbolic Z-matrix:
 Charge =  0 Multiplicity = 1

 SCF Done:  E(RHF) =  -355.347507965     A.U. after   14 cycles
 Normal termination of Gaussian 16 at Tue Apr  8 21:39:43 2025.
 Gaussian 16:  ES64L-G16RevC.01  3-Jul-2019

 ----------------------------------------------------------------------
 #t hf aug-cc-pvdz iop(5/13=1,5/36=2,99/5=2) pseudo=read geom=check gue
 ss=(read,tcheck) scf=(maxcycle=1)
 ----------------------------------------------------------------------
 -----
 title
 -----
 Structure from the checkpoint file:  "ANI1ccx_469_conf10_mol1.chk"
 Charge =  0 Multiplicity = 1

                         Standard orientation:
 ---------------------------------------------------------------------
 Center     Atomic      Atomic             Coordinates (Angstroms)
 Number     Number       Type             X           Y           Z
 ---------------------------------------------------------------------
      1          6           0       -0.773819   -0.012456   -0.019291
      2          6           0        1.280290    0.557787   -0.068272
      3          1           0        2.045869    1.271192   -0.030961
      4          7           0        1.412541   -0.684858   -0.000507
      5          8           0       -1.965810    0.021964   -0.029460
      6          8           0        0.057023    1.080100    0.065149
      7          8           0        0.037228   -1.070710    0.034298
 ---------------------------------------------------------------------

 SCF Done:  E(RHF) =  -355.460934341     A.U. after    2 cycles

 The electronic state is 1-A.
 Alpha  occ. eigenvalues --  -20.70457 -20.69563 -20.59881 -15.74984 -11.48950
 Alpha  occ. eigenvalues --  -11.40739  -1.57120  -1.42294  -1.40235  -1.21417
 Alpha  occ. eigenvalues --   -0.96443  -0.91537  -0.80297  -0.78109  -0.70730
 Alpha  occ. eigenvalues --   -0.70014  -0.63691  -0.63177  -0.58445  -0.58215
 Alpha  occ. eigenvalues --   -0.52084  -0.45817
 Alpha virt. eigenvalues --    0.02396   0.06612   0.06982   0.07695   0.10230
 Alpha virt. eigenvalues --    0.10828   0.11383   0.13491   0.13813   0.15900
 Alpha virt. eigenvalues --    0.16927   0.17094   0.19434   0.19750   0.23024

 Mulliken charges:
               1
     1  C    0.686178
     2  C    0.955871
     3  H   -0.244084
     4  N   -0.046290
     5  O   -0.364388
     6  O   -0.439344
     7  O   -0.547943
 Sum of Mulliken charges =  -0.00000

 Dipole moment (field-independent basis, Debye):
    X=              3.7398    Y=              2.1387    Z=             -0.1938  Tot=              4.3126

 Test job not archived.
 1\1\GINC-SE226\SP\RHF\Aug-CC-pVDZ\C2H1N1O3\OHZDE\08-Apr-2025\0\\#t hf
 aug-cc-pvdz iop(5/13=1,5/36=2,99/5=2) pseudo=read geom=check guess=(re
 ad,tcheck) scf=(maxcycle=1)\\title\\0,1\C,0,-0.773819,-0.012455,-0.019
 291\C,0,1.28029,0.557786,-0.0682725\H,0,2.04587,1.27119,-0.0309609\N,0
 ,1.41254,-0.684859,-0.00050691\O,0,-1.96581,0.0219656,-0.0294603\O,0,0
 .0570236,1.0801,0.0651486\O,0,0.0372266,-1.07071,0.0342979\\Version=ES
 64L-G16RevC.01\State=1-A\HF=-355.4609343\RMSD=2.878e-03\Dipole=1.47136
 52,0.8414451,-0.076237\Quadrupole=-1.9527385,-0.0691145,2.021853,3.529

 Normal termination of Gaussian 16 at Tue Apr  8 21:39:46 2025.
