 Gaussian 16, Revision C.01,

 ----------------------------------------------------------------------
 #t hf aug-cc-pvdz symm=none int=(grid=ultrafine) guess=(read,tcheck) s
 table=(opt,rrhf)
 ----------------------------------------------------------------------
 -----
 title
 -----
 Symbolic Z-matrix:
 Charge =  0 Multiplicity = 1

 SCF Done:  E(RHF) =  -923.236235157     A.U. after   15 cycles
 Normal termination of Gaussian 16 at Tue Apr  8 20:04:57 2025.
 Gaussian 16:  ES64L-G16RevC.01  3-Jul-2019

 ----------------------------------------------------------------------
 #t hf aug-cc-pvdz iop(5/13=1,5/36=2,99/5=2) pseudo=read geom=check gue
 ss=(read,tcheck) scf=(maxcycle=1)
 ----------------------------------------------------------------------
 -----
 title
 -----
 Structure from the checkpoint file:  "ANI1ccx_1584_conf11_mol2.chk"
 Charge =  0 Multiplicity = 1

                         Standard orientation:
 ---------------------------------------------------------------------
 Center     Atomic      Atomic             Coordinates (Angstroms)
 Number     Number       Type             X           Y           Z
 ---------------------------------------------------------------------
      1          6           0        1.786415   -1.669785    0.324489
      2          6           0        0.356544   -1.405469   -0.136918
      3          6           0        2.715832   -0.707355   -0.347887
      4          6           0        2.463607    0.744922   -0.042863
      5          6           0       -1.619631    0.076638    0.445273
      6          6           0       -2.856328   -0.809559    0.194530
      7          6           0       -1.443374    1.165085   -0.638626
      8          6           0       -0.649839    2.374758   -0.050133
      9          1           0       -1.867594   -2.242986   -0.770744
     10          1           0       -1.024741    3.334036   -1.780700
     11          1           0       -0.155021    4.299919   -0.629753
     12          1           0       -2.421535    1.453632   -1.059480
     13          1           0       -0.892374    0.694300   -1.442270
     14          1           0       -1.889242    0.526326    1.399670
     15          1           0        0.181374   -0.270751    1.513430
     16          1           0        1.977744    1.894936    1.334820
     17          1           0        3.731063   -0.997113   -0.143715
     18          1           0        2.617292   -0.740429   -1.435470
     19          1           0        1.776504   -1.602755    1.421230
     20          1           0        2.939150   -3.326362    0.347667
     21          1           0        1.366851   -3.669296    0.288991
     22          7           0        2.081359   -3.058574   -0.080226
     23          7           0       -0.375577   -0.651883    0.746812
     24          7           0       -0.535564    3.417868   -0.908548
     25          8           0       -0.195617   -1.901321   -1.131980
     26          8           0        2.447975    1.624267   -0.852890
     27          8           0        2.223937    0.924041    1.277810
     28          8           0       -3.952489   -0.442059    0.580929
     29          8           0       -0.123226    2.327889    1.062520
     30          8           0       -2.781874   -2.022909   -0.416030
 ---------------------------------------------------------------------

 SCF Done:  E(RHF) =  -923.515779404     A.U. after    2 cycles

 The electronic state is 1-A.
 Alpha  occ. eigenvalues --  -20.63764 -20.59984 -20.58609 -20.57381 -20.56839
 Alpha  occ. eigenvalues --  -20.55200 -15.68018 -15.67581 -15.63445 -11.41695
 Alpha  occ. eigenvalues --  -11.40361 -11.39962 -11.39844 -11.32569 -11.31868
 Alpha  occ. eigenvalues --  -11.28725 -11.27732  -1.44215  -1.39673  -1.37505
 Alpha  occ. eigenvalues --   -1.37194  -1.34645  -1.30166  -1.22913  -1.21001
 Alpha  occ. eigenvalues --   -1.19693  -1.08076  -1.06169  -0.96671  -0.91909
 Alpha  occ. eigenvalues --   -0.84830  -0.82862  -0.82683  -0.79824  -0.76249
 Alpha  occ. eigenvalues --   -0.75297  -0.74694  -0.73697  -0.70936  -0.70595
 Alpha  occ. eigenvalues --   -0.69367  -0.68304  -0.66070  -0.65167  -0.65119
 Alpha  occ. eigenvalues --   -0.64025  -0.63096  -0.62327  -0.61127  -0.60733
 Alpha  occ. eigenvalues --   -0.57972  -0.57733  -0.56814  -0.56659  -0.55047
 Alpha  occ. eigenvalues --   -0.54697  -0.52224  -0.48864  -0.48124  -0.47506
 Alpha  occ. eigenvalues --   -0.47036  -0.46427  -0.44728  -0.42456  -0.42153
 Alpha virt. eigenvalues --    0.02226   0.02465   0.03808   0.03828   0.04774
 Alpha virt. eigenvalues --    0.05355   0.05749   0.06564   0.07082   0.07689
 Alpha virt. eigenvalues --    0.08149   0.09170   0.09526   0.09816   0.11038

 Mulliken charges:
               1
     1  C    0.625761
     2  C    0.032648
     3  C    0.403671
     4  C    0.661430
     5  C    0.351114
     6  C    0.670069
     7  C    0.382095
     8  C    0.589363
     9  H    0.266020
    10  H   -0.000311
    11  H   -0.058622
    12  H   -0.202645
    13  H   -0.087215
    14  H   -0.238129
    15  H    0.068246
    16  H    0.327370
    17  H   -0.014433
    18  H    0.163262
    19  H   -0.134669
    20  H   -0.057658
    21  H    0.015207
    22  N   -0.266060
    23  N    0.019889
    24  N   -0.037995
    25  O   -0.668573
    26  O   -0.485458
    27  O   -0.683426
    28  O   -0.513560
    29  O   -0.604430
    30  O   -0.522961
 Sum of Mulliken charges =  -0.00000

 Dipole moment (field-independent basis, Debye):
    X=              5.4393    Y=              2.6414    Z=              0.6433  Tot=              6.0809

 Test job not archived.
 1\1\GINC-SE365\SP\RHF\Aug-CC-pVDZ\C8H13N3O6\OHZDE\08-Apr-2025\0\\#t hf
  aug-cc-pvdz iop(5/13=1,5/36=2,99/5=2) pseudo=read geom=check guess=(r
 ead,tcheck) scf=(maxcycle=1)\\title\\0,1\C,0,1.78641,-1.66979,0.324489
 \C,0,0.35654,-1.40547,-0.136918\C,0,2.71583,-0.707363,-0.347887\C,0,2.
 46361,0.744915,-0.0428625\C,0,-1.61963,0.0766432,0.445273\C,0,-2.85633
 ,-0.80955,0.19453\C,0,-1.44337,1.16509,-0.638626\C,0,-0.649831,2.37476
 ,-0.0501331\H,0,-1.8676,-2.24298,-0.770744\H,0,-1.02473,3.33404,-1.780
 7\H,0,-0.155007,4.29992,-0.629753\H,0,-2.42153,1.45364,-1.05948\H,0,-0

 Normal termination of Gaussian 16 at Tue Apr  8 20:05:33 2025.
