 Gaussian 16, Revision C.01,

 ----------------------------------------------------------------------
 #t hf aug-cc-pvdz symm=none int=(grid=ultrafine) guess=(read,tcheck) s
 table=(opt,rrhf)
 ----------------------------------------------------------------------
 -----
 title
 -----
 Symbolic Z-matrix:
 Charge =  0 Multiplicity = 1

 SCF Done:  E(RHF) =  -758.554601992     A.U. after   14 cycles
 Normal termination of Gaussian 16 at Tue Apr  8 20:47:09 2025.
 Gaussian 16:  ES64L-G16RevC.01  3-Jul-2019

 ----------------------------------------------------------------------
 #t hf aug-cc-pvdz iop(5/13=1,5/36=2,99/5=2) pseudo=read geom=check gue
 ss=(read,tcheck) scf=(maxcycle=1)
 ----------------------------------------------------------------------
 -----
 title
 -----
 Structure from the checkpoint file:  "ANI1ccx_1759_conf6_mol1.chk"
 Charge =  0 Multiplicity = 1

                         Standard orientation:
 ---------------------------------------------------------------------
 Center     Atomic      Atomic             Coordinates (Angstroms)
 Number     Number       Type             X           Y           Z
 ---------------------------------------------------------------------
      1          6           0       -1.751981    0.839672    0.251474
      2          6           0        2.624210    1.715430    0.563302
      3          6           0        2.724260    1.001270   -0.781944
      4          6           0        2.247859   -1.290470   -0.086111
      5          6           0        1.151740    1.558941    0.908616
      6          6           0       -3.683391   -0.475047   -0.816421
      7          6           0       -3.077671    0.006035    0.469104
      8          6           0       -0.623213   -0.032541   -0.140930
      9          6           0        1.733809   -0.065152   -0.721136
     10          1           0        3.664619    0.514800   -0.886190
     11          1           0        0.426804   -1.750379   -0.155577
     12          1           0        1.048670    1.189391    1.921610
     13          1           0        0.547131    2.508971    0.799109
     14          1           0        3.252630    1.219260    1.270910
     15          1           0        2.901690    2.816900    0.571374
     16          1           0        2.624630    1.711000   -1.614570
     17          1           0        1.376229   -0.191591   -1.710710
     18          1           0       -4.059991    0.302314   -1.464160
     19          1           0       -4.407301   -1.270488   -0.564149
     20          1           0       -2.093361   -1.580058    0.841881
     21          1           0       -3.794751    0.608152    1.014140
     22          1           0       -1.565020    1.270381    1.267610
     23          1           0       -2.910290    2.253752   -0.345530
     24          1           0       -1.310340    2.570821   -0.599866
     25          1           0       -3.009281   -1.044508   -1.449090
     26          7           0       -2.033220    1.844052   -0.728537
     27          7           0        0.619968    0.477769    0.044406
     28          8           0        3.415029   -1.437330    0.288199
     29          8           0       -0.805305   -1.125879   -0.690034
     30          8           0       -2.781591   -1.111328    1.340840
     31          8           0        1.312738   -2.191749    0.063040
 ---------------------------------------------------------------------

 SCF Done:  E(RHF) =  -758.785911464     A.U. after    2 cycles

 The electronic state is 1-A.
 Alpha  occ. eigenvalues --  -20.59452 -20.59135 -20.57379 -20.55028 -15.69230
 Alpha  occ. eigenvalues --  -15.65572 -11.41137 -11.38794 -11.31603 -11.30839
 Alpha  occ. eigenvalues --  -11.30438 -11.29653 -11.26327 -11.24619 -11.21941
 Alpha  occ. eigenvalues --   -1.42754  -1.39632  -1.32233  -1.30695  -1.27686
 Alpha  occ. eigenvalues --   -1.21229  -1.10483  -1.05140  -1.02481  -0.97516
 Alpha  occ. eigenvalues --   -0.91518  -0.86631  -0.85614  -0.81722  -0.79962
 Alpha  occ. eigenvalues --   -0.76836  -0.73763  -0.72242  -0.68941  -0.67929
 Alpha  occ. eigenvalues --   -0.67774  -0.66896  -0.65016  -0.63335  -0.62377
 Alpha  occ. eigenvalues --   -0.62172  -0.61371  -0.60514  -0.58520  -0.58130
 Alpha  occ. eigenvalues --   -0.55722  -0.54092  -0.53110  -0.52279  -0.52016
 Alpha  occ. eigenvalues --   -0.51652  -0.50297  -0.48104  -0.47297  -0.47167
 Alpha  occ. eigenvalues --   -0.45242  -0.43344  -0.41581
 Alpha virt. eigenvalues --    0.01539   0.02717   0.03297   0.04188   0.05029
 Alpha virt. eigenvalues --    0.05325   0.05840   0.06525   0.06768   0.07212
 Alpha virt. eigenvalues --    0.07595   0.08054   0.08568   0.08979   0.09478

 Mulliken charges:
               1
     1  C    0.178264
     2  C    0.074787
     3  C    0.732074
     4  C    0.610084
     5  C    0.877759
     6  C    0.843892
     7  C    0.521786
     8  C   -0.109166
     9  C    0.604410
    10  H   -0.079592
    11  H    0.343653
    12  H   -0.274724
    13  H   -0.231104
    14  H   -0.145223
    15  H    0.066299
    16  H   -0.100095
    17  H   -0.278878
    18  H   -0.099146
    19  H    0.023070
    20  H    0.218292
    21  H   -0.260891
    22  H    0.083138
    23  H    0.126879
    24  H    0.044108
    25  H   -0.246531
    26  N   -0.369520
    27  N   -0.554863
    28  O   -0.565157
    29  O   -0.887853
    30  O   -0.635299
    31  O   -0.510455
 Sum of Mulliken charges =   0.00000

 Dipole moment (field-independent basis, Debye):
    X=             -1.9102    Y=              8.0237    Z=             -0.7412  Tot=              8.2812

 Test job not archived.
 1\1\GINC-SE095\SP\RHF\Aug-CC-pVDZ\C9H16N2O4\OHZDE\08-Apr-2025\0\\#t hf
  aug-cc-pvdz iop(5/13=1,5/36=2,99/5=2) pseudo=read geom=check guess=(r
 ead,tcheck) scf=(maxcycle=1)\\title\\0,1\C,0,-1.75198,0.83967,0.251474
 \C,0,2.62421,1.71543,0.563302\C,0,2.72426,1.00127,-0.781944\C,0,2.2478
 6,-1.29047,-0.0861117\C,0,1.15174,1.55894,0.908616\C,0,-3.68339,-0.475
 049,-0.816421\C,0,-3.07767,0.006033,0.469104\C,0,-0.623212,-0.0325417,
 -0.14093\C,0,1.73381,-0.0651524,-0.721136\H,0,3.66462,0.5148,-0.88619\
 H,0,0.426805,-1.75038,-0.155577\H,0,1.04867,1.18939,1.92161\H,0,0.5471

 Normal termination of Gaussian 16 at Tue Apr  8 20:47:49 2025.
