 Gaussian 16, Revision C.01,

 ----------------------------------------------------------------------
 #t hf aug-cc-pvdz symm=none int=(grid=ultrafine) guess=(read,tcheck) s
 table=(opt,rrhf)
 ----------------------------------------------------------------------
 -----
 title
 -----
 Symbolic Z-matrix:
 Charge =  0 Multiplicity = 1

 SCF Done:  E(RHF) =  -792.012933829     A.U. after   14 cycles
 Normal termination of Gaussian 16 at Tue Apr  8 19:27:32 2025.
 Gaussian 16:  ES64L-G16RevC.01  3-Jul-2019

 ----------------------------------------------------------------------
 #t hf aug-cc-pvdz iop(5/13=1,5/36=2,99/5=2) pseudo=read geom=check gue
 ss=(read,tcheck) scf=(maxcycle=1)
 ----------------------------------------------------------------------
 -----
 title
 -----
 Structure from the checkpoint file:  "ANI1ccx_1216_conf4_mol1.chk"
 Charge =  0 Multiplicity = 1

                         Standard orientation:
 ---------------------------------------------------------------------
 Center     Atomic      Atomic             Coordinates (Angstroms)
 Number     Number       Type             X           Y           Z
 ---------------------------------------------------------------------
      1          6           0       -1.656567    1.282794   -0.575478
      2          6           0        1.468423    1.544167    0.433068
      3          6           0        1.980589   -0.526132   -0.835865
      4          6           0       -1.235902   -1.024827   -1.462570
      5          6           0       -1.940842   -0.654953    0.881107
      6          6           0        1.379788   -0.748626    1.548830
      7          1           0        1.426330   -0.110152    2.432160
      8          1           0        2.118886   -1.534374    1.665240
      9          1           0       -2.827561   -0.144733    1.281530
     10          1           0       -2.093414   -1.730655    0.743464
     11          1           0       -1.377951   -0.514847   -2.428460
     12          1           0       -1.866434   -1.911065   -1.426750
     13          1           0        2.251026   -1.546954   -0.606480
     14          1           0        2.383334    1.964495   -0.011084
     15          1           0        1.332174    1.865538    1.466740
     16          1           0       -1.365467    1.472724   -1.621020
     17          1           0       -2.663047    1.650486   -0.379167
     18          1           0        2.844330    0.033692   -1.204160
     19          7           0        1.623300    0.084438    0.399415
     20          7           0       -1.651831   -0.139529   -0.436244
     21          8           0       -0.909954   -0.443450    1.884420
     22          8           0       -0.794355    2.072542    0.203846
     23          8           0        0.501505    2.100899   -0.405545
     24          8           0        0.992160   -0.550665   -1.811610
     25          8           0        0.105952   -1.592050   -1.411650
     26          8           0        0.112764   -1.380160    1.591950
 ---------------------------------------------------------------------

 SCF Done:  E(RHF) =  -792.261348950     A.U. after    2 cycles

 The electronic state is 1-A.
 Alpha  occ. eigenvalues --  -20.63716 -20.63582 -20.63264 -20.63245 -20.62989
 Alpha  occ. eigenvalues --  -20.62317 -15.63411 -15.62209 -11.33733 -11.33581
 Alpha  occ. eigenvalues --  -11.33425 -11.33010 -11.32961 -11.32143  -1.44629
 Alpha  occ. eigenvalues --   -1.43921  -1.43323  -1.27769  -1.22916  -1.21680
 Alpha  occ. eigenvalues --   -1.20938  -1.13948  -0.96688  -0.96309  -0.92679
 Alpha  occ. eigenvalues --   -0.92013  -0.83335  -0.81816  -0.74433  -0.73635
 Alpha  occ. eigenvalues --   -0.72947  -0.71757  -0.71662  -0.69873  -0.69296
 Alpha  occ. eigenvalues --   -0.68869  -0.66214  -0.63713  -0.62961  -0.61808
 Alpha  occ. eigenvalues --   -0.60880  -0.57205  -0.56655  -0.56282  -0.55172
 Alpha  occ. eigenvalues --   -0.52585  -0.51811  -0.51036  -0.50716  -0.49196
 Alpha  occ. eigenvalues --   -0.48245  -0.45100  -0.44633  -0.39433  -0.38245
 Alpha virt. eigenvalues --    0.03344   0.03752   0.04372   0.04467   0.05406
 Alpha virt. eigenvalues --    0.05508   0.06913   0.06985   0.07327   0.07993
 Alpha virt. eigenvalues --    0.08865   0.09431   0.09663   0.11004   0.11972

 Mulliken charges:
               1
     1  C    1.064108
     2  C    1.001994
     3  C    1.040153
     4  C    0.852567
     5  C    1.002581
     6  C    0.937995
     7  H   -0.292102
     8  H   -0.344821
     9  H   -0.233343
    10  H   -0.197431
    11  H   -0.187273
    12  H   -0.338497
    13  H   -0.279181
    14  H   -0.247139
    15  H   -0.282145
    16  H   -0.267401
    17  H   -0.298778
    18  H   -0.249365
    19  N    0.185949
    20  N    0.145431
    21  O   -0.545359
    22  O   -0.499371
    23  O   -0.467186
    24  O   -0.486522
    25  O   -0.526824
    26  O   -0.488042
 Sum of Mulliken charges =  -0.00000

 Dipole moment (field-independent basis, Debye):
    X=             -0.1563    Y=             -0.3300    Z=             -0.0169  Tot=              0.3656

 Test job not archived.
 1\1\GINC-SE059\SP\RHF\Aug-CC-pVDZ\C6H12N2O6\OHZDE\08-Apr-2025\0\\#t hf
  aug-cc-pvdz iop(5/13=1,5/36=2,99/5=2) pseudo=read geom=check guess=(r
 ead,tcheck) scf=(maxcycle=1)\\title\\0,1\C,0,-1.65657,1.28279,-0.57547
 8\C,0,1.46842,1.54417,0.433068\C,0,1.98059,-0.526128,-0.835865\C,0,-1.
 2359,-1.02483,-1.46257\C,0,-1.94084,-0.654958,0.881107\C,0,1.37979,-0.
 748624,1.54883\H,0,1.42633,-0.110149,2.43216\H,0,2.11889,-1.53437,1.66
 524\H,0,-2.82756,-0.14474,1.28153\H,0,-2.09341,-1.73066,0.743464\H,0,-
 1.37795,-0.514851,-2.42846\H,0,-1.86643,-1.91107,-1.42675\H,0,2.25103,

 Normal termination of Gaussian 16 at Tue Apr  8 19:28:00 2025.
