 Gaussian 16, Revision C.01,

 ----------------------------------------------------------------------
 #t hf aug-cc-pvdz symm=none int=(grid=ultrafine) guess=(read,tcheck) s
 table=(opt,rrhf)
 ----------------------------------------------------------------------
 -----
 title
 -----
 Symbolic Z-matrix:
 Charge =  0 Multiplicity = 1

 SCF Done:  E(RHF) =  -456.244425718     A.U. after   11 cycles
 Normal termination of Gaussian 16 at Tue Apr  8 21:06:40 2025.
 Gaussian 16:  ES64L-G16RevC.01  3-Jul-2019

 ----------------------------------------------------------------------
 #t hf aug-cc-pvdz iop(5/13=1,5/36=2,99/5=2) pseudo=read geom=check gue
 ss=(read,tcheck) scf=(maxcycle=1)
 ----------------------------------------------------------------------
 -----
 title
 -----
 Structure from the checkpoint file:  "ANI1ccx_1844_conf304_mol1.chk"
 Charge =  0 Multiplicity = 1

                         Standard orientation:
 ---------------------------------------------------------------------
 Center     Atomic      Atomic             Coordinates (Angstroms)
 Number     Number       Type             X           Y           Z
 ---------------------------------------------------------------------
      1          1           0       -0.259115   -2.421750    1.574140
      2          1           0       -2.008961   -0.336372   -0.536172
      3          1           0       -3.157006   -1.332067   -0.396029
      4          1           0        0.702161    2.028745    0.280205
      5          1           0        0.313291    2.663627    1.698930
      6          1           0       -1.399274    1.372835    0.287551
      7          1           0       -0.812067   -2.288278    0.113621
      8          1           0       -2.349462    1.808429   -0.813404
      9          1           0        2.731982   -1.816253   -0.674760
     10          1           0        1.506244   -1.472308    0.299373
     11          1           0        2.154512    0.372304   -0.669761
     12          1           0        2.785937    1.658196   -0.810135
     13          8           0       -0.027984    2.547059    0.753218
     14          8           0        2.426575   -1.213032    0.011859
     15          8           0       -2.143816   -1.336552   -0.614901
     16          8           0       -2.247635    1.066038   -0.093201
     17          8           0        0.068624   -2.409452    0.664052
     18          8           0        1.898206    1.316300   -0.765222
 ---------------------------------------------------------------------

 SCF Done:  E(RHF) =  -456.395438008     A.U. after    2 cycles

 The electronic state is 1-A.
 Alpha  occ. eigenvalues --  -20.59647 -20.57779 -20.57487 -20.57288 -20.56919
 Alpha  occ. eigenvalues --  -20.55554  -1.32440  -1.32143  -1.30081  -1.28606
 Alpha  occ. eigenvalues --   -1.28450  -1.26156  -0.73577  -0.72188  -0.71870
 Alpha  occ. eigenvalues --   -0.71212  -0.71123  -0.70194  -0.63903  -0.62583
 Alpha  occ. eigenvalues --   -0.62018  -0.58514  -0.58024  -0.56085  -0.52695
 Alpha  occ. eigenvalues --   -0.52433  -0.51967  -0.51892  -0.51477  -0.49748
 Alpha virt. eigenvalues --    0.02946   0.04379   0.04822   0.05085   0.06339
 Alpha virt. eigenvalues --    0.06800   0.08367   0.08806   0.09251   0.10628
 Alpha virt. eigenvalues --    0.10854   0.11494   0.17331   0.18668   0.19299

 Mulliken charges:
               1
     1  H    0.172353
     2  H    0.335750
     3  H    0.213396
     4  H    0.315257
     5  H    0.223330
     6  H    0.263292
     7  H    0.334478
     8  H    0.275921
     9  H    0.164988
    10  H    0.290774
    11  H    0.244473
    12  H    0.154170
    13  O   -0.517093
    14  O   -0.442931
    15  O   -0.541789
    16  O   -0.532235
    17  O   -0.537204
    18  O   -0.416930
 Sum of Mulliken charges =  -0.00000

 Dipole moment (field-independent basis, Debye):
    X=              0.3689    Y=              0.8791    Z=              0.7650  Tot=              1.2223

 Test job not archived.
 1\1\GINC-SE150\SP\RHF\Aug-CC-pVDZ\H12O6\OHZDE\08-Apr-2025\0\\#t hf aug
 -cc-pvdz iop(5/13=1,5/36=2,99/5=2) pseudo=read geom=check guess=(read,
 tcheck) scf=(maxcycle=1)\\title\\0,1\H,0,-0.259104,-2.42175,1.57414\H,
 0,-2.00896,-0.336379,-0.536172\H,0,-3.157,-1.33208,-0.396029\H,0,0.702
 152,2.02875,0.280205\H,0,0.313279,2.66363,1.69893\H,0,-1.39928,1.37283
 ,0.287551\H,0,-0.812057,-2.28828,0.113621\H,0,-2.34947,1.80842,-0.8134
 04\H,0,2.73199,-1.81624,-0.67476\H,0,1.50625,-1.4723,0.299373\H,0,2.15
 451,0.372315,-0.669761\H,0,2.78593,1.65821,-0.810135\O,0,-0.0279953,2.

 Normal termination of Gaussian 16 at Tue Apr  8 21:06:45 2025.
