 Gaussian 16, Revision C.01,

 ----------------------------------------------------------------------
 #t hf aug-cc-pvdz symm=none int=(grid=ultrafine) guess=(read,tcheck) s
 table=(opt,rrhf)
 ----------------------------------------------------------------------
 -----
 title
 -----
 Symbolic Z-matrix:
 Charge =  0 Multiplicity = 1

 SCF Done:  E(RHF) =  -339.377490338     A.U. after   14 cycles
 Normal termination of Gaussian 16 at Tue Apr  8 21:47:49 2025.
 Gaussian 16:  ES64L-G16RevC.01  3-Jul-2019

 ----------------------------------------------------------------------
 #t hf aug-cc-pvdz iop(5/13=1,5/36=2,99/5=2) pseudo=read geom=check gue
 ss=(read,tcheck) scf=(maxcycle=1)
 ----------------------------------------------------------------------
 -----
 title
 -----
 Structure from the checkpoint file:  "ANI1ccx_665_conf10_mol1.chk"
 Charge =  0 Multiplicity = 1

                         Standard orientation:
 ---------------------------------------------------------------------
 Center     Atomic      Atomic             Coordinates (Angstroms)
 Number     Number       Type             X           Y           Z
 ---------------------------------------------------------------------
      1          6           0        0.783603   -0.034156    0.007510
      2          6           0       -1.371840   -0.635223    0.009065
      3          6           0       -1.271342    0.706183    0.013735
      4          1           0       -2.112989   -1.409793    0.110288
      5          1           0       -2.141013    1.441177    0.049745
      6          8           0        1.949229   -0.017374    0.030445
      7          8           0       -0.050689   -1.112871   -0.040082
      8          8           0        0.027895    1.098719   -0.033100
 ---------------------------------------------------------------------

 SCF Done:  E(RHF) =  -339.488174316     A.U. after    2 cycles

 The electronic state is 1-A.
 Alpha  occ. eigenvalues --  -20.67237 -20.66457 -20.57926 -11.46630 -11.35266
 Alpha  occ. eigenvalues --  -11.34266  -1.52168  -1.39360  -1.38977  -1.06221
 Alpha  occ. eigenvalues --   -0.91194  -0.88807  -0.76545  -0.74699  -0.69726
 Alpha  occ. eigenvalues --   -0.68293  -0.63088  -0.61455  -0.61114  -0.55777
 Alpha  occ. eigenvalues --   -0.51788  -0.38142
 Alpha virt. eigenvalues --    0.02505   0.03866   0.07283   0.08666   0.09291
 Alpha virt. eigenvalues --    0.09981   0.10756   0.12058   0.12577   0.13611
 Alpha virt. eigenvalues --    0.14329   0.14759   0.16936   0.18999   0.19568

 Mulliken charges:
               1
     1  C    0.608196
     2  C    0.688785
     3  C    0.445417
     4  H   -0.263180
     5  H   -0.101404
     6  O   -0.337991
     7  O   -0.544864
     8  O   -0.494958
 Sum of Mulliken charges =  -0.00000

 Dipole moment (field-independent basis, Debye):
    X=             -5.1510    Y=              0.0822    Z=              0.1765  Tot=              5.1547

 Test job not archived.
 1\1\GINC-SE457\SP\RHF\Aug-CC-pVDZ\C3H2O3\OHZDE\08-Apr-2025\0\\#t hf au
 g-cc-pvdz iop(5/13=1,5/36=2,99/5=2) pseudo=read geom=check guess=(read
 ,tcheck) scf=(maxcycle=1)\\title\\0,1\C,0,0.783604,-0.0341561,0.007509
 74\C,0,-1.37184,-0.63522,0.00906509\C,0,-1.27134,0.706185,0.0137352\H,
 0,-2.11299,-1.40979,0.110288\H,0,-2.14101,1.44118,0.049745\O,0,1.94923
 ,-0.0173756,0.0304452\O,0,-0.0506893,-1.11287,-0.0400823\O,0,0.0278972
 ,1.09872,-0.0330995\\Version=ES64L-G16RevC.01\State=1-A\HF=-339.488174
 3\RMSD=5.057e-03\Dipole=-2.0265524,0.0323511,0.0694403\Quadrupole=-0.4

 Normal termination of Gaussian 16 at Tue Apr  8 21:47:52 2025.
