 Gaussian 16, Revision C.01,

 ----------------------------------------------------------------------
 #t hf aug-cc-pvdz symm=none int=(grid=ultrafine) guess=(read,tcheck) s
 table=(opt,rrhf)
 ----------------------------------------------------------------------
 -----
 title
 -----
 Symbolic Z-matrix:
 Charge =  0 Multiplicity = 1

 SCF Done:  E(RHF) =  -905.331479313     A.U. after   15 cycles
 Normal termination of Gaussian 16 at Tue Apr  8 22:11:52 2025.
 Gaussian 16:  ES64L-G16RevC.01  3-Jul-2019

 ----------------------------------------------------------------------
 #t hf aug-cc-pvdz iop(5/13=1,5/36=2,99/5=2) pseudo=read geom=check gue
 ss=(read,tcheck) scf=(maxcycle=1)
 ----------------------------------------------------------------------
 -----
 title
 -----
 Structure from the checkpoint file:  "ANI1ccx_56_conf11_mol1.chk"
 Charge =  0 Multiplicity = 1

                         Standard orientation:
 ---------------------------------------------------------------------
 Center     Atomic      Atomic             Coordinates (Angstroms)
 Number     Number       Type             X           Y           Z
 ---------------------------------------------------------------------
      1          6           0        1.454370   -0.580416    0.246716
      2          6           0        0.618668    3.063701    0.669542
      3          6           0       -0.812186    1.862991   -0.431409
      4          6           0       -2.010750    0.941121   -0.612001
      5          6           0       -3.112470   -0.989658    0.402387
      6          6           0       -0.243535    2.645501   -1.322060
      7          6           0        3.352800   -1.144289   -1.209270
      8          6           0        2.834020   -1.223759    0.180837
      9          6           0        0.493010   -1.561169   -0.353306
     10          6           0       -1.767810   -0.332926    0.187124
     11          1           0       -1.375460   -0.156117    1.200580
     12          1           0       -4.232810   -2.302309   -0.319362
     13          1           0        1.159930    4.146271   -1.149390
     14          1           0        1.228060    3.423351    1.503290
     15          1           0       -0.353753    2.830681   -2.389410
     16          1           0       -2.209460    0.721584   -1.691140
     17          1           0       -2.945130    1.386851   -0.218682
     18          1           0       -1.244040   -1.855369   -1.169490
     19          1           0        2.571900   -1.595969   -1.865070
     20          1           0        3.598240   -0.160124   -1.582370
     21          1           0        3.853690   -0.935815    1.859840
     22          1           0        2.751680   -2.307689    0.481203
     23          1           0        1.480080    0.392114   -0.314187
     24          1           0        1.973460    0.091192    2.070840
     25          1           0        0.407632    0.320357    1.617150
     26          1           0        4.306850   -1.667909   -1.300420
     27          7           0        1.122510   -0.386341    1.687550
     28          7           0       -0.866354   -1.322799   -0.390306
     29          7           0       -0.215846    2.064351    0.854608
     30          7           0        0.623273    3.494971   -0.594059
     31          8           0       -4.040240   -0.358570    0.869545
     32          8           0        0.925678   -2.570099   -0.881575
     33          8           0        3.799190   -0.533191    0.962311
     34          8           0       -3.241210   -2.209259   -0.223946
 ---------------------------------------------------------------------

 SCF Done:  E(RHF) =  -905.601889500     A.U. after    2 cycles

 The electronic state is 1-A.
 Alpha  occ. eigenvalues --  -20.64343 -20.58030 -20.56872 -20.53055 -15.70457
 Alpha  occ. eigenvalues --  -15.64075 -15.63315 -15.59972 -11.41580 -11.36025
 Alpha  occ. eigenvalues --  -11.34179 -11.31253 -11.28708 -11.28375 -11.27577
 Alpha  occ. eigenvalues --  -11.27169 -11.26544 -11.19776  -1.42836  -1.35166
 Alpha  occ. eigenvalues --   -1.33648  -1.33194  -1.31623  -1.20517  -1.15276
 Alpha  occ. eigenvalues --   -1.14527  -1.07372  -1.02472  -1.01886  -0.93605
 Alpha  occ. eigenvalues --   -0.91263  -0.85196  -0.82371  -0.82005  -0.80266
 Alpha  occ. eigenvalues --   -0.76617  -0.76172  -0.72866  -0.72483  -0.71669
 Alpha  occ. eigenvalues --   -0.67743  -0.66422  -0.65782  -0.65285  -0.64179
 Alpha  occ. eigenvalues --   -0.62809  -0.61871  -0.61719  -0.60002  -0.59723
 Alpha  occ. eigenvalues --   -0.58206  -0.56956  -0.56358  -0.56010  -0.53790
 Alpha  occ. eigenvalues --   -0.52755  -0.51814  -0.50664  -0.50377  -0.48748
 Alpha  occ. eigenvalues --   -0.47634  -0.46020  -0.44398  -0.42925  -0.40866
 Alpha  occ. eigenvalues --   -0.39645  -0.38641  -0.35492
 Alpha virt. eigenvalues --    0.01583   0.02617   0.03508   0.04186   0.04674
 Alpha virt. eigenvalues --    0.05453   0.05874   0.06365   0.06661   0.07036
 Alpha virt. eigenvalues --    0.07781   0.08284   0.09050   0.09306   0.09817

 Mulliken charges:
               1
     1  C   -0.252614
     2  C    0.618114
     3  C    0.594948
     4  C    0.078111
     5  C    0.727480
     6  C    1.114442
     7  C    0.493786
     8  C    0.696436
     9  C    0.337740
    10  C    0.632809
    11  H   -0.181699
    12  H    0.224330
    13  H   -0.075288
    14  H   -0.329252
    15  H   -0.398818
    16  H   -0.057424
    17  H    0.097203
    18  H   -0.055860
    19  H    0.113158
    20  H   -0.068219
    21  H    0.172897
    22  H    0.002243
    23  H   -0.201181
    24  H    0.124499
    25  H    0.183654
    26  H   -0.151802
    27  N   -0.425979
    28  N   -0.367045
    29  N   -0.716307
    30  N   -0.572995
    31  O   -0.526667
    32  O   -0.564290
    33  O   -0.656467
    34  O   -0.609945
 Sum of Mulliken charges =  -0.00000

 Dipole moment (field-independent basis, Debye):
    X=             -0.3268    Y=              5.8674    Z=             -2.4784  Tot=              6.3777

 Test job not archived.
 1\1\GINC-SE016\SP\RHF\Aug-CC-pVDZ\C10H16N4O4\OHZDE\08-Apr-2025\0\\#t h
 f aug-cc-pvdz iop(5/13=1,5/36=2,99/5=2) pseudo=read geom=check guess=(
 read,tcheck) scf=(maxcycle=1)\\title\\0,1\C,0,1.45437,-0.580417,0.2467
 16\C,0,0.618668,3.0637,0.669542\C,0,-0.812186,1.86299,-0.431409\C,0,-2
 .01075,0.94112,-0.612001\C,0,-3.11247,-0.989659,0.402387\C,0,-0.243535
 ,2.6455,-1.32206\C,0,3.3528,-1.14429,-1.20927\C,0,2.83402,-1.22376,0.1
 80837\C,0,0.49301,-1.56117,-0.353306\C,0,-1.76781,-0.332927,0.187124\H
 ,0,-1.37546,-0.156118,1.20058\H,0,-4.23281,-2.30231,-0.319362\H,0,1.15

 Normal termination of Gaussian 16 at Tue Apr  8 22:12:51 2025.
