 Gaussian 16, Revision C.01,

 ----------------------------------------------------------------------
 #t hf aug-cc-pvdz symm=none int=(grid=ultrafine) guess=(read,tcheck) s
 table=(opt,rrhf)
 ----------------------------------------------------------------------
 -----
 title
 -----
 Symbolic Z-matrix:
 Charge =  0 Multiplicity = 1

 SCF Done:  E(RHF) =  -486.380302789     A.U. after   14 cycles
 Normal termination of Gaussian 16 at Tue Apr  8 21:43:57 2025.
 Gaussian 16:  ES64L-G16RevC.01  3-Jul-2019

 ----------------------------------------------------------------------
 #t hf aug-cc-pvdz iop(5/13=1,5/36=2,99/5=2) pseudo=read geom=check gue
 ss=(read,tcheck) scf=(maxcycle=1)
 ----------------------------------------------------------------------
 -----
 title
 -----
 Structure from the checkpoint file:  "ANI1ccx_517_conf7_mol1.chk"
 Charge =  0 Multiplicity = 1

                         Standard orientation:
 ---------------------------------------------------------------------
 Center     Atomic      Atomic             Coordinates (Angstroms)
 Number     Number       Type             X           Y           Z
 ---------------------------------------------------------------------
      1          6           0        0.698476    0.375564   -0.026909
      2          6           0       -0.711409   -0.291024   -0.023843
      3          1           0        2.936570    0.721912    0.269987
      4          1           0        1.470771   -1.534901    0.188294
      5          1           0       -1.512270    1.538909    0.065160
      6          1           0       -3.028660   -0.767610    0.212823
      7          7           0        1.644420   -0.590466   -0.001617
      8          7           0       -1.704520    0.558140    0.135750
      9          8           0        2.971260   -0.243535    0.039478
     10          8           0        0.913198    1.559159   -0.101594
     11          8           0       -0.764063   -1.512731   -0.084033
     12          8           0       -3.041410    0.167198   -0.025186
 ---------------------------------------------------------------------

 SCF Done:  E(RHF) =  -486.531591538     A.U. after    2 cycles

 The electronic state is 1-A.
 Alpha  occ. eigenvalues --  -20.66532 -20.64851 -20.58785 -20.58036 -15.74570
 Alpha  occ. eigenvalues --  -15.72758 -11.41122 -11.41074  -1.44761  -1.43558
 Alpha  occ. eigenvalues --   -1.38268  -1.37033  -1.18586  -1.15477  -0.92273
 Alpha  occ. eigenvalues --   -0.87565  -0.83016  -0.74968  -0.74197  -0.70536
 Alpha  occ. eigenvalues --   -0.69322  -0.67948  -0.65107  -0.63892  -0.62503
 Alpha  occ. eigenvalues --   -0.59401  -0.56393  -0.55559  -0.46406  -0.43435
 Alpha  occ. eigenvalues --   -0.41280
 Alpha virt. eigenvalues --    0.03407   0.04195   0.04665   0.06328   0.07969
 Alpha virt. eigenvalues --    0.08998   0.11056   0.11165   0.12194   0.12300
 Alpha virt. eigenvalues --    0.14855   0.15497   0.16112   0.16971   0.18022

 Mulliken charges:
               1
     1  C    0.570462
     2  C    0.645846
     3  H    0.204291
     4  H    0.016082
     5  H    0.068112
     6  H    0.178609
     7  N    0.216058
     8  N    0.165799
     9  O   -0.552870
    10  O   -0.497021
    11  O   -0.539924
    12  O   -0.475444
 Sum of Mulliken charges =  -0.00000

 Dipole moment (field-independent basis, Debye):
    X=             -0.7505    Y=              0.2289    Z=              1.3327  Tot=              1.5465

 Test job not archived.
 1\1\GINC-SE454\SP\RHF\Aug-CC-pVDZ\C2H4N2O4\OHZDE\08-Apr-2025\0\\#t hf
 aug-cc-pvdz iop(5/13=1,5/36=2,99/5=2) pseudo=read geom=check guess=(re
 ad,tcheck) scf=(maxcycle=1)\\title\\0,1\C,0,0.698476,0.375565,-0.02690
 85\C,0,-0.711409,-0.291023,-0.0238434\H,0,2.93657,0.721912,0.269987\H,
 0,1.47077,-1.5349,0.188294\H,0,-1.51227,1.53891,0.0651597\H,0,-3.02866
 ,-0.767608,0.212823\N,0,1.64442,-0.590465,-0.00161715\N,0,-1.70452,0.5
 58141,0.13575\O,0,2.97126,-0.243535,0.039478\O,0,0.913198,1.55916,-0.1
 01594\O,0,-0.764064,-1.51273,-0.0840325\O,0,-3.04141,0.1672,-0.0251862

 Normal termination of Gaussian 16 at Tue Apr  8 21:44:02 2025.
