 Gaussian 16, Revision C.01,

 ----------------------------------------------------------------------
 #t hf aug-cc-pvdz symm=none int=(grid=ultrafine) guess=(read,tcheck) s
 table=(opt,rrhf)
 ----------------------------------------------------------------------
 -----
 title
 -----
 Symbolic Z-matrix:
 Charge =  0 Multiplicity = 1

 SCF Done:  E(RHF) =  -908.375220920     A.U. after   14 cycles
 Normal termination of Gaussian 16 at Tue Apr  8 20:58:04 2025.
 Gaussian 16:  ES64L-G16RevC.01  3-Jul-2019

 ----------------------------------------------------------------------
 #t hf aug-cc-pvdz iop(5/13=1,5/36=2,99/5=2) pseudo=read geom=check gue
 ss=(read,tcheck) scf=(maxcycle=1)
 ----------------------------------------------------------------------
 -----
 title
 -----
 Structure from the checkpoint file:  "ANI1ccx_1761_conf17_mol1.chk"
 Charge =  0 Multiplicity = 1

                         Standard orientation:
 ---------------------------------------------------------------------
 Center     Atomic      Atomic             Coordinates (Angstroms)
 Number     Number       Type             X           Y           Z
 ---------------------------------------------------------------------
      1          6           0        2.229920   -0.067078   -0.685697
      2          6           0       -2.916990    0.961054    0.879342
      3          6           0       -2.086290   -0.135911    1.572740
      4          6           0       -2.002319   -1.570189   -0.508044
      5          6           0       -2.158950    2.007190    0.102058
      6          6           0        3.959210   -0.790476    1.066100
      7          6           0        3.221090    0.368163    0.403334
      8          6           0        1.144281   -0.992973   -0.113457
      9          6           0       -1.216759   -1.016329    0.696372
     10          1           0       -0.901343   -1.901139    1.250970
     11          1           0       -3.367049   -2.727220   -1.020780
     12          1           0       -0.682686    3.185351    0.221042
     13          1           0       -3.636420    0.534056    0.162100
     14          1           0       -3.481430    1.500250    1.686720
     15          1           0       -2.730130   -0.787504    2.243510
     16          1           0       -1.328030    0.321123    2.250920
     17          1           0        0.039011    0.551856    0.001163
     18          1           0        4.738750   -0.453384    1.748900
     19          1           0        4.468271   -1.416989    0.299056
     20          1           0        3.278891   -1.419649    1.641900
     21          1           0        4.763870    0.771790   -0.693861
     22          1           0        2.611240    0.890685    1.165760
     23          1           0        2.776400   -0.716087   -1.386970
     24          1           0        2.227630    1.803191   -1.439660
     25          1           0        1.124720    0.725884   -2.194430
     26          7           0        1.557370    1.058101   -1.336180
     27          7           0        0.033899   -0.405884    0.329344
     28          8           0        1.236991   -2.209219   -0.113858
     29          8           0        4.149970    1.277891   -0.160983
     30          8           0       -1.725759   -1.165579   -1.628450
     31          8           0       -2.618730    2.562750   -0.878331
     32          8           0       -0.928920    2.301741    0.564686
     33          8           0       -2.873519   -2.518640   -0.203686
 ---------------------------------------------------------------------

 SCF Done:  E(RHF) =  -908.652944088     A.U. after    2 cycles

 The electronic state is 1-A.
 Alpha  occ. eigenvalues --  -20.64898 -20.63800 -20.58614 -20.56990 -20.56777
 Alpha  occ. eigenvalues --  -20.52429 -15.63365 -15.61997 -11.41111 -11.40606
 Alpha  occ. eigenvalues --  -11.34967 -11.30858 -11.30446 -11.28296 -11.28051
 Alpha  occ. eigenvalues --  -11.27513 -11.23491  -1.44249  -1.43487  -1.34847
 Alpha  occ. eigenvalues --   -1.34234  -1.33097  -1.32911  -1.21210  -1.16809
 Alpha  occ. eigenvalues --   -1.09051  -1.03298  -1.01215  -0.93105  -0.90857
 Alpha  occ. eigenvalues --   -0.86699  -0.84501  -0.82265  -0.77900  -0.74192
 Alpha  occ. eigenvalues --   -0.72931  -0.72260  -0.71251  -0.69908  -0.68235
 Alpha  occ. eigenvalues --   -0.67975  -0.67602  -0.66554  -0.66151  -0.63514
 Alpha  occ. eigenvalues --   -0.62469  -0.61588  -0.61209  -0.59623  -0.59247
 Alpha  occ. eigenvalues --   -0.57965  -0.55866  -0.54906  -0.54458  -0.53727
 Alpha  occ. eigenvalues --   -0.53430  -0.52014  -0.50637  -0.49513  -0.49040
 Alpha  occ. eigenvalues --   -0.47486  -0.47422  -0.46268  -0.43132  -0.40109
 Alpha  occ. eigenvalues --   -0.39361
 Alpha virt. eigenvalues --    0.02563   0.03242   0.03589   0.03875   0.04679
 Alpha virt. eigenvalues --    0.05252   0.06008   0.06361   0.06485   0.07183
 Alpha virt. eigenvalues --    0.07379   0.07894   0.08328   0.09277   0.10286

 Mulliken charges:
               1
     1  C    0.710167
     2  C    0.106475
     3  C    0.435652
     4  C    0.745004
     5  C    0.738675
     6  C    0.714047
     7  C   -0.036444
     8  C    0.383045
     9  C   -0.038010
    10  H   -0.160782
    11  H    0.212775
    12  H    0.261119
    13  H    0.008514
    14  H    0.116219
    15  H   -0.029964
    16  H    0.026824
    17  H    0.054531
    18  H   -0.057034
    19  H   -0.008559
    20  H   -0.040758
    21  H    0.175029
    22  H   -0.142980
    23  H   -0.102113
    24  H    0.060720
    25  H    0.119003
    26  N   -0.439109
    27  N   -0.246262
    28  O   -0.635903
    29  O   -0.595698
    30  O   -0.553987
    31  O   -0.538308
    32  O   -0.688931
    33  O   -0.552957
 Sum of Mulliken charges =   0.00000

 Dipole moment (field-independent basis, Debye):
    X=             -0.3868    Y=              1.0614    Z=              2.7028  Tot=              2.9293

 Test job not archived.
 1\1\GINC-SE118\SP\RHF\Aug-CC-pVDZ\C9H16N2O6\OHZDE\08-Apr-2025\0\\#t hf
  aug-cc-pvdz iop(5/13=1,5/36=2,99/5=2) pseudo=read geom=check guess=(r
 ead,tcheck) scf=(maxcycle=1)\\title\\0,1\C,0,2.22992,-0.0670788,-0.685
 697\C,0,-2.91699,0.961054,0.879342\C,0,-2.08629,-0.135911,1.57274\C,0,
 -2.00232,-1.57019,-0.508044\C,0,-2.15895,2.00719,0.102058\C,0,3.95921,
 -0.790477,1.0661\C,0,3.22109,0.368162,0.403334\C,0,1.14428,-0.992974,-
 0.113457\C,0,-1.21676,-1.01633,0.696372\H,0,-0.901344,-1.90114,1.25097
 \H,0,-3.36705,-2.72722,-1.02078\H,0,-0.682686,3.18535,0.221042\H,0,-3.

 Normal termination of Gaussian 16 at Tue Apr  8 20:58:54 2025.
