 Gaussian 16, Revision C.01,

 ----------------------------------------------------------------------
 #t hf aug-cc-pvdz symm=none int=(grid=ultrafine) guess=(read,tcheck) s
 table=(opt,rrhf)
 ----------------------------------------------------------------------
 -----
 title
 -----
 Symbolic Z-matrix:
 Charge =  0 Multiplicity = 1

 SCF Done:  E(RHF) =  -337.198606159     A.U. after   13 cycles

 1\1\GINC-SE460\Stability\RHF\Aug-CC-pVDZ\C3H10N4\OHZDE\08-Apr-2025\0\\
 #t hf aug-cc-pvdz symm=none int=(grid=ultrafine) guess=(read,tcheck) s
 table=(opt,rrhf)\\title\\0,1\C,0,2.5845,0.0365174,0.312689\C,0,0.14026
 5,-0.253239,-0.10506\C,0,-1.367,1.70181,-0.308715\H,0,-2.11963,0.94793
 1,-0.601589\H,0,-0.936062,2.18819,-1.20288\H,0,-1.78957,2.43609,0.3794
 35\H,0,0.507877,1.58492,0.724082\H,0,1.51306,-1.26477,-0.954756\H,0,3.
 49032,-0.354026,-0.198631\H,0,2.59854,-0.365495,1.34676\H,0,2.75395,1.
 15378,0.271105\H,0,-1.92194,-0.762244,1.17949\H,0,-2.29229,-2.06185,0.

 Normal termination of Gaussian 16 at Tue Apr  8 21:47:20 2025.
 Gaussian 16:  ES64L-G16RevC.01  3-Jul-2019

 ----------------------------------------------------------------------
 #t hf aug-cc-pvdz iop(5/13=1,5/36=2,99/5=2) pseudo=read geom=check gue
 ss=(read,tcheck) scf=(maxcycle=1)
 ----------------------------------------------------------------------
 -----
 title
 -----
 Structure from the checkpoint file:  "ANI1ccx_616_conf2_mol1.chk"
 Charge =  0 Multiplicity = 1

                         Standard orientation:
 ---------------------------------------------------------------------
 Center     Atomic      Atomic             Coordinates (Angstroms)
 Number     Number       Type             X           Y           Z
 ---------------------------------------------------------------------
      1          6           0        2.584500    0.036517    0.312689
      2          6           0        0.140266   -0.253240   -0.105060
      3          6           0       -1.367000    1.701809   -0.308715
      4          1           0       -2.119630    0.947930   -0.601589
      5          1           0       -0.936062    2.188189   -1.202880
      6          1           0       -1.789570    2.436089    0.379435
      7          1           0        0.507877    1.584919    0.724082
      8          1           0        1.513061   -1.264770   -0.954756
      9          1           0        3.490321   -0.354026   -0.198631
     10          1           0        2.598541   -0.365495    1.346760
     11          1           0        2.753950    1.153780    0.271105
     12          1           0       -1.921939   -0.762245    1.179490
     13          1           0       -2.292289   -2.061852    0.348561
     14          7           0       -1.973999   -1.142021    0.214526
     15          7           0       -0.630896   -1.265191   -0.220359
     16          7           0       -0.283496    0.973640    0.447966
     17          7           0        1.466841   -0.339718   -0.539998
 ---------------------------------------------------------------------

 SCF Done:  E(RHF) =  -337.300822585     A.U. after    2 cycles

 The electronic state is 1-A.
 Alpha  occ. eigenvalues --  -15.62967 -15.62947 -15.62940 -15.61570 -11.33604
 Alpha  occ. eigenvalues --  -11.28449 -11.26439  -1.27491  -1.18890  -1.14205
 Alpha  occ. eigenvalues --   -1.03032  -0.91740  -0.90959  -0.74941  -0.70367
 Alpha  occ. eigenvalues --   -0.67876  -0.64513  -0.61494  -0.60257  -0.59048
 Alpha  occ. eigenvalues --   -0.57339  -0.54718  -0.52745  -0.51580  -0.44693
 Alpha  occ. eigenvalues --   -0.40262  -0.38476  -0.30877
 Alpha virt. eigenvalues --    0.02977   0.03761   0.04009   0.04607   0.06522
 Alpha virt. eigenvalues --    0.06647   0.07240   0.08095   0.08777   0.09606
 Alpha virt. eigenvalues --    0.12092   0.12696   0.13828   0.14275   0.15441

 Mulliken charges:
               1
     1  C    0.695506
     2  C    0.889344
     3  C    0.789327
     4  H   -0.072581
     5  H   -0.077300
     6  H   -0.156523
     7  H   -0.021654
     8  H   -0.038702
     9  H   -0.188967
    10  H   -0.087018
    11  H   -0.073342
    12  H    0.131917
    13  H   -0.002072
    14  N   -0.231370
    15  N   -0.373916
    16  N   -0.628822
    17  N   -0.553828
 Sum of Mulliken charges =   0.00000

 Dipole moment (field-independent basis, Debye):
    X=              1.6606    Y=              1.2891    Z=              1.5212  Tot=              2.5949

 Test job not archived.
 1\1\GINC-SE460\SP\RHF\Aug-CC-pVDZ\C3H10N4\OHZDE\08-Apr-2025\0\\#t hf a
 ug-cc-pvdz iop(5/13=1,5/36=2,99/5=2) pseudo=read geom=check guess=(rea
 d,tcheck) scf=(maxcycle=1)\\title\\0,1\C,0,2.5845,0.0365174,0.312689\C
 ,0,0.140265,-0.253239,-0.10506\C,0,-1.367,1.70181,-0.308715\H,0,-2.119
 63,0.947931,-0.601589\H,0,-0.936062,2.18819,-1.20288\H,0,-1.78957,2.43
 609,0.379435\H,0,0.507877,1.58492,0.724082\H,0,1.51306,-1.26477,-0.954
 756\H,0,3.49032,-0.354026,-0.198631\H,0,2.59854,-0.365495,1.34676\H,0,
 2.75395,1.15378,0.271105\H,0,-1.92194,-0.762244,1.17949\H,0,-2.29229,-

 Normal termination of Gaussian 16 at Tue Apr  8 21:47:27 2025.
