 Gaussian 16, Revision C.01,

 ----------------------------------------------------------------------
 #t hf aug-cc-pvdz symm=none int=(grid=ultrafine) guess=(read,tcheck) s
 table=(opt,rrhf)
 ----------------------------------------------------------------------
 -----
 title
 -----
 Symbolic Z-matrix:
 Charge =  0 Multiplicity = 1

 SCF Done:  E(RHF) =  -404.736201262     A.U. after   15 cycles
 Normal termination of Gaussian 16 at Tue Apr  8 21:45:03 2025.
 Gaussian 16:  ES64L-G16RevC.01  3-Jul-2019

 ----------------------------------------------------------------------
 #t hf aug-cc-pvdz iop(5/13=1,5/36=2,99/5=2) pseudo=read geom=check gue
 ss=(read,tcheck) scf=(maxcycle=1)
 ----------------------------------------------------------------------
 -----
 title
 -----
 Structure from the checkpoint file:  "ANI1ccx_523_conf5_mol1.chk"
 Charge =  0 Multiplicity = 1

                         Standard orientation:
 ---------------------------------------------------------------------
 Center     Atomic      Atomic             Coordinates (Angstroms)
 Number     Number       Type             X           Y           Z
 ---------------------------------------------------------------------
      1          6           0        1.217091   -0.289185   -0.097822
      2          6           0       -1.131359   -0.373193    0.061174
      3          1           0        2.655381   -1.639819    0.487407
      4          1           0        3.095681   -0.015435    0.426359
      5          1           0       -2.387889   -1.915748   -0.072522
      6          1           0       -3.025299   -0.245738   -0.150947
      7          7           0        2.490421   -0.726254    0.014799
      8          7           0        1.028381    1.066971   -0.054780
      9          7           0       -0.169553    1.695561    0.012910
     10          7           0       -1.202179    1.028002    0.037319
     11          7           0       -2.347149   -0.905610    0.094600
     12          7           0        0.078327   -1.045669   -0.172050
 ---------------------------------------------------------------------

 SCF Done:  E(RHF) =  -404.851967589     A.U. after    2 cycles

 The electronic state is 1-A.
 Alpha  occ. eigenvalues --  -15.74165 -15.68288 -15.67374 -15.66781 -15.64996
 Alpha  occ. eigenvalues --  -15.63433 -11.40797 -11.39720  -1.38867  -1.26928
 Alpha  occ. eigenvalues --   -1.26377  -1.15514  -1.11439  -0.94359  -0.89643
 Alpha  occ. eigenvalues --   -0.80246  -0.76375  -0.71467  -0.69215  -0.65066
 Alpha  occ. eigenvalues --   -0.63954  -0.60421  -0.54802  -0.51852  -0.50809
 Alpha  occ. eigenvalues --   -0.41734  -0.40643  -0.37487  -0.35453
 Alpha virt. eigenvalues --    0.02504   0.02698   0.05177   0.06342   0.07142
 Alpha virt. eigenvalues --    0.08778   0.10178   0.11569   0.12258   0.12498
 Alpha virt. eigenvalues --    0.13337   0.14294   0.15138   0.16794   0.17075

 Mulliken charges:
               1
     1  C    0.959271
     2  C    1.045216
     3  H    0.061551
     4  H    0.059026
     5  H    0.059972
     6  H    0.006838
     7  N   -0.341184
     8  N   -0.546394
     9  N   -0.041781
    10  N   -0.407473
    11  N   -0.207254
    12  N   -0.647786
 Sum of Mulliken charges =  -0.00000

 Dipole moment (field-independent basis, Debye):
    X=             -0.7357    Y=             -4.1537    Z=              0.9813  Tot=              4.3310

 Test job not archived.
 1\1\GINC-SE099\SP\RHF\Aug-CC-pVDZ\C2H4N6\OHZDE\08-Apr-2025\0\\#t hf au
 g-cc-pvdz iop(5/13=1,5/36=2,99/5=2) pseudo=read geom=check guess=(read
 ,tcheck) scf=(maxcycle=1)\\title\\0,1\C,0,1.21709,-0.289186,-0.0978221
 \C,0,-1.13136,-0.373195,0.0611739\H,0,2.65538,-1.63982,0.487407\H,0,3.
 09568,-0.0154356,0.426359\H,0,-2.38789,-1.91575,-0.0725223\H,0,-3.0253
 ,-0.24574,-0.150947\N,0,2.49042,-0.726255,0.0147986\N,0,1.02838,1.0669
 7,-0.0547797\N,0,-0.169555,1.69556,0.01291\N,0,-1.20218,1.028,0.037319
 3\N,0,-2.34715,-0.905612,0.0946001\N,0,0.0783257,-1.04567,-0.17205\\Ve

 Normal termination of Gaussian 16 at Tue Apr  8 21:45:09 2025.
