 Gaussian 16, Revision C.01,

 ----------------------------------------------------------------------
 #t hf aug-cc-pvdz symm=none int=(grid=ultrafine) guess=(read,tcheck) s
 table=(opt,rrhf)
 ----------------------------------------------------------------------
 -----
 title
 -----
 Symbolic Z-matrix:
 Charge =  0 Multiplicity = 1

 SCF Done:  E(RHF) =  -445.280902921     A.U. after   15 cycles
 Normal termination of Gaussian 16 at Tue Apr  8 21:54:52 2025.
 Gaussian 16:  ES64L-G16RevC.01  3-Jul-2019

 ----------------------------------------------------------------------
 #t hf aug-cc-pvdz iop(5/13=1,5/36=2,99/5=2) pseudo=read geom=check gue
 ss=(read,tcheck) scf=(maxcycle=1)
 ----------------------------------------------------------------------
 -----
 title
 -----
 Structure from the checkpoint file:  "ANI1ccx_856_conf2_mol1.chk"
 Charge =  0 Multiplicity = 1

                         Standard orientation:
 ---------------------------------------------------------------------
 Center     Atomic      Atomic             Coordinates (Angstroms)
 Number     Number       Type             X           Y           Z
 ---------------------------------------------------------------------
      1          6           0        1.381240   -0.449176    0.003045
      2          6           0        1.491049    1.071741    0.018809
      3          6           0       -0.565583    0.783711   -0.018308
      4          6           0       -1.142520   -1.281070    0.001072
      5          1           0        2.475619    1.509541    0.034431
      6          1           0       -1.144190   -2.358680    0.185726
      7          7           0        0.438035    1.766611   -0.001543
      8          7           0       -1.860080    0.771771    0.023928
      9          7           0       -2.242460   -0.559723   -0.020258
     10          7           0       -0.055743   -0.496445   -0.028897
     11          8           0        2.215650   -1.284699   -0.007560
 ---------------------------------------------------------------------

 SCF Done:  E(RHF) =  -445.407601223     A.U. after    2 cycles

 The electronic state is 1-A.
 Alpha  occ. eigenvalues --  -20.64903 -15.73331 -15.71466 -15.68383 -15.67890
 Alpha  occ. eigenvalues --  -11.45713 -11.37701 -11.36085 -11.35701  -1.46144
 Alpha  occ. eigenvalues --   -1.41768  -1.31502  -1.21941  -1.09819  -1.00689
 Alpha  occ. eigenvalues --   -0.90606  -0.85744  -0.83500  -0.75466  -0.71996
 Alpha  occ. eigenvalues --   -0.71469  -0.68439  -0.65126  -0.61817  -0.58232
 Alpha  occ. eigenvalues --   -0.54145  -0.52371  -0.47541  -0.46239  -0.45169
 Alpha  occ. eigenvalues --   -0.37523
 Alpha virt. eigenvalues --   -0.00575   0.02564   0.03346   0.05609   0.06957
 Alpha virt. eigenvalues --    0.08092   0.09808   0.10511   0.10603   0.12271
 Alpha virt. eigenvalues --    0.12493   0.12847   0.13563   0.14057   0.14664

 Mulliken charges:
               1
     1  C    0.479935
     2  C    0.560236
     3  C    0.624058
     4  C    0.682039
     5  H   -0.220968
     6  H   -0.174883
     7  N   -0.409386
     8  N   -0.345081
     9  N   -0.493882
    10  N   -0.396555
    11  O   -0.305514
 Sum of Mulliken charges =  -0.00000

 Dipole moment (field-independent basis, Debye):
    X=              3.4314    Y=             -0.9560    Z=              0.1931  Tot=              3.5673

 Test job not archived.
 1\1\GINC-SE058\SP\RHF\Aug-CC-pVDZ\C4H2N4O1\OHZDE\08-Apr-2025\0\\#t hf
 aug-cc-pvdz iop(5/13=1,5/36=2,99/5=2) pseudo=read geom=check guess=(re
 ad,tcheck) scf=(maxcycle=1)\\title\\0,1\C,0,1.38124,-0.449177,0.003045
 34\C,0,1.49105,1.07174,0.0188086\C,0,-0.565583,0.783711,-0.0183076\C,0
 ,-1.14252,-1.28107,0.00107202\H,0,2.47562,1.50954,0.0344314\H,0,-1.144
 19,-2.35868,0.185726\N,0,0.438036,1.76661,-0.0015426\N,0,-1.86008,0.77
 1771,0.0239278\N,0,-2.24246,-0.559723,-0.0202578\N,0,-0.0557424,-0.496
 446,-0.0288972\O,0,2.21565,-1.2847,-0.00755985\\Version=ES64L-G16RevC.

 Normal termination of Gaussian 16 at Tue Apr  8 21:54:58 2025.
