 Gaussian 16, Revision C.01,

 ----------------------------------------------------------------------
 #t hf aug-cc-pvdz symm=none int=(grid=ultrafine) guess=(read,tcheck) s
 table=(opt,rrhf)
 ----------------------------------------------------------------------
 -----
 title
 -----
 Symbolic Z-matrix:
 Charge =  0 Multiplicity = 1

 SCF Done:  E(RHF) =  -490.352551242     A.U. after   14 cycles
 Normal termination of Gaussian 16 at Tue Apr  8 21:49:50 2025.
 Gaussian 16:  ES64L-G16RevC.01  3-Jul-2019

 ----------------------------------------------------------------------
 #t hf aug-cc-pvdz iop(5/13=1,5/36=2,99/5=2) pseudo=read geom=check gue
 ss=(read,tcheck) scf=(maxcycle=1)
 ----------------------------------------------------------------------
 -----
 title
 -----
 Structure from the checkpoint file:  "ANI1ccx_703_conf2_mol2.chk"
 Charge =  0 Multiplicity = 1

                         Standard orientation:
 ---------------------------------------------------------------------
 Center     Atomic      Atomic             Coordinates (Angstroms)
 Number     Number       Type             X           Y           Z
 ---------------------------------------------------------------------
      1          6           0        0.028246    0.438630    0.552537
      2          6           0       -1.209620   -0.318421    0.019833
      3          6           0        1.299000   -0.163694   -0.055389
      4          1           0        0.816023    2.095040   -0.006697
      5          1           0        0.063832    0.265168    1.601210
      6          1           0       -1.961180    1.363670   -0.368215
      7          1           0        0.425592   -1.745370    0.208426
      8          8           0       -0.070714    1.810780    0.288360
      9          8           0       -2.171930    0.428423   -0.493238
     10          8           0       -1.282250   -1.520890    0.088324
     11          8           0        1.360920   -1.498770    0.023511
     12          8           0        2.157720    0.565756   -0.474033
 ---------------------------------------------------------------------

 SCF Done:  E(RHF) =  -490.507676170     A.U. after    2 cycles

 The electronic state is 1-A.
 Alpha  occ. eigenvalues --  -20.66545 -20.64228 -20.63382 -20.61189 -20.60005
 Alpha  occ. eigenvalues --  -11.45157 -11.43625 -11.36839  -1.47886  -1.44999
 Alpha  occ. eigenvalues --   -1.39876  -1.37904  -1.36191  -1.05835  -0.89796
 Alpha  occ. eigenvalues --   -0.87019  -0.83023  -0.79475  -0.75727  -0.71699
 Alpha  occ. eigenvalues --   -0.70594  -0.68505  -0.67181  -0.66394  -0.63152
 Alpha  occ. eigenvalues --   -0.60774  -0.56296  -0.54838  -0.52969  -0.50500
 Alpha  occ. eigenvalues --   -0.49653
 Alpha virt. eigenvalues --    0.02789   0.04162   0.05351   0.05915   0.08520
 Alpha virt. eigenvalues --    0.09389   0.10054   0.10523   0.11133   0.11959
 Alpha virt. eigenvalues --    0.13496   0.13998   0.14451   0.14827   0.15953

 Mulliken charges:
               1
     1  C    0.497614
     2  C    0.623356
     3  C    0.551276
     4  H    0.234379
     5  H    0.073493
     6  H    0.219131
     7  H    0.287966
     8  O   -0.642497
     9  O   -0.427141
    10  O   -0.517613
    11  O   -0.464089
    12  O   -0.435874
 Sum of Mulliken charges =  -0.00000

 Dipole moment (field-independent basis, Debye):
    X=             -1.4030    Y=              2.4470    Z=              1.8277  Tot=              3.3611

 Test job not archived.
 1\1\GINC-SE187\SP\RHF\Aug-CC-pVDZ\C3H4O5\OHZDE\08-Apr-2025\0\\#t hf au
 g-cc-pvdz iop(5/13=1,5/36=2,99/5=2) pseudo=read geom=check guess=(read
 ,tcheck) scf=(maxcycle=1)\\title\\0,1\C,0,0.0282457,0.43863,0.552537\C
 ,0,-1.20962,-0.318421,0.0198328\C,0,1.299,-0.163694,-0.0553892\H,0,0.8
 16023,2.09504,-0.0066966\H,0,0.0638322,0.265168,1.60121\H,0,-1.96118,1
 .36367,-0.368215\H,0,0.425592,-1.74537,0.208426\O,0,-0.0707137,1.81078
 ,0.28836\O,0,-2.17193,0.428423,-0.493238\O,0,-1.28225,-1.52089,0.08832
 45\O,0,1.36092,-1.49877,0.0235111\O,0,2.15772,0.565756,-0.474033\\Vers

 Normal termination of Gaussian 16 at Tue Apr  8 21:49:55 2025.
