 Gaussian 16, Revision C.01,

 ----------------------------------------------------------------------
 #t hf aug-cc-pvdz symm=none int=(grid=ultrafine) guess=(read,tcheck) s
 table=(opt,rrhf)
 ----------------------------------------------------------------------
 -----
 title
 -----
 Symbolic Z-matrix:
 Charge =  0 Multiplicity = 1

 SCF Done:  E(RHF) =  -635.453298199     A.U. after   17 cycles

 1\1\GINC-SE461\Stability\RHF\Aug-CC-pVDZ\C8H10N6\OHZDE\08-Apr-2025\0\\
 #t hf aug-cc-pvdz symm=none int=(grid=ultrafine) guess=(read,tcheck) s
 table=(opt,rrhf)\\title\\0,1\C,0,1.3455,0.740764,0.00244797\C,0,-1.103
 59,0.66887,0.0132082\C,0,-2.33662,1.31812,-0.0487871\C,0,-3.52123,0.62
 6276,-0.0642291\C,0,-3.45709,-0.766153,0.0278107\C,0,-2.25722,-1.44264
 ,0.00396645\C,0,-1.05076,-0.706161,0.0486029\C,0,1.37283,-0.730573,-0.
 0542282\H,0,3.43533,-2.97598,-0.171828\H,0,2.21236,-2.97959,0.932224\H
 ,0,0.236566,-2.36257,-0.197641\H,0,-2.25025,-2.54162,0.0973304\H,0,-4.

 Normal termination of Gaussian 16 at Tue Apr  8 19:50:09 2025.
 Gaussian 16:  ES64L-G16RevC.01  3-Jul-2019

 ----------------------------------------------------------------------
 #t hf aug-cc-pvdz iop(5/13=1,5/36=2,99/5=2) pseudo=read geom=check gue
 ss=(read,tcheck) scf=(maxcycle=1)
 ----------------------------------------------------------------------
 -----
 title
 -----
 Structure from the checkpoint file:  "ANI1ccx_1548_conf3_mol1.chk"
 Charge =  0 Multiplicity = 1

                         Standard orientation:
 ---------------------------------------------------------------------
 Center     Atomic      Atomic             Coordinates (Angstroms)
 Number     Number       Type             X           Y           Z
 ---------------------------------------------------------------------
      1          6           0        1.345501    0.740764    0.002448
      2          6           0       -1.103589    0.668871    0.013208
      3          6           0       -2.336619    1.318122   -0.048787
      4          6           0       -3.521229    0.626279   -0.064229
      5          6           0       -3.457090   -0.766150    0.027811
      6          6           0       -2.257221   -1.442638    0.003966
      7          6           0       -1.050760   -0.706160    0.048603
      8          6           0        1.372830   -0.730573   -0.054228
      9          1           0        3.435328   -2.975982   -0.171828
     10          1           0        2.212358   -2.979591    0.932224
     11          1           0        0.236565   -2.362570   -0.197641
     12          1           0       -2.250252   -2.541618    0.097330
     13          1           0       -4.368671   -1.374336    0.077305
     14          1           0       -2.299318    2.422532   -0.116227
     15          1           0        0.198326    2.343020    0.118971
     16          1           0        2.941413    3.313548    0.385344
     17          1           0        2.005323    3.138889   -0.926568
     18          1           0       -4.524849    1.076074    0.001630
     19          7           0        2.505699   -1.317211   -0.172050
     20          7           0        2.081963    2.867879    0.085171
     21          7           0        2.439341    1.442769    0.102622
     22          7           0        0.119309    1.335421   -0.015116
     23          7           0        0.162684   -1.370690    0.094656
     24          7           0        2.471408   -2.716891   -0.062895
 ---------------------------------------------------------------------

 SCF Done:  E(RHF) =  -635.634047945     A.U. after    2 cycles

 The electronic state is 1-A.
 Alpha  occ. eigenvalues --  -15.67336 -15.66290 -15.65404 -15.64808 -15.64090
 Alpha  occ. eigenvalues --  -15.63335 -11.33718 -11.33407 -11.30230 -11.29951
 Alpha  occ. eigenvalues --  -11.25921 -11.25612 -11.25167 -11.24911  -1.31791
 Alpha  occ. eigenvalues --   -1.26892  -1.23395  -1.18509  -1.14219  -1.08044
 Alpha  occ. eigenvalues --   -1.03500  -1.00078  -0.99747  -0.89616  -0.85374
 Alpha  occ. eigenvalues --   -0.84454  -0.76296  -0.72394  -0.71882  -0.71425
 Alpha  occ. eigenvalues --   -0.67751  -0.66396  -0.64334  -0.63566  -0.62587
 Alpha  occ. eigenvalues --   -0.61139  -0.60338  -0.56282  -0.55299  -0.54331
 Alpha  occ. eigenvalues --   -0.53563  -0.51136  -0.50406  -0.49100  -0.42793
 Alpha  occ. eigenvalues --   -0.41535  -0.37636  -0.35586  -0.31193  -0.28298
 Alpha virt. eigenvalues --    0.02823   0.02966   0.03851   0.04570   0.05067
 Alpha virt. eigenvalues --    0.05128   0.06608   0.07099   0.08373   0.08695
 Alpha virt. eigenvalues --    0.09526   0.09812   0.11317   0.11605   0.11690

 Mulliken charges:
               1
     1  C    0.620247
     2  C    0.099677
     3  C    1.159799
     4  C    0.389418
     5  C    0.697817
     6  C    0.560111
     7  C    0.000016
     8  C    0.659680
     9  H    0.017653
    10  H    0.125091
    11  H    0.045447
    12  H   -0.537691
    13  H   -0.459074
    14  H   -0.585621
    15  H    0.034231
    16  H    0.040617
    17  H    0.142145
    18  H   -0.397829
    19  N   -0.569365
    20  N   -0.301641
    21  N   -0.577069
    22  N   -0.534546
    23  N   -0.524208
    24  N   -0.104906
 Sum of Mulliken charges =  -0.00000

 Dipole moment (field-independent basis, Debye):
    X=             -2.2434    Y=             -0.2854    Z=              0.2152  Tot=              2.2717

 Test job not archived.
 1\1\GINC-SE461\SP\RHF\Aug-CC-pVDZ\C8H10N6\OHZDE\08-Apr-2025\0\\#t hf a
 ug-cc-pvdz iop(5/13=1,5/36=2,99/5=2) pseudo=read geom=check guess=(rea
 d,tcheck) scf=(maxcycle=1)\\title\\0,1\C,0,1.3455,0.740764,0.00244797\
 C,0,-1.10359,0.66887,0.0132082\C,0,-2.33662,1.31812,-0.0487871\C,0,-3.
 52123,0.626276,-0.0642291\C,0,-3.45709,-0.766153,0.0278107\C,0,-2.2572
 2,-1.44264,0.00396645\C,0,-1.05076,-0.706161,0.0486029\C,0,1.37283,-0.
 730573,-0.0542282\H,0,3.43533,-2.97598,-0.171828\H,0,2.21236,-2.97959,
 0.932224\H,0,0.236566,-2.36257,-0.197641\H,0,-2.25025,-2.54162,0.09733

 Normal termination of Gaussian 16 at Tue Apr  8 19:50:31 2025.
