 Gaussian 16, Revision C.01,

 ----------------------------------------------------------------------
 #t hf aug-cc-pvdz symm=none int=(grid=ultrafine) guess=(read,tcheck) s
 table=(opt,rrhf)
 ----------------------------------------------------------------------
 -----
 title
 -----
 Symbolic Z-matrix:
 Charge =  0 Multiplicity = 1

 SCF Done:  E(RHF) =  -464.286136404     A.U. after   16 cycles
 Normal termination of Gaussian 16 at Tue Apr  8 21:40:50 2025.
 Gaussian 16:  ES64L-G16RevC.01  3-Jul-2019

 ----------------------------------------------------------------------
 #t hf aug-cc-pvdz iop(5/13=1,5/36=2,99/5=2) pseudo=read geom=check gue
 ss=(read,tcheck) scf=(maxcycle=1)
 ----------------------------------------------------------------------
 -----
 title
 -----
 Structure from the checkpoint file:  "ANI1ccx_474_conf44_mol1.chk"
 Charge =  0 Multiplicity = 1

                         Standard orientation:
 ---------------------------------------------------------------------
 Center     Atomic      Atomic             Coordinates (Angstroms)
 Number     Number       Type             X           Y           Z
 ---------------------------------------------------------------------
      1          6           0        1.303398   -0.113145    0.187194
      2          6           0       -0.655280    1.417293   -0.007321
      3          1           0        2.077850    0.354302   -1.480120
      4          7           0        0.332150    0.700855   -0.559887
      5          7           0       -1.362196   -1.300124   -0.527724
      6          7           0       -1.947898   -2.100842    0.016951
      7          8           0        2.299828   -0.240632   -0.695502
      8          8           0       -1.622974    2.115346    0.224658
      9          8           0        1.183027   -0.534515    1.457780
 ---------------------------------------------------------------------

 SCF Done:  E(RHF) =  -464.422862770     A.U. after    2 cycles

 The electronic state is 1-A.
 Alpha  occ. eigenvalues --  -20.71148 -20.67705 -20.59498 -15.77144 -15.76526
 Alpha  occ. eigenvalues --  -15.71904 -11.51715 -11.50195  -1.46636  -1.45361
 Alpha  occ. eigenvalues --   -1.40756  -1.30022  -1.22486  -0.92863  -0.84683
 Alpha  occ. eigenvalues --   -0.79192  -0.77748  -0.70748  -0.70054  -0.67062
 Alpha  occ. eigenvalues --   -0.66766  -0.62933  -0.62674  -0.60073  -0.59986
 Alpha  occ. eigenvalues --   -0.55589  -0.51392  -0.48433  -0.46552
 Alpha virt. eigenvalues --    0.02410   0.05393   0.06591   0.06849   0.07558
 Alpha virt. eigenvalues --    0.08547   0.10249   0.10564   0.11685   0.11855
 Alpha virt. eigenvalues --    0.12621   0.13323   0.13924   0.15036   0.16776

 Mulliken charges:
               1
     1  C    1.124289
     2  C    0.192267
     3  H    0.275996
     4  N   -0.395436
     5  N    0.083448
     6  N   -0.086547
     7  O   -0.429340
     8  O   -0.186130
     9  O   -0.578547
 Sum of Mulliken charges =  -0.00000

 Dipole moment (field-independent basis, Debye):
    X=             -0.0973    Y=              1.7128    Z=             -3.6187  Tot=              4.0048

 Test job not archived.
 1\1\GINC-SE404\SP\RHF\Aug-CC-pVDZ\C2H1N3O3\OHZDE\08-Apr-2025\0\\#t hf
 aug-cc-pvdz iop(5/13=1,5/36=2,99/5=2) pseudo=read geom=check guess=(re
 ad,tcheck) scf=(maxcycle=1)\\title\\0,1\C,0,1.3034,-0.113142,0.187194\
 C,0,-0.655284,1.41729,-0.00732089\H,0,2.07785,0.354308,-1.48012\N,0,0.
 332149,0.700855,-0.559887\N,0,-1.36219,-1.30013,-0.527724\N,0,-1.94789
 ,-2.10085,0.0169502\O,0,2.29983,-0.240625,-0.695502\O,0,-1.62298,2.115
 34,0.224658\O,0,1.18303,-0.534512,1.45778\\Version=ES64L-G16RevC.01\St
 ate=1-A\HF=-464.4228628\RMSD=2.507e-03\Dipole=-0.0382765,0.6738769,-1.

 Normal termination of Gaussian 16 at Tue Apr  8 21:40:54 2025.
