 Gaussian 16, Revision C.01,

 ----------------------------------------------------------------------
 #t hf aug-cc-pvdz symm=none int=(grid=ultrafine) guess=(read,tcheck) s
 table=(opt,rrhf)
 ----------------------------------------------------------------------
 -----
 title
 -----
 Symbolic Z-matrix:
 Charge =  0 Multiplicity = 1

 SCF Done:  E(RHF) =  -435.803497727     A.U. after   14 cycles
 Normal termination of Gaussian 16 at Tue Apr  8 22:12:53 2025.
 Gaussian 16:  ES64L-G16RevC.01  3-Jul-2019

 ----------------------------------------------------------------------
 #t hf aug-cc-pvdz iop(5/13=1,5/36=2,99/5=2) pseudo=read geom=check gue
 ss=(read,tcheck) scf=(maxcycle=1)
 ----------------------------------------------------------------------
 -----
 title
 -----
 Structure from the checkpoint file:  "ANI1ccx_976_conf7_mol1.chk"
 Charge =  0 Multiplicity = 1

                         Standard orientation:
 ---------------------------------------------------------------------
 Center     Atomic      Atomic             Coordinates (Angstroms)
 Number     Number       Type             X           Y           Z
 ---------------------------------------------------------------------
      1          6           0        0.024241   -0.642023   -0.109355
      2          6           0        1.484898   -0.025668   -0.247621
      3          6           0       -1.079792    0.296415   -0.480721
      4          6           0       -2.373632   -0.388399   -0.755016
      5          1           0        0.636857    1.633921    0.360598
      6          1           0       -3.121912    0.296985   -1.174750
      7          1           0       -2.751082   -0.758436    0.209781
      8          1           0       -2.194842   -1.222889   -1.373530
      9          1           0       -1.249962    0.690847    1.300460
     10          1           0       -0.769843    0.773082   -1.477920
     11          1           0        0.073545   -1.583599   -0.701484
     12          1           0       -0.569758   -2.066839    1.361270
     13          1           0        0.615021   -1.012929    1.929240
     14          7           0       -0.169812   -1.058739    1.318280
     15          8           0        2.416628   -0.612507   -0.712566
     16          8           0       -1.174912    1.264711    0.511635
     17          8           0        1.531578    1.250181    0.187766
 ---------------------------------------------------------------------

 SCF Done:  E(RHF) =  -435.939691316     A.U. after    2 cycles

 The electronic state is 1-A.
 Alpha  occ. eigenvalues --  -20.61244 -20.59978 -20.56754 -15.65068 -11.40361
 Alpha  occ. eigenvalues --  -11.31571 -11.30785 -11.24232  -1.41580  -1.37257
 Alpha  occ. eigenvalues --   -1.33056  -1.17385  -1.05438  -0.95956  -0.85321
 Alpha  occ. eigenvalues --   -0.82718  -0.76938  -0.71610  -0.68670  -0.68016
 Alpha  occ. eigenvalues --   -0.66271  -0.64599  -0.62287  -0.60194  -0.58849
 Alpha  occ. eigenvalues --   -0.56245  -0.55278  -0.50637  -0.49830  -0.49081
 Alpha  occ. eigenvalues --   -0.45647  -0.42089
 Alpha virt. eigenvalues --    0.02543   0.03656   0.04164   0.04710   0.06317
 Alpha virt. eigenvalues --    0.06669   0.07385   0.07850   0.07998   0.11196
 Alpha virt. eigenvalues --    0.12294   0.12587   0.13579   0.13987   0.14506

 Mulliken charges:
               1
     1  C    0.659184
     2  C    0.623718
     3  C   -0.109525
     4  C    0.653123
     5  H    0.277311
     6  H    0.052401
     7  H   -0.039346
     8  H   -0.009222
     9  H    0.260347
    10  H   -0.140923
    11  H   -0.198236
    12  H    0.151191
    13  H   -0.023694
    14  N   -0.610790
    15  O   -0.416129
    16  O   -0.616075
    17  O   -0.513336
 Sum of Mulliken charges =  -0.00000

 Dipole moment (field-independent basis, Debye):
    X=             -4.3297    Y=             -2.0435    Z=              1.1658  Tot=              4.9276

 Test job not archived.
 1\1\GINC-SE364\SP\RHF\Aug-CC-pVDZ\C4H9N1O3\OHZDE\08-Apr-2025\0\\#t hf
 aug-cc-pvdz iop(5/13=1,5/36=2,99/5=2) pseudo=read geom=check guess=(re
 ad,tcheck) scf=(maxcycle=1)\\title\\0,1\C,0,0.0242423,-0.642024,-0.109
 355\C,0,1.4849,-0.0256691,-0.247621\C,0,-1.07979,0.296414,-0.480721\C,
 0,-2.37363,-0.3884,-0.755016\H,0,0.636859,1.63392,0.360598\H,0,-3.1219
 1,0.296984,-1.17475\H,0,-2.75108,-0.758437,0.209781\H,0,-2.19484,-1.22
 289,-1.37353\H,0,-1.24996,0.690846,1.30046\H,0,-0.769841,0.773081,-1.4
 7792\H,0,0.0735462,-1.5836,-0.701484\H,0,-0.569757,-2.06684,1.36127\H,

 Normal termination of Gaussian 16 at Tue Apr  8 22:13:00 2025.
