 Gaussian 16, Revision C.01,

 ----------------------------------------------------------------------
 #t hf aug-cc-pvdz symm=none int=(grid=ultrafine) guess=(read,tcheck) s
 table=(opt,rrhf)
 ----------------------------------------------------------------------
 -----
 title
 -----
 Symbolic Z-matrix:
 Charge =  0 Multiplicity = 1

 SCF Done:  E(RHF) =  -334.000146772     A.U. after   14 cycles
 Normal termination of Gaussian 16 at Tue Apr  8 21:37:47 2025.
 Gaussian 16:  ES64L-G16RevC.01  3-Jul-2019

 ----------------------------------------------------------------------
 #t hf aug-cc-pvdz iop(5/13=1,5/36=2,99/5=2) pseudo=read geom=check gue
 ss=(read,tcheck) scf=(maxcycle=1)
 ----------------------------------------------------------------------
 -----
 title
 -----
 Structure from the checkpoint file:  "ANI1ccx_431_conf11_mol1.chk"
 Charge =  0 Multiplicity = 1

                         Standard orientation:
 ---------------------------------------------------------------------
 Center     Atomic      Atomic             Coordinates (Angstroms)
 Number     Number       Type             X           Y           Z
 ---------------------------------------------------------------------
      1          6           0       -0.451066   -0.638337    0.029236
      2          1           0       -0.481204    1.619425    1.213510
      3          1           0        0.194926    2.069931   -0.190787
      4          1           0       -2.095514    0.498283   -0.391557
      5          1           0        1.256804   -1.533210    0.724696
      6          1           0        1.885211    1.091085    0.079369
      7          1           0        1.824180    0.060657   -1.225670
      8          7           0       -0.666814    1.806443    0.220571
      9          7           0       -1.030014    0.590648   -0.376195
     10          7           0        0.953166   -0.595891    0.406634
     11          7           0        1.998250    0.115704   -0.262439
     12          8           0       -1.082515   -1.674310   -0.038122
 ---------------------------------------------------------------------

 SCF Done:  E(RHF) =  -334.100898308     A.U. after    2 cycles

 The electronic state is 1-A.
 Alpha  occ. eigenvalues --  -20.55696 -15.68713 -15.68053 -15.67999 -15.67184
 Alpha  occ. eigenvalues --  -11.41062  -1.37582  -1.27637  -1.24959  -1.05925
 Alpha  occ. eigenvalues --   -1.02600  -0.82353  -0.73280  -0.71597  -0.70269
 Alpha  occ. eigenvalues --   -0.68579  -0.63435  -0.62817  -0.58441  -0.50365
 Alpha  occ. eigenvalues --   -0.47182  -0.43174  -0.42352  -0.41151
 Alpha virt. eigenvalues --    0.02895   0.03654   0.04368   0.04425   0.07502
 Alpha virt. eigenvalues --    0.07748   0.11592   0.11714   0.12492   0.14793
 Alpha virt. eigenvalues --    0.15393   0.15890   0.16902   0.17807   0.18425

 Mulliken charges:
               1
     1  C    0.896852
     2  H    0.067664
     3  H    0.051186
     4  H    0.113573
     5  H    0.026771
     6  H    0.132959
     7  H    0.010828
     8  N   -0.079302
     9  N   -0.362148
    10  N   -0.373318
    11  N   -0.021837
    12  O   -0.463227
 Sum of Mulliken charges =  -0.00000

 Dipole moment (field-independent basis, Debye):
    X=              1.8232    Y=              2.8092    Z=              0.2698  Tot=              3.3598

 Test job not archived.
 1\1\GINC-SE366\SP\RHF\Aug-CC-pVDZ\C1H6N4O1\OHZDE\08-Apr-2025\0\\#t hf
 aug-cc-pvdz iop(5/13=1,5/36=2,99/5=2) pseudo=read geom=check guess=(re
 ad,tcheck) scf=(maxcycle=1)\\title\\0,1\C,0,-0.451072,-0.638332,0.0292
 36\H,0,-0.481191,1.61943,1.21351\H,0,0.194943,2.06993,-0.190787\H,0,-2
 .09551,0.498302,-0.391557\H,0,1.25679,-1.53322,0.724696\H,0,1.88522,1.
 09107,0.0793691\H,0,1.82418,0.060643,-1.22567\N,0,-0.666799,1.80645,0.
 220571\N,0,-1.03001,0.590658,-0.376195\N,0,0.95316,-0.595898,0.406634\
 N,0,1.99825,0.115688,-0.262439\O,0,-1.08253,-1.6743,-0.0381224\\Versio

 Normal termination of Gaussian 16 at Tue Apr  8 21:37:50 2025.
