 Gaussian 16, Revision C.01,

 ----------------------------------------------------------------------
 #t hf aug-cc-pvdz symm=none int=(grid=ultrafine) guess=(read,tcheck) s
 table=(opt,rrhf)
 ----------------------------------------------------------------------
 -----
 title
 -----
 Symbolic Z-matrix:
 Charge =  0 Multiplicity = 1

 SCF Done:  E(RHF) =  -484.056742469     A.U. after   15 cycles
 Normal termination of Gaussian 16 at Tue Apr  8 21:46:52 2025.
 Gaussian 16:  ES64L-G16RevC.01  3-Jul-2019

 ----------------------------------------------------------------------
 #t hf aug-cc-pvdz iop(5/13=1,5/36=2,99/5=2) pseudo=read geom=check gue
 ss=(read,tcheck) scf=(maxcycle=1)
 ----------------------------------------------------------------------
 -----
 title
 -----
 Structure from the checkpoint file:  "ANI1ccx_606_conf2_mol2.chk"
 Charge =  0 Multiplicity = 1

                         Standard orientation:
 ---------------------------------------------------------------------
 Center     Atomic      Atomic             Coordinates (Angstroms)
 Number     Number       Type             X           Y           Z
 ---------------------------------------------------------------------
      1          6           0       -1.180969   -0.390357    0.010116
      2          6           0        1.202871   -0.339349   -0.023234
      3          7           0       -1.168717    1.039632   -0.104809
      4          7           0       -0.156615    1.721691   -0.040884
      5          8           0       -2.198210   -0.981089    0.109733
      6          8           0        1.062993    1.005209    0.141982
      7          8           0        2.250660   -0.860629    0.004772
      8          8           0        0.027797   -1.032370   -0.119167
 ---------------------------------------------------------------------

 SCF Done:  E(RHF) =  -484.207528094     A.U. after    2 cycles

 The electronic state is 1-A.
 Alpha  occ. eigenvalues --  -20.72208 -20.72098 -20.65080 -20.62832 -15.87720
 Alpha  occ. eigenvalues --  -15.78155 -11.52151 -11.51064  -1.57261  -1.49088
 Alpha  occ. eigenvalues --   -1.46951  -1.41885  -1.35957  -1.06473  -1.00319
 Alpha  occ. eigenvalues --   -0.91715  -0.80527  -0.79799  -0.76154  -0.73844
 Alpha  occ. eigenvalues --   -0.69832  -0.68846  -0.66324  -0.64340  -0.59330
 Alpha  occ. eigenvalues --   -0.56355  -0.55893  -0.53978  -0.50810
 Alpha virt. eigenvalues --    0.00367   0.05597   0.06319   0.07107   0.07740
 Alpha virt. eigenvalues --    0.10767   0.10948   0.11386   0.12207   0.12309
 Alpha virt. eigenvalues --    0.15227   0.15808   0.18271   0.19152   0.19349

 Mulliken charges:
               1
     1  C    0.854068
     2  C    0.743214
     3  N   -0.154205
     4  N    0.161446
     5  O   -0.277111
     6  O   -0.522751
     7  O   -0.295100
     8  O   -0.509562
 Sum of Mulliken charges =  -0.00000

 Dipole moment (field-independent basis, Debye):
    X=             -0.6041    Y=              1.5921    Z=             -0.1946  Tot=              1.7140

 Test job not archived.
 1\1\GINC-SE331\SP\RHF\Aug-CC-pVDZ\C2N2O4\OHZDE\08-Apr-2025\0\\#t hf au
 g-cc-pvdz iop(5/13=1,5/36=2,99/5=2) pseudo=read geom=check guess=(read
 ,tcheck) scf=(maxcycle=1)\\title\\0,1\C,0,-1.18097,-0.390359,0.0101157
 \C,0,1.20287,-0.339348,-0.0232338\N,0,-1.16872,1.03963,-0.104809\N,0,-
 0.156619,1.72169,-0.0408844\O,0,-2.19821,-0.981092,0.109733\O,0,1.0629
 9,1.00521,0.141982\O,0,2.25066,-0.860626,0.00477161\O,0,0.0277969,-1.0
 3237,-0.119167\\Version=ES64L-G16RevC.01\State=1-A\HF=-484.2075281\RMS
 D=3.126e-03\Dipole=-0.2376876,0.6263975,-0.0765633\Quadrupole=-6.16215

 Normal termination of Gaussian 16 at Tue Apr  8 21:46:55 2025.
