 Gaussian 16, Revision C.01,

 ----------------------------------------------------------------------
 #t hf aug-cc-pvdz symm=none int=(grid=ultrafine) guess=(read,tcheck) s
 table=(opt,rrhf)
 ----------------------------------------------------------------------
 -----
 title
 -----
 Symbolic Z-matrix:
 Charge =  0 Multiplicity = 1

 SCF Done:  E(RHF) =  -466.549327990     A.U. after   14 cycles
 Normal termination of Gaussian 16 at Tue Apr  8 21:45:14 2025.
 Gaussian 16:  ES64L-G16RevC.01  3-Jul-2019

 ----------------------------------------------------------------------
 #t hf aug-cc-pvdz iop(5/13=1,5/36=2,99/5=2) pseudo=read geom=check gue
 ss=(read,tcheck) scf=(maxcycle=1)
 ----------------------------------------------------------------------
 -----
 title
 -----
 Structure from the checkpoint file:  "ANI1ccx_540_conf26_mol1.chk"
 Charge =  0 Multiplicity = 1

                         Standard orientation:
 ---------------------------------------------------------------------
 Center     Atomic      Atomic             Coordinates (Angstroms)
 Number     Number       Type             X           Y           Z
 ---------------------------------------------------------------------
      1          6           0        1.413562   -0.086337    0.076006
      2          6           0       -0.852817    0.829213    0.064191
      3          1           0        1.930972   -1.732849   -0.996034
      4          1           0        0.368025   -1.804709   -0.284594
      5          1           0        0.833920    1.638561    0.501411
      6          1           0       -2.401218   -0.153583   -0.862386
      7          1           0       -2.246298   -1.851109    1.048230
      8          7           0        1.097392   -1.320679   -0.554597
      9          7           0        0.359165    0.654133    0.764255
     10          7           0       -1.741868   -0.254923   -0.035891
     11          8           0        2.561712    0.356570    0.087328
     12          8           0       -1.089228    1.919811   -0.498762
     13          8           0       -1.454068   -1.539289    0.228411
 ---------------------------------------------------------------------

 SCF Done:  E(RHF) =  -466.689136597     A.U. after    2 cycles

 The electronic state is 1-A.
 Alpha  occ. eigenvalues --  -20.68899 -20.56974 -20.56041 -15.73701 -15.69302
 Alpha  occ. eigenvalues --  -15.65172 -11.43809 -11.43004  -1.43996  -1.37811
 Alpha  occ. eigenvalues --   -1.35832  -1.21325  -1.17441  -1.11300  -0.87682
 Alpha  occ. eigenvalues --   -0.81342  -0.78959  -0.76418  -0.72429  -0.69973
 Alpha  occ. eigenvalues --   -0.67225  -0.64797  -0.62958  -0.61305  -0.57482
 Alpha  occ. eigenvalues --   -0.55226  -0.52137  -0.47241  -0.45430  -0.43571
 Alpha  occ. eigenvalues --   -0.42776
 Alpha virt. eigenvalues --    0.01136   0.03742   0.04074   0.05827   0.07270
 Alpha virt. eigenvalues --    0.09698   0.09937   0.11531   0.12322   0.13097
 Alpha virt. eigenvalues --    0.13697   0.14466   0.14603   0.15864   0.16384

 Mulliken charges:
               1
     1  C    0.886822
     2  C    0.974987
     3  H    0.037350
     4  H   -0.136818
     5  H    0.286126
     6  H    0.119948
     7  H    0.434941
     8  N   -0.038515
     9  N   -0.706745
    10  N   -0.045957
    11  O   -0.493038
    12  O   -0.527926
    13  O   -0.791175
 Sum of Mulliken charges =  -0.00000

 Dipole moment (field-independent basis, Debye):
    X=             -4.1174    Y=             -5.1616    Z=              0.6498  Tot=              6.6345

 Test job not archived.
 1\1\GINC-SE331\SP\RHF\Aug-CC-pVDZ\C2H5N3O3\OHZDE\08-Apr-2025\0\\#t hf
 aug-cc-pvdz iop(5/13=1,5/36=2,99/5=2) pseudo=read geom=check guess=(re
 ad,tcheck) scf=(maxcycle=1)\\title\\0,1\C,0,1.41356,-0.0863375,0.07600
 56\C,0,-0.852819,0.829212,0.0641912\H,0,1.93097,-1.73285,-0.996034\H,0
 ,0.368023,-1.80471,-0.284594\H,0,0.833918,1.63856,0.501411\H,0,-2.4012
 2,-0.153584,-0.862386\H,0,-2.2463,-1.85111,1.04823\N,0,1.09739,-1.3206
 8,-0.554597\N,0,0.359163,0.654132,0.764255\N,0,-1.74187,-0.254924,-0.0
 358911\O,0,2.56171,0.356569,0.0873281\O,0,-1.08923,1.91981,-0.498762\O

 Normal termination of Gaussian 16 at Tue Apr  8 21:45:18 2025.
