 Gaussian 16, Revision C.01,

 ----------------------------------------------------------------------
 #t hf aug-cc-pvdz symm=none int=(grid=ultrafine) guess=(read,tcheck) s
 table=(opt,rrhf)
 ----------------------------------------------------------------------
 -----
 title
 -----
 Symbolic Z-matrix:
 Charge =  0 Multiplicity = 1

 SCF Done:  E(RHF) =  -451.165013939     A.U. after   14 cycles
 Normal termination of Gaussian 16 at Tue Apr  8 21:11:24 2025.
 Gaussian 16:  ES64L-G16RevC.01  3-Jul-2019

 ----------------------------------------------------------------------
 #t hf aug-cc-pvdz iop(5/13=1,5/36=2,99/5=2) pseudo=read geom=check gue
 ss=(read,tcheck) scf=(maxcycle=1)
 ----------------------------------------------------------------------
 -----
 title
 -----
 Structure from the checkpoint file:  "ANI1ccx_1886_conf3_mol2.chk"
 Charge =  0 Multiplicity = 1

                         Standard orientation:
 ---------------------------------------------------------------------
 Center     Atomic      Atomic             Coordinates (Angstroms)
 Number     Number       Type             X           Y           Z
 ---------------------------------------------------------------------
      1          1           0       -1.419099    0.217569   -1.099080
      2          1           0       -3.175349    0.708338    1.095560
      3          1           0        1.886511   -1.374669   -0.148357
      4          1           0        2.931641    1.346171   -0.743601
      5          8           0       -1.349639   -0.201703   -0.221056
      6          8           0       -2.702479   -0.638998   -0.075989
      7          8           0       -3.467879    0.493895    0.189489
      8          8           0        2.791101   -1.041599   -0.084922
      9          8           0        2.591441    0.164489    0.613453
     10          8           0        2.109491    1.111741   -0.309040
 ---------------------------------------------------------------------

 SCF Done:  E(RHF) =  -451.314961795     A.U. after    2 cycles

 The electronic state is 1-A.
 Alpha  occ. eigenvalues --  -20.71706 -20.71470 -20.66565 -20.66445 -20.66150
 Alpha  occ. eigenvalues --  -20.65976  -1.51569  -1.51444  -1.34498  -1.34236
 Alpha  occ. eigenvalues --   -1.13003  -1.12941  -0.80951  -0.80903  -0.71640
 Alpha  occ. eigenvalues --   -0.71338  -0.71137  -0.71012  -0.68773  -0.68302
 Alpha  occ. eigenvalues --   -0.55285  -0.54506  -0.54469  -0.54018  -0.52239
 Alpha  occ. eigenvalues --   -0.51823
 Alpha virt. eigenvalues --    0.03616   0.04657   0.05512   0.06112   0.12443
 Alpha virt. eigenvalues --    0.13057   0.13514   0.16807   0.17389   0.18785
 Alpha virt. eigenvalues --    0.19476   0.19748   0.21089   0.21431   0.21856

 Mulliken charges:
               1
     1  H    0.271016
     2  H    0.254584
     3  H    0.237378
     4  H    0.249310
     5  O   -0.214478
     6  O   -0.113750
     7  O   -0.196536
     8  O   -0.181320
     9  O   -0.104575
    10  O   -0.201630
 Sum of Mulliken charges =  -0.00000

 Dipole moment (field-independent basis, Debye):
    X=              0.2387    Y=              1.2266    Z=             -1.0786  Tot=              1.6507

 Test job not archived.
 1\1\GINC-SE090\SP\RHF\Aug-CC-pVDZ\H4O6\OHZDE\08-Apr-2025\0\\#t hf aug-
 cc-pvdz iop(5/13=1,5/36=2,99/5=2) pseudo=read geom=check guess=(read,t
 check) scf=(maxcycle=1)\\title\\0,1\H,0,-1.4191,0.217569,-1.09908\H,0,
 -3.17535,0.708338,1.09556\H,0,1.88651,-1.37467,-0.148357\H,0,2.93164,1
 .34617,-0.743601\O,0,-1.34964,-0.201703,-0.221056\O,0,-2.70248,-0.6389
 98,-0.0759891\O,0,-3.46788,0.493895,0.189489\O,0,2.7911,-1.0416,-0.084
 9217\O,0,2.59144,0.164488,0.613453\O,0,2.10949,1.11174,-0.30904\\Versi
 on=ES64L-G16RevC.01\State=1-A\HF=-451.3149618\RMSD=2.289e-03\Dipole=0.

 Normal termination of Gaussian 16 at Tue Apr  8 21:11:26 2025.
