 Gaussian 16, Revision C.01,

 ----------------------------------------------------------------------
 #t hf aug-cc-pvdz symm=none int=(grid=ultrafine) guess=(read,tcheck) s
 table=(opt,rrhf)
 ----------------------------------------------------------------------
 -----
 title
 -----
 Symbolic Z-matrix:
 Charge =  0 Multiplicity = 1

 SCF Done:  E(RHF) =  -542.941794144     A.U. after   15 cycles
 Normal termination of Gaussian 16 at Tue Apr  8 21:47:49 2025.
 Gaussian 16:  ES64L-G16RevC.01  3-Jul-2019

 ----------------------------------------------------------------------
 #t hf aug-cc-pvdz iop(5/13=1,5/36=2,99/5=2) pseudo=read geom=check gue
 ss=(read,tcheck) scf=(maxcycle=1)
 ----------------------------------------------------------------------
 -----
 title
 -----
 Structure from the checkpoint file:  "ANI1ccx_647_conf1_mol1.chk"
 Charge =  0 Multiplicity = 1

                         Standard orientation:
 ---------------------------------------------------------------------
 Center     Atomic      Atomic             Coordinates (Angstroms)
 Number     Number       Type             X           Y           Z
 ---------------------------------------------------------------------
      1          6           0       -0.882060   -0.326944    0.053134
      2          6           0        1.050131    0.836401   -0.008699
      3          6           0        1.347920   -0.638498    0.049539
      4          1           0       -2.571919    1.165222   -0.073186
      5          7           0       -2.050180   -0.665731   -0.032481
      6          8           0       -2.957960    0.307695   -0.032082
      7          8           0       -0.317559    0.913439   -0.068683
      8          8           0        1.772821    1.787629    0.065265
      9          8           0        2.351309   -1.213981   -0.145226
     10          8           0        0.129792   -1.261140    0.147814
 ---------------------------------------------------------------------

 SCF Done:  E(RHF) =  -543.112912794     A.U. after    2 cycles

 The electronic state is 1-A.
 Alpha  occ. eigenvalues --  -20.72458 -20.70702 -20.65813 -20.65595 -20.64814
 Alpha  occ. eigenvalues --  -15.73244 -11.48690 -11.47615 -11.46502  -1.57022
 Alpha  occ. eigenvalues --   -1.48188  -1.46853  -1.44344  -1.40559  -1.20978
 Alpha  occ. eigenvalues --   -1.02635  -0.94862  -0.92648  -0.85666  -0.79912
 Alpha  occ. eigenvalues --   -0.77931  -0.75447  -0.72712  -0.69072  -0.67691
 Alpha  occ. eigenvalues --   -0.67594  -0.66038  -0.61529  -0.60033  -0.56901
 Alpha  occ. eigenvalues --   -0.53055  -0.51883  -0.43780
 Alpha virt. eigenvalues --    0.00741   0.03178   0.05915   0.06874   0.07092
 Alpha virt. eigenvalues --    0.08953   0.10391   0.10696   0.10793   0.11490
 Alpha virt. eigenvalues --    0.13333   0.14399   0.16158   0.16578   0.18279

 Mulliken charges:
               1
     1  C    0.954364
     2  C    0.597413
     3  C    0.550406
     4  H    0.125859
     5  N   -0.030825
     6  O   -0.427802
     7  O   -0.561576
     8  O   -0.340493
     9  O   -0.313442
    10  O   -0.553903
 Sum of Mulliken charges =  -0.00000

 Dipole moment (field-independent basis, Debye):
    X=             -0.9271    Y=              1.5660    Z=              0.1915  Tot=              1.8299

 Test job not archived.
 1\1\GINC-SE099\SP\RHF\Aug-CC-pVDZ\C3H1N1O5\OHZDE\08-Apr-2025\0\\#t hf
 aug-cc-pvdz iop(5/13=1,5/36=2,99/5=2) pseudo=read geom=check guess=(re
 ad,tcheck) scf=(maxcycle=1)\\title\\0,1\C,0,-0.88206,-0.326945,0.05313
 42\C,0,1.05013,0.836402,-0.00869873\C,0,1.34792,-0.638497,0.0495395\H,
 0,-2.57192,1.16522,-0.0731864\N,0,-2.05018,-0.665732,-0.0324807\O,0,-2
 .95796,0.307693,-0.0320823\O,0,-0.31756,0.913439,-0.0686826\O,0,1.7728
 2,1.78763,0.0652648\O,0,2.35131,-1.21398,-0.145226\O,0,0.129793,-1.261
 14,0.147814\\Version=ES64L-G16RevC.01\State=1-A\HF=-543.1129128\RMSD=3

 Normal termination of Gaussian 16 at Tue Apr  8 21:47:55 2025.
