 Gaussian 16, Revision C.01,

 ----------------------------------------------------------------------
 #t hf aug-cc-pvdz symm=none int=(grid=ultrafine) guess=(read,tcheck) s
 table=(opt,rrhf)
 ----------------------------------------------------------------------
 -----
 title
 -----
 Symbolic Z-matrix:
 Charge =  0 Multiplicity = 1

 SCF Done:  E(RHF) =  -380.198999832     A.U. after   11 cycles
 Normal termination of Gaussian 16 at Tue Apr  8 20:59:23 2025.
 Gaussian 16:  ES64L-G16RevC.01  3-Jul-2019

 ----------------------------------------------------------------------
 #t hf aug-cc-pvdz iop(5/13=1,5/36=2,99/5=2) pseudo=read geom=check gue
 ss=(read,tcheck) scf=(maxcycle=1)
 ----------------------------------------------------------------------
 -----
 title
 -----
 Structure from the checkpoint file:  "ANI1ccx_1843_conf203_mol1.chk"
 Charge =  0 Multiplicity = 1

                         Standard orientation:
 ---------------------------------------------------------------------
 Center     Atomic      Atomic             Coordinates (Angstroms)
 Number     Number       Type             X           Y           Z
 ---------------------------------------------------------------------
      1          1           0       -1.889990   -1.381722    0.219019
      2          1           0       -2.542891   -0.388155    1.232170
      3          1           0        0.944537   -1.541831   -0.067444
      4          1           0       -0.125996   -0.650067   -0.662998
      5          1           0        2.922960   -0.996315    0.809462
      6          1           0        2.316519    0.101660   -0.170652
      7          1           0        0.404609    1.395969   -0.145403
      8          1           0        1.377928    2.438159    0.562970
      9          1           0       -1.850171    0.621057   -0.001799
     10          1           0       -1.466102    1.593888   -1.212220
     11          8           0       -2.627681   -0.674740    0.246220
     12          8           0       -0.030871   -1.495702   -0.222857
     13          8           0        2.534040   -0.864976   -0.066486
     14          8           0        1.348648    1.524919    0.254354
     15          8           0       -1.235561    1.361418   -0.281619
 ---------------------------------------------------------------------

 SCF Done:  E(RHF) =  -380.324312670     A.U. after    2 cycles

 The electronic state is 1-A.
 Alpha  occ. eigenvalues --  -20.61166 -20.58415 -20.56895 -20.56859 -20.55523
 Alpha  occ. eigenvalues --   -1.33643  -1.30883  -1.30441  -1.28731  -1.28174
 Alpha  occ. eigenvalues --   -0.75776  -0.73959  -0.73377  -0.71975  -0.69576
 Alpha  occ. eigenvalues --   -0.64614  -0.63403  -0.60575  -0.59445  -0.56237
 Alpha  occ. eigenvalues --   -0.53259  -0.53157  -0.52137  -0.51138  -0.50577
 Alpha virt. eigenvalues --    0.02824   0.04763   0.04837   0.05643   0.07361
 Alpha virt. eigenvalues --    0.07860   0.08490   0.09207   0.10120   0.11153
 Alpha virt. eigenvalues --    0.17374   0.17689   0.18900   0.20279   0.20797

 Mulliken charges:
               1
     1  H    0.294149
     2  H    0.290430
     3  H    0.287087
     4  H    0.125219
     5  H    0.187487
     6  H    0.256796
     7  H    0.329038
     8  H    0.171097
     9  H    0.287928
    10  H    0.238610
    11  O   -0.570402
    12  O   -0.404931
    13  O   -0.455987
    14  O   -0.462910
    15  O   -0.573611
 Sum of Mulliken charges =  -0.00000

 Dipole moment (field-independent basis, Debye):
    X=             -0.4771    Y=              2.3553    Z=              1.4209  Tot=              2.7918

 Test job not archived.
 1\1\GINC-SE044\SP\RHF\Aug-CC-pVDZ\H10O5\OHZDE\08-Apr-2025\0\\#t hf aug
 -cc-pvdz iop(5/13=1,5/36=2,99/5=2) pseudo=read geom=check guess=(read,
 tcheck) scf=(maxcycle=1)\\title\\0,1\H,0,-1.88999,-1.38172,0.219019\H,
 0,-2.54289,-0.388152,1.23217\H,0,0.944537,-1.54183,-0.0674441\H,0,-0.1
 25995,-0.650065,-0.662998\H,0,2.92296,-0.996315,0.809462\H,0,2.31652,0
 .101661,-0.170652\H,0,0.40461,1.39597,-0.145403\H,0,1.37793,2.43816,0.
 56297\H,0,-1.85017,0.621059,-0.00179885\H,0,-1.4661,1.59389,-1.21222\O
 ,0,-2.62768,-0.674737,0.24622\O,0,-0.0308713,-1.4957,-0.222857\O,0,2.5

 Normal termination of Gaussian 16 at Tue Apr  8 20:59:26 2025.
