 Gaussian 16, Revision C.01,

 ----------------------------------------------------------------------
 #t hf aug-cc-pvdz symm=none int=(grid=ultrafine) guess=(read,tcheck) s
 table=(opt,rrhf)
 ----------------------------------------------------------------------
 -----
 title
 -----
 Symbolic Z-matrix:
 Charge =  0 Multiplicity = 1

 SCF Done:  E(RHF) =  -298.830136360     A.U. after   14 cycles
 Normal termination of Gaussian 16 at Tue Apr  8 21:33:38 2025.
 Gaussian 16:  ES64L-G16RevC.01  3-Jul-2019

 ----------------------------------------------------------------------
 #t hf aug-cc-pvdz iop(5/13=1,5/36=2,99/5=2) pseudo=read geom=check gue
 ss=(read,tcheck) scf=(maxcycle=1)
 ----------------------------------------------------------------------
 -----
 title
 -----
 Structure from the checkpoint file:  "ANI1ccx_398_conf13_mol2.chk"
 Charge =  0 Multiplicity = 1

                         Standard orientation:
 ---------------------------------------------------------------------
 Center     Atomic      Atomic             Coordinates (Angstroms)
 Number     Number       Type             X           Y           Z
 ---------------------------------------------------------------------
      1          6           0       -0.476638    0.139429   -0.029285
      2          1           0       -1.850980   -1.285842   -0.453012
      3          1           0       -2.468721    0.217373   -0.019322
      4          1           0        0.540945   -1.438010    0.690964
      5          1           0        1.531409    0.806345    0.203026
      6          7           0       -1.712570   -0.447844    0.085694
      7          7           0        0.591545   -0.805836   -0.100194
      8          8           0       -0.216286    1.317539   -0.003208
      9          8           0        1.835580   -0.112625   -0.014847
 ---------------------------------------------------------------------

 SCF Done:  E(RHF) =  -298.923673086     A.U. after    2 cycles

 The electronic state is 1-A.
 Alpha  occ. eigenvalues --  -20.60832 -20.57396 -15.70403 -15.67615 -11.41968
 Alpha  occ. eigenvalues --   -1.41932  -1.34447  -1.22101  -1.09355  -0.83322
 Alpha  occ. eigenvalues --   -0.78240  -0.73033  -0.70727  -0.66563  -0.61951
 Alpha  occ. eigenvalues --   -0.58169  -0.55273  -0.50123  -0.46522  -0.42311
 Alpha virt. eigenvalues --    0.02496   0.04202   0.04972   0.06729   0.10053
 Alpha virt. eigenvalues --    0.11886   0.12859   0.14643   0.15422   0.16040
 Alpha virt. eigenvalues --    0.17010   0.17296   0.18821   0.19255   0.20493

 Mulliken charges:
               1
     1  C    0.802301
     2  H    0.021820
     3  H    0.037091
     4  H    0.116614
     5  H    0.209382
     6  N   -0.155943
     7  N   -0.056939
     8  O   -0.466582
     9  O   -0.507744
 Sum of Mulliken charges =  -0.00000

 Dipole moment (field-independent basis, Debye):
    X=             -3.4960    Y=             -2.2136    Z=              0.5121  Tot=              4.1694

 Test job not archived.
 1\1\GINC-SE074\SP\RHF\Aug-CC-pVDZ\C1H4N2O2\OHZDE\08-Apr-2025\0\\#t hf
 aug-cc-pvdz iop(5/13=1,5/36=2,99/5=2) pseudo=read geom=check guess=(re
 ad,tcheck) scf=(maxcycle=1)\\title\\0,1\C,0,-0.476637,0.13943,-0.02928
 54\H,0,-1.85098,-1.28584,-0.453012\H,0,-2.46872,0.217375,-0.0193219\H,
 0,0.540945,-1.43801,0.690964\H,0,1.53141,0.806345,0.203026\N,0,-1.7125
 7,-0.447842,0.0856939\N,0,0.591545,-0.805836,-0.100194\O,0,-0.216285,1
 .31754,-0.00320816\O,0,1.83558,-0.112625,-0.0148472\\Version=ES64L-G16
 RevC.01\State=1-A\HF=-298.9236731\RMSD=2.380e-03\Dipole=-1.3754273,-0.

 Normal termination of Gaussian 16 at Tue Apr  8 21:33:40 2025.
