 Gaussian 16, Revision C.01,

 ----------------------------------------------------------------------
 #t hf aug-cc-pvdz symm=none int=(grid=ultrafine) guess=(read,tcheck) s
 table=(opt,rrhf)
 ----------------------------------------------------------------------
 -----
 title
 -----
 Symbolic Z-matrix:
 Charge =  0 Multiplicity = 1

 SCF Done:  E(RHF) =  -414.297456800     A.U. after   14 cycles
 Normal termination of Gaussian 16 at Tue Apr  8 21:47:53 2025.
 Gaussian 16:  ES64L-G16RevC.01  3-Jul-2019

 ----------------------------------------------------------------------
 #t hf aug-cc-pvdz iop(5/13=1,5/36=2,99/5=2) pseudo=read geom=check gue
 ss=(read,tcheck) scf=(maxcycle=1)
 ----------------------------------------------------------------------
 -----
 title
 -----
 Structure from the checkpoint file:  "ANI1ccx_666_conf7_mol2.chk"
 Charge =  0 Multiplicity = 1

                         Standard orientation:
 ---------------------------------------------------------------------
 Center     Atomic      Atomic             Coordinates (Angstroms)
 Number     Number       Type             X           Y           Z
 ---------------------------------------------------------------------
      1          6           0       -1.152839   -0.196635   -0.024919
      2          6           0       -0.605410    1.216150    0.022620
      3          6           0        1.128961   -0.178555    0.015817
      4          1           0       -1.062929    1.768540   -0.855221
      5          1           0       -0.928375    1.717440    0.927318
      6          8           0       -2.286740   -0.607392    0.029923
      7          8           0        0.803767    1.093069   -0.035042
      8          8           0        2.218860   -0.592318    0.029409
      9          8           0       -0.015008   -0.959826   -0.043441
 ---------------------------------------------------------------------

 SCF Done:  E(RHF) =  -414.431568323     A.U. after    2 cycles

 The electronic state is 1-A.
 Alpha  occ. eigenvalues --  -20.68977 -20.68431 -20.62049 -20.60121 -11.48941
 Alpha  occ. eigenvalues --  -11.45826 -11.37508  -1.54854  -1.44277  -1.41143
 Alpha  occ. eigenvalues --   -1.38363  -1.06980  -0.93505  -0.90342  -0.79133
 Alpha  occ. eigenvalues --   -0.77862  -0.73176  -0.70855  -0.67312  -0.66322
 Alpha  occ. eigenvalues --   -0.64924  -0.63518  -0.55146  -0.53916  -0.52823
 Alpha  occ. eigenvalues --   -0.50963
 Alpha virt. eigenvalues --    0.02458   0.04137   0.06475   0.07037   0.09053
 Alpha virt. eigenvalues --    0.10298   0.10668   0.11080   0.11373   0.11675
 Alpha virt. eigenvalues --    0.13325   0.14126   0.15258   0.17158   0.17928

 Mulliken charges:
               1
     1  C    0.400094
     2  C    0.579983
     3  C    0.721128
     4  H    0.104044
     5  H   -0.045062
     6  O   -0.416319
     7  O   -0.457422
     8  O   -0.312328
     9  O   -0.574118
 Sum of Mulliken charges =  -0.00000

 Dipole moment (field-independent basis, Debye):
    X=             -1.5331    Y=              3.5692    Z=              0.0190  Tot=              3.8846

 Test job not archived.
 1\1\GINC-SE455\SP\RHF\Aug-CC-pVDZ\C3H2O4\OHZDE\08-Apr-2025\0\\#t hf au
 g-cc-pvdz iop(5/13=1,5/36=2,99/5=2) pseudo=read geom=check guess=(read
 ,tcheck) scf=(maxcycle=1)\\title\\0,1\C,0,-1.15284,-0.196635,-0.024919
 \C,0,-0.605411,1.21615,0.0226195\C,0,1.12896,-0.178554,0.0158174\H,0,-
 1.06293,1.76854,-0.855221\H,0,-0.928376,1.71744,0.927318\O,0,-2.28674,
 -0.607392,0.0299234\O,0,0.803766,1.09307,-0.0350424\O,0,2.21886,-0.592
 317,0.0294092\O,0,-0.0150087,-0.959825,-0.0434408\\Version=ES64L-G16Re
 vC.01\State=1-A\HF=-414.4315683\RMSD=3.711e-03\Dipole=-0.603171,1.4042

 Normal termination of Gaussian 16 at Tue Apr  8 21:47:56 2025.
