 Gaussian 16, Revision C.01,

 ----------------------------------------------------------------------
 #t hf aug-cc-pvdz symm=none int=(grid=ultrafine) guess=(read,tcheck) s
 table=(opt,rrhf)
 ----------------------------------------------------------------------
 -----
 title
 -----
 Symbolic Z-matrix:
 Charge =  0 Multiplicity = 1

 SCF Done:  E(RHF) =  -411.591761125     A.U. after   15 cycles
 Normal termination of Gaussian 16 at Tue Apr  8 21:43:52 2025.
 Gaussian 16:  ES64L-G16RevC.01  3-Jul-2019

 ----------------------------------------------------------------------
 #t hf aug-cc-pvdz iop(5/13=1,5/36=2,99/5=2) pseudo=read geom=check gue
 ss=(read,tcheck) scf=(maxcycle=1)
 ----------------------------------------------------------------------
 -----
 title
 -----
 Structure from the checkpoint file:  "ANI1ccx_516_conf1_mol1.chk"
 Charge =  0 Multiplicity = 1

                         Standard orientation:
 ---------------------------------------------------------------------
 Center     Atomic      Atomic             Coordinates (Angstroms)
 Number     Number       Type             X           Y           Z
 ---------------------------------------------------------------------
      1          6           0       -0.157452    0.760118   -0.082384
      2          6           0        0.890799   -0.347188   -0.062806
      3          1           0       -2.048840   -1.204889    1.118420
      4          1           0       -1.372890   -1.471529   -0.368953
      5          1           0       -2.150509    1.097511   -0.019351
      6          1           0        2.590190   -0.753414    0.353481
      7          7           0       -2.031660   -0.885103    0.158507
      8          7           0       -1.475509    0.394023    0.178806
      9          8           0        0.188218    1.901800   -0.310918
     10          8           0        1.981040   -0.037151    0.567724
     11          8           0        0.722261   -1.453111   -0.578512
 ---------------------------------------------------------------------

 SCF Done:  E(RHF) =  -411.719621562     A.U. after    2 cycles

 The electronic state is 1-A.
 Alpha  occ. eigenvalues --  -20.66705 -20.60296 -20.57899 -15.69523 -15.67080
 Alpha  occ. eigenvalues --  -11.44432 -11.41043  -1.48480  -1.38514  -1.35938
 Alpha  occ. eigenvalues --   -1.28177  -1.06451  -0.97550  -0.85040  -0.76471
 Alpha  occ. eigenvalues --   -0.75577  -0.71641  -0.70359  -0.68191  -0.67043
 Alpha  occ. eigenvalues --   -0.63101  -0.59122  -0.54717  -0.53088  -0.50341
 Alpha  occ. eigenvalues --   -0.45351  -0.40043
 Alpha virt. eigenvalues --    0.02982   0.03972   0.04805   0.05671   0.07507
 Alpha virt. eigenvalues --    0.09909   0.10722   0.10827   0.11966   0.12597
 Alpha virt. eigenvalues --    0.13477   0.14960   0.17325   0.17744   0.18793

 Mulliken charges:
               1
     1  C    0.605371
     2  C    0.640479
     3  H    0.100802
     4  H    0.104580
     5  H   -0.001577
     6  H    0.194867
     7  N   -0.086193
     8  N   -0.217402
     9  O   -0.447295
    10  O   -0.386370
    11  O   -0.507262
 Sum of Mulliken charges =  -0.00000

 Dipole moment (field-independent basis, Debye):
    X=              0.0777    Y=             -2.1773    Z=              1.6126  Tot=              2.7105

 Test job not archived.
 1\1\GINC-SE252\SP\RHF\Aug-CC-pVDZ\C2H4N2O3\OHZDE\08-Apr-2025\0\\#t hf
 aug-cc-pvdz iop(5/13=1,5/36=2,99/5=2) pseudo=read geom=check guess=(re
 ad,tcheck) scf=(maxcycle=1)\\title\\0,1\C,0,-0.157453,0.760118,-0.0823
 84\C,0,0.890799,-0.347187,-0.0628057\H,0,-2.04884,-1.20489,1.11842\H,0
 ,-1.37289,-1.47153,-0.368953\H,0,-2.15051,1.09751,-0.0193513\H,0,2.590
 19,-0.753413,0.353481\N,0,-2.03166,-0.885104,0.158507\N,0,-1.47551,0.3
 94022,0.178806\O,0,0.188217,1.9018,-0.310918\O,0,1.98104,-0.0371501,0.
 567724\O,0,0.722261,-1.45311,-0.578512\\Version=ES64L-G16RevC.01\State

 Normal termination of Gaussian 16 at Tue Apr  8 21:43:56 2025.
