 Gaussian 16, Revision C.01,

 ----------------------------------------------------------------------
 #t hf aug-cc-pvdz symm=none int=(grid=ultrafine) guess=(read,tcheck) s
 table=(opt,rrhf)
 ----------------------------------------------------------------------
 -----
 title
 -----
 Symbolic Z-matrix:
 Charge =  0 Multiplicity = 1

 SCF Done:  E(RHF) =  -389.467453922     A.U. after   16 cycles
 Normal termination of Gaussian 16 at Tue Apr  8 21:40:37 2025.
 Gaussian 16:  ES64L-G16RevC.01  3-Jul-2019

 ----------------------------------------------------------------------
 #t hf aug-cc-pvdz iop(5/13=1,5/36=2,99/5=2) pseudo=read geom=check gue
 ss=(read,tcheck) scf=(maxcycle=1)
 ----------------------------------------------------------------------
 -----
 title
 -----
 Structure from the checkpoint file:  "ANI1ccx_473_conf21_mol1.chk"
 Charge =  0 Multiplicity = 1

                         Standard orientation:
 ---------------------------------------------------------------------
 Center     Atomic      Atomic             Coordinates (Angstroms)
 Number     Number       Type             X           Y           Z
 ---------------------------------------------------------------------
      1          6           0        0.942889    1.023690    0.006266
      2          6           0        1.358809   -1.229700   -0.035844
      3          1           0        2.198809   -1.981541   -0.041251
      4          7           0        1.729890    0.091318    0.027774
      5          7           0       -2.741030   -0.417284   -0.157071
      6          7           0       -1.913770    0.299361    0.212103
      7          8           0        0.367456    2.008690   -0.065325
      8          8           0        0.190716   -1.583210    0.020210
 ---------------------------------------------------------------------

 SCF Done:  E(RHF) =  -389.586344158     A.U. after    2 cycles

 The electronic state is 1-A.
 Alpha  occ. eigenvalues --  -20.67917 -20.58998 -15.75939 -15.75671 -15.68449
 Alpha  occ. eigenvalues --  -11.46720 -11.41716  -1.49418  -1.39343  -1.37239
 Alpha  occ. eigenvalues --   -1.27144  -0.95445  -0.79641  -0.77034  -0.75391
 Alpha  occ. eigenvalues --   -0.71410  -0.71089  -0.67466  -0.60590  -0.59728
 Alpha  occ. eigenvalues --   -0.57347  -0.57251  -0.52713  -0.48002  -0.46638
 Alpha virt. eigenvalues --    0.03203   0.06265   0.06688   0.07880   0.08633
 Alpha virt. eigenvalues --    0.10237   0.10675   0.11448   0.12035   0.12733
 Alpha virt. eigenvalues --    0.13477   0.14867   0.15581   0.16225   0.17321

 Mulliken charges:
               1
     1  C   -0.026962
     2  C    0.774381
     3  H   -0.103505
     4  N   -0.153719
     5  N   -0.033490
     6  N    0.013320
     7  O   -0.101097
     8  O   -0.368928
 Sum of Mulliken charges =  -0.00000

 Dipole moment (field-independent basis, Debye):
    X=              2.5922    Y=             -0.2113    Z=             -0.0470  Tot=              2.6013

 Test job not archived.
 1\1\GINC-SE096\SP\RHF\Aug-CC-pVDZ\C2H1N3O2\OHZDE\08-Apr-2025\0\\#t hf
 aug-cc-pvdz iop(5/13=1,5/36=2,99/5=2) pseudo=read geom=check guess=(re
 ad,tcheck) scf=(maxcycle=1)\\title\\0,1\C,0,0.942889,1.02369,0.0062661
 5\C,0,1.35881,-1.2297,-0.0358439\H,0,2.19881,-1.98154,-0.0412505\N,0,1
 .72989,0.0913188,0.0277742\N,0,-2.74103,-0.417285,-0.157071\N,0,-1.913
 77,0.299361,0.212103\O,0,0.367456,2.00869,-0.0653253\O,0,0.190717,-1.5
 8321,0.0202099\\Version=ES64L-G16RevC.01\State=1-A\HF=-389.5863442\RMS
 D=2.533e-03\Dipole=1.0198613,-0.083145,-0.0184855\Quadrupole=1.7590571

 Normal termination of Gaussian 16 at Tue Apr  8 21:40:40 2025.
