 Gaussian 16, Revision C.01,

 ----------------------------------------------------------------------
 #t hf aug-cc-pvdz symm=none int=(grid=ultrafine) guess=(read,tcheck) s
 table=(opt,rrhf)
 ----------------------------------------------------------------------
 -----
 title
 -----
 Symbolic Z-matrix:
 Charge =  0 Multiplicity = 1

 SCF Done:  E(RHF) =  -431.400554063     A.U. after   15 cycles
 Normal termination of Gaussian 16 at Tue Apr  8 21:42:50 2025.
 Gaussian 16:  ES64L-G16RevC.01  3-Jul-2019

 ----------------------------------------------------------------------
 #t hf aug-cc-pvdz iop(5/13=1,5/36=2,99/5=2) pseudo=read geom=check gue
 ss=(read,tcheck) scf=(maxcycle=1)
 ----------------------------------------------------------------------
 -----
 title
 -----
 Structure from the checkpoint file:  "ANI1ccx_499_conf3_mol1.chk"
 Charge =  0 Multiplicity = 1

                         Standard orientation:
 ---------------------------------------------------------------------
 Center     Atomic      Atomic             Coordinates (Angstroms)
 Number     Number       Type             X           Y           Z
 ---------------------------------------------------------------------
      1          6           0        0.307016    0.739846   -0.146546
      2          6           0       -0.985062   -0.110143    0.033568
      3          1           0        1.598835   -1.792545   -0.070455
      4          1           0        2.252698    0.668660    0.137946
      5          1           0       -1.787275   -1.738044   -0.647484
      6          7           0        1.498300    0.067227   -0.200823
      7          8           0        1.566873   -1.096635    0.575769
      8          8           0        0.239558    1.929721   -0.242667
      9          8           0       -0.932701   -1.246982   -0.690841
     10          8           0       -1.934240    0.240536    0.690692
 ---------------------------------------------------------------------

 SCF Done:  E(RHF) =  -431.535097246     A.U. after    2 cycles

 The electronic state is 1-A.
 Alpha  occ. eigenvalues --  -20.65828 -20.65238 -20.59951 -20.59299 -15.72955
 Alpha  occ. eigenvalues --  -11.43851 -11.41005  -1.45777  -1.43064  -1.39509
 Alpha  occ. eigenvalues --   -1.35505  -1.15408  -0.96694  -0.83350  -0.78792
 Alpha  occ. eigenvalues --   -0.75024  -0.74076  -0.72019  -0.68585  -0.66781
 Alpha  occ. eigenvalues --   -0.64053  -0.60357  -0.56974  -0.53448  -0.52635
 Alpha  occ. eigenvalues --   -0.48003  -0.44899
 Alpha virt. eigenvalues --    0.02509   0.03744   0.05115   0.07525   0.08601
 Alpha virt. eigenvalues --    0.10100   0.10471   0.11847   0.13134   0.13628
 Alpha virt. eigenvalues --    0.14327   0.15899   0.17768   0.18187   0.18889

 Mulliken charges:
               1
     1  C    0.549362
     2  C    0.720558
     3  H    0.219401
     4  H    0.126058
     5  H    0.220221
     6  N   -0.024525
     7  O   -0.476097
     8  O   -0.404651
     9  O   -0.510361
    10  O   -0.419966
 Sum of Mulliken charges =  -0.00000

 Dipole moment (field-independent basis, Debye):
    X=              1.8183    Y=             -4.1933    Z=             -1.4672  Tot=              4.8003

 Test job not archived.
 1\1\GINC-SE094\SP\RHF\Aug-CC-pVDZ\C2H3N1O4\OHZDE\08-Apr-2025\0\\#t hf
 aug-cc-pvdz iop(5/13=1,5/36=2,99/5=2) pseudo=read geom=check guess=(re
 ad,tcheck) scf=(maxcycle=1)\\title\\0,1\C,0,0.307018,0.739845,-0.14654
 6\C,0,-0.985063,-0.110141,0.033568\H,0,1.59883,-1.79255,-0.0704546\H,0
 ,2.2527,0.668653,0.137946\H,0,-1.78728,-1.73804,-0.647484\N,0,1.4983,0
 .0672227,-0.200823\O,0,1.56687,-1.09664,0.575769\O,0,0.239563,1.92972,
 -0.242667\O,0,-0.932705,-1.24698,-0.690841\O,0,-1.93424,0.240541,0.690
 692\\Version=ES64L-G16RevC.01\State=1-A\HF=-431.5350972\RMSD=3.210e-03

 Normal termination of Gaussian 16 at Tue Apr  8 21:42:54 2025.
