 Gaussian 16, Revision C.01,

 ----------------------------------------------------------------------
 #t hf aug-cc-pvdz symm=none int=(grid=ultrafine) guess=(read,tcheck) s
 table=(opt,rrhf)
 ----------------------------------------------------------------------
 -----
 title
 -----
 Symbolic Z-matrix:
 Charge =  0 Multiplicity = 1

 SCF Done:  E(RHF) =  -548.593904085     A.U. after   14 cycles
 Normal termination of Gaussian 16 at Tue Apr  8 19:15:30 2025.
 Gaussian 16:  ES64L-G16RevC.01  3-Jul-2019

 ----------------------------------------------------------------------
 #t hf aug-cc-pvdz iop(5/13=1,5/36=2,99/5=2) pseudo=read geom=check gue
 ss=(read,tcheck) scf=(maxcycle=1)
 ----------------------------------------------------------------------
 -----
 title
 -----
 Structure from the checkpoint file:  "ANI1ccx_1168_conf155_mol2.chk"
 Charge =  0 Multiplicity = 1

                         Standard orientation:
 ---------------------------------------------------------------------
 Center     Atomic      Atomic             Coordinates (Angstroms)
 Number     Number       Type             X           Y           Z
 ---------------------------------------------------------------------
      1          6           0       -1.270209   -0.777152    0.267730
      2          6           0       -1.464240    0.715886    0.109749
      3          6           0        0.126648   -1.262520   -0.088917
      4          6           0        1.230491   -0.645690    0.784575
      5          6           0        2.315211    0.047266   -0.028998
      6          1           0       -2.734980    2.016348   -0.027480
      7          1           0        0.839902    0.020737    1.574220
      8          1           0        1.778061   -1.483889    1.226090
      9          1           0        0.130931   -2.348540    0.006721
     10          1           0        1.086100    1.524300   -0.081267
     11          1           0       -3.245909   -1.310092   -0.157529
     12          1           0       -2.183609   -1.442471   -1.399890
     13          1           0       -1.390969   -0.877570    1.365210
     14          1           0        0.290059   -1.082910   -1.169770
     15          7           0       -2.296118   -1.611981   -0.402621
     16          8           0        3.368791   -0.429217   -0.288185
     17          8           0       -0.624762    1.579870    0.153119
     18          8           0        1.992250    1.281671   -0.402200
     19          8           0       -2.751800    1.042828   -0.060582
 ---------------------------------------------------------------------

 SCF Done:  E(RHF) =  -548.765381924     A.U. after    2 cycles

 The electronic state is 1-A.
 Alpha  occ. eigenvalues --  -20.66445 -20.60973 -20.59243 -20.54259 -15.64584
 Alpha  occ. eigenvalues --  -11.43958 -11.37764 -11.32212 -11.27073 -11.26024
 Alpha  occ. eigenvalues --   -1.47811  -1.40703  -1.37243  -1.31645  -1.19637
 Alpha  occ. eigenvalues --   -1.07743  -0.99113  -0.91802  -0.83604  -0.82677
 Alpha  occ. eigenvalues --   -0.76861  -0.74701  -0.72600  -0.69782  -0.67976
 Alpha  occ. eigenvalues --   -0.67055  -0.65399  -0.63391  -0.62026  -0.60005
 Alpha  occ. eigenvalues --   -0.58452  -0.55417  -0.54099  -0.52976  -0.52642
 Alpha  occ. eigenvalues --   -0.50220  -0.47889  -0.44546  -0.43014
 Alpha virt. eigenvalues --    0.02022   0.03283   0.03691   0.04543   0.05738
 Alpha virt. eigenvalues --    0.06494   0.07258   0.07614   0.08551   0.10166
 Alpha virt. eigenvalues --    0.10797   0.11278   0.12010   0.12795   0.13385

 Mulliken charges:
               1
     1  C    0.169127
     2  C    0.439730
     3  C    0.456684
     4  C    0.404657
     5  C    0.624152
     6  H    0.198004
     7  H   -0.132778
     8  H   -0.091204
     9  H   -0.057612
    10  H    0.266231
    11  H    0.055325
    12  H    0.055743
    13  H    0.061840
    14  H   -0.120061
    15  N   -0.352883
    16  O   -0.461057
    17  O   -0.516301
    18  O   -0.483075
    19  O   -0.516519
 Sum of Mulliken charges =   0.00000

 Dipole moment (field-independent basis, Debye):
    X=             -7.2096    Y=              0.1597    Z=              1.5402  Tot=              7.3740

 Test job not archived.
 1\1\GINC-SE132\SP\RHF\Aug-CC-pVDZ\C5H9N1O4\OHZDE\08-Apr-2025\0\\#t hf
 aug-cc-pvdz iop(5/13=1,5/36=2,99/5=2) pseudo=read geom=check guess=(re
 ad,tcheck) scf=(maxcycle=1)\\title\\0,1\C,0,-1.27021,-0.777151,0.26773
 \C,0,-1.46424,0.715887,0.109749\C,0,0.126647,-1.26252,-0.0889166\C,0,1
 .23049,-0.64569,0.784575\C,0,2.31521,0.0472654,-0.0289978\H,0,-2.73498
 ,2.01635,-0.0274794\H,0,0.839901,0.0207363,1.57422\H,0,1.77806,-1.4838
 9,1.22609\H,0,0.130929,-2.34854,0.00672077\H,0,1.0861,1.5243,-0.081267
 \H,0,-3.24591,-1.31009,-0.157529\H,0,-2.18361,-1.44247,-1.39989\H,0,-1

 Normal termination of Gaussian 16 at Tue Apr  8 19:15:40 2025.
