 Gaussian 16, Revision C.01,

 ----------------------------------------------------------------------
 #t hf aug-cc-pvdz symm=none int=(grid=ultrafine) guess=(read,tcheck) s
 table=(opt,rrhf)
 ----------------------------------------------------------------------
 -----
 title
 -----
 Symbolic Z-matrix:
 Charge =  0 Multiplicity = 1

 SCF Done:  E(RHF) =  -259.748725131     A.U. after   14 cycles
 Normal termination of Gaussian 16 at Tue Apr  8 21:09:15 2025.
 Gaussian 16:  ES64L-G16RevC.01  3-Jul-2019

 ----------------------------------------------------------------------
 #t hf aug-cc-pvdz iop(5/13=1,5/36=2,99/5=2) pseudo=read geom=check gue
 ss=(read,tcheck) scf=(maxcycle=1)
 ----------------------------------------------------------------------
 -----
 title
 -----
 Structure from the checkpoint file:  "ANI1ccx_1858_conf14_mol1.chk"
 Charge =  0 Multiplicity = 1

                         Standard orientation:
 ---------------------------------------------------------------------
 Center     Atomic      Atomic             Coordinates (Angstroms)
 Number     Number       Type             X           Y           Z
 ---------------------------------------------------------------------
      1          1           0       -3.174817   -0.194483    0.465979
      2          1           0       -1.867858    1.190010   -0.274146
      3          7           0        2.111322    0.333969   -0.112135
      4          7           0        2.904083   -0.404852    0.081242
      5          8           0       -2.405587   -0.501430   -0.119429
      6          8           0       -1.352558    0.439012    0.122481
 ---------------------------------------------------------------------

 SCF Done:  E(RHF) =  -259.831275866     A.U. after    2 cycles

 The electronic state is 1-A.
 Alpha  occ. eigenvalues --  -20.65311 -20.64768 -15.74619 -15.74292  -1.43557
 Alpha  occ. eigenvalues --   -1.41376  -1.17657  -0.75786  -0.74377  -0.69824
 Alpha  occ. eigenvalues --   -0.63044  -0.61270  -0.59663  -0.59620  -0.54415
 Alpha  occ. eigenvalues --   -0.50257
 Alpha virt. eigenvalues --    0.03208   0.05241   0.11045   0.13499   0.13818
 Alpha virt. eigenvalues --    0.14161   0.14910   0.15705   0.16277   0.19525
 Alpha virt. eigenvalues --    0.20656   0.21227   0.22379   0.24978   0.25781

 Mulliken charges:
               1
     1  H    0.225327
     2  H    0.253934
     3  N    0.033517
     4  N   -0.032564
     5  O   -0.263465
     6  O   -0.216749
 Sum of Mulliken charges =  -0.00000

 Dipole moment (field-independent basis, Debye):
    X=             -2.2989    Y=              1.9925    Z=              0.3695  Tot=              3.0645

 Test job not archived.
 1\1\GINC-SE044\SP\RHF\Aug-CC-pVDZ\H2N2O2\OHZDE\08-Apr-2025\0\\#t hf au
 g-cc-pvdz iop(5/13=1,5/36=2,99/5=2) pseudo=read geom=check guess=(read
 ,tcheck) scf=(maxcycle=1)\\title\\0,1\H,0,-3.17482,-0.194483,0.465979\
 H,0,-1.86786,1.19001,-0.274146\N,0,2.11132,0.333969,-0.112135\N,0,2.90
 408,-0.404852,0.0812416\O,0,-2.40559,-0.50143,-0.119429\O,0,-1.35256,0
 .439012,0.122481\\Version=ES64L-G16RevC.01\State=1-A\HF=-259.8312759\R
 MSD=2.271e-03\Dipole=-0.9044571,0.7838906,0.1453553\Quadrupole=4.34638
 51,-1.7085778,-2.6378072,-2.8437333,-1.8136665,-0.7292114\PG=C01 [X(H2

 Normal termination of Gaussian 16 at Tue Apr  8 21:09:17 2025.
