 Gaussian 16, Revision C.01,

 ----------------------------------------------------------------------
 #t hf aug-cc-pvdz symm=none int=(grid=ultrafine) guess=(read,tcheck) s
 table=(opt,rrhf)
 ----------------------------------------------------------------------
 -----
 title
 -----
 Symbolic Z-matrix:
 Charge =  0 Multiplicity = 1

 SCF Done:  E(RHF) =  -311.834556433     A.U. after   15 cycles
 Normal termination of Gaussian 16 at Tue Apr  8 21:32:38 2025.
 Gaussian 16:  ES64L-G16RevC.01  3-Jul-2019

 ----------------------------------------------------------------------
 #t hf aug-cc-pvdz iop(5/13=1,5/36=2,99/5=2) pseudo=read geom=check gue
 ss=(read,tcheck) scf=(maxcycle=1)
 ----------------------------------------------------------------------
 -----
 title
 -----
 Structure from the checkpoint file:  "ANI1ccx_392_conf10_mol1.chk"
 Charge =  0 Multiplicity = 1

                         Standard orientation:
 ---------------------------------------------------------------------
 Center     Atomic      Atomic             Coordinates (Angstroms)
 Number     Number       Type             X           Y           Z
 ---------------------------------------------------------------------
      1          6           0       -0.613195   -0.086981    0.038141
      2          1           0       -2.301381    0.941110   -0.003333
      3          1           0       -2.483859   -0.877372    0.254434
      4          1           0        2.176232   -1.103067    0.089932
      5          7           0       -1.993250   -0.034480   -0.072491
      6          7           0        0.101993    1.147490    0.035368
      7          7           0        1.304449    0.773470   -0.010479
      8          7           0        1.327921   -0.544900   -0.040866
      9          7           0        0.157197   -1.118549    0.007056
 ---------------------------------------------------------------------

 SCF Done:  E(RHF) =  -311.921917274     A.U. after    2 cycles

 The electronic state is 1-A.
 Alpha  occ. eigenvalues --  -15.75008 -15.73844 -15.67641 -15.67195 -15.65228
 Alpha  occ. eigenvalues --  -11.35096  -1.47023  -1.24560  -1.21473  -1.09873
 Alpha  occ. eigenvalues --   -0.89710  -0.84705  -0.77897  -0.69996  -0.68601
 Alpha  occ. eigenvalues --   -0.64779  -0.56996  -0.50507  -0.49626  -0.45491
 Alpha  occ. eigenvalues --   -0.45433  -0.34195
 Alpha virt. eigenvalues --    0.02950   0.03428   0.05644   0.08712   0.10658
 Alpha virt. eigenvalues --    0.11405   0.13194   0.14075   0.14973   0.15457
 Alpha virt. eigenvalues --    0.16856   0.17575   0.18026   0.19707   0.19937

 Mulliken charges:
               1
     1  C    1.040188
     2  H    0.061752
     3  H    0.039775
     4  H    0.046715
     5  N   -0.365511
     6  N   -0.472436
     7  N   -0.091685
     8  N    0.090388
     9  N   -0.349185
 Sum of Mulliken charges =  -0.00000

 Dipole moment (field-independent basis, Debye):
    X=             -0.4475    Y=             -1.7560    Z=              0.8081  Tot=              1.9841

 Test job not archived.
 1\1\GINC-SE404\SP\RHF\Aug-CC-pVDZ\C1H3N5\OHZDE\08-Apr-2025\0\\#t hf au
 g-cc-pvdz iop(5/13=1,5/36=2,99/5=2) pseudo=read geom=check guess=(read
 ,tcheck) scf=(maxcycle=1)\\title\\0,1\C,0,-0.613195,-0.0869809,0.03814
 15\H,0,-2.30138,0.941112,-0.00333281\H,0,-2.48386,-0.877369,0.254434\H
 ,0,2.17623,-1.10307,0.0899325\N,0,-1.99325,-0.034478,-0.0724914\N,0,0.
 101994,1.14749,0.0353678\N,0,1.30445,0.773468,-0.0104787\N,0,1.32792,-
 0.544902,-0.0408657\N,0,0.157195,-1.11855,0.0070562\\Version=ES64L-G16
 RevC.01\State=1-A\HF=-311.9219173\RMSD=3.140e-03\Dipole=-0.1760455,-0.

 Normal termination of Gaussian 16 at Tue Apr  8 21:32:41 2025.
