 Gaussian 16, Revision C.01,

 ----------------------------------------------------------------------
 #t hf aug-cc-pvdz symm=none int=(grid=ultrafine) guess=(read,tcheck) s
 table=(opt,rrhf)
 ----------------------------------------------------------------------
 -----
 title
 -----
 Symbolic Z-matrix:
 Charge =  0 Multiplicity = 1

 SCF Done:  E(RHF) =  -380.227590261     A.U. after   11 cycles
 Normal termination of Gaussian 16 at Tue Apr  8 20:59:24 2025.
 Gaussian 16:  ES64L-G16RevC.01  3-Jul-2019

 ----------------------------------------------------------------------
 #t hf aug-cc-pvdz iop(5/13=1,5/36=2,99/5=2) pseudo=read geom=check gue
 ss=(read,tcheck) scf=(maxcycle=1)
 ----------------------------------------------------------------------
 -----
 title
 -----
 Structure from the checkpoint file:  "ANI1ccx_1843_conf20_mol1.chk"
 Charge =  0 Multiplicity = 1

                         Standard orientation:
 ---------------------------------------------------------------------
 Center     Atomic      Atomic             Coordinates (Angstroms)
 Number     Number       Type             X           Y           Z
 ---------------------------------------------------------------------
      1          1           0       -1.806700    0.135620   -0.471293
      2          1           0       -2.141331    0.415280   -1.971210
      3          1           0       -0.755355   -0.875757    0.959760
      4          1           0       -1.668910   -0.485482    2.185670
      5          1           0       -0.239427   -1.371389   -0.945151
      6          1           0        1.060151   -1.290408   -0.110527
      7          1           0        1.716949    0.634258    0.141393
      8          1           0        2.850200    0.122305   -0.818392
      9          1           0       -0.155685    1.232111    0.924905
     10          1           0       -0.107955    1.542461   -0.565274
     11          8           0       -1.409830    0.252312   -1.349470
     12          8           0       -1.342650   -0.149026    1.327030
     13          8           0        0.161926   -1.718889   -0.136471
     14          8           0        2.360150   -0.118864   -0.011137
     15          8           0        0.386412    1.727092    0.253813
 ---------------------------------------------------------------------

 SCF Done:  E(RHF) =  -380.352345228     A.U. after    2 cycles

 The electronic state is 1-A.
 Alpha  occ. eigenvalues --  -20.60052 -20.58851 -20.56789 -20.56691 -20.56349
 Alpha  occ. eigenvalues --   -1.34069  -1.31847  -1.30453  -1.29772  -1.28201
 Alpha  occ. eigenvalues --   -0.77623  -0.73696  -0.72862  -0.71286  -0.71099
 Alpha  occ. eigenvalues --   -0.64432  -0.62911  -0.60458  -0.59995  -0.57433
 Alpha  occ. eigenvalues --   -0.54727  -0.53771  -0.51657  -0.51269  -0.50852
 Alpha virt. eigenvalues --    0.02689   0.04268   0.04889   0.06958   0.07453
 Alpha virt. eigenvalues --    0.08044   0.08451   0.08798   0.09020   0.11566
 Alpha virt. eigenvalues --    0.16318   0.18392   0.19317   0.20482   0.21746

 Mulliken charges:
               1
     1  H    0.228565
     2  H    0.231185
     3  H    0.314082
     4  H    0.229134
     5  H    0.235948
     6  H    0.287942
     7  H    0.285140
     8  H    0.192839
     9  H    0.259853
    10  H    0.258791
    11  O   -0.480102
    12  O   -0.566902
    13  O   -0.518738
    14  O   -0.447001
    15  O   -0.510736
 Sum of Mulliken charges =   0.00000

 Dipole moment (field-independent basis, Debye):
    X=             -2.9572    Y=              0.1617    Z=             -1.5082  Tot=              3.3235

 Test job not archived.
 1\1\GINC-SE087\SP\RHF\Aug-CC-pVDZ\H10O5\OHZDE\08-Apr-2025\0\\#t hf aug
 -cc-pvdz iop(5/13=1,5/36=2,99/5=2) pseudo=read geom=check guess=(read,
 tcheck) scf=(maxcycle=1)\\title\\0,1\H,0,-1.8067,0.13562,-0.471293\H,0
 ,-2.14133,0.41528,-1.97121\H,0,-0.755355,-0.875758,0.95976\H,0,-1.6689
 1,-0.485482,2.18567\H,0,-0.239428,-1.37139,-0.945151\H,0,1.06015,-1.29
 041,-0.110527\H,0,1.71695,0.634255,0.141393\H,0,2.8502,0.122302,-0.818
 392\H,0,-0.155684,1.23211,0.924905\H,0,-0.107954,1.54246,-0.565274\O,0
 ,-1.40983,0.252312,-1.34947\O,0,-1.34265,-0.149026,1.32703\O,0,0.16192

 Normal termination of Gaussian 16 at Tue Apr  8 20:59:28 2025.
