 Gaussian 16, Revision C.01,

 ----------------------------------------------------------------------
 #t hf aug-cc-pvdz symm=none int=(grid=ultrafine) guess=(read,tcheck) s
 table=(opt,rrhf)
 ----------------------------------------------------------------------
 -----
 title
 -----
 Symbolic Z-matrix:
 Charge =  0 Multiplicity = 1

 SCF Done:  E(RHF) =  -256.784997449     A.U. after   15 cycles
 Normal termination of Gaussian 16 at Tue Apr  8 21:24:28 2025.
 Gaussian 16:  ES64L-G16RevC.01  3-Jul-2019

 ----------------------------------------------------------------------
 #t hf aug-cc-pvdz iop(5/13=1,5/36=2,99/5=2) pseudo=read geom=check gue
 ss=(read,tcheck) scf=(maxcycle=1)
 ----------------------------------------------------------------------
 -----
 title
 -----
 Structure from the checkpoint file:  "ANI1ccx_377_conf55_mol1.chk"
 Charge =  0 Multiplicity = 1

                         Standard orientation:
 ---------------------------------------------------------------------
 Center     Atomic      Atomic             Coordinates (Angstroms)
 Number     Number       Type             X           Y           Z
 ---------------------------------------------------------------------
      1          6           0        1.134950   -0.134906   -0.038439
      2          1           0        2.149610   -0.308159    0.101440
      3          1           0       -1.769212   -0.993069   -0.042745
      4          7           0        0.470575    1.069449   -0.017209
      5          7           0       -0.812113    0.851303    0.040602
      6          7           0       -0.926280   -0.473597   -0.031047
      7          7           0        0.240661   -1.145631    0.032216
 ---------------------------------------------------------------------

 SCF Done:  E(RHF) =  -256.856111625     A.U. after    2 cycles

 The electronic state is 1-A.
 Alpha  occ. eigenvalues --  -15.77173 -15.75123 -15.70865 -15.68770 -11.32627
 Alpha  occ. eigenvalues --   -1.45452  -1.22352  -1.15659  -0.90973  -0.87711
 Alpha  occ. eigenvalues --   -0.78110  -0.67858  -0.65625  -0.57923  -0.50426
 Alpha  occ. eigenvalues --   -0.46354  -0.44123  -0.41095
 Alpha virt. eigenvalues --    0.02957   0.03790   0.08417   0.08536   0.10561
 Alpha virt. eigenvalues --    0.11675   0.12304   0.15092   0.16058   0.16791
 Alpha virt. eigenvalues --    0.17385   0.18405   0.19931   0.20231   0.21808

 Mulliken charges:
               1
     1  C    1.046807
     2  H   -0.251542
     3  H    0.017856
     4  N   -0.385761
     5  N   -0.131962
     6  N    0.144657
     7  N   -0.440055
 Sum of Mulliken charges =  -0.00000

 Dipole moment (field-independent basis, Debye):
    X=             -0.7661    Y=             -2.0619    Z=              0.0067  Tot=              2.1997

 Test job not archived.
 1\1\GINC-SE250\SP\RHF\Aug-CC-pVDZ\C1H2N4\OHZDE\08-Apr-2025\0\\#t hf au
 g-cc-pvdz iop(5/13=1,5/36=2,99/5=2) pseudo=read geom=check guess=(read
 ,tcheck) scf=(maxcycle=1)\\title\\0,1\C,0,1.13495,-0.134904,-0.0384389
 \H,0,2.14961,-0.308154,0.10144\H,0,-1.76921,-0.993073,-0.0427446\N,0,0
 .470573,1.06945,-0.0172087\N,0,-0.812115,0.851301,0.040602\N,0,-0.9262
 79,-0.473599,-0.0310468\N,0,0.240663,-1.14563,0.0322161\\Version=ES64L
 -G16RevC.01\State=1-A\HF=-256.8561116\RMSD=3.116e-03\Dipole=-0.3014064
 ,-0.8112325,0.0026523\Quadrupole=5.2167862,-4.5507019,-0.6660843,1.960

 Normal termination of Gaussian 16 at Tue Apr  8 21:24:30 2025.
