 Gaussian 16, Revision C.01,

 ----------------------------------------------------------------------
 #t hf aug-cc-pvdz symm=none int=(grid=ultrafine) guess=(read,tcheck) s
 table=(opt,rrhf)
 ----------------------------------------------------------------------
 -----
 title
 -----
 Symbolic Z-matrix:
 Charge =  0 Multiplicity = 1

 SCF Done:  E(RHF) =  -755.373824699     A.U. after   14 cycles
 Normal termination of Gaussian 16 at Tue Apr  8 19:30:41 2025.
 Gaussian 16:  ES64L-G16RevC.01  3-Jul-2019

 ----------------------------------------------------------------------
 #t hf aug-cc-pvdz iop(5/13=1,5/36=2,99/5=2) pseudo=read geom=check gue
 ss=(read,tcheck) scf=(maxcycle=1)
 ----------------------------------------------------------------------
 -----
 title
 -----
 Structure from the checkpoint file:  "ANI1ccx_1405_conf34_mol1.chk"
 Charge =  0 Multiplicity = 1

                         Standard orientation:
 ---------------------------------------------------------------------
 Center     Atomic      Atomic             Coordinates (Angstroms)
 Number     Number       Type             X           Y           Z
 ---------------------------------------------------------------------
      1          6           0        1.734990   -1.381540    0.272799
      2          6           0        0.274238   -1.050490    0.639081
      3          6           0        2.223160   -0.215838   -0.515912
      4          6           0        2.254290    1.098560    0.291851
      5          6           0        1.064580    1.915070    0.123768
      6          6           0       -2.049390   -1.346980   -0.152609
      7          6           0       -2.749710   -0.044405   -0.234957
      8          1           0       -1.292470    0.383864   -1.148210
      9          1           0       -2.429510   -2.088190   -0.795697
     10          1           0       -2.344960   -1.812630    0.895599
     11          1           0       -0.217259   -1.607360   -1.224070
     12          1           0       -0.165894    2.364490   -1.187110
     13          1           0        2.468450    0.982592    1.378720
     14          1           0        2.946260    1.804960   -0.181080
     15          1           0        3.293270   -0.399131   -0.846432
     16          1           0        1.727240   -0.197595   -1.564980
     17          1           0        2.142260   -1.465150    1.277980
     18          1           0        1.730010   -3.444540    0.107934
     19          1           0        2.923680   -2.729720   -0.666297
     20          7           0        1.944080   -2.612340   -0.556569
     21          7           0       -0.606254   -1.206580   -0.346118
     22          8           0       -0.070323   -0.566110    1.701700
     23          8           0        0.690646    2.784470    0.862582
     24          8           0        0.654852    1.923730   -1.192480
     25          8           0       -3.763990    0.140870    0.440600
     26          8           0       -2.093540    0.853862   -0.846357
 ---------------------------------------------------------------------

 SCF Done:  E(RHF) =  -755.606392727     A.U. after    2 cycles

 The electronic state is 1-A.
 Alpha  occ. eigenvalues --  -20.64288 -20.62208 -20.56677 -20.56537 -20.54732
 Alpha  occ. eigenvalues --  -15.68768 -15.66427 -11.40089 -11.39717 -11.38773
 Alpha  occ. eigenvalues --  -11.31560 -11.31372 -11.28468 -11.27673  -1.46549
 Alpha  occ. eigenvalues --   -1.43212  -1.38445  -1.33096  -1.31756  -1.24187
 Alpha  occ. eigenvalues --   -1.19676  -1.09851  -1.03675  -0.98850  -0.89614
 Alpha  occ. eigenvalues --   -0.86647  -0.83013  -0.81748  -0.77590  -0.74379
 Alpha  occ. eigenvalues --   -0.72508  -0.71031  -0.70129  -0.68922  -0.67807
 Alpha  occ. eigenvalues --   -0.66988  -0.65629  -0.64334  -0.62780  -0.61544
 Alpha  occ. eigenvalues --   -0.60470  -0.59468  -0.58754  -0.56069  -0.55109
 Alpha  occ. eigenvalues --   -0.53434  -0.53178  -0.49867  -0.48139  -0.47686
 Alpha  occ. eigenvalues --   -0.47158  -0.46161  -0.44646  -0.43232
 Alpha virt. eigenvalues --    0.01545   0.02393   0.02740   0.04057   0.05309
 Alpha virt. eigenvalues --    0.05408   0.06365   0.06451   0.07325   0.08040
 Alpha virt. eigenvalues --    0.08191   0.08697   0.10002   0.10721   0.11173

 Mulliken charges:
               1
     1  C    0.746226
     2  C    0.313427
     3  C    0.363748
     4  C   -0.019681
     5  C    0.527565
     6  C    0.425404
     7  C    0.491663
     8  H    0.373235
     9  H   -0.273973
    10  H    0.152628
    11  H    0.118312
    12  H    0.201980
    13  H    0.033178
    14  H    0.162041
    15  H   -0.154886
    16  H    0.122384
    17  H   -0.075867
    18  H    0.139995
    19  H   -0.024314
    20  N   -0.368707
    21  N   -0.664469
    22  O   -0.568961
    23  O   -0.528966
    24  O   -0.593301
    25  O   -0.524310
    26  O   -0.374350
 Sum of Mulliken charges =  -0.00000

 Dipole moment (field-independent basis, Debye):
    X=              6.6859    Y=             -6.5475    Z=             -4.9008  Tot=             10.5635

 Test job not archived.
 1\1\GINC-SE366\SP\RHF\Aug-CC-pVDZ\C7H12N2O5\OHZDE\08-Apr-2025\0\\#t hf
  aug-cc-pvdz iop(5/13=1,5/36=2,99/5=2) pseudo=read geom=check guess=(r
 ead,tcheck) scf=(maxcycle=1)\\title\\0,1\C,0,1.73499,-1.38154,0.272799
 \C,0,0.274238,-1.05049,0.639081\C,0,2.22316,-0.215838,-0.515912\C,0,2.
 25429,1.09856,0.291851\C,0,1.06458,1.91507,0.123768\C,0,-2.04939,-1.34
 698,-0.152609\C,0,-2.74971,-0.0444057,-0.234957\H,0,-1.29247,0.383864,
 -1.14821\H,0,-2.42951,-2.08819,-0.795697\H,0,-2.34496,-1.81263,0.89559
 9\H,0,-0.217259,-1.60736,-1.22407\H,0,-0.165894,2.36449,-1.18711\H,0,2

 Normal termination of Gaussian 16 at Tue Apr  8 19:31:03 2025.
