 Gaussian 16, Revision C.01,

 ----------------------------------------------------------------------
 #t hf aug-cc-pvdz symm=none int=(grid=ultrafine) guess=(read,tcheck) s
 table=(opt,rrhf)
 ----------------------------------------------------------------------
 -----
 title
 -----
 Symbolic Z-matrix:
 Charge =  0 Multiplicity = 1

 SCF Done:  E(RHF) =  -465.437070951     A.U. after   14 cycles
 Normal termination of Gaussian 16 at Tue Apr  8 21:42:53 2025.
 Gaussian 16:  ES64L-G16RevC.01  3-Jul-2019

 ----------------------------------------------------------------------
 #t hf aug-cc-pvdz iop(5/13=1,5/36=2,99/5=2) pseudo=read geom=check gue
 ss=(read,tcheck) scf=(maxcycle=1)
 ----------------------------------------------------------------------
 -----
 title
 -----
 Structure from the checkpoint file:  "ANI1ccx_503_conf1_mol2.chk"
 Charge =  0 Multiplicity = 1

                         Standard orientation:
 ---------------------------------------------------------------------
 Center     Atomic      Atomic             Coordinates (Angstroms)
 Number     Number       Type             X           Y           Z
 ---------------------------------------------------------------------
      1          6           0        1.417109   -0.013292   -0.044714
      2          6           0       -0.742964    0.752366    0.097198
      3          1           0       -2.272139   -1.591302    0.333169
      4          1           0        0.928606   -1.846189    0.632386
      5          1           0        0.962300    2.047801   -0.165242
      6          7           0       -0.744516   -0.617504    0.383440
      7          7           0        0.542948   -1.102249    0.055724
      8          7           0        0.597279    1.118471   -0.066443
      9          8           0       -1.708289   -1.283332   -0.388998
     10          8           0        2.634300   -0.053579   -0.090759
     11          8           0       -1.730212    1.482438    0.014224
 ---------------------------------------------------------------------

 SCF Done:  E(RHF) =  -465.578197389     A.U. after    2 cycles

 The electronic state is 1-A.
 Alpha  occ. eigenvalues --  -20.66200 -20.58548 -20.58117 -15.78043 -15.72254
 Alpha  occ. eigenvalues --  -15.71651 -11.44733 -11.44510  -1.47203  -1.40096
 Alpha  occ. eigenvalues --   -1.37395  -1.31116  -1.21440  -1.09083  -0.90314
 Alpha  occ. eigenvalues --   -0.87292  -0.79216  -0.78119  -0.71257  -0.70834
 Alpha  occ. eigenvalues --   -0.68274  -0.67963  -0.65895  -0.59934  -0.57081
 Alpha  occ. eigenvalues --   -0.54691  -0.51576  -0.48247  -0.46581  -0.42496
 Alpha virt. eigenvalues --    0.02446   0.03644   0.04372   0.06706   0.09527
 Alpha virt. eigenvalues --    0.10888   0.11502   0.11912   0.12526   0.12947
 Alpha virt. eigenvalues --    0.13739   0.14582   0.15612   0.16479   0.17265

 Mulliken charges:
               1
     1  C    0.814315
     2  C    1.030374
     3  H    0.231419
     4  H    0.079456
     5  H   -0.066556
     6  N   -0.362833
     7  N   -0.081178
     8  N   -0.360126
     9  O   -0.405293
    10  O   -0.430351
    11  O   -0.449227
 Sum of Mulliken charges =  -0.00000

 Dipole moment (field-independent basis, Debye):
    X=             -0.4396    Y=             -1.6800    Z=              2.1142  Tot=              2.7360

 Test job not archived.
 1\1\GINC-SE453\SP\RHF\Aug-CC-pVDZ\C2H3N3O3\OHZDE\08-Apr-2025\0\\#t hf
 aug-cc-pvdz iop(5/13=1,5/36=2,99/5=2) pseudo=read geom=check guess=(re
 ad,tcheck) scf=(maxcycle=1)\\title\\0,1\C,0,1.41711,-0.0132942,-0.0447
 142\C,0,-0.742963,0.752367,0.0971984\H,0,-2.27214,-1.5913,0.333169\H,0
 ,0.928604,-1.84619,0.632386\H,0,0.962303,2.0478,-0.165242\N,0,-0.74451
 6,-0.617503,0.38344\N,0,0.542947,-1.10225,0.0557236\N,0,0.597281,1.118
 47,-0.0664433\O,0,-1.70829,-1.28333,-0.388998\O,0,2.6343,-0.053582,-0.
 0907586\O,0,-1.73021,1.48244,0.0142237\\Version=ES64L-G16RevC.01\State

 Normal termination of Gaussian 16 at Tue Apr  8 21:42:58 2025.
