 Gaussian 16, Revision C.01,

 ----------------------------------------------------------------------
 #t hf aug-cc-pvdz symm=none int=(grid=ultrafine) guess=(read,tcheck) s
 table=(opt,rrhf)
 ----------------------------------------------------------------------
 -----
 title
 -----
 Symbolic Z-matrix:
 Charge =  0 Multiplicity = 1

 SCF Done:  E(RHF) =  -205.851017611     A.U. after   14 cycles
 Normal termination of Gaussian 16 at Tue Apr  8 21:10:15 2025.
 Gaussian 16:  ES64L-G16RevC.01  3-Jul-2019

 ----------------------------------------------------------------------
 #t hf aug-cc-pvdz iop(5/13=1,5/36=2,99/5=2) pseudo=read geom=check gue
 ss=(read,tcheck) scf=(maxcycle=1)
 ----------------------------------------------------------------------
 -----
 title
 -----
 Structure from the checkpoint file:  "ANI1ccx_1869_conf28_mol1.chk"
 Charge =  0 Multiplicity = 1

                         Standard orientation:
 ---------------------------------------------------------------------
 Center     Atomic      Atomic             Coordinates (Angstroms)
 Number     Number       Type             X           Y           Z
 ---------------------------------------------------------------------
      1          1           0       -1.123368    1.243731   -0.227796
      2          1           0        2.352232    0.605782    0.551356
      3          1           0        1.268802   -0.263554   -0.151492
      4          7           0       -0.830803    0.271585   -0.020617
      5          8           0       -1.838368   -0.297654    0.043321
      6          8           0        2.253112   -0.138227   -0.046790
 ---------------------------------------------------------------------

 SCF Done:  E(RHF) =  -205.917890061     A.U. after    2 cycles

 The electronic state is 1-A.
 Alpha  occ. eigenvalues --  -20.68612 -20.56635 -15.79254  -1.54844  -1.28998
 Alpha  occ. eigenvalues --   -0.99000  -0.79561  -0.72283  -0.69788  -0.65156
 Alpha  occ. eigenvalues --   -0.58203  -0.51214  -0.44800
 Alpha virt. eigenvalues --    0.02816   0.05120   0.05789   0.07378   0.10832
 Alpha virt. eigenvalues --    0.14755   0.17099   0.18219   0.20162   0.22723
 Alpha virt. eigenvalues --    0.23387   0.24872   0.25439   0.26251   0.27877

 Mulliken charges:
               1
     1  H    0.110731
     2  H    0.116410
     3  H    0.205810
     4  N    0.179506
     5  O   -0.312643
     6  O   -0.299813
 Sum of Mulliken charges =  -0.00000

 Dipole moment (field-independent basis, Debye):
    X=             -1.7508    Y=              2.9555    Z=              0.5123  Tot=              3.4731

 Test job not archived.
 1\1\GINC-SE110\SP\RHF\Aug-CC-pVDZ\H3N1O2\OHZDE\08-Apr-2025\0\\#t hf au
 g-cc-pvdz iop(5/13=1,5/36=2,99/5=2) pseudo=read geom=check guess=(read
 ,tcheck) scf=(maxcycle=1)\\title\\0,1\H,0,-1.12337,1.24373,-0.227796\H
 ,0,2.35223,0.605782,0.551356\H,0,1.2688,-0.263554,-0.151492\N,0,-0.830
 805,0.271584,-0.0206166\O,0,-1.83837,-0.297655,0.043321\O,0,2.25311,-0
 .138227,-0.0467899\\Version=ES64L-G16RevC.01\State=1-A\HF=-205.9178901
 \RMSD=2.889e-03\Dipole=-0.6888139,1.1627783,0.2015609\Quadrupole=-4.64
 1381,2.7600921,1.8812889,0.6046328,2.1584559,0.7090418\PG=C01 [X(H3N1O

 Normal termination of Gaussian 16 at Tue Apr  8 21:10:17 2025.
