 Gaussian 16, Revision C.01,

 ----------------------------------------------------------------------
 #t hf aug-cc-pvdz symm=none int=(grid=ultrafine) guess=(read,tcheck) s
 table=(opt,rrhf)
 ----------------------------------------------------------------------
 -----
 title
 -----
 Symbolic Z-matrix:
 Charge =  0 Multiplicity = 1

 SCF Done:  E(RHF) =  -356.588135663     A.U. after   15 cycles
 Normal termination of Gaussian 16 at Tue Apr  8 21:42:47 2025.
 Gaussian 16:  ES64L-G16RevC.01  3-Jul-2019

 ----------------------------------------------------------------------
 #t hf aug-cc-pvdz iop(5/13=1,5/36=2,99/5=2) pseudo=read geom=check gue
 ss=(read,tcheck) scf=(maxcycle=1)
 ----------------------------------------------------------------------
 -----
 title
 -----
 Structure from the checkpoint file:  "ANI1ccx_498_conf1_mol2.chk"
 Charge =  0 Multiplicity = 1

                         Standard orientation:
 ---------------------------------------------------------------------
 Center     Atomic      Atomic             Coordinates (Angstroms)
 Number     Number       Type             X           Y           Z
 ---------------------------------------------------------------------
      1          6           0        0.750777   -0.143186   -0.000992
      2          6           0       -0.747326   -0.144692   -0.004959
      3          1           0        2.386287    0.995909    0.202848
      4          1           0        0.908485    1.963644    0.434699
      5          1           0       -2.228962    1.072505   -0.173744
      6          7           0        1.365557    1.040231    0.087027
      7          8           0        1.309762   -1.222809   -0.156156
      8          8           0       -1.245602    1.146708   -0.154141
      9          8           0       -1.394837   -1.122201    0.180636
 ---------------------------------------------------------------------

 SCF Done:  E(RHF) =  -356.700837863     A.U. after    2 cycles

 The electronic state is 1-A.
 Alpha  occ. eigenvalues --  -20.65294 -20.60248 -20.56310 -15.68630 -11.42784
 Alpha  occ. eigenvalues --  -11.39619  -1.44795  -1.36773  -1.35686  -1.20252
 Alpha  occ. eigenvalues --   -0.96482  -0.81033  -0.77291  -0.75000  -0.69778
 Alpha  occ. eigenvalues --   -0.67469  -0.65851  -0.63644  -0.59219  -0.53278
 Alpha  occ. eigenvalues --   -0.51990  -0.47038  -0.43892
 Alpha virt. eigenvalues --    0.02331   0.03363   0.05679   0.07219   0.09515
 Alpha virt. eigenvalues --    0.10104   0.10574   0.11855   0.12730   0.14121
 Alpha virt. eigenvalues --    0.14679   0.16626   0.17288   0.18846   0.19736

 Mulliken charges:
               1
     1  C    0.570854
     2  C    0.652041
     3  H    0.056316
     4  H    0.154008
     5  H    0.212335
     6  N   -0.252375
     7  O   -0.491271
     8  O   -0.539203
     9  O   -0.362704
 Sum of Mulliken charges =  -0.00000

 Dipole moment (field-independent basis, Debye):
    X=             -0.3822    Y=              5.6431    Z=              0.7574  Tot=              5.7065

 Test job not archived.
 1\1\GINC-SE127\SP\RHF\Aug-CC-pVDZ\C2H3N1O3\OHZDE\08-Apr-2025\0\\#t hf
 aug-cc-pvdz iop(5/13=1,5/36=2,99/5=2) pseudo=read geom=check guess=(re
 ad,tcheck) scf=(maxcycle=1)\\title\\0,1\C,0,0.750777,-0.143181,-0.0009
 9211\C,0,-0.747326,-0.144697,-0.00495901\H,0,2.38628,0.995925,0.202848
 \H,0,0.908472,1.96365,0.434699\H,0,-2.22897,1.07249,-0.173744\N,0,1.36
 555,1.04024,0.0870271\O,0,1.30977,-1.2228,-0.156156\O,0,-1.24561,1.146
 7,-0.154141\O,0,-1.39483,-1.12221,0.180636\\Version=ES64L-G16RevC.01\S
 tate=1-A\HF=-356.7008379\RMSD=4.025e-03\Dipole=-0.1504028,2.2201711,0.

 Normal termination of Gaussian 16 at Tue Apr  8 21:42:51 2025.
