 Gaussian 16, Revision C.01,

 ----------------------------------------------------------------------
 #t hf aug-cc-pvdz symm=none int=(grid=ultrafine) guess=(read,tcheck) s
 table=(opt,rrhf)
 ----------------------------------------------------------------------
 -----
 title
 -----
 Symbolic Z-matrix:
 Charge =  0 Multiplicity = 1

 SCF Done:  E(RHF) =  -450.688787497     A.U. after   13 cycles
 Normal termination of Gaussian 16 at Tue Apr  8 21:50:18 2025.
 Gaussian 16:  ES64L-G16RevC.01  3-Jul-2019

 ----------------------------------------------------------------------
 #t hf aug-cc-pvdz iop(5/13=1,5/36=2,99/5=2) pseudo=read geom=check gue
 ss=(read,tcheck) scf=(maxcycle=1)
 ----------------------------------------------------------------------
 -----
 title
 -----
 Structure from the checkpoint file:  "ANI1ccx_724_conf2_mol1.chk"
 Charge =  0 Multiplicity = 1

                         Standard orientation:
 ---------------------------------------------------------------------
 Center     Atomic      Atomic             Coordinates (Angstroms)
 Number     Number       Type             X           Y           Z
 ---------------------------------------------------------------------
      1          6           0       -3.015140   -0.007015   -0.042296
      2          6           0       -0.719551   -0.035293    0.044466
      3          6           0        1.789140   -0.158886   -0.023931
      4          1           0       -3.220030    0.201182    0.941961
      5          1           0       -2.990050    0.833855   -0.725600
      6          1           0       -3.802090   -0.699391   -0.338397
      7          1           0        0.416603   -1.693860    0.079643
      8          1           0        0.950724    1.776790   -0.255764
      9          1           0        2.719620    1.508290   -0.236858
     10          7           0        0.485396   -0.685522    0.065821
     11          7           0        1.780910    1.193260   -0.001253
     12          8           0       -1.767380   -0.831642   -0.057125
     13          8           0       -0.755232    1.216150    0.097935
     14          8           0        2.739410   -0.918741   -0.014110
 ---------------------------------------------------------------------

 SCF Done:  E(RHF) =  -450.833410053     A.U. after    2 cycles

 The electronic state is 1-A.
 Alpha  occ. eigenvalues --  -20.65581 -20.56483 -20.54529 -15.68204 -15.64563
 Alpha  occ. eigenvalues --  -11.45295 -11.41267 -11.31871  -1.45343  -1.37339
 Alpha  occ. eigenvalues --   -1.33275  -1.22595  -1.17024  -1.00597  -0.88152
 Alpha  occ. eigenvalues --   -0.81370  -0.78744  -0.74052  -0.72062  -0.70792
 Alpha  occ. eigenvalues --   -0.65952  -0.63494  -0.62549  -0.61991  -0.58755
 Alpha  occ. eigenvalues --   -0.56839  -0.51439  -0.49629  -0.47596  -0.44357
 Alpha  occ. eigenvalues --   -0.42592
 Alpha virt. eigenvalues --    0.02756   0.04081   0.04844   0.05118   0.05851
 Alpha virt. eigenvalues --    0.07488   0.08887   0.09746   0.11685   0.12894
 Alpha virt. eigenvalues --    0.13908   0.14673   0.14931   0.15348   0.15558

 Mulliken charges:
               1
     1  C    0.890891
     2  C    0.860909
     3  C    0.686410
     4  H   -0.219486
     5  H   -0.012445
     6  H   -0.199922
     7  H   -0.038437
     8  H    0.150397
     9  H    0.050725
    10  N   -0.408166
    11  N   -0.162857
    12  O   -0.574750
    13  O   -0.544764
    14  O   -0.478505
 Sum of Mulliken charges =  -0.00000

 Dipole moment (field-independent basis, Debye):
    X=             -4.3604    Y=              0.7676    Z=             -0.8294  Tot=              4.5045

 Test job not archived.
 1\1\GINC-SE331\SP\RHF\Aug-CC-pVDZ\C3H6N2O3\OHZDE\08-Apr-2025\0\\#t hf
 aug-cc-pvdz iop(5/13=1,5/36=2,99/5=2) pseudo=read geom=check guess=(re
 ad,tcheck) scf=(maxcycle=1)\\title\\0,1\C,0,-3.01514,-0.00701441,-0.04
 22956\C,0,-0.719551,-0.0352931,0.0444662\C,0,1.78914,-0.158886,-0.0239
 311\H,0,-3.22003,0.201182,0.941961\H,0,-2.99005,0.833855,-0.7256\H,0,-
 3.80209,-0.699391,-0.338397\H,0,0.416603,-1.69386,0.0796428\H,0,0.9507
 24,1.77679,-0.255764\H,0,2.71962,1.50829,-0.236858\N,0,0.485396,-0.685
 522,0.0658209\N,0,1.78091,1.19326,-0.00125272\O,0,-1.76738,-0.831642,-

 Normal termination of Gaussian 16 at Tue Apr  8 21:50:23 2025.
