 Gaussian 16, Revision C.01,

 ----------------------------------------------------------------------
 #t hf aug-cc-pvdz symm=none int=(grid=ultrafine) guess=(read,tcheck) s
 table=(opt,rrhf)
 ----------------------------------------------------------------------
 -----
 title
 -----
 Symbolic Z-matrix:
 Charge =  0 Multiplicity = 1

 SCF Done:  E(RHF) =  -263.691954750     A.U. after   12 cycles
 Normal termination of Gaussian 16 at Tue Apr  8 21:30:31 2025.
 Gaussian 16:  ES64L-G16RevC.01  3-Jul-2019

 ----------------------------------------------------------------------
 #t hf aug-cc-pvdz iop(5/13=1,5/36=2,99/5=2) pseudo=read geom=check gue
 ss=(read,tcheck) scf=(maxcycle=1)
 ----------------------------------------------------------------------
 -----
 title
 -----
 Structure from the checkpoint file:  "ANI1ccx_383_conf80_mol1.chk"
 Charge =  0 Multiplicity = 1

                         Standard orientation:
 ---------------------------------------------------------------------
 Center     Atomic      Atomic             Coordinates (Angstroms)
 Number     Number       Type             X           Y           Z
 ---------------------------------------------------------------------
      1          6           0       -0.002458    0.048630   -0.018065
      2          1           0       -1.923841   -0.006204    0.162017
      3          1           0        1.745520   -0.104386    0.057761
      4          8           0       -1.135359   -0.574690   -0.017402
      5          8           0        1.059031   -0.716238    0.006487
      6          8           0        0.100461    1.268279   -0.003009
 ---------------------------------------------------------------------

 SCF Done:  E(RHF) =  -263.780978612     A.U. after    2 cycles

 The electronic state is 1-A.
 Alpha  occ. eigenvalues --  -20.65310 -20.64611 -20.55879 -11.46498  -1.50190
 Alpha  occ. eigenvalues --   -1.40742  -1.32576  -0.94160  -0.79576  -0.74765
 Alpha  occ. eigenvalues --   -0.72065  -0.70147  -0.61758  -0.58855  -0.49989
 Alpha  occ. eigenvalues --   -0.49735
 Alpha virt. eigenvalues --    0.03152   0.04372   0.09017   0.09836   0.12034
 Alpha virt. eigenvalues --    0.14797   0.17092   0.18689   0.19335   0.20544
 Alpha virt. eigenvalues --    0.21973   0.22607   0.22896   0.28476   0.28921

 Mulliken charges:
               1
     1  C    0.793261
     2  H    0.205962
     3  H    0.123377
     4  O   -0.376347
     5  O   -0.296988
     6  O   -0.449266
 Sum of Mulliken charges =   0.00000

 Dipole moment (field-independent basis, Debye):
    X=             -0.6206    Y=             -0.7347    Z=              0.3810  Tot=              1.0344

 Test job not archived.
 1\1\GINC-SE364\SP\RHF\Aug-CC-pVDZ\C1H2O3\OHZDE\08-Apr-2025\0\\#t hf au
 g-cc-pvdz iop(5/13=1,5/36=2,99/5=2) pseudo=read geom=check guess=(read
 ,tcheck) scf=(maxcycle=1)\\title\\0,1\C,0,-0.00245697,0.0486314,-0.018
 0651\H,0,-1.92384,-0.00619869,0.162017\H,0,1.74552,-0.104389,0.0577613
 \O,0,-1.13536,-0.574686,-0.017402\O,0,1.05903,-0.71624,0.00648738\O,0,
 0.100465,1.26828,-0.00300882\\Version=ES64L-G16RevC.01\State=1-A\HF=-2
 63.7809786\RMSD=2.953e-03\Dipole=-0.244147,-0.2890682,0.1498897\Quadru
 pole=5.957534,-5.7932181,-0.1643159,-0.3995673,-0.4336657,0.0386863\PG

 Normal termination of Gaussian 16 at Tue Apr  8 21:30:33 2025.
