 Gaussian 16, Revision C.01,

 ----------------------------------------------------------------------
 #t hf aug-cc-pvdz symm=none int=(grid=ultrafine) guess=(read,tcheck) s
 table=(opt,rrhf)
 ----------------------------------------------------------------------
 -----
 title
 -----
 Symbolic Z-matrix:
 Charge =  0 Multiplicity = 1

 SCF Done:  E(RHF) =  -451.824559783     A.U. after   13 cycles
 Normal termination of Gaussian 16 at Tue Apr  8 21:52:19 2025.
 Gaussian 16:  ES64L-G16RevC.01  3-Jul-2019

 ----------------------------------------------------------------------
 #t hf aug-cc-pvdz iop(5/13=1,5/36=2,99/5=2) pseudo=read geom=check gue
 ss=(read,tcheck) scf=(maxcycle=1)
 ----------------------------------------------------------------------
 -----
 title
 -----
 Structure from the checkpoint file:  "ANI1ccx_764_conf16_mol1.chk"
 Charge =  0 Multiplicity = 1

                         Standard orientation:
 ---------------------------------------------------------------------
 Center     Atomic      Atomic             Coordinates (Angstroms)
 Number     Number       Type             X           Y           Z
 ---------------------------------------------------------------------
      1          6           0       -2.223591   -0.004917    0.599745
      2          6           0        0.102625    0.686419   -0.162483
      3          6           0        1.895209   -0.964941   -0.312802
      4          1           0       -2.941701   -1.704011   -0.130495
      5          1           0       -3.124461    0.575269    0.864829
      6          1           0       -1.818891   -0.484664    1.512390
      7          1           0       -1.537271    1.873080   -0.042654
      8          1           0       -0.168806   -1.270500   -0.272248
      9          1           0        1.983059   -2.028050   -0.096327
     10          1           0        2.104129   -0.775833   -1.404170
     11          1           0        2.680959    0.665777    0.342868
     12          7           0       -1.244431    0.922385    0.058875
     13          7           0        0.518562   -0.644148   -0.026039
     14          8           0       -2.405281   -0.959585   -0.441149
     15          8           0        0.854706    1.606380   -0.414519
     16          8           0        2.707899   -0.284056    0.636818
 ---------------------------------------------------------------------

 SCF Done:  E(RHF) =  -451.966655468     A.U. after    2 cycles

 The electronic state is 1-A.
 Alpha  occ. eigenvalues --  -20.60549 -20.56733 -20.53520 -15.64950 -15.63535
 Alpha  occ. eigenvalues --  -11.39666 -11.35891 -11.32862  -1.37211  -1.35642
 Alpha  occ. eigenvalues --   -1.31372  -1.20780  -1.16800  -0.95130  -0.91430
 Alpha  occ. eigenvalues --   -0.79548  -0.76482  -0.75020  -0.69810  -0.69243
 Alpha  occ. eigenvalues --   -0.67016  -0.63820  -0.62854  -0.59407  -0.59232
 Alpha  occ. eigenvalues --   -0.56758  -0.53229  -0.50425  -0.48614  -0.45804
 Alpha  occ. eigenvalues --   -0.41652  -0.40199
 Alpha virt. eigenvalues --    0.02178   0.03427   0.04578   0.04840   0.06324
 Alpha virt. eigenvalues --    0.06436   0.07465   0.09067   0.10476   0.11436
 Alpha virt. eigenvalues --    0.12805   0.13791   0.14138   0.14507   0.15765

 Mulliken charges:
               1
     1  C    1.123436
     2  C    0.673578
     3  C    1.044190
     4  H    0.179746
     5  H   -0.192678
     6  H   -0.174506
     7  H   -0.101254
     8  H   -0.140406
     9  H   -0.285276
    10  H   -0.071613
    11  H    0.230776
    12  N   -0.309106
    13  N   -0.291909
    14  O   -0.600542
    15  O   -0.509221
    16  O   -0.575214
 Sum of Mulliken charges =  -0.00000

 Dipole moment (field-independent basis, Debye):
    X=             -5.0074    Y=             -2.5776    Z=              0.6003  Tot=              5.6638

 Test job not archived.
 1\1\GINC-SE187\SP\RHF\Aug-CC-pVDZ\C3H8N2O3\OHZDE\08-Apr-2025\0\\#t hf
 aug-cc-pvdz iop(5/13=1,5/36=2,99/5=2) pseudo=read geom=check guess=(re
 ad,tcheck) scf=(maxcycle=1)\\title\\0,1\C,0,-2.22359,-0.0049163,0.5997
 45\C,0,0.102626,0.686419,-0.162483\C,0,1.89521,-0.964941,-0.312802\H,0
 ,-2.9417,-1.70401,-0.130495\H,0,-3.12446,0.57527,0.864829\H,0,-1.81889
 ,-0.484664,1.51239\H,0,-1.53727,1.87308,-0.0426542\H,0,-0.168805,-1.27
 05,-0.272248\H,0,1.98306,-2.02805,-0.096327\H,0,2.10413,-0.775833,-1.4
 0417\H,0,2.68096,0.665777,0.342868\N,0,-1.24443,0.922385,0.0588746\N,0

 Normal termination of Gaussian 16 at Tue Apr  8 21:52:25 2025.
