 Gaussian 16, Revision C.01,

 ----------------------------------------------------------------------
 #t hf aug-cc-pvdz symm=none int=(grid=ultrafine) guess=(read,tcheck) s
 table=(opt,rrhf)
 ----------------------------------------------------------------------
 -----
 title
 -----
 Symbolic Z-matrix:
 Charge =  0 Multiplicity = 1

 SCF Done:  E(RHF) =  -537.874160359     A.U. after   15 cycles
 Normal termination of Gaussian 16 at Tue Apr  8 22:16:15 2025.
 Gaussian 16:  ES64L-G16RevC.01  3-Jul-2019

 ----------------------------------------------------------------------
 #t hf aug-cc-pvdz iop(5/13=1,5/36=2,99/5=2) pseudo=read geom=check gue
 ss=(read,tcheck) scf=(maxcycle=1)
 ----------------------------------------------------------------------
 -----
 title
 -----
 Structure from the checkpoint file:  "ANI1ccx_988_conf1_mol1.chk"
 Charge =  0 Multiplicity = 1

                         Standard orientation:
 ---------------------------------------------------------------------
 Center     Atomic      Atomic             Coordinates (Angstroms)
 Number     Number       Type             X           Y           Z
 ---------------------------------------------------------------------
      1          6           0        2.140739   -0.421952   -0.017544
      2          6           0        0.789257    1.514870    0.634491
      3          6           0       -0.556223    1.742060    0.052316
      4          6           0       -1.432481    0.560970   -0.024392
      5          1           0       -0.218367   -1.099880    0.770177
      6          1           0       -0.463847    2.164790   -0.959018
      7          1           0       -1.115712    2.477209    0.634915
      8          1           0        1.224648    2.501820    0.851871
      9          1           0        0.747043    0.999679    1.590930
     10          1           0        1.898530   -2.093819    0.979587
     11          1           0        3.427490   -1.744649   -0.846533
     12          1           0        3.949879   -0.120694   -0.964641
     13          1           0        2.070828    1.267051   -1.090430
     14          7           0       -2.135901   -1.471591    0.112866
     15          7           0        3.171859   -0.760971   -0.873465
     16          7           0        1.537399   -1.154300    0.908552
     17          7           0        1.753699    0.857194   -0.231566
     18          7           0       -2.603401    0.499702   -0.561449
     19          7           0       -3.040811   -0.777049   -0.453297
     20          7           0       -1.135451   -0.725441    0.407490
 ---------------------------------------------------------------------

 SCF Done:  E(RHF) =  -538.028413330     A.U. after    2 cycles

 The electronic state is 1-A.
 Alpha  occ. eigenvalues --  -15.69231 -15.68514 -15.67566 -15.67137 -15.66842
 Alpha  occ. eigenvalues --  -15.62892 -15.60853 -11.40146 -11.30987 -11.29822
 Alpha  occ. eigenvalues --  -11.26590  -1.42958  -1.30732  -1.19167  -1.18519
 Alpha  occ. eigenvalues --   -1.14342  -1.12867  -1.04599  -0.92106  -0.85073
 Alpha  occ. eigenvalues --   -0.82958  -0.81963  -0.76804  -0.73851  -0.72419
 Alpha  occ. eigenvalues --   -0.67183  -0.65944  -0.64629  -0.63688  -0.62722
 Alpha  occ. eigenvalues --   -0.56522  -0.55548  -0.55238  -0.50631  -0.45960
 Alpha  occ. eigenvalues --   -0.43373  -0.43125  -0.42438  -0.41176  -0.37946
 Alpha  occ. eigenvalues --   -0.36510
 Alpha virt. eigenvalues --    0.01088   0.02299   0.03326   0.04179   0.05621
 Alpha virt. eigenvalues --    0.06074   0.07111   0.07685   0.08686   0.09734
 Alpha virt. eigenvalues --    0.10816   0.11400   0.13129   0.13427   0.14021

 Mulliken charges:
               1
     1  C    0.876806
     2  C    0.880831
     3  C    0.067697
     4  C    0.599319
     5  H    0.176730
     6  H    0.024958
     7  H    0.045522
     8  H   -0.133564
     9  H   -0.146222
    10  H   -0.099085
    11  H    0.030403
    12  H   -0.005699
    13  H   -0.140158
    14  N   -0.128030
    15  N   -0.185846
    16  N   -0.440373
    17  N   -0.396408
    18  N   -0.486398
    19  N   -0.300485
    20  N   -0.239999
 Sum of Mulliken charges =  -0.00000

 Dipole moment (field-independent basis, Debye):
    X=              9.8634    Y=              2.4549    Z=             -0.0268  Tot=             10.1644

 Test job not archived.
 1\1\GINC-SE086\SP\RHF\Aug-CC-pVDZ\C4H9N7\OHZDE\08-Apr-2025\0\\#t hf au
 g-cc-pvdz iop(5/13=1,5/36=2,99/5=2) pseudo=read geom=check guess=(read
 ,tcheck) scf=(maxcycle=1)\\title\\0,1\C,0,2.14074,-0.421953,-0.0175442
 \C,0,0.789259,1.51487,0.634491\C,0,-0.556221,1.74206,0.0523164\C,0,-1.
 43248,0.560971,-0.0243919\H,0,-0.218366,-1.09988,0.770177\H,0,-0.46384
 5,2.16479,-0.959018\H,0,-1.11571,2.47721,0.634915\H,0,1.22465,2.50182,
 0.851871\H,0,0.747045,0.999679,1.59093\H,0,1.89853,-2.09382,0.979587\H
 ,0,3.42749,-1.74465,-0.846533\H,0,3.94988,-0.120695,-0.964641\H,0,2.07

 Normal termination of Gaussian 16 at Tue Apr  8 22:16:28 2025.
