 Gaussian 16, Revision C.01,

 ----------------------------------------------------------------------
 #t hf aug-cc-pvdz symm=none int=(grid=ultrafine) guess=(read,tcheck) s
 table=(opt,rrhf)
 ----------------------------------------------------------------------
 -----
 title
 -----
 Symbolic Z-matrix:
 Charge =  0 Multiplicity = 1

 SCF Done:  E(RHF) =  -298.823307025     A.U. after   14 cycles
 Normal termination of Gaussian 16 at Tue Apr  8 21:33:37 2025.
 Gaussian 16:  ES64L-G16RevC.01  3-Jul-2019

 ----------------------------------------------------------------------
 #t hf aug-cc-pvdz iop(5/13=1,5/36=2,99/5=2) pseudo=read geom=check gue
 ss=(read,tcheck) scf=(maxcycle=1)
 ----------------------------------------------------------------------
 -----
 title
 -----
 Structure from the checkpoint file:  "ANI1ccx_398_conf16_mol1.chk"
 Charge =  0 Multiplicity = 1

                         Standard orientation:
 ---------------------------------------------------------------------
 Center     Atomic      Atomic             Coordinates (Angstroms)
 Number     Number       Type             X           Y           Z
 ---------------------------------------------------------------------
      1          6           0       -0.461062    0.108445    0.020187
      2          1           0       -1.773940   -1.268121   -0.502991
      3          1           0       -2.416250    0.240603   -0.248592
      4          1           0        0.581715   -1.543781    0.552496
      5          1           0        1.516060    0.854963   -0.161416
      6          7           0       -1.742730   -0.444686    0.115679
      7          7           0        0.622911   -0.798138   -0.126239
      8          8           0       -0.228299    1.311289    0.007396
      9          8           0        1.815490   -0.090610    0.031766
 ---------------------------------------------------------------------

 SCF Done:  E(RHF) =  -298.915979309     A.U. after    2 cycles

 The electronic state is 1-A.
 Alpha  occ. eigenvalues --  -20.61075 -20.57302 -15.71176 -15.67934 -11.42146
 Alpha  occ. eigenvalues --   -1.42023  -1.34724  -1.21164  -1.09635  -0.83694
 Alpha  occ. eigenvalues --   -0.77236  -0.72679  -0.68323  -0.65925  -0.63650
 Alpha  occ. eigenvalues --   -0.58294  -0.56567  -0.50259  -0.46690  -0.41455
 Alpha virt. eigenvalues --    0.02577   0.04102   0.05290   0.06634   0.09917
 Alpha virt. eigenvalues --    0.11975   0.12890   0.14186   0.15281   0.16101
 Alpha virt. eigenvalues --    0.16853   0.17913   0.18129   0.19218   0.20927

 Mulliken charges:
               1
     1  C    0.864380
     2  H    0.075155
     3  H    0.070027
     4  H    0.089163
     5  H    0.241576
     6  N   -0.302249
     7  N   -0.004079
     8  O   -0.506883
     9  O   -0.527090
 Sum of Mulliken charges =  -0.00000

 Dipole moment (field-independent basis, Debye):
    X=             -2.7688    Y=             -2.4296    Z=             -0.5902  Tot=              3.7306

 Test job not archived.
 1\1\GINC-SE457\SP\RHF\Aug-CC-pVDZ\C1H4N2O2\OHZDE\08-Apr-2025\0\\#t hf
 aug-cc-pvdz iop(5/13=1,5/36=2,99/5=2) pseudo=read geom=check guess=(re
 ad,tcheck) scf=(maxcycle=1)\\title\\0,1\C,0,-0.461062,0.108446,0.02018
 73\H,0,-1.77394,-1.26812,-0.502991\H,0,-2.41625,0.240604,-0.248592\H,0
 ,0.581715,-1.54378,0.552496\H,0,1.51606,0.854964,-0.161416\N,0,-1.7427
 3,-0.444685,0.115679\N,0,0.622911,-0.798137,-0.126239\O,0,-0.228299,1.
 31129,0.00739557\O,0,1.81549,-0.0906094,0.0317664\\Version=ES64L-G16Re
 vC.01\State=1-A\HF=-298.9159793\RMSD=2.346e-03\Dipole=-1.0893368,-0.95

 Normal termination of Gaussian 16 at Tue Apr  8 21:33:40 2025.
