 Gaussian 16, Revision C.01,

 ----------------------------------------------------------------------
 #t hf aug-cc-pvdz symm=none int=(grid=ultrafine) guess=(read,tcheck) s
 table=(opt,rrhf)
 ----------------------------------------------------------------------
 -----
 title
 -----
 Symbolic Z-matrix:
 Charge =  0 Multiplicity = 1

 SCF Done:  E(RHF) =  -276.591231016     A.U. after   15 cycles
 Normal termination of Gaussian 16 at Tue Apr  8 21:15:22 2025.
 Gaussian 16:  ES64L-G16RevC.01  3-Jul-2019

 ----------------------------------------------------------------------
 #t hf aug-cc-pvdz iop(5/13=1,5/36=2,99/5=2) pseudo=read geom=check gue
 ss=(read,tcheck) scf=(maxcycle=1)
 ----------------------------------------------------------------------
 -----
 title
 -----
 Structure from the checkpoint file:  "ANI1ccx_370_conf61_mol1.chk"
 Charge =  0 Multiplicity = 1

                         Standard orientation:
 ---------------------------------------------------------------------
 Center     Atomic      Atomic             Coordinates (Angstroms)
 Number     Number       Type             X           Y           Z
 ---------------------------------------------------------------------
      1          6           0       -1.056029   -0.130803    0.000318
      2          1           0       -2.150119   -0.269249    0.085425
      3          7           0       -0.513613    1.035861   -0.028751
      4          7           0        0.798108    0.773003    0.031904
      5          7           0        1.094451   -0.425539   -0.012885
      6          8           0       -0.145791   -1.078650   -0.002400
 ---------------------------------------------------------------------

 SCF Done:  E(RHF) =  -276.671043529     A.U. after    2 cycles

 The electronic state is 1-A.
 Alpha  occ. eigenvalues --  -20.71234 -15.78356 -15.74739 -15.69340 -11.40214
 Alpha  occ. eigenvalues --   -1.56022  -1.33773  -1.22595  -0.92478  -0.92166
 Alpha  occ. eigenvalues --   -0.78944  -0.74552  -0.66496  -0.60230  -0.54221
 Alpha  occ. eigenvalues --   -0.51564  -0.49251  -0.45520
 Alpha virt. eigenvalues --    0.02657   0.06274   0.07418   0.09273   0.10471
 Alpha virt. eigenvalues --    0.12981   0.13164   0.14998   0.15974   0.17635
 Alpha virt. eigenvalues --    0.18785   0.20035   0.20822   0.23026   0.24979

 Mulliken charges:
               1
     1  C    0.797261
     2  H   -0.093221
     3  N   -0.306883
     4  N   -0.009809
     5  N    0.099820
     6  O   -0.487169
 Sum of Mulliken charges =  -0.00000

 Dipole moment (field-independent basis, Debye):
    X=             -2.7986    Y=             -1.1931    Z=              0.0874  Tot=              3.0435

 Test job not archived.
 1\1\GINC-SE368\SP\RHF\Aug-CC-pVDZ\C1H1N3O1\OHZDE\08-Apr-2025\0\\#t hf
 aug-cc-pvdz iop(5/13=1,5/36=2,99/5=2) pseudo=read geom=check guess=(re
 ad,tcheck) scf=(maxcycle=1)\\title\\0,1\C,0,-1.05603,-0.130804,0.00031
 813\H,0,-2.15012,-0.269251,0.0854251\N,0,-0.513615,1.03586,-0.0287513\
 N,0,0.798107,0.773003,0.0319036\N,0,1.09445,-0.425539,-0.0128854\O,0,-
 0.145791,-1.07865,-0.00240027\\Version=ES64L-G16RevC.01\State=1-A\HF=-
 276.6710435\RMSD=3.384e-03\Dipole=-1.1010508,-0.4693852,0.0343743\Quad
 rupole=2.5568846,-3.3400102,0.7831256,1.2530517,-0.2021775,-0.0042852\

 Normal termination of Gaussian 16 at Tue Apr  8 21:15:24 2025.
