 Gaussian 16, Revision C.01,

 ----------------------------------------------------------------------
 #t hf aug-cc-pvdz symm=none int=(grid=ultrafine) guess=(read,tcheck) s
 table=(opt,rrhf)
 ----------------------------------------------------------------------
 -----
 title
 -----
 Symbolic Z-matrix:
 Charge =  0 Multiplicity = 1

 SCF Done:  E(RHF) =  -460.274808803     A.U. after   16 cycles
 Normal termination of Gaussian 16 at Tue Apr  8 21:19:34 2025.
 Gaussian 16:  ES64L-G16RevC.01  3-Jul-2019

 ----------------------------------------------------------------------
 #t hf aug-cc-pvdz iop(5/13=1,5/36=2,99/5=2) pseudo=read geom=check gue
 ss=(read,tcheck) scf=(maxcycle=1)
 ----------------------------------------------------------------------
 -----
 title
 -----
 Structure from the checkpoint file:  "ANI1ccx_373_conf1_mol1.chk"
 Charge =  0 Multiplicity = 1

                         Standard orientation:
 ---------------------------------------------------------------------
 Center     Atomic      Atomic             Coordinates (Angstroms)
 Number     Number       Type             X           Y           Z
 ---------------------------------------------------------------------
      1          6           0        0.035452    0.019543   -0.010730
      2          1           0        2.780490   -1.076489   -0.259796
      3          7           0       -1.412250   -0.010241    0.005012
      4          7           0        0.739229    1.147761    0.273884
      5          7           0        1.951420    0.712057    0.208630
      6          7           0        1.955170   -0.559510   -0.142387
      7          7           0        0.748980   -1.035939   -0.323585
      8          8           0       -2.007070    0.971823   -0.380995
      9          8           0       -1.851810   -1.074280    0.402657
 ---------------------------------------------------------------------

 SCF Done:  E(RHF) =  -460.406028350     A.U. after    2 cycles

 The electronic state is 1-A.
 Alpha  occ. eigenvalues --  -20.65070 -20.64564 -15.95192 -15.81583 -15.78014
 Alpha  occ. eigenvalues --  -15.75201 -15.73722 -11.40350  -1.58836  -1.52196
 Alpha  occ. eigenvalues --   -1.40680  -1.29195  -1.22175  -1.04986  -0.96360
 Alpha  occ. eigenvalues --   -0.87338  -0.83945  -0.79064  -0.77230  -0.75348
 Alpha  occ. eigenvalues --   -0.72317  -0.62923  -0.55909  -0.54721  -0.54210
 Alpha  occ. eigenvalues --   -0.50941  -0.49612  -0.49347  -0.45411
 Alpha virt. eigenvalues --    0.01607   0.03441   0.06987   0.07855   0.08153
 Alpha virt. eigenvalues --    0.09166   0.11361   0.12082   0.13394   0.15214
 Alpha virt. eigenvalues --    0.15633   0.16869   0.16998   0.17348   0.19575

 Mulliken charges:
               1
     1  C    1.212882
     2  H    0.012305
     3  N    0.334829
     4  N   -0.320425
     5  N   -0.126431
     6  N    0.245723
     7  N   -0.341604
     8  O   -0.504058
     9  O   -0.513221
 Sum of Mulliken charges =  -0.00000

 Dipole moment (field-independent basis, Debye):
    X=              4.9957    Y=             -1.9413    Z=             -0.5465  Tot=              5.3874

 Test job not archived.
 1\1\GINC-SE072\SP\RHF\Aug-CC-pVDZ\C1H1N5O2\OHZDE\08-Apr-2025\0\\#t hf
 aug-cc-pvdz iop(5/13=1,5/36=2,99/5=2) pseudo=read geom=check guess=(re
 ad,tcheck) scf=(maxcycle=1)\\title\\0,1\C,0,0.035452,0.0195427,-0.0107
 295\H,0,2.78049,-1.07649,-0.259796\N,0,-1.41225,-0.0102407,0.00501234\
 N,0,0.739229,1.14776,0.273884\N,0,1.95142,0.712056,0.20863\N,0,1.95517
 ,-0.559511,-0.142387\N,0,0.74898,-1.03594,-0.323585\O,0,-2.00707,0.971
 823,-0.380995\O,0,-1.85181,-1.07428,0.402657\\Version=ES64L-G16RevC.01
 \State=1-A\HF=-460.4060284\RMSD=3.419e-03\Dipole=1.9654422,-0.7637712,

 Normal termination of Gaussian 16 at Tue Apr  8 21:19:38 2025.
