 Gaussian 16, Revision C.01,

 ----------------------------------------------------------------------
 #t hf aug-cc-pvdz symm=none int=(grid=ultrafine) guess=(read,tcheck) s
 table=(opt,rrhf)
 ----------------------------------------------------------------------
 -----
 title
 -----
 Symbolic Z-matrix:
 Charge =  0 Multiplicity = 1

 SCF Done:  E(RHF) =  -532.262025441     A.U. after   12 cycles
 Normal termination of Gaussian 16 at Tue Apr  8 21:09:04 2025.
 Gaussian 16:  ES64L-G16RevC.01  3-Jul-2019

 ----------------------------------------------------------------------
 #t hf aug-cc-pvdz iop(5/13=1,5/36=2,99/5=2) pseudo=read geom=check gue
 ss=(read,tcheck) scf=(maxcycle=1)
 ----------------------------------------------------------------------
 -----
 title
 -----
 Structure from the checkpoint file:  "ANI1ccx_1845_conf421_mol1.chk"
 Charge =  0 Multiplicity = 1

                         Standard orientation:
 ---------------------------------------------------------------------
 Center     Atomic      Atomic             Coordinates (Angstroms)
 Number     Number       Type             X           Y           Z
 ---------------------------------------------------------------------
      1          1           0       -1.491841   -0.588701   -1.377790
      2          1           0       -3.116661    0.107314   -0.501201
      3          1           0       -4.625421    0.393148    0.247637
      4          1           0        2.265729    1.458130   -0.002617
      5          1           0        1.767059    2.132300   -1.438450
      6          1           0       -2.304451   -1.358490   -2.532610
      7          1           0       -2.523111   -0.255438    1.363990
      8          1           0        2.715459   -2.455780   -0.518724
      9          1           0       -1.659311    0.794059    2.142600
     10          1           0        3.246419   -0.387777    0.267449
     11          1           0        4.252689    0.764378    0.804672
     12          1           0       -0.353755   -0.397640    0.806432
     13          1           0        0.548338    0.270484   -0.290168
     14          1           0        1.529239   -1.479200    0.071321
     15          8           0       -2.331051   -0.527295   -1.844860
     16          8           0        2.446569   -1.850880    0.177959
     17          8           0        1.530919    2.067120   -0.435385
     18          8           0        3.640119    0.542750    0.056057
     19          8           0       -3.633191    0.665471    0.247368
     20          8           0       -1.749981   -0.234952    2.018260
     21          8           0        0.065318   -0.536810   -0.099716
 ---------------------------------------------------------------------

 SCF Done:  E(RHF) =  -532.435324172     A.U. after    2 cycles

 The electronic state is 1-A.
 Alpha  occ. eigenvalues --  -20.60705 -20.58711 -20.58382 -20.58219 -20.57919
 Alpha  occ. eigenvalues --  -20.57861 -20.56057  -1.32903  -1.31716  -1.31047
 Alpha  occ. eigenvalues --   -1.29533  -1.28473  -1.26372  -1.25254  -0.76485
 Alpha  occ. eigenvalues --   -0.74054  -0.73366  -0.72552  -0.70622  -0.69000
 Alpha  occ. eigenvalues --   -0.68518  -0.63566  -0.62736  -0.61075  -0.59812
 Alpha  occ. eigenvalues --   -0.59031  -0.56942  -0.56180  -0.53980  -0.53670
 Alpha  occ. eigenvalues --   -0.53306  -0.51451  -0.51120  -0.50964  -0.49927
 Alpha virt. eigenvalues --    0.02354   0.03778   0.04607   0.05221   0.05820
 Alpha virt. eigenvalues --    0.06318   0.07771   0.08669   0.08922   0.09704
 Alpha virt. eigenvalues --    0.10419   0.10997   0.13145   0.13723   0.16634

 Mulliken charges:
               1
     1  H    0.196587
     2  H    0.368750
     3  H    0.237720
     4  H    0.355152
     5  H    0.225802
     6  H    0.297563
     7  H    0.274005
     8  H    0.173059
     9  H    0.271621
    10  H    0.335389
    11  H    0.213648
    12  H    0.361968
    13  H    0.243566
    14  H    0.278141
    15  O   -0.481614
    16  O   -0.442186
    17  O   -0.564435
    18  O   -0.521239
    19  O   -0.568008
    20  O   -0.575452
    21  O   -0.680038
 Sum of Mulliken charges =  -0.00000

 Dipole moment (field-independent basis, Debye):
    X=              0.2888    Y=             -2.8558    Z=             -2.3370  Tot=              3.7014

 Test job not archived.
 1\1\GINC-SE365\SP\RHF\Aug-CC-pVDZ\H14O7\OHZDE\08-Apr-2025\0\\#t hf aug
 -cc-pvdz iop(5/13=1,5/36=2,99/5=2) pseudo=read geom=check guess=(read,
 tcheck) scf=(maxcycle=1)\\title\\0,1\H,0,-1.49184,-0.588701,-1.37779\H
 ,0,-3.11666,0.107314,-0.501201\H,0,-4.62542,0.393148,0.247637\H,0,2.26
 573,1.45813,-0.00261643\H,0,1.76706,2.1323,-1.43845\H,0,-2.30445,-1.35
 849,-2.53261\H,0,-2.52311,-0.255438,1.36399\H,0,2.71546,-2.45578,-0.51
 8724\H,0,-1.65931,0.794059,2.1426\H,0,3.24642,-0.387777,0.267449\H,0,4
 .25269,0.764378,0.804672\H,0,-0.353754,-0.39764,0.806432\H,0,0.548339,

 Normal termination of Gaussian 16 at Tue Apr  8 21:09:10 2025.
