 Gaussian 16, Revision C.01,

 ----------------------------------------------------------------------
 #t hf aug-cc-pvdz symm=none int=(grid=ultrafine) guess=(read,tcheck) s
 table=(opt,rrhf)
 ----------------------------------------------------------------------
 -----
 title
 -----
 Symbolic Z-matrix:
 Charge =  0 Multiplicity = 1

 SCF Done:  E(RHF) =  -456.239806591     A.U. after   11 cycles
 Normal termination of Gaussian 16 at Tue Apr  8 21:06:44 2025.
 Gaussian 16:  ES64L-G16RevC.01  3-Jul-2019

 ----------------------------------------------------------------------
 #t hf aug-cc-pvdz iop(5/13=1,5/36=2,99/5=2) pseudo=read geom=check gue
 ss=(read,tcheck) scf=(maxcycle=1)
 ----------------------------------------------------------------------
 -----
 title
 -----
 Structure from the checkpoint file:  "ANI1ccx_1844_conf316_mol1.chk"
 Charge =  0 Multiplicity = 1

                         Standard orientation:
 ---------------------------------------------------------------------
 Center     Atomic      Atomic             Coordinates (Angstroms)
 Number     Number       Type             X           Y           Z
 ---------------------------------------------------------------------
      1          1           0       -1.040743    1.763437    1.566390
      2          1           0        1.483337    1.506272   -0.503249
      3          1           0        1.157205    3.091661   -0.439357
      4          1           0        0.696275   -2.114230    0.057140
      5          1           0        1.187073   -1.839139    1.534030
      6          1           0        2.336031   -0.577833    0.290450
      7          1           0       -0.748601    1.922948    0.081413
      8          1           0        3.079969    0.209300   -0.953907
      9          1           0       -2.990610    0.054995   -0.927171
     10          1           0       -2.283491    0.400437    0.479247
     11          1           0       -1.506848   -1.321383   -0.366498
     12          1           0       -1.431865   -2.873973   -0.856888
     13          8           0        1.507393   -2.011268    0.618746
     14          8           0       -2.728460   -0.373698    0.012070
     15          8           0        0.817409    2.206071   -0.676994
     16          8           0        2.752159    0.315020    0.036602
     17          8           0       -1.493583    1.852407    0.694626
     18          8           0       -0.847135   -2.016342   -0.680250
 ---------------------------------------------------------------------

 SCF Done:  E(RHF) =  -456.390159152     A.U. after    2 cycles

 The electronic state is 1-A.
 Alpha  occ. eigenvalues --  -20.58614 -20.58550 -20.57909 -20.57410 -20.57317
 Alpha  occ. eigenvalues --  -20.57004  -1.32793  -1.30678  -1.30527  -1.29252
 Alpha  occ. eigenvalues --   -1.27071  -1.26462  -0.74641  -0.73830  -0.73104
 Alpha  occ. eigenvalues --   -0.71193  -0.70243  -0.70090  -0.63758  -0.62217
 Alpha  occ. eigenvalues --   -0.60899  -0.58809  -0.58304  -0.56477  -0.53188
 Alpha  occ. eigenvalues --   -0.52451  -0.51978  -0.51671  -0.51006  -0.50850
 Alpha virt. eigenvalues --    0.02724   0.04272   0.04740   0.05229   0.06273
 Alpha virt. eigenvalues --    0.06940   0.08169   0.08369   0.09263   0.10117
 Alpha virt. eigenvalues --    0.10649   0.11153   0.17087   0.18177   0.18776

 Mulliken charges:
               1
     1  H    0.228238
     2  H    0.244238
     3  H    0.188723
     4  H    0.295271
     5  H    0.209165
     6  H    0.302700
     7  H    0.243475
     8  H    0.271204
     9  H    0.285917
    10  H    0.317208
    11  H    0.319196
    12  H    0.242235
    13  O   -0.528012
    14  O   -0.623272
    15  O   -0.437342
    16  O   -0.553217
    17  O   -0.469505
    18  O   -0.536223
 Sum of Mulliken charges =  -0.00000

 Dipole moment (field-independent basis, Debye):
    X=             -0.4859    Y=              0.7879    Z=              0.0925  Tot=              0.9303

 Test job not archived.
 1\1\GINC-SE087\SP\RHF\Aug-CC-pVDZ\H12O6\OHZDE\08-Apr-2025\0\\#t hf aug
 -cc-pvdz iop(5/13=1,5/36=2,99/5=2) pseudo=read geom=check guess=(read,
 tcheck) scf=(maxcycle=1)\\title\\0,1\H,0,-1.04074,1.76344,1.56639\H,0,
 1.48334,1.50627,-0.503249\H,0,1.15721,3.09166,-0.439357\H,0,0.696272,-
 2.11423,0.0571396\H,0,1.18707,-1.83914,1.53403\H,0,2.33603,-0.577836,0
 .29045\H,0,-0.748598,1.92295,0.081413\H,0,3.07997,0.209296,-0.953907\H
 ,0,-2.99061,0.0550007,-0.927171\H,0,-2.28349,0.400442,0.479247\H,0,-1.
 50685,-1.32138,-0.366498\H,0,-1.43187,-2.87397,-0.856888\O,0,1.50739,-

 Normal termination of Gaussian 16 at Tue Apr  8 21:06:49 2025.
