 Gaussian 16, Revision C.01,

 ----------------------------------------------------------------------
 #t hf aug-cc-pvdz symm=none int=(grid=ultrafine) guess=(read,tcheck) s
 table=(opt,rrhf)
 ----------------------------------------------------------------------
 -----
 title
 -----
 Symbolic Z-matrix:
 Charge =  0 Multiplicity = 1

 SCF Done:  E(RHF) =  -380.226857604     A.U. after   11 cycles
 Normal termination of Gaussian 16 at Tue Apr  8 21:00:34 2025.
 Gaussian 16:  ES64L-G16RevC.01  3-Jul-2019

 ----------------------------------------------------------------------
 #t hf aug-cc-pvdz iop(5/13=1,5/36=2,99/5=2) pseudo=read geom=check gue
 ss=(read,tcheck) scf=(maxcycle=1)
 ----------------------------------------------------------------------
 -----
 title
 -----
 Structure from the checkpoint file:  "ANI1ccx_1843_conf27_mol1.chk"
 Charge =  0 Multiplicity = 1

                         Standard orientation:
 ---------------------------------------------------------------------
 Center     Atomic      Atomic             Coordinates (Angstroms)
 Number     Number       Type             X           Y           Z
 ---------------------------------------------------------------------
      1          1           0        0.937880    0.659629   -1.386331
      2          1           0        1.941821   -0.212496   -0.621994
      3          1           0       -1.063188    1.126601   -0.166345
      4          1           0       -0.460578    2.592441   -0.178945
      5          1           0        0.185980   -1.332570   -0.688850
      6          1           0        0.280237   -1.468540    0.829439
      7          1           0        1.757261    0.243524    2.195039
      8          1           0        0.764898    0.851360    1.093879
      9          1           0       -1.654060   -0.757049    0.175654
     10          1           0       -2.885609   -0.232121   -0.637259
     11          8           0        1.417831   -0.190317   -1.442101
     12          8           0       -0.209087    1.660601   -0.136463
     13          8           0       -0.262005   -1.753909    0.083250
     14          8           0        1.382421    0.099800    1.300469
     15          8           0       -2.304739   -0.000021    0.118057
 ---------------------------------------------------------------------

 SCF Done:  E(RHF) =  -380.351623610     A.U. after    2 cycles

 The electronic state is 1-A.
 Alpha  occ. eigenvalues --  -20.59427 -20.58771 -20.58005 -20.55952 -20.55561
 Alpha  occ. eigenvalues --   -1.33417  -1.31249  -1.30769  -1.29504  -1.28182
 Alpha  occ. eigenvalues --   -0.76436  -0.74596  -0.72399  -0.71565  -0.71185
 Alpha  occ. eigenvalues --   -0.63759  -0.62893  -0.60638  -0.59794  -0.56265
 Alpha  occ. eigenvalues --   -0.54347  -0.53492  -0.52799  -0.50731  -0.50264
 Alpha virt. eigenvalues --    0.02596   0.04158   0.04905   0.06861   0.07494
 Alpha virt. eigenvalues --    0.07876   0.08197   0.09000   0.09529   0.10993
 Alpha virt. eigenvalues --    0.16230   0.17867   0.19307   0.20290   0.21509

 Mulliken charges:
               1
     1  H    0.246356
     2  H    0.239457
     3  H    0.340533
     4  H    0.224851
     5  H    0.273578
     6  H    0.234137
     7  H    0.224503
     8  H    0.291940
     9  H    0.266397
    10  H    0.199557
    11  O   -0.462790
    12  O   -0.600095
    13  O   -0.513137
    14  O   -0.511903
    15  O   -0.453383
 Sum of Mulliken charges =  -0.00000

 Dipole moment (field-independent basis, Debye):
    X=             -0.5016    Y=              3.4158    Z=              1.4747  Tot=              3.7542

 Test job not archived.
 1\1\GINC-SE143\SP\RHF\Aug-CC-pVDZ\H10O5\OHZDE\08-Apr-2025\0\\#t hf aug
 -cc-pvdz iop(5/13=1,5/36=2,99/5=2) pseudo=read geom=check guess=(read,
 tcheck) scf=(maxcycle=1)\\title\\0,1\H,0,0.937879,0.659629,-1.38633\H,
 0,1.94182,-0.212495,-0.621993\H,0,-1.06319,1.1266,-0.166344\H,0,-0.460
 581,2.59244,-0.178944\H,0,0.18598,-1.33257,-0.688849\H,0,0.280237,-1.4
 6854,0.82944\H,0,1.75726,0.243525,2.19504\H,0,0.764897,0.85136,1.09388
 \H,0,-1.65406,-0.757051,0.175655\H,0,-2.88561,-0.232124,-0.637258\O,0,
 1.41783,-0.190317,-1.4421\O,0,-0.209089,1.6606,-0.136462\O,0,-0.262005

 Normal termination of Gaussian 16 at Tue Apr  8 21:00:38 2025.
