 Gaussian 16, Revision C.01,

 ----------------------------------------------------------------------
 #t hf aug-cc-pvdz symm=none int=(grid=ultrafine) guess=(read,tcheck) s
 table=(opt,rrhf)
 ----------------------------------------------------------------------
 -----
 title
 -----
 Symbolic Z-matrix:
 Charge =  0 Multiplicity = 1

 SCF Done:  E(RHF) =  -830.306222332     A.U. after   14 cycles
 Normal termination of Gaussian 16 at Tue Apr  8 19:37:03 2025.
 Gaussian 16:  ES64L-G16RevC.01  3-Jul-2019

 ----------------------------------------------------------------------
 #t hf aug-cc-pvdz iop(5/13=1,5/36=2,99/5=2) pseudo=read geom=check gue
 ss=(read,tcheck) scf=(maxcycle=1)
 ----------------------------------------------------------------------
 -----
 title
 -----
 Structure from the checkpoint file:  "ANI1ccx_1406_conf13_mol2.chk"
 Charge =  0 Multiplicity = 1

                         Standard orientation:
 ---------------------------------------------------------------------
 Center     Atomic      Atomic             Coordinates (Angstroms)
 Number     Number       Type             X           Y           Z
 ---------------------------------------------------------------------
      1          6           0        2.647840   -0.556796    0.410520
      2          6           0        1.430390   -0.659583   -0.516280
      3          6           0        3.149399    0.892034    0.500558
      4          6           0       -0.811513    0.197198   -0.887884
      5          6           0       -1.523451    1.473059   -0.584875
      6          6           0       -1.659239   -1.052161   -0.642180
      7          6           0       -2.310829   -1.075582    0.704586
      8          1           0       -3.167832    2.371617   -1.015420
      9          1           0       -3.462008   -2.017563    1.774620
     10          1           0       -1.064309   -1.962441   -0.744285
     11          1           0       -2.450769   -1.186262   -1.374520
     12          1           0       -0.631496    0.230856   -1.983590
     13          1           0        0.404544    0.771937    0.646553
     14          1           0        4.142929    0.886436    1.001330
     15          1           0        3.148939    1.310623   -0.560744
     16          1           0        2.396610   -0.780862    1.471300
     17          1           0        3.793801   -0.978657   -1.096090
     18          1           0        3.457402   -2.281257   -0.208915
     19          1           0        2.234768    2.526092    1.060200
     20          7           0        3.747441   -1.322377   -0.111370
     21          7           0        0.404426    0.150292   -0.159409
     22          8           0       -3.077178   -2.120623    0.867350
     23          8           0        1.447711   -1.336719   -1.521790
     24          8           0        2.159938    1.600002    1.253530
     25          8           0       -1.014332    2.350479    0.068388
     26          8           0       -2.178790   -0.249005    1.588430
     27          8           0       -2.762501    1.506498   -1.128620
 ---------------------------------------------------------------------

 SCF Done:  E(RHF) =  -830.561845799     A.U. after    2 cycles

 The electronic state is 1-A.
 Alpha  occ. eigenvalues --  -20.64334 -20.64150 -20.58240 -20.57810 -20.56866
 Alpha  occ. eigenvalues --  -20.54649 -15.64341 -15.61002 -11.41611 -11.40765
 Alpha  occ. eigenvalues --  -11.36451 -11.30962 -11.30722 -11.27961 -11.26939
 Alpha  occ. eigenvalues --   -1.45321  -1.43891  -1.36566  -1.34719  -1.33771
 Alpha  occ. eigenvalues --   -1.33187  -1.22038  -1.17252  -1.07956  -0.99599
 Alpha  occ. eigenvalues --   -0.97015  -0.88448  -0.85642  -0.82190  -0.79654
 Alpha  occ. eigenvalues --   -0.74611  -0.73676  -0.73240  -0.72537  -0.71583
 Alpha  occ. eigenvalues --   -0.69190  -0.68141  -0.67965  -0.66397  -0.65824
 Alpha  occ. eigenvalues --   -0.63415  -0.62395  -0.61492  -0.60294  -0.58355
 Alpha  occ. eigenvalues --   -0.57316  -0.55773  -0.55448  -0.54775  -0.51866
 Alpha  occ. eigenvalues --   -0.50623  -0.48800  -0.48684  -0.48288  -0.47341
 Alpha  occ. eigenvalues --   -0.45112  -0.40568  -0.40088
 Alpha virt. eigenvalues --    0.02848   0.03496   0.03967   0.04333   0.04862
 Alpha virt. eigenvalues --    0.05618   0.05996   0.06562   0.07738   0.07927
 Alpha virt. eigenvalues --    0.08795   0.10108   0.10470   0.11426   0.12076

 Mulliken charges:
               1
     1  C    0.167756
     2  C    0.430138
     3  C    0.783064
     4  C    0.078290
     5  C    0.912869
     6  C    0.233117
     7  C    0.547154
     8  H    0.225778
     9  H    0.226831
    10  H    0.023846
    11  H   -0.010881
    12  H    0.039538
    13  H    0.105971
    14  H   -0.053682
    15  H   -0.049956
    16  H   -0.042019
    17  H    0.157203
    18  H   -0.003388
    19  H    0.173807
    20  N   -0.333513
    21  N   -0.326213
    22  O   -0.493557
    23  O   -0.555786
    24  O   -0.562973
    25  O   -0.531450
    26  O   -0.531121
    27  O   -0.610822
 Sum of Mulliken charges =  -0.00000

 Dipole moment (field-independent basis, Debye):
    X=             -2.1146    Y=              0.8148    Z=             -1.0348  Tot=              2.4912

 Test job not archived.
 1\1\GINC-SE047\SP\RHF\Aug-CC-pVDZ\C7H12N2O6\OHZDE\08-Apr-2025\0\\#t hf
  aug-cc-pvdz iop(5/13=1,5/36=2,99/5=2) pseudo=read geom=check guess=(r
 ead,tcheck) scf=(maxcycle=1)\\title\\0,1\C,0,2.64784,-0.556798,0.41052
 \C,0,1.43039,-0.659584,-0.51628\C,0,3.1494,0.892031,0.500558\C,0,-0.81
 1513,0.197199,-0.887884\C,0,-1.52345,1.47306,-0.584875\C,0,-1.65924,-1
 .05216,-0.64218\C,0,-2.31083,-1.07558,0.704586\H,0,-3.16783,2.37162,-1
 .01542\H,0,-3.46201,-2.01756,1.77462\H,0,-1.06431,-1.96244,-0.744285\H
 ,0,-2.45077,-1.18626,-1.37452\H,0,-0.631496,0.230857,-1.98359\H,0,0.40

 Normal termination of Gaussian 16 at Tue Apr  8 19:37:33 2025.
