 Gaussian 16, Revision C.01,

 ----------------------------------------------------------------------
 #t hf aug-cc-pvdz symm=none int=(grid=ultrafine) guess=(read,tcheck) s
 table=(opt,rrhf)
 ----------------------------------------------------------------------
 -----
 title
 -----
 Symbolic Z-matrix:
 Charge =  0 Multiplicity = 1

 SCF Done:  E(RHF) =  -371.291348680     A.U. after   14 cycles
 Normal termination of Gaussian 16 at Tue Apr  8 21:38:41 2025.
 Gaussian 16:  ES64L-G16RevC.01  3-Jul-2019

 ----------------------------------------------------------------------
 #t hf aug-cc-pvdz iop(5/13=1,5/36=2,99/5=2) pseudo=read geom=check gue
 ss=(read,tcheck) scf=(maxcycle=1)
 ----------------------------------------------------------------------
 -----
 title
 -----
 Structure from the checkpoint file:  "ANI1ccx_455_conf10_mol2.chk"
 Charge =  0 Multiplicity = 1

                         Standard orientation:
 ---------------------------------------------------------------------
 Center     Atomic      Atomic             Coordinates (Angstroms)
 Number     Number       Type             X           Y           Z
 ---------------------------------------------------------------------
      1          6           0        0.767181    0.017705    0.004735
      2          7           0       -1.367450   -0.624894   -0.010779
      3          7           0       -1.378770    0.604672   -0.017354
      4          8           0        1.950530   -0.007233   -0.017518
      5          8           0       -0.055211   -1.075220    0.017962
      6          8           0       -0.067762    1.086870    0.020621
 ---------------------------------------------------------------------

 SCF Done:  E(RHF) =  -371.405229542     A.U. after    2 cycles

 The electronic state is 1-A.
 Alpha  occ. eigenvalues --  -20.73757 -20.73499 -20.62101 -15.84003 -15.83839
 Alpha  occ. eigenvalues --  -11.51015  -1.61973  -1.44894  -1.44119  -1.31795
 Alpha  occ. eigenvalues --   -0.99350  -0.95997  -0.81015  -0.80704  -0.72682
 Alpha  occ. eigenvalues --   -0.69586  -0.66094  -0.63120  -0.62279  -0.61043
 Alpha  occ. eigenvalues --   -0.52626  -0.50694
 Alpha virt. eigenvalues --    0.06773   0.07367   0.07721   0.07765   0.09007
 Alpha virt. eigenvalues --    0.12275   0.12623   0.14803   0.16028   0.16549
 Alpha virt. eigenvalues --    0.19146   0.20277   0.20718   0.23285   0.25117

 Mulliken charges:
               1
     1  C    0.832422
     2  N    0.270395
     3  N    0.259817
     4  O   -0.333461
     5  O   -0.520482
     6  O   -0.508692
 Sum of Mulliken charges =  -0.00000

 Dipole moment (field-independent basis, Debye):
    X=             -1.9977    Y=              0.0506    Z=              0.0273  Tot=              1.9985

 Test job not archived.
 1\1\GINC-SE334\SP\RHF\Aug-CC-pVDZ\C1N2O3\OHZDE\08-Apr-2025\0\\#t hf au
 g-cc-pvdz iop(5/13=1,5/36=2,99/5=2) pseudo=read geom=check guess=(read
 ,tcheck) scf=(maxcycle=1)\\title\\0,1\C,0,0.767181,0.0177046,0.0047352
 7\N,0,-1.36745,-0.624893,-0.0107786\N,0,-1.37877,0.604673,-0.0173544\O
 ,0,1.95053,-0.00723447,-0.0175179\O,0,-0.0552116,-1.07522,0.0179621\O,
 0,-0.0677616,1.08687,0.0206207\\Version=ES64L-G16RevC.01\State=1-A\HF=
 -371.4052295\RMSD=3.419e-03\Dipole=-0.785951,0.0199199,0.0107263\Quadr
 upole=-3.2440529,0.0548763,3.1891766,0.0904761,0.0404949,-0.0025536\PG

 Normal termination of Gaussian 16 at Tue Apr  8 21:38:43 2025.
