 Gaussian 16, Revision C.01,

 ----------------------------------------------------------------------
 #t hf aug-cc-pvdz symm=none int=(grid=ultrafine) guess=(read,tcheck) s
 table=(opt,rrhf)
 ----------------------------------------------------------------------
 -----
 title
 -----
 Symbolic Z-matrix:
 Charge =  0 Multiplicity = 1

 SCF Done:  E(RHF) =  -218.966530478     A.U. after   13 cycles
 Normal termination of Gaussian 16 at Tue Apr  8 21:09:15 2025.
 Gaussian 16:  ES64L-G16RevC.01  3-Jul-2019

 ----------------------------------------------------------------------
 #t hf aug-cc-pvdz iop(5/13=1,5/36=2,99/5=2) pseudo=read geom=check gue
 ss=(read,tcheck) scf=(maxcycle=1)
 ----------------------------------------------------------------------
 -----
 title
 -----
 Structure from the checkpoint file:  "ANI1ccx_1861_conf12_mol2.chk"
 Charge =  0 Multiplicity = 1

                         Standard orientation:
 ---------------------------------------------------------------------
 Center     Atomic      Atomic             Coordinates (Angstroms)
 Number     Number       Type             X           Y           Z
 ---------------------------------------------------------------------
      1          1           0       -2.711510    1.011450    0.225043
      2          1           0       -0.807255    0.394501    0.464882
      3          7           0       -2.605990    0.028423   -0.100990
      4          7           0       -1.423800   -0.346207    0.040165
      5          7           0        2.517270   -0.432639    0.021586
      6          7           0        2.015200    0.549573   -0.059322
 ---------------------------------------------------------------------

 SCF Done:  E(RHF) =  -219.029776196     A.U. after    2 cycles

 The electronic state is 1-A.
 Alpha  occ. eigenvalues --  -15.76591 -15.76240 -15.70898 -15.70780  -1.42776
 Alpha  occ. eigenvalues --   -1.31286  -0.90281  -0.76414  -0.74965  -0.63105
 Alpha  occ. eigenvalues --   -0.61243  -0.61187  -0.56798  -0.51338  -0.40689
 Alpha virt. eigenvalues --    0.03481   0.05856   0.09237   0.10093   0.11763
 Alpha virt. eigenvalues --    0.12305   0.13034   0.13868   0.14982   0.16624
 Alpha virt. eigenvalues --    0.17683   0.19521   0.20125   0.21474   0.21891

 Mulliken charges:
               1
     1  H    0.055078
     2  H    0.053728
     3  N   -0.011633
     4  N   -0.088752
     5  N   -0.007117
     6  N   -0.001302
 Sum of Mulliken charges =  -0.00000

 Dipole moment (field-independent basis, Debye):
    X=              0.8426    Y=              2.6112    Z=              1.1355  Tot=              2.9694

 Test job not archived.
 1\1\GINC-SE079\SP\RHF\Aug-CC-pVDZ\H2N4\OHZDE\08-Apr-2025\0\\#t hf aug-
 cc-pvdz iop(5/13=1,5/36=2,99/5=2) pseudo=read geom=check guess=(read,t
 check) scf=(maxcycle=1)\\title\\0,1\H,0,-2.71151,1.01145,0.225043\H,0,
 -0.807255,0.394501,0.464882\N,0,-2.60599,0.0284231,-0.10099\N,0,-1.423
 8,-0.346207,0.0401655\N,0,2.51727,-0.432639,0.0215858\N,0,2.0152,0.549
 573,-0.0593219\\Version=ES64L-G16RevC.01\State=1-A\HF=-219.0297762\RMS
 D=2.465e-03\Dipole=0.331515,1.0273092,0.4467515\Quadrupole=-1.363957,0
 .3897621,0.9741949,-3.5801948,-1.697493,0.2543816\PG=C01 [X(H2N4)]\\@

 Normal termination of Gaussian 16 at Tue Apr  8 21:09:17 2025.
