 Gaussian 16, Revision C.01,

 ----------------------------------------------------------------------
 #t hf aug-cc-pvdz symm=none int=(grid=ultrafine) guess=(read,tcheck) s
 table=(opt,rrhf)
 ----------------------------------------------------------------------
 -----
 title
 -----
 Symbolic Z-matrix:
 Charge =  0 Multiplicity = 1

 SCF Done:  E(RHF) =  -423.356066406     A.U. after   19 cycles
 Normal termination of Gaussian 16 at Tue Apr  8 21:40:52 2025.
 Gaussian 16:  ES64L-G16RevC.01  3-Jul-2019

 ----------------------------------------------------------------------
 #t hf aug-cc-pvdz iop(5/13=1,5/36=2,99/5=2) pseudo=read geom=check gue
 ss=(read,tcheck) scf=(maxcycle=1)
 ----------------------------------------------------------------------
 -----
 title
 -----
 Structure from the checkpoint file:  "ANI1ccx_477_conf6_mol1.chk"
 Charge =  0 Multiplicity = 1

                         Standard orientation:
 ---------------------------------------------------------------------
 Center     Atomic      Atomic             Coordinates (Angstroms)
 Number     Number       Type             X           Y           Z
 ---------------------------------------------------------------------
      1          6           0       -0.410529   -0.154361   -0.062240
      2          6           0        0.624308    0.798234   -0.011243
      3          1           0        2.714849    0.233871    0.088170
      4          7           0        1.407881   -1.335228    0.055265
      5          7           0        0.144902   -1.462510   -0.079203
      6          7           0       -1.716401   -0.030097   -0.036517
      7          7           0       -2.841101   -0.043493    0.086452
      8          7           0        1.749129   -0.021608    0.045142
      9          8           0        0.598950    2.019181   -0.018156
 ---------------------------------------------------------------------

 SCF Done:  E(RHF) =  -423.479651791     A.U. after    2 cycles

 The electronic state is 1-A.
 Alpha  occ. eigenvalues --  -20.55766 -15.88029 -15.82637 -15.75949 -15.72132
 Alpha  occ. eigenvalues --  -15.72037 -11.40303 -11.35090  -1.49245  -1.43276
 Alpha  occ. eigenvalues --   -1.35190  -1.21069  -1.15890  -0.99726  -0.89196
 Alpha  occ. eigenvalues --   -0.79864  -0.75892  -0.73613  -0.72288  -0.68473
 Alpha  occ. eigenvalues --   -0.66162  -0.64184  -0.57125  -0.55047  -0.52121
 Alpha  occ. eigenvalues --   -0.44908  -0.43588  -0.35591
 Alpha virt. eigenvalues --    0.03459   0.03750   0.05104   0.06146   0.07336
 Alpha virt. eigenvalues --    0.07943   0.09603   0.11431   0.12013   0.12429
 Alpha virt. eigenvalues --    0.13419   0.13910   0.16364   0.17002   0.18006

 Mulliken charges:
               1
     1  C    0.921061
     2  C    0.553904
     3  H   -0.026466
     4  N   -0.126497
     5  N   -0.532199
     6  N    0.057825
     7  N   -0.202208
     8  N   -0.132817
     9  O   -0.512605
 Sum of Mulliken charges =  -0.00000

 Dipole moment (field-independent basis, Debye):
    X=             -0.5949    Y=             -1.1169    Z=              0.0997  Tot=              1.2694

 Test job not archived.
 1\1\GINC-SE455\SP\RHF\Aug-CC-pVDZ\C2H1N5O1\OHZDE\08-Apr-2025\0\\#t hf
 aug-cc-pvdz iop(5/13=1,5/36=2,99/5=2) pseudo=read geom=check guess=(re
 ad,tcheck) scf=(maxcycle=1)\\title\\0,1\C,0,-0.410528,-0.154361,-0.062
 2398\C,0,0.624309,0.798233,-0.0112425\H,0,2.71485,0.233868,0.08817\N,0
 ,1.40788,-1.33523,0.0552648\N,0,0.144901,-1.46251,-0.0792033\N,0,-1.71
 64,-0.030095,-0.0365168\N,0,-2.8411,-0.0434907,0.0864518\N,0,1.74913,-
 0.0216099,0.0451419\O,0,0.598953,2.01918,-0.0181556\\Version=ES64L-G16
 RevC.01\State=1-A\HF=-423.4796518\RMSD=5.557e-03\Dipole=-0.2340434,-0.

 Normal termination of Gaussian 16 at Tue Apr  8 21:40:55 2025.
