 Gaussian 16, Revision C.01,

 ----------------------------------------------------------------------
 #t hf aug-cc-pvdz symm=none int=(grid=ultrafine) guess=(read,tcheck) s
 table=(opt,rrhf)
 ----------------------------------------------------------------------
 -----
 title
 -----
 Symbolic Z-matrix:
 Charge =  0 Multiplicity = 1

 SCF Done:  E(RHF) =  -794.457943154     A.U. after   15 cycles
 Normal termination of Gaussian 16 at Tue Apr  8 20:05:10 2025.
 Gaussian 16:  ES64L-G16RevC.01  3-Jul-2019

 ----------------------------------------------------------------------
 #t hf aug-cc-pvdz iop(5/13=1,5/36=2,99/5=2) pseudo=read geom=check gue
 ss=(read,tcheck) scf=(maxcycle=1)
 ----------------------------------------------------------------------
 -----
 title
 -----
 Structure from the checkpoint file:  "ANI1ccx_1592_conf2_mol1.chk"
 Charge =  0 Multiplicity = 1

                         Standard orientation:
 ---------------------------------------------------------------------
 Center     Atomic      Atomic             Coordinates (Angstroms)
 Number     Number       Type             X           Y           Z
 ---------------------------------------------------------------------
      1          6           0        0.428317    1.375300   -0.332511
      2          6           0       -1.026381    1.745510    0.047294
      3          6           0        1.287059    1.209301    0.900401
      4          6           0        2.593439    0.546000    0.495911
      5          6           0        2.564960   -0.947890    0.171768
      6          6           0       -1.584020   -0.683121    0.632443
      7          6           0       -1.756390   -1.357981   -0.720330
      8          6           0       -2.524480   -1.280321    1.694550
      9          1           0        0.112763   -1.797470   -0.620631
     10          1           0       -3.578730   -1.215882    1.297560
     11          1           0       -2.516750   -0.723000    2.614520
     12          1           0       -2.337239   -2.376661    1.911240
     13          1           0       -0.573559   -0.901959    0.981691
     14          1           0       -2.769511    1.076049    0.813883
     15          1           0        3.603961   -2.383838   -0.174010
     16          1           0        2.969809    1.078182   -0.409444
     17          1           0        3.386179    0.648354    1.298290
     18          1           0        1.443909    2.176321    1.411080
     19          1           0        0.725823    0.646835    1.651450
     20          1           0        0.388114    0.437204   -0.914623
     21          1           0        0.325066    2.459810   -2.025120
     22          1           0        0.792465    3.297161   -0.688466
     23          7           0        0.962391    2.427641   -1.211410
     24          7           0       -1.826751    0.754442    0.566994
     25          8           0       -1.435722    2.866659   -0.033671
     26          8           0        1.573371   -1.560959    0.125135
     27          8           0        3.821901   -1.431818   -0.049229
     28          8           0       -2.738730   -1.303611   -1.411540
     29          8           0       -0.697922   -2.112330   -1.127400
 ---------------------------------------------------------------------

 SCF Done:  E(RHF) =  -794.701945399     A.U. after    2 cycles

 The electronic state is 1-A.
 Alpha  occ. eigenvalues --  -20.66555 -20.61998 -20.60660 -20.55724 -20.55034
 Alpha  occ. eigenvalues --  -15.65961 -15.62387 -11.44374 -11.39159 -11.37043
 Alpha  occ. eigenvalues --  -11.31669 -11.29884 -11.28403 -11.27231 -11.26453
 Alpha  occ. eigenvalues --   -1.48487  -1.40593  -1.38961  -1.37686  -1.31530
 Alpha  occ. eigenvalues --   -1.21468  -1.18030  -1.08286  -1.04537  -0.98268
 Alpha  occ. eigenvalues --   -0.91254  -0.89758  -0.84526  -0.81908  -0.79165
 Alpha  occ. eigenvalues --   -0.76966  -0.75024  -0.73895  -0.71986  -0.70658
 Alpha  occ. eigenvalues --   -0.69221  -0.67542  -0.66332  -0.65916  -0.64621
 Alpha  occ. eigenvalues --   -0.62701  -0.60213  -0.59595  -0.58810  -0.58173
 Alpha  occ. eigenvalues --   -0.57154  -0.56547  -0.56015  -0.54885  -0.53824
 Alpha  occ. eigenvalues --   -0.52562  -0.51359  -0.49654  -0.48719  -0.47167
 Alpha  occ. eigenvalues --   -0.45735  -0.41274  -0.40504
 Alpha virt. eigenvalues --    0.02033   0.03072   0.03507   0.04402   0.05097
 Alpha virt. eigenvalues --    0.05604   0.05972   0.06416   0.06969   0.07843
 Alpha virt. eigenvalues --    0.08234   0.08913   0.09408   0.10226   0.10780

 Mulliken charges:
               1
     1  C    0.161333
     2  C    0.525758
     3  C    0.788943
     4  C    0.167176
     5  C    0.404795
     6  C    0.247534
     7  C    0.630910
     8  C    0.888879
     9  H    0.394276
    10  H    0.049170
    11  H   -0.115956
    12  H   -0.000456
    13  H   -0.362298
    14  H   -0.032583
    15  H    0.205373
    16  H    0.125207
    17  H    0.067054
    18  H   -0.123475
    19  H   -0.311174
    20  H   -0.319969
    21  H    0.058059
    22  H    0.135508
    23  N   -0.403236
    24  N   -0.548201
    25  O   -0.534979
    26  O   -0.505264
    27  O   -0.523085
    28  O   -0.514683
    29  O   -0.554614
 Sum of Mulliken charges =  -0.00000

 Dipole moment (field-independent basis, Debye):
    X=              4.6433    Y=             -1.3180    Z=              4.9750  Tot=              6.9317

 Test job not archived.
 1\1\GINC-SE097\SP\RHF\Aug-CC-pVDZ\C8H14N2O5\OHZDE\08-Apr-2025\0\\#t hf
  aug-cc-pvdz iop(5/13=1,5/36=2,99/5=2) pseudo=read geom=check guess=(r
 ead,tcheck) scf=(maxcycle=1)\\title\\0,1\C,0,0.428318,1.3753,-0.332511
 \C,0,-1.02638,1.74551,0.047294\C,0,1.28706,1.2093,0.900401\C,0,2.59344
 ,0.545998,0.495911\C,0,2.56496,-0.947892,0.171768\C,0,-1.58402,-0.6831
 2,0.632443\C,0,-1.75639,-1.35798,-0.72033\C,0,-2.52448,-1.28032,1.6945
 5\H,0,0.112762,-1.79747,-0.620631\H,0,-3.57873,-1.21588,1.29756\H,0,-2
 .51675,-0.722999,2.61452\H,0,-2.33724,-2.37666,1.91124\H,0,-0.573559,-

 Normal termination of Gaussian 16 at Tue Apr  8 20:05:46 2025.
