 Gaussian 16, Revision C.01,

 ----------------------------------------------------------------------
 #t hf aug-cc-pvdz symm=none int=(grid=ultrafine) guess=(read,tcheck) s
 table=(opt,rrhf)
 ----------------------------------------------------------------------
 -----
 title
 -----
 Symbolic Z-matrix:
 Charge =  0 Multiplicity = 1

 SCF Done:  E(RHF) =  -585.408605483     A.U. after   15 cycles
 Normal termination of Gaussian 16 at Tue Apr  8 22:13:34 2025.
 Gaussian 16:  ES64L-G16RevC.01  3-Jul-2019

 ----------------------------------------------------------------------
 #t hf aug-cc-pvdz iop(5/13=1,5/36=2,99/5=2) pseudo=read geom=check gue
 ss=(read,tcheck) scf=(maxcycle=1)
 ----------------------------------------------------------------------
 -----
 title
 -----
 Structure from the checkpoint file:  "ANI1ccx_978_conf10_mol2.chk"
 Charge =  0 Multiplicity = 1

                         Standard orientation:
 ---------------------------------------------------------------------
 Center     Atomic      Atomic             Coordinates (Angstroms)
 Number     Number       Type             X           Y           Z
 ---------------------------------------------------------------------
      1          6           0        0.263573   -1.441821   -0.250084
      2          6           0       -0.137367   -0.132830    0.446236
      3          6           0       -1.568790   -0.269511    1.006380
      4          6           0        0.935206    0.260019    1.475240
      5          1           0        2.551240   -0.027577    0.475718
      6          1           0        1.097690   -0.587672    2.129160
      7          1           0        0.574303    1.115549    2.101420
      8          1           0       -1.845010    0.742288    1.290930
      9          1           0       -3.215600   -0.940665    0.261124
     10          1           0        0.313713   -2.246161    0.487943
     11          1           0       -0.487022   -1.746181   -1.004390
     12          1           0        1.437430   -0.797093   -1.529920
     13          1           0       -1.512730   -0.888777    1.928120
     14          7           0       -0.231136    0.948237   -0.652931
     15          8           0        0.212085    0.651307   -1.783070
     16          8           0        1.547450   -1.467251   -0.857245
     17          8           0       -2.317910   -0.867697   -0.042680
     18          8           0        2.091860    0.707294    0.851652
     19          8           0       -0.814956    2.006779   -0.373183
 ---------------------------------------------------------------------

 SCF Done:  E(RHF) =  -585.587357258     A.U. after    2 cycles

 The electronic state is 1-A.
 Alpha  occ. eigenvalues --  -20.63358 -20.62935 -20.61258 -20.58660 -20.57861
 Alpha  occ. eigenvalues --  -15.91961 -11.33498 -11.33442 -11.32634 -11.30646
 Alpha  occ. eigenvalues --   -1.53568  -1.36847  -1.36544  -1.35817  -1.33334
 Alpha  occ. eigenvalues --   -1.13464  -0.95656  -0.95392  -0.94038  -0.82818
 Alpha  occ. eigenvalues --   -0.77819  -0.76199  -0.74314  -0.72827  -0.71055
 Alpha  occ. eigenvalues --   -0.69373  -0.67410  -0.65991  -0.62316  -0.61898
 Alpha  occ. eigenvalues --   -0.60368  -0.58187  -0.54887  -0.53404  -0.52529
 Alpha  occ. eigenvalues --   -0.50580  -0.50206  -0.48854  -0.47677  -0.45418
 Alpha virt. eigenvalues --    0.02198   0.03569   0.04208   0.05018   0.05944
 Alpha virt. eigenvalues --    0.06391   0.06673   0.07079   0.07715   0.09110
 Alpha virt. eigenvalues --    0.10913   0.11729   0.13006   0.13517   0.14219

 Mulliken charges:
               1
     1  C    1.260766
     2  C   -1.731017
     3  C    1.268741
     4  C    1.278215
     5  H    0.204625
     6  H   -0.057592
     7  H   -0.052937
     8  H    0.085387
     9  H    0.153152
    10  H   -0.150961
    11  H    0.053651
    12  H    0.199241
    13  H    0.023611
    14  N    0.372278
    15  O   -0.656299
    16  O   -0.605027
    17  O   -0.530127
    18  O   -0.500442
    19  O   -0.615265
 Sum of Mulliken charges =  -0.00000

 Dipole moment (field-independent basis, Debye):
    X=             -2.7242    Y=             -2.9197    Z=              4.3714  Tot=              5.9208

 Test job not archived.
 1\1\GINC-SE435\SP\RHF\Aug-CC-pVDZ\C4H9N1O5\OHZDE\08-Apr-2025\0\\#t hf
 aug-cc-pvdz iop(5/13=1,5/36=2,99/5=2) pseudo=read geom=check guess=(re
 ad,tcheck) scf=(maxcycle=1)\\title\\0,1\C,0,0.263573,-1.44182,-0.25008
 4\C,0,-0.137367,-0.132829,0.446236\C,0,-1.56879,-0.26951,1.00638\C,0,0
 .935206,0.26002,1.47524\H,0,2.55124,-0.0275762,0.475718\H,0,1.09769,-0
 .587671,2.12916\H,0,0.574303,1.11555,2.10142\H,0,-1.84501,0.742289,1.2
 9093\H,0,-3.2156,-0.940664,0.261124\H,0,0.313713,-2.24616,0.487943\H,0
 ,-0.487022,-1.74618,-1.00439\H,0,1.43743,-0.797092,-1.52992\H,0,-1.512

 Normal termination of Gaussian 16 at Tue Apr  8 22:13:44 2025.
