 Gaussian 16, Revision C.01,

 ----------------------------------------------------------------------
 #t hf aug-cc-pvdz symm=none int=(grid=ultrafine) guess=(read,tcheck) s
 table=(opt,rrhf)
 ----------------------------------------------------------------------
 -----
 title
 -----
 Symbolic Z-matrix:
 Charge =  0 Multiplicity = 1

 SCF Done:  E(RHF) =  -386.364134115     A.U. after   17 cycles
 Normal termination of Gaussian 16 at Tue Apr  8 21:47:59 2025.
 Gaussian 16:  ES64L-G16RevC.01  3-Jul-2019

 ----------------------------------------------------------------------
 #t hf aug-cc-pvdz iop(5/13=1,5/36=2,99/5=2) pseudo=read geom=check gue
 ss=(read,tcheck) scf=(maxcycle=1)
 ----------------------------------------------------------------------
 -----
 title
 -----
 Structure from the checkpoint file:  "ANI1ccx_651_conf1_mol2.chk"
 Charge =  0 Multiplicity = 1

                         Standard orientation:
 ---------------------------------------------------------------------
 Center     Atomic      Atomic             Coordinates (Angstroms)
 Number     Number       Type             X           Y           Z
 ---------------------------------------------------------------------
      1          6           0       -1.971001    0.092499   -0.026714
      2          6           0       -0.499322   -0.006955    0.108215
      3          6           0        1.434069    1.064150   -0.035344
      4          1           0        2.068699    1.988920   -0.090278
      5          7           0       -3.147281    0.002659   -0.087688
      6          7           0        0.137199    1.133550    0.101362
      7          7           0        2.121699   -0.083691   -0.093144
      8          7           0        1.409819   -1.155470   -0.018466
      9          7           0        0.071254   -1.166630    0.071270
 ---------------------------------------------------------------------

 SCF Done:  E(RHF) =  -386.469661325     A.U. after    2 cycles

 The electronic state is 1-A.
 Alpha  occ. eigenvalues --  -15.79127 -15.73892 -15.73589 -15.71248 -15.69838
 Alpha  occ. eigenvalues --  -11.42878 -11.40207 -11.33722  -1.45389  -1.30008
 Alpha  occ. eigenvalues --   -1.26287  -1.21338  -1.02942  -1.01649  -0.84592
 Alpha  occ. eigenvalues --   -0.83369  -0.71154  -0.69150  -0.64728  -0.59029
 Alpha  occ. eigenvalues --   -0.56574  -0.54548  -0.50446  -0.50036  -0.49636
 Alpha  occ. eigenvalues --   -0.46608  -0.44756
 Alpha virt. eigenvalues --    0.01616   0.02293   0.02513   0.05902   0.06015
 Alpha virt. eigenvalues --    0.07506   0.09403   0.10080   0.11969   0.12235
 Alpha virt. eigenvalues --    0.13360   0.13586   0.14223   0.14703   0.16839

 Mulliken charges:
               1
     1  C   -0.424867
     2  C    0.897134
     3  C    0.740064
     4  H   -0.139446
     5  N   -0.104783
     6  N   -0.264379
     7  N   -0.250988
     8  N   -0.094816
     9  N   -0.357919
 Sum of Mulliken charges =  -0.00000

 Dipole moment (field-independent basis, Debye):
    X=              2.7170    Y=              2.4490    Z=              0.1526  Tot=              3.6610

 Test job not archived.
 1\1\GINC-SE109\SP\RHF\Aug-CC-pVDZ\C3H1N5\OHZDE\08-Apr-2025\0\\#t hf au
 g-cc-pvdz iop(5/13=1,5/36=2,99/5=2) pseudo=read geom=check guess=(read
 ,tcheck) scf=(maxcycle=1)\\title\\0,1\C,0,-1.971,0.0924991,-0.0267141\
 C,0,-0.499321,-0.00695431,0.108215\C,0,1.43407,1.06415,-0.0353441\H,0,
 2.0687,1.98892,-0.0902781\N,0,-3.14728,0.00265914,-0.0876885\N,0,0.137
 2,1.13355,0.101362\N,0,2.1217,-0.0836904,-0.0931441\N,0,1.40982,-1.155
 47,-0.0184662\N,0,0.0712555,-1.16663,0.0712701\\Version=ES64L-G16RevC.
 01\State=1-A\HF=-386.4696613\RMSD=4.116e-03\Dipole=1.0689609,0.9635014

 Normal termination of Gaussian 16 at Tue Apr  8 21:48:03 2025.
