 Gaussian 16, Revision C.01,

 ----------------------------------------------------------------------
 #t hf aug-cc-pvdz symm=none int=(grid=ultrafine) guess=(read,tcheck) s
 table=(opt,rrhf)
 ----------------------------------------------------------------------
 -----
 title
 -----
 Symbolic Z-matrix:
 Charge =  0 Multiplicity = 1

 SCF Done:  E(RHF) =  -389.480530150     A.U. after   15 cycles
 Normal termination of Gaussian 16 at Tue Apr  8 21:39:45 2025.
 Gaussian 16:  ES64L-G16RevC.01  3-Jul-2019

 ----------------------------------------------------------------------
 #t hf aug-cc-pvdz iop(5/13=1,5/36=2,99/5=2) pseudo=read geom=check gue
 ss=(read,tcheck) scf=(maxcycle=1)
 ----------------------------------------------------------------------
 -----
 title
 -----
 Structure from the checkpoint file:  "ANI1ccx_473_conf10_mol1.chk"
 Charge =  0 Multiplicity = 1

                         Standard orientation:
 ---------------------------------------------------------------------
 Center     Atomic      Atomic             Coordinates (Angstroms)
 Number     Number       Type             X           Y           Z
 ---------------------------------------------------------------------
      1          6           0       -0.878491    1.068069    0.024340
      2          6           0       -1.514029   -1.108682    0.046054
      3          1           0       -2.447818   -1.629013    0.188377
      4          7           0       -1.786250    0.256478    0.039725
      5          7           0        2.836370   -0.543389   -0.054233
      6          7           0        1.984930    0.142451    0.152358
      7          8           0       -0.124050    1.965670   -0.087569
      8          8           0       -0.431251   -1.605181   -0.109393
 ---------------------------------------------------------------------

 SCF Done:  E(RHF) =  -389.600342392     A.U. after    2 cycles

 The electronic state is 1-A.
 Alpha  occ. eigenvalues --  -20.67373 -20.60089 -15.74833 -15.74507 -15.68682
 Alpha  occ. eigenvalues --  -11.46929 -11.41584  -1.46406  -1.40911  -1.40420
 Alpha  occ. eigenvalues --   -1.27895  -0.95938  -0.78820  -0.76210  -0.74794
 Alpha  occ. eigenvalues --   -0.71869  -0.70005  -0.66575  -0.60949  -0.60356
 Alpha  occ. eigenvalues --   -0.59118  -0.59047  -0.53540  -0.48764  -0.47246
 Alpha virt. eigenvalues --    0.03157   0.06402   0.06623   0.07905   0.08538
 Alpha virt. eigenvalues --    0.10383   0.10535   0.10965   0.12292   0.13309
 Alpha virt. eigenvalues --    0.13942   0.14847   0.15566   0.16285   0.17371

 Mulliken charges:
               1
     1  C   -0.016613
     2  C    0.893144
     3  H   -0.199770
     4  N   -0.164103
     5  N   -0.035288
     6  N    0.020802
     7  O   -0.158293
     8  O   -0.339879
 Sum of Mulliken charges =  -0.00000

 Dipole moment (field-independent basis, Debye):
    X=             -2.6176    Y=             -0.1261    Z=              0.5522  Tot=              2.6782

 Test job not archived.
 1\1\GINC-SE457\SP\RHF\Aug-CC-pVDZ\C2H1N3O2\OHZDE\08-Apr-2025\0\\#t hf
 aug-cc-pvdz iop(5/13=1,5/36=2,99/5=2) pseudo=read geom=check guess=(re
 ad,tcheck) scf=(maxcycle=1)\\title\\0,1\C,0,-0.87849,1.06807,0.0243399
 \C,0,-1.51403,-1.10868,0.0460535\H,0,-2.44782,-1.62901,0.188377\N,0,-1
 .78625,0.25648,0.0397253\N,0,2.83637,-0.543391,-0.0542329\N,0,1.98493,
 0.142449,0.152358\O,0,-0.124048,1.96567,-0.0875687\O,0,-0.431253,-1.60
 518,-0.109393\\Version=ES64L-G16RevC.01\State=1-A\HF=-389.6003424\RMSD
 =2.613e-03\Dipole=-1.0298407,-0.0496217,0.2172459\Quadrupole=2.4700539

 Normal termination of Gaussian 16 at Tue Apr  8 21:39:48 2025.
