 Gaussian 16, Revision C.01,

 ----------------------------------------------------------------------
 #t hf aug-cc-pvdz symm=none int=(grid=ultrafine) guess=(read,tcheck) s
 table=(opt,rrhf)
 ----------------------------------------------------------------------
 -----
 title
 -----
 Symbolic Z-matrix:
 Charge =  0 Multiplicity = 1

 SCF Done:  E(RHF) =  -464.357905255     A.U. after   16 cycles
 Normal termination of Gaussian 16 at Tue Apr  8 21:40:52 2025.
 Gaussian 16:  ES64L-G16RevC.01  3-Jul-2019

 ----------------------------------------------------------------------
 #t hf aug-cc-pvdz iop(5/13=1,5/36=2,99/5=2) pseudo=read geom=check gue
 ss=(read,tcheck) scf=(maxcycle=1)
 ----------------------------------------------------------------------
 -----
 title
 -----
 Structure from the checkpoint file:  "ANI1ccx_474_conf26_mol1.chk"
 Charge =  0 Multiplicity = 1

                         Standard orientation:
 ---------------------------------------------------------------------
 Center     Atomic      Atomic             Coordinates (Angstroms)
 Number     Number       Type             X           Y           Z
 ---------------------------------------------------------------------
      1          6           0        1.128161   -0.522428    0.178788
      2          6           0        0.166150    1.586750   -0.031580
      3          1           0        2.515791   -0.574573   -1.119970
      4          7           0        0.976741    0.753895   -0.513107
      5          7           0       -2.094229   -0.638203   -0.636013
      6          7           0       -2.769640   -1.286668    0.027197
      7          8           0        2.137730   -1.157342   -0.455588
      8          8           0       -0.599427    2.441280    0.280071
      9          8           0        0.577727   -0.985753    1.186790
 ---------------------------------------------------------------------

 SCF Done:  E(RHF) =  -464.497959017     A.U. after    2 cycles

 The electronic state is 1-A.
 Alpha  occ. eigenvalues --  -20.69786 -20.65416 -20.59842 -15.77333 -15.76944
 Alpha  occ. eigenvalues --  -15.71334 -11.49486 -11.48701  -1.47534  -1.45301
 Alpha  occ. eigenvalues --   -1.39269  -1.35237  -1.27056  -0.92920  -0.84584
 Alpha  occ. eigenvalues --   -0.79263  -0.77300  -0.72132  -0.71316  -0.68379
 Alpha  occ. eigenvalues --   -0.66846  -0.63231  -0.62307  -0.59065  -0.58972
 Alpha  occ. eigenvalues --   -0.57071  -0.53334  -0.50021  -0.48544
 Alpha virt. eigenvalues --    0.02890   0.05911   0.07293   0.08846   0.08961
 Alpha virt. eigenvalues --    0.09167   0.10182   0.10683   0.11677   0.12045
 Alpha virt. eigenvalues --    0.12444   0.12772   0.14393   0.15408   0.17049

 Mulliken charges:
               1
     1  C    1.022148
     2  C    0.059863
     3  H    0.205849
     4  N   -0.293456
     5  N    0.031155
     6  N   -0.041566
     7  O   -0.422164
     8  O   -0.146479
     9  O   -0.415350
 Sum of Mulliken charges =  -0.00000

 Dipole moment (field-independent basis, Debye):
    X=              1.5048    Y=              1.6932    Z=             -2.7265  Tot=              3.5447

 Test job not archived.
 1\1\GINC-SE219\SP\RHF\Aug-CC-pVDZ\C2H1N3O3\OHZDE\08-Apr-2025\0\\#t hf
 aug-cc-pvdz iop(5/13=1,5/36=2,99/5=2) pseudo=read geom=check guess=(re
 ad,tcheck) scf=(maxcycle=1)\\title\\0,1\C,0,1.12816,-0.522427,0.178788
 \C,0,0.166147,1.58675,-0.0315798\H,0,2.51579,-0.57457,-1.11997\N,0,0.9
 76739,0.753896,-0.513107\N,0,-2.09423,-0.638205,-0.636013\N,0,-2.76964
 ,-1.28667,0.0271965\O,0,2.13773,-1.15734,-0.455588\O,0,-0.59943,2.4412
 8,0.280071\O,0,0.577727,-0.985752,1.18679\\Version=ES64L-G16RevC.01\St
 ate=1-A\HF=-464.497959\RMSD=2.454e-03\Dipole=0.5920257,0.6661555,-1.07

 Normal termination of Gaussian 16 at Tue Apr  8 21:40:56 2025.
