 Gaussian 16, Revision C.01,

 ----------------------------------------------------------------------
 #t hf aug-cc-pvdz symm=none int=(grid=ultrafine) guess=(read,tcheck) s
 table=(opt,rrhf)
 ----------------------------------------------------------------------
 -----
 title
 -----
 Symbolic Z-matrix:
 Charge =  0 Multiplicity = 1

 SCF Done:  E(RHF) =  -535.533157548     A.U. after   16 cycles
 Normal termination of Gaussian 16 at Tue Apr  8 22:03:15 2025.
 Gaussian 16:  ES64L-G16RevC.01  3-Jul-2019

 ----------------------------------------------------------------------
 #t hf aug-cc-pvdz iop(5/13=1,5/36=2,99/5=2) pseudo=read geom=check gue
 ss=(read,tcheck) scf=(maxcycle=1)
 ----------------------------------------------------------------------
 -----
 title
 -----
 Structure from the checkpoint file:  "ANI1ccx_911_conf2_mol1.chk"
 Charge =  0 Multiplicity = 1

                         Standard orientation:
 ---------------------------------------------------------------------
 Center     Atomic      Atomic             Coordinates (Angstroms)
 Number     Number       Type             X           Y           Z
 ---------------------------------------------------------------------
      1          6           0        1.650449   -0.518221   -0.042997
      2          6           0        0.343265    1.318940    0.008677
      3          6           0       -0.848816    0.430846    0.018488
      4          6           0       -2.213992    0.482984    0.008277
      5          1           0        3.025270   -1.944829   -0.117919
      6          1           0        3.622839   -0.310923   -0.078504
      7          1           0        0.783207    3.313370    0.193542
      8          1           0       -0.851384    2.945249    0.100806
      9          1           0       -2.918562    1.272238   -0.079314
     10          7           0        2.912859   -0.982845    0.066103
     11          7           0        1.581658    0.868740   -0.055609
     12          7           0        0.081542    2.622260   -0.025869
     13          7           0       -2.641431   -0.799699    0.010493
     14          7           0       -1.667991   -1.644321   -0.024865
     15          7           0       -0.558419   -0.869666    0.002150
     16          7           0        0.685094   -1.417670    0.031412
 ---------------------------------------------------------------------

 SCF Done:  E(RHF) =  -535.684299977     A.U. after    2 cycles

 The electronic state is 1-A.
 Alpha  occ. eigenvalues --  -15.76656 -15.70511 -15.69053 -15.66244 -15.65228
 Alpha  occ. eigenvalues --  -15.64974 -15.64662 -11.40152 -11.38148 -11.31071
 Alpha  occ. eigenvalues --  -11.27989  -1.43026  -1.32460  -1.27487  -1.22225
 Alpha  occ. eigenvalues --   -1.16418  -1.10333  -1.07086  -0.92247  -0.89112
 Alpha  occ. eigenvalues --   -0.84925  -0.81583  -0.76726  -0.72757  -0.70090
 Alpha  occ. eigenvalues --   -0.68875  -0.66810  -0.65247  -0.64577  -0.59561
 Alpha  occ. eigenvalues --   -0.55555  -0.52045  -0.51467  -0.46268  -0.44345
 Alpha  occ. eigenvalues --   -0.42814  -0.41157  -0.37762  -0.31793
 Alpha virt. eigenvalues --    0.01501   0.02775   0.04331   0.05756   0.06685
 Alpha virt. eigenvalues --    0.07028   0.07985   0.09292   0.10924   0.11470
 Alpha virt. eigenvalues --    0.12018   0.12762   0.12987   0.13417   0.13557

 Mulliken charges:
               1
     1  C    0.781645
     2  C    0.405044
     3  C    0.363897
     4  C    1.174864
     5  H   -0.029917
     6  H   -0.014375
     7  H   -0.013093
     8  H   -0.017782
     9  H   -0.331615
    10  N   -0.178860
    11  N   -0.645059
    12  N   -0.100163
    13  N   -0.503072
    14  N   -0.277839
    15  N   -0.316181
    16  N   -0.297493
 Sum of Mulliken charges =  -0.00000

 Dipole moment (field-independent basis, Debye):
    X=              3.1854    Y=              6.0707    Z=             -0.0698  Tot=              6.8561

 Test job not archived.
 1\1\GINC-SE365\SP\RHF\Aug-CC-pVDZ\C4H5N7\OHZDE\08-Apr-2025\0\\#t hf au
 g-cc-pvdz iop(5/13=1,5/36=2,99/5=2) pseudo=read geom=check guess=(read
 ,tcheck) scf=(maxcycle=1)\\title\\0,1\C,0,1.65045,-0.518221,-0.0429965
 \C,0,0.343267,1.31894,0.00867744\C,0,-0.848814,0.430847,0.0184884\C,0,
 -2.21399,0.482986,0.00827663\H,0,3.02527,-1.94483,-0.117919\H,0,3.6228
 4,-0.310924,-0.0785042\H,0,0.78321,3.31337,0.193542\H,0,-0.851381,2.94
 525,0.100806\H,0,-2.91856,1.27224,-0.0793142\N,0,2.91286,-0.982846,0.0
 661028\N,0,1.58166,0.86874,-0.0556088\N,0,0.0815453,2.62226,-0.0258689

 Normal termination of Gaussian 16 at Tue Apr  8 22:03:23 2025.
