 Gaussian 16, Revision C.01,

 ----------------------------------------------------------------------
 #t hf aug-cc-pvdz symm=none int=(grid=ultrafine) guess=(read,tcheck) s
 table=(opt,rrhf)
 ----------------------------------------------------------------------
 -----
 title
 -----
 Symbolic Z-matrix:
 Charge =  0 Multiplicity = 1

 SCF Done:  E(RHF) =  -911.513101735     A.U. after   14 cycles
 Normal termination of Gaussian 16 at Tue Apr  8 21:38:48 2025.
 Gaussian 16:  ES64L-G16RevC.01  3-Jul-2019

 ----------------------------------------------------------------------
 #t hf aug-cc-pvdz iop(5/13=1,5/36=2,99/5=2) pseudo=read geom=check gue
 ss=(read,tcheck) scf=(maxcycle=1)
 ----------------------------------------------------------------------
 -----
 title
 -----
 Structure from the checkpoint file:  "ANI1ccx_191_conf22_mol1.chk"
 Charge =  0 Multiplicity = 1

                         Standard orientation:
 ---------------------------------------------------------------------
 Center     Atomic      Atomic             Coordinates (Angstroms)
 Number     Number       Type             X           Y           Z
 ---------------------------------------------------------------------
      1          6           0        1.817550    0.238900    0.205450
      2          6           0       -3.660570   -1.684549   -0.096334
      3          6           0       -3.230950   -0.268870    1.948940
      4          6           0       -2.654410   -0.697089    0.629930
      5          6           0       -2.641220    1.581731   -0.491395
      6          6           0       -3.020090   -2.406739   -1.309480
      7          6           0        4.403050   -0.293671   -0.377441
      8          6           0        4.024460   -0.309014    1.158040
      9          6           0        2.553430   -0.619004    1.216080
     10          6           0        0.355363   -0.328612    0.143185
     11          6           0       -1.917390    0.288090   -0.348532
     12          1           0       -2.461820    0.346390    2.469490
     13          1           0       -4.261660    2.357421   -0.976890
     14          1           0       -3.635150   -3.256049   -1.666370
     15          1           0       -2.829530   -1.688299   -2.074020
     16          1           0       -2.005820   -2.774020   -0.976596
     17          1           0       -3.915420   -2.465789    0.659153
     18          1           0       -4.536490   -1.173519   -0.523837
     19          1           0       -3.353940   -1.177059    2.624790
     20          1           0       -4.111000    0.406325    2.143880
     21          1           0       -1.680380   -1.318010    0.786418
     22          1           0        4.745480    0.779779   -1.857950
     23          1           0       -0.394058    1.556860    0.288856
     24          1           0        4.781130   -0.904399    1.730830
     25          1           0        4.178500    0.722449    1.370270
     26          1           0        2.252740   -0.383358    2.166690
     27          1           0        2.435590   -1.668080    0.966209
     28          1           0        2.164000   -0.114420   -0.765174
     29          1           0        1.976090    2.071970   -0.592263
     30          1           0        1.666700    2.178130    1.110620
     31          1           0       -1.833050   -0.234595   -1.234440
     32          7           0        2.046830    1.700590    0.311614
     33          7           0       -0.605116    0.599263    0.140746
     34          8           0       -2.154860    2.644340   -0.318941
     35          8           0        0.201347   -1.554020   -0.054575
     36          8           0        4.305230   -1.276230   -1.085330
     37          8           0        4.697550    0.937213   -0.863062
     38          8           0       -3.980420    1.452731   -0.788942
 ---------------------------------------------------------------------

 SCF Done:  E(RHF) =  -911.791707430     A.U. after    2 cycles

 The electronic state is 1-A.
 Alpha  occ. eigenvalues --  -20.63705 -20.63165 -20.59261 -20.55998 -20.54021
 Alpha  occ. eigenvalues --  -15.66154 -15.62577 -11.41727 -11.39724 -11.37068
 Alpha  occ. eigenvalues --  -11.30233 -11.29159 -11.25427 -11.25260 -11.23942
 Alpha  occ. eigenvalues --  -11.23479 -11.23129 -11.21655  -1.45247  -1.41841
 Alpha  occ. eigenvalues --   -1.35504  -1.34240  -1.31816  -1.23200  -1.17592
 Alpha  occ. eigenvalues --   -1.08377  -1.07131  -1.01013  -0.97377  -0.95825
 Alpha  occ. eigenvalues --   -0.87845  -0.86489  -0.84028  -0.82581  -0.79110
 Alpha  occ. eigenvalues --   -0.76601  -0.74971  -0.73616  -0.71699  -0.70841
 Alpha  occ. eigenvalues --   -0.70249  -0.69240  -0.68126  -0.66002  -0.65453
 Alpha  occ. eigenvalues --   -0.64104  -0.62641  -0.62303  -0.60810  -0.60114
 Alpha  occ. eigenvalues --   -0.58730  -0.57820  -0.57020  -0.56172  -0.55645
 Alpha  occ. eigenvalues --   -0.53583  -0.53173  -0.52708  -0.51444  -0.50592
 Alpha  occ. eigenvalues --   -0.50060  -0.49164  -0.48224  -0.48018  -0.47389
 Alpha  occ. eigenvalues --   -0.45168  -0.44750  -0.43159  -0.40217  -0.38660
 Alpha virt. eigenvalues --    0.02689   0.03130   0.03284   0.04211   0.04698
 Alpha virt. eigenvalues --    0.04934   0.05338   0.06180   0.06266   0.06885
 Alpha virt. eigenvalues --    0.07055   0.07742   0.07870   0.08081   0.09088

 Mulliken charges:
               1
     1  C    0.637450
     2  C    0.339745
     3  C    0.870209
     4  C   -0.874259
     5  C    0.923466
     6  C    0.407483
     7  C    0.707147
     8  C    0.345803
     9  C    0.831694
    10  C   -0.557719
    11  C    0.724914
    12  H   -0.073429
    13  H    0.229482
    14  H   -0.131154
    15  H   -0.131251
    16  H    0.050923
    17  H   -0.021044
    18  H   -0.117142
    19  H    0.057999
    20  H   -0.085446
    21  H    0.101068
    22  H    0.218234
    23  H   -0.040231
    24  H   -0.016681
    25  H   -0.110395
    26  H   -0.286908
    27  H   -0.074036
    28  H    0.019539
    29  H    0.036083
    30  H   -0.022498
    31  H   -0.508962
    32  N   -0.286046
    33  N   -0.157317
    34  O   -0.503733
    35  O   -0.635752
    36  O   -0.607103
    37  O   -0.598944
    38  O   -0.661191
 Sum of Mulliken charges =  -0.00000

 Dipole moment (field-independent basis, Debye):
    X=             -1.4683    Y=              4.1517    Z=              0.8663  Tot=              4.4881

 Test job not archived.
 1\1\GINC-SE029\SP\RHF\Aug-CC-pVDZ\C11H20N2O5\OHZDE\08-Apr-2025\0\\#t h
 f aug-cc-pvdz iop(5/13=1,5/36=2,99/5=2) pseudo=read geom=check guess=(
 read,tcheck) scf=(maxcycle=1)\\title\\0,1\C,0,1.81755,0.2389,0.20545\C
 ,0,-3.66057,-1.68455,-0.0963341\C,0,-3.23095,-0.268871,1.94894\C,0,-2.
 65441,-0.69709,0.62993\C,0,-2.64122,1.58173,-0.491395\C,0,-3.02009,-2.
 40674,-1.30948\C,0,4.40305,-0.293671,-0.377441\C,0,4.02446,-0.309014,1
 .15804\C,0,2.55343,-0.619004,1.21608\C,0,0.355363,-0.328612,0.143185\C
 ,0,-1.91739,0.28809,-0.348532\H,0,-2.46182,0.346389,2.46949\H,0,-4.261

 Normal termination of Gaussian 16 at Tue Apr  8 21:39:54 2025.
