 Gaussian 16, Revision C.01,

 ----------------------------------------------------------------------
 #t hf aug-cc-pvdz symm=none int=(grid=ultrafine) guess=(read,tcheck) s
 table=(opt,rrhf)
 ----------------------------------------------------------------------
 -----
 title
 -----
 Symbolic Z-matrix:
 Charge =  0 Multiplicity = 1

 SCF Done:  E(RHF) =  -504.991285781     A.U. after   16 cycles
 Normal termination of Gaussian 16 at Tue Apr  8 21:39:49 2025.
 Gaussian 16:  ES64L-G16RevC.01  3-Jul-2019

 ----------------------------------------------------------------------
 #t hf aug-cc-pvdz iop(5/13=1,5/36=2,99/5=2) pseudo=read geom=check gue
 ss=(read,tcheck) scf=(maxcycle=1)
 ----------------------------------------------------------------------
 -----
 title
 -----
 Structure from the checkpoint file:  "ANI1ccx_471_conf32_mol1.chk"
 Charge =  0 Multiplicity = 1

                         Standard orientation:
 ---------------------------------------------------------------------
 Center     Atomic      Atomic             Coordinates (Angstroms)
 Number     Number       Type             X           Y           Z
 ---------------------------------------------------------------------
      1          6           0        1.407249   -0.109039   -0.088728
      2          6           0       -0.686872    0.813557    0.091216
      3          1           0       -2.227579   -1.606384    0.778543
      4          7           0       -0.706392   -0.616688    0.383382
      5          8           0       -1.877000   -1.117043   -0.115462
      6          8           0        0.590256   -1.161061   -0.326118
      7          8           0        2.628019    0.016684    0.167210
      8          8           0        0.582424    0.989586   -0.056047
      9          8           0       -1.567442    1.483847   -0.104227
 ---------------------------------------------------------------------

 SCF Done:  E(RHF) =  -505.151788177     A.U. after    2 cycles

 The electronic state is 1-A.
 Alpha  occ. eigenvalues --  -20.71836 -20.70433 -20.69577 -20.63407 -20.62048
 Alpha  occ. eigenvalues --  -15.82867 -11.52144 -11.48263  -1.57955  -1.48588
 Alpha  occ. eigenvalues --   -1.46283  -1.40042  -1.36649  -1.12684  -0.98764
 Alpha  occ. eigenvalues --   -0.88959  -0.81666  -0.78894  -0.76816  -0.74955
 Alpha  occ. eigenvalues --   -0.73227  -0.70437  -0.67734  -0.64915  -0.60946
 Alpha  occ. eigenvalues --   -0.59887  -0.55778  -0.53947  -0.53426  -0.48592
 Alpha virt. eigenvalues --    0.01955   0.06399   0.07006   0.07483   0.09030
 Alpha virt. eigenvalues --    0.10524   0.10787   0.11210   0.11560   0.12248
 Alpha virt. eigenvalues --    0.13904   0.14438   0.17589   0.18918   0.20750

 Mulliken charges:
               1
     1  C    0.933096
     2  C    0.726537
     3  H    0.378644
     4  N    0.014449
     5  O   -0.536482
     6  O   -0.502760
     7  O   -0.424535
     8  O   -0.413424
     9  O   -0.175526
 Sum of Mulliken charges =  -0.00000

 Dipole moment (field-independent basis, Debye):
    X=             -3.0118    Y=             -1.9783    Z=              1.5404  Tot=              3.9189

 Test job not archived.
 1\1\GINC-SE339\SP\RHF\Aug-CC-pVDZ\C2H1N1O5\OHZDE\08-Apr-2025\0\\#t hf
 aug-cc-pvdz iop(5/13=1,5/36=2,99/5=2) pseudo=read geom=check guess=(re
 ad,tcheck) scf=(maxcycle=1)\\title\\0,1\C,0,1.40725,-0.109038,-0.08872
 76\C,0,-0.686871,0.813559,0.0912156\H,0,-2.22758,-1.60638,0.778543\N,0
 ,-0.706392,-0.616686,0.383382\O,0,-1.877,-1.11704,-0.115462\O,0,0.5902
 56,-1.16106,-0.326118\O,0,2.62802,0.0166837,0.16721\O,0,0.582425,0.989
 587,-0.0560466\O,0,-1.56744,1.48385,-0.104227\\Version=ES64L-G16RevC.0
 1\State=1-A\HF=-505.1517882\RMSD=2.799e-03\Dipole=-1.1849405,-0.778319

 Normal termination of Gaussian 16 at Tue Apr  8 21:39:53 2025.
