 Gaussian 16, Revision C.01,

 ----------------------------------------------------------------------
 #t hf aug-cc-pvdz symm=none int=(grid=ultrafine) guess=(read,tcheck) s
 table=(opt,rrhf)
 ----------------------------------------------------------------------
 -----
 title
 -----
 Symbolic Z-matrix:
 Charge =  0 Multiplicity = 1

 SCF Done:  E(RHF) =  -923.189932457     A.U. after   14 cycles
 Normal termination of Gaussian 16 at Tue Apr  8 20:04:12 2025.
 Gaussian 16:  ES64L-G16RevC.01  3-Jul-2019

 ----------------------------------------------------------------------
 #t hf aug-cc-pvdz iop(5/13=1,5/36=2,99/5=2) pseudo=read geom=check gue
 ss=(read,tcheck) scf=(maxcycle=1)
 ----------------------------------------------------------------------
 -----
 title
 -----
 Structure from the checkpoint file:  "ANI1ccx_1584_conf18_mol1.chk"
 Charge =  0 Multiplicity = 1

                         Standard orientation:
 ---------------------------------------------------------------------
 Center     Atomic      Atomic             Coordinates (Angstroms)
 Number     Number       Type             X           Y           Z
 ---------------------------------------------------------------------
      1          6           0       -1.227272    1.896929    0.341007
      2          6           0        0.118495    1.435990    0.017433
      3          6           0       -2.270211    1.205678   -0.595406
      4          6           0       -2.689280   -0.242019   -0.073151
      5          6           0        1.716531   -0.455270    0.695181
      6          6           0        3.051250    0.086072    0.101724
      7          6           0        1.243662   -1.535248   -0.373686
      8          6           0       -0.043610   -2.180190   -0.052617
      9          1           0        2.298758    1.645173   -0.618344
     10          1           0       -0.214466   -2.858540   -1.944950
     11          1           0       -1.464116   -3.392821   -0.988007
     12          1           0        2.085263   -2.195717   -0.571783
     13          1           0        0.958484   -1.005959   -1.403160
     14          1           0        1.876431   -0.904425    1.653380
     15          1           0       -0.118862   -0.022417    1.522750
     16          1           0       -2.245799   -1.218642    1.421980
     17          1           0       -3.175102    1.828317   -0.473702
     18          1           0       -1.856602    1.329928   -1.665980
     19          1           0       -1.581912    1.634298    1.302580
     20          1           0       -0.984669    3.390039   -0.966373
     21          1           0       -1.856464    3.866318    0.302406
     22          7           0       -1.041434    3.341239    0.051296
     23          7           0        0.591489    0.483270    0.912946
     24          7           0       -0.535338   -3.021700   -1.036570
     25          8           0        0.821440    1.857421   -0.884825
     26          8           0       -3.113609   -1.117683   -0.767918
     27          8           0       -2.459990   -0.300684    1.178840
     28          8           0        3.932241   -0.732195    0.179608
     29          8           0       -0.651391   -2.122591    1.052920
     30          8           0        3.193639    1.292374   -0.437058
 ---------------------------------------------------------------------

 SCF Done:  E(RHF) =  -923.470881051     A.U. after    2 cycles

 The electronic state is 1-A.
 Alpha  occ. eigenvalues --  -20.64338 -20.60090 -20.58356 -20.58135 -20.58121
 Alpha  occ. eigenvalues --  -20.55269 -15.67882 -15.67309 -15.63567 -11.42300
 Alpha  occ. eigenvalues --  -11.41696 -11.40341 -11.40064 -11.33119 -11.30514
 Alpha  occ. eigenvalues --  -11.30005 -11.29464  -1.47611  -1.42013  -1.39860
 Alpha  occ. eigenvalues --   -1.37127  -1.35951  -1.32591  -1.22539  -1.20905
 Alpha  occ. eigenvalues --   -1.19423  -1.07592  -1.04604  -0.97625  -0.92907
 Alpha  occ. eigenvalues --   -0.87816  -0.84411  -0.82422  -0.81201  -0.78237
 Alpha  occ. eigenvalues --   -0.75297  -0.74236  -0.73629  -0.72242  -0.71073
 Alpha  occ. eigenvalues --   -0.70933  -0.69231  -0.66826  -0.66190  -0.65274
 Alpha  occ. eigenvalues --   -0.64472  -0.63489  -0.63104  -0.61900  -0.59821
 Alpha  occ. eigenvalues --   -0.58833  -0.58355  -0.56934  -0.56050  -0.54569
 Alpha  occ. eigenvalues --   -0.53306  -0.52665  -0.49764  -0.49586  -0.48497
 Alpha  occ. eigenvalues --   -0.47366  -0.46466  -0.45294  -0.42455  -0.41498
 Alpha virt. eigenvalues --    0.02305   0.02766   0.03383   0.04516   0.04897
 Alpha virt. eigenvalues --    0.05180   0.05534   0.06410   0.07291   0.07615
 Alpha virt. eigenvalues --    0.08240   0.09175   0.09347   0.09871   0.10443

 Mulliken charges:
               1
     1  C    0.930025
     2  C    0.205553
     3  C   -0.066099
     4  C    0.728345
     5  C    0.571828
     6  C    0.817646
     7  C   -0.172394
     8  C    0.618572
     9  H    0.277614
    10  H   -0.060718
    11  H    0.002200
    12  H   -0.096657
    13  H    0.254831
    14  H   -0.354368
    15  H    0.207798
    16  H    0.293544
    17  H    0.125968
    18  H    0.090354
    19  H   -0.254027
    20  H    0.107270
    21  H   -0.083590
    22  N   -0.308849
    23  N   -0.313605
    24  N   -0.107962
    25  O   -0.739675
    26  O   -0.487662
    27  O   -0.486930
    28  O   -0.521569
    29  O   -0.699537
    30  O   -0.477906
 Sum of Mulliken charges =   0.00000

 Dipole moment (field-independent basis, Debye):
    X=             -5.9536    Y=             -0.4034    Z=             -0.6165  Tot=              5.9991

 Test job not archived.
 1\1\GINC-SE462\SP\RHF\Aug-CC-pVDZ\C8H13N3O6\OHZDE\08-Apr-2025\0\\#t hf
  aug-cc-pvdz iop(5/13=1,5/36=2,99/5=2) pseudo=read geom=check guess=(r
 ead,tcheck) scf=(maxcycle=1)\\title\\0,1\C,0,-1.22727,1.89693,0.341007
 \C,0,0.118497,1.43599,0.0174329\C,0,-2.27021,1.20568,-0.595406\C,0,-2.
 68928,-0.242016,-0.0731513\C,0,1.71653,-0.455272,0.695181\C,0,3.05125,
 0.0860679,0.101724\C,0,1.24366,-1.53525,-0.373686\C,0,-0.0436124,-2.18
 019,-0.052617\H,0,2.29876,1.64517,-0.618344\H,0,-0.214469,-2.85854,-1.
 94495\H,0,-1.46412,-3.39282,-0.988007\H,0,2.08526,-2.19572,-0.571783\H

 Normal termination of Gaussian 16 at Tue Apr  8 20:04:55 2025.
