 Gaussian 16, Revision C.01,

 ----------------------------------------------------------------------
 #t hf aug-cc-pvdz symm=none int=(grid=ultrafine) guess=(read,tcheck) s
 table=(opt,rrhf)
 ----------------------------------------------------------------------
 -----
 title
 -----
 Symbolic Z-matrix:
 Charge =  0 Multiplicity = 1

 SCF Done:  E(RHF) =  -428.562885131     A.U. after   13 cycles
 Normal termination of Gaussian 16 at Tue Apr  8 21:36:50 2025.
 Gaussian 16:  ES64L-G16RevC.01  3-Jul-2019

 ----------------------------------------------------------------------
 #t hf aug-cc-pvdz iop(5/13=1,5/36=2,99/5=2) pseudo=read geom=check gue
 ss=(read,tcheck) scf=(maxcycle=1)
 ----------------------------------------------------------------------
 -----
 title
 -----
 Structure from the checkpoint file:  "ANI1ccx_419_conf6_mol1.chk"
 Charge =  0 Multiplicity = 1

                         Standard orientation:
 ---------------------------------------------------------------------
 Center     Atomic      Atomic             Coordinates (Angstroms)
 Number     Number       Type             X           Y           Z
 ---------------------------------------------------------------------
      1          6           0       -0.159209   -0.306428    0.026520
      2          1           0        1.911090    1.131501    0.010099
      3          1           0       -0.734908    1.624751   -0.261491
      4          1           0       -1.585280   -1.680679    0.058762
      5          1           0       -3.012470    0.365849    0.407885
      6          1           0        2.512440   -1.623739   -0.339112
      7          7           0        0.034987    1.032431   -0.326537
      8          7           0       -1.453660   -0.733714    0.442747
      9          7           0        0.744202   -1.227909    0.039544
     10          8           0        1.153640    1.610091    0.335783
     11          8           0       -2.375780    0.170125   -0.312828
     12          8           0        2.045350   -0.714561   -0.163647
 ---------------------------------------------------------------------

 SCF Done:  E(RHF) =  -428.691051652     A.U. after    2 cycles

 The electronic state is 1-A.
 Alpha  occ. eigenvalues --  -20.64380 -20.62801 -20.60714 -15.72694 -15.69426
 Alpha  occ. eigenvalues --  -15.67382 -11.37318  -1.40114  -1.37441  -1.35538
 Alpha  occ. eigenvalues --   -1.20722  -1.09482  -1.05565  -0.82606  -0.75989
 Alpha  occ. eigenvalues --   -0.73221  -0.70640  -0.69964  -0.67610  -0.63712
 Alpha  occ. eigenvalues --   -0.61962  -0.60749  -0.56386  -0.54598  -0.51370
 Alpha  occ. eigenvalues --   -0.45349  -0.43022  -0.35805
 Alpha virt. eigenvalues --    0.02992   0.03723   0.04503   0.06641   0.07506
 Alpha virt. eigenvalues --    0.09059   0.12938   0.13281   0.14245   0.15012
 Alpha virt. eigenvalues --    0.15651   0.17115   0.17953   0.18380   0.19213

 Mulliken charges:
               1
     1  C    1.277447
     2  H    0.192651
     3  H    0.035518
     4  H    0.158504
     5  H    0.253750
     6  H    0.280981
     7  N   -0.079853
     8  N   -0.212474
     9  N   -0.255986
    10  O   -0.457070
    11  O   -0.553496
    12  O   -0.639972
 Sum of Mulliken charges =  -0.00000

 Dipole moment (field-independent basis, Debye):
    X=             -1.6358    Y=             -1.3869    Z=             -0.0494  Tot=              2.1452

 Test job not archived.
 1\1\GINC-SE074\SP\RHF\Aug-CC-pVDZ\C1H5N3O3\OHZDE\08-Apr-2025\0\\#t hf
 aug-cc-pvdz iop(5/13=1,5/36=2,99/5=2) pseudo=read geom=check guess=(re
 ad,tcheck) scf=(maxcycle=1)\\title\\0,1\C,0,-0.159209,-0.306429,0.0265
 201\H,0,1.91109,1.1315,0.0100991\H,0,-0.734908,1.62475,-0.261491\H,0,-
 1.58528,-1.68068,0.0587618\H,0,-3.01247,0.365849,0.407885\H,0,2.51244,
 -1.62374,-0.339112\N,0,0.0349873,1.03243,-0.326537\N,0,-1.45366,-0.733
 715,0.442747\N,0,0.744202,-1.22791,0.0395444\O,0,1.15364,1.61009,0.335
 783\O,0,-2.37578,0.170124,-0.312828\O,0,2.04535,-0.714562,-0.163647\\V

 Normal termination of Gaussian 16 at Tue Apr  8 21:36:55 2025.
