 Gaussian 16, Revision C.01,

 ----------------------------------------------------------------------
 #t hf aug-cc-pvdz symm=none int=(grid=ultrafine) guess=(read,tcheck) s
 table=(opt,rrhf)
 ----------------------------------------------------------------------
 -----
 title
 -----
 Symbolic Z-matrix:
 Charge =  0 Multiplicity = 1

 SCF Done:  E(RHF) =  -451.163203964     A.U. after   14 cycles
 Normal termination of Gaussian 16 at Tue Apr  8 21:11:25 2025.
 Gaussian 16:  ES64L-G16RevC.01  3-Jul-2019

 ----------------------------------------------------------------------
 #t hf aug-cc-pvdz iop(5/13=1,5/36=2,99/5=2) pseudo=read geom=check gue
 ss=(read,tcheck) scf=(maxcycle=1)
 ----------------------------------------------------------------------
 -----
 title
 -----
 Structure from the checkpoint file:  "ANI1ccx_1886_conf2_mol1.chk"
 Charge =  0 Multiplicity = 1

                         Standard orientation:
 ---------------------------------------------------------------------
 Center     Atomic      Atomic             Coordinates (Angstroms)
 Number     Number       Type             X           Y           Z
 ---------------------------------------------------------------------
      1          1           0       -1.833320    1.470570    0.496076
      2          1           0       -3.173391   -1.214719    0.563734
      3          1           0        1.016489   -0.552860   -0.835429
      4          1           0        3.216169   -0.305309    1.195820
      5          8           0       -1.388630    0.603917    0.503356
      6          8           0       -2.125541   -0.087512   -0.479485
      7          8           0       -3.361351   -0.415389    0.051042
      8          8           0        1.174379    0.140317   -0.181579
      9          8           0        2.529350    0.429633   -0.350300
     10          8           0        3.268549   -0.595676    0.279440
 ---------------------------------------------------------------------

 SCF Done:  E(RHF) =  -451.313084948     A.U. after    2 cycles

 The electronic state is 1-A.
 Alpha  occ. eigenvalues --  -20.71390 -20.70475 -20.66179 -20.65714 -20.65251
 Alpha  occ. eigenvalues --  -20.64876  -1.51968  -1.50653  -1.34488  -1.33559
 Alpha  occ. eigenvalues --   -1.12663  -1.11983  -0.81349  -0.80186  -0.71963
 Alpha  occ. eigenvalues --   -0.71566  -0.70979  -0.70403  -0.68263  -0.66744
 Alpha  occ. eigenvalues --   -0.54993  -0.53799  -0.53088  -0.52954  -0.51844
 Alpha  occ. eigenvalues --   -0.51075
 Alpha virt. eigenvalues --    0.03699   0.04811   0.05258   0.06235   0.13049
 Alpha virt. eigenvalues --    0.13760   0.14329   0.16263   0.18862   0.19079
 Alpha virt. eigenvalues --    0.19582   0.20422   0.20794   0.21357   0.21951

 Mulliken charges:
               1
     1  H    0.271607
     2  H    0.232974
     3  H    0.254133
     4  H    0.234349
     5  O   -0.199455
     6  O   -0.112076
     7  O   -0.193497
     8  O   -0.188474
     9  O   -0.119263
    10  O   -0.180298
 Sum of Mulliken charges =  -0.00000

 Dipole moment (field-independent basis, Debye):
    X=             -1.1873    Y=             -0.7057    Z=              1.8668  Tot=              2.3222

 Test job not archived.
 1\1\GINC-SE059\SP\RHF\Aug-CC-pVDZ\H4O6\OHZDE\08-Apr-2025\0\\#t hf aug-
 cc-pvdz iop(5/13=1,5/36=2,99/5=2) pseudo=read geom=check guess=(read,t
 check) scf=(maxcycle=1)\\title\\0,1\H,0,-1.83332,1.47057,0.496076\H,0,
 -3.17339,-1.21472,0.563734\H,0,1.01649,-0.55286,-0.835429\H,0,3.21617,
 -0.305308,1.19582\O,0,-1.38863,0.603917,0.503356\O,0,-2.12554,-0.08751
 29,-0.479485\O,0,-3.36135,-0.41539,0.0510422\O,0,1.17438,0.140317,-0.1
 81579\O,0,2.52935,0.429633,-0.3503\O,0,3.26855,-0.595675,0.27944\\Vers
 ion=ES64L-G16RevC.01\State=1-A\HF=-451.3130849\RMSD=2.369e-03\Dipole=-

 Normal termination of Gaussian 16 at Tue Apr  8 21:11:28 2025.
