 Gaussian 16, Revision C.01,

 ----------------------------------------------------------------------
 #t hf aug-cc-pvdz symm=none int=(grid=ultrafine) guess=(read,tcheck) s
 table=(opt,rrhf)
 ----------------------------------------------------------------------
 -----
 title
 -----
 Symbolic Z-matrix:
 Charge =  0 Multiplicity = 1

 SCF Done:  E(RHF) =  -355.353392654     A.U. after   13 cycles
 Normal termination of Gaussian 16 at Tue Apr  8 21:39:44 2025.
 Gaussian 16:  ES64L-G16RevC.01  3-Jul-2019

 ----------------------------------------------------------------------
 #t hf aug-cc-pvdz iop(5/13=1,5/36=2,99/5=2) pseudo=read geom=check gue
 ss=(read,tcheck) scf=(maxcycle=1)
 ----------------------------------------------------------------------
 -----
 title
 -----
 Structure from the checkpoint file:  "ANI1ccx_469_conf3_mol1.chk"
 Charge =  0 Multiplicity = 1

                         Standard orientation:
 ---------------------------------------------------------------------
 Center     Atomic      Atomic             Coordinates (Angstroms)
 Number     Number       Type             X           Y           Z
 ---------------------------------------------------------------------
      1          6           0       -0.784858   -0.010622    0.003160
      2          6           0        1.296770    0.572263    0.012112
      3          1           0        2.157151    1.235228    0.056788
      4          7           0        1.403799   -0.686456   -0.000210
      5          8           0       -1.969030    0.034336    0.011964
      6          8           0        0.050625    1.079590   -0.021909
      7          8           0        0.036503   -1.088910   -0.008424
 ---------------------------------------------------------------------

 SCF Done:  E(RHF) =  -355.465932965     A.U. after    2 cycles

 The electronic state is 1-A.
 Alpha  occ. eigenvalues --  -20.70478 -20.69456 -20.60176 -15.74721 -11.49051
 Alpha  occ. eigenvalues --  -11.41150  -1.56229  -1.41716  -1.40824  -1.20495
 Alpha  occ. eigenvalues --   -0.95535  -0.91117  -0.79922  -0.77593  -0.70914
 Alpha  occ. eigenvalues --   -0.69501  -0.63373  -0.63186  -0.58474  -0.58036
 Alpha  occ. eigenvalues --   -0.52010  -0.45404
 Alpha virt. eigenvalues --    0.02376   0.06741   0.06922   0.07722   0.10328
 Alpha virt. eigenvalues --    0.10789   0.11319   0.13671   0.13793   0.16093
 Alpha virt. eigenvalues --    0.16898   0.17111   0.19560   0.19778   0.23091

 Mulliken charges:
               1
     1  C    0.711138
     2  C    0.813180
     3  H   -0.134787
     4  N   -0.026888
     5  O   -0.350539
     6  O   -0.439236
     7  O   -0.572869
 Sum of Mulliken charges =   0.00000

 Dipole moment (field-independent basis, Debye):
    X=              3.7135    Y=              2.1826    Z=              0.0693  Tot=              4.3080

 Test job not archived.
 1\1\GINC-SE220\SP\RHF\Aug-CC-pVDZ\C2H1N1O3\OHZDE\08-Apr-2025\0\\#t hf
 aug-cc-pvdz iop(5/13=1,5/36=2,99/5=2) pseudo=read geom=check guess=(re
 ad,tcheck) scf=(maxcycle=1)\\title\\0,1\C,0,-0.784858,-0.0106225,0.003
 15978\C,0,1.29677,0.572264,0.0121124\H,0,2.15715,1.23523,0.0567885\N,0
 ,1.4038,-0.686455,-0.00021017\O,0,-1.96903,0.0343348,0.0119643\O,0,0.0
 506238,1.07959,-0.0219086\O,0,0.0365038,-1.08891,-0.00842447\\Version=
 ES64L-G16RevC.01\State=1-A\HF=-355.465933\RMSD=2.857e-03\Dipole=1.4610
 008,0.85869,0.0272836\Quadrupole=-1.5719936,-0.2886608,1.8606544,3.727

 Normal termination of Gaussian 16 at Tue Apr  8 21:39:47 2025.
