 Gaussian 16, Revision C.01,

 ----------------------------------------------------------------------
 #t hf aug-cc-pvdz symm=none int=(grid=ultrafine) guess=(read,tcheck) s
 table=(opt,rrhf)
 ----------------------------------------------------------------------
 -----
 title
 -----
 Symbolic Z-matrix:
 Charge =  0 Multiplicity = 1

 SCF Done:  E(RHF) =  -506.570114236     A.U. after   15 cycles
 Normal termination of Gaussian 16 at Tue Apr  8 19:14:12 2025.
 Gaussian 16:  ES64L-G16RevC.01  3-Jul-2019

 ----------------------------------------------------------------------
 #t hf aug-cc-pvdz iop(5/13=1,5/36=2,99/5=2) pseudo=read geom=check gue
 ss=(read,tcheck) scf=(maxcycle=1)
 ----------------------------------------------------------------------
 -----
 title
 -----
 Structure from the checkpoint file:  "ANI1ccx_1139_conf2_mol1.chk"
 Charge =  0 Multiplicity = 1

                         Standard orientation:
 ---------------------------------------------------------------------
 Center     Atomic      Atomic             Coordinates (Angstroms)
 Number     Number       Type             X           Y           Z
 ---------------------------------------------------------------------
      1          6           0        2.411611    0.413295    0.153263
      2          6           0        1.016991    0.168892    0.114111
      3          6           0        0.064677    1.216660    0.012649
      4          6           0       -1.727990   -0.366572    0.017132
      5          6           0        0.497542   -1.136891    0.005632
      6          1           0        2.375897   -1.966784    0.179747
      7          1           0        1.022165   -3.089212    0.052236
      8          1           0       -1.960297    1.649904   -0.036759
      9          1           0        1.235935    2.717148   -0.320266
     10          1           0        2.892861    0.170681    1.105440
     11          1           0        2.892080   -0.117544   -0.701736
     12          1           0        2.674313    1.442426    0.104083
     13          7           0       -1.222228    0.930784   -0.036005
     14          7           0       -0.794481   -1.410458   -0.101041
     15          7           0        1.440776   -2.209862   -0.181740
     16          8           0        0.338190    2.518440   -0.126676
     17          8           0       -2.922991   -0.487462    0.130680
 ---------------------------------------------------------------------

 SCF Done:  E(RHF) =  -506.724974232     A.U. after    2 cycles

 The electronic state is 1-A.
 Alpha  occ. eigenvalues --  -20.66207 -20.52390 -15.69390 -15.65559 -15.60554
 Alpha  occ. eigenvalues --  -11.41472 -11.38776 -11.35816 -11.26116 -11.24894
 Alpha  occ. eigenvalues --   -1.44773  -1.36314  -1.26702  -1.22266  -1.12780
 Alpha  occ. eigenvalues --   -1.09418  -0.97571  -0.91160  -0.87222  -0.79895
 Alpha  occ. eigenvalues --   -0.78545  -0.72676  -0.69577  -0.68338  -0.67259
 Alpha  occ. eigenvalues --   -0.63246  -0.62383  -0.61213  -0.61041  -0.59106
 Alpha  occ. eigenvalues --   -0.55738  -0.51684  -0.48076  -0.46062  -0.41613
 Alpha  occ. eigenvalues --   -0.39080  -0.32336
 Alpha virt. eigenvalues --    0.01562   0.03079   0.04536   0.04566   0.05657
 Alpha virt. eigenvalues --    0.06770   0.07509   0.08729   0.10202   0.10348
 Alpha virt. eigenvalues --    0.10885   0.11237   0.12932   0.13126   0.13411

 Mulliken charges:
               1
     1  C    0.495412
     2  C    0.556593
     3  C    0.494655
     4  C    0.608451
     5  C    0.312144
     6  H    0.051570
     7  H    0.007925
     8  H    0.006684
     9  H    0.164613
    10  H    0.086142
    11  H    0.217649
    12  H   -0.444880
    13  N   -0.478790
    14  N   -0.747780
    15  N   -0.383211
    16  O   -0.465548
    17  O   -0.481627
 Sum of Mulliken charges =  -0.00000

 Dipole moment (field-independent basis, Debye):
    X=              7.3114    Y=              3.6710    Z=              0.4950  Tot=              8.1962

 Test job not archived.
 1\1\GINC-SE059\SP\RHF\Aug-CC-pVDZ\C5H7N3O2\OHZDE\08-Apr-2025\0\\#t hf
 aug-cc-pvdz iop(5/13=1,5/36=2,99/5=2) pseudo=read geom=check guess=(re
 ad,tcheck) scf=(maxcycle=1)\\title\\0,1\C,0,2.41161,0.413299,0.153263\
 C,0,1.01699,0.168894,0.114111\C,0,0.064675,1.21666,0.0126492\C,0,-1.72
 799,-0.366575,0.0171319\C,0,0.497544,-1.13689,0.00563189\H,0,2.3759,-1
 .96678,0.179747\H,0,1.02217,-3.08921,0.0522355\H,0,-1.9603,1.6499,-0.0
 367595\H,0,1.23593,2.71715,-0.320266\H,0,2.89286,0.170686,1.10544\H,0,
 2.89208,-0.117539,-0.701736\H,0,2.67431,1.44243,0.104083\N,0,-1.22223,

 Normal termination of Gaussian 16 at Tue Apr  8 19:14:21 2025.
