 Gaussian 16, Revision C.01,

 ----------------------------------------------------------------------
 #t hf aug-cc-pvdz symm=none int=(grid=ultrafine) guess=(read,tcheck) s
 table=(opt,rrhf)
 ----------------------------------------------------------------------
 -----
 title
 -----
 Symbolic Z-matrix:
 Charge =  0 Multiplicity = 1

 SCF Done:  E(RHF) =  -869.339583474     A.U. after   14 cycles
 Normal termination of Gaussian 16 at Tue Apr  8 20:08:34 2025.
 Gaussian 16:  ES64L-G16RevC.01  3-Jul-2019

 ----------------------------------------------------------------------
 #t hf aug-cc-pvdz iop(5/13=1,5/36=2,99/5=2) pseudo=read geom=check gue
 ss=(read,tcheck) scf=(maxcycle=1)
 ----------------------------------------------------------------------
 -----
 title
 -----
 Structure from the checkpoint file:  "ANI1ccx_1593_conf10_mol2.chk"
 Charge =  0 Multiplicity = 1

                         Standard orientation:
 ---------------------------------------------------------------------
 Center     Atomic      Atomic             Coordinates (Angstroms)
 Number     Number       Type             X           Y           Z
 ---------------------------------------------------------------------
      1          6           0       -1.621059   -0.481807    0.122837
      2          6           0       -0.390555    0.159525   -0.488860
      3          6           0       -2.782909    0.432098   -0.213818
      4          6           0       -4.103369   -0.201505   -0.117139
      5          6           0        2.036641   -0.006268   -0.543683
      6          6           0        3.171381   -1.038640   -0.609258
      7          6           0        2.601511    1.183050    0.309170
      8          6           0        1.905181    2.537430    0.285627
      9          1           0        3.645051   -2.811950   -0.061552
     10          1           0        2.422680    3.210510    1.041921
     11          1           0        0.845999    2.544090    0.513784
     12          1           0        1.987110    2.991510   -0.702192
     13          1           0        1.826011    0.572628    1.972901
     14          1           0        3.629131    1.324860   -0.004133
     15          1           0        1.928451    0.366402   -1.579359
     16          1           0        0.645735   -1.059270    0.658966
     17          1           0       -5.877479    0.045996   -0.694798
     18          1           0       -2.814249    1.271250    0.527788
     19          1           0       -2.672859    0.964777   -1.154189
     20          1           0       -1.825859   -1.465180   -0.288239
     21          1           0       -1.465749    0.181104    1.997771
     22          1           0       -2.300499   -1.213670    1.822921
     23          7           0       -1.447049   -0.752743    1.547691
     24          7           0        0.799572   -0.392636   -0.063607
     25          8           0       -0.497297    1.103790   -1.271899
     26          8           0       -4.330159   -1.152950    0.569232
     27          8           0       -5.043459    0.506632   -0.778631
     28          8           0        4.260861   -0.738870   -0.953842
     29          8           0        2.723331    0.766246    1.676001
     30          8           0        2.843971   -2.285940   -0.104537
 ---------------------------------------------------------------------

 SCF Done:  E(RHF) =  -869.606633487     A.U. after    2 cycles

 The electronic state is 1-A.
 Alpha  occ. eigenvalues --  -20.64025 -20.63353 -20.58304 -20.58159 -20.57636
 Alpha  occ. eigenvalues --  -20.56133 -15.66696 -15.64212 -11.41667 -11.41359
 Alpha  occ. eigenvalues --  -11.38635 -11.31115 -11.30351 -11.30005 -11.26138
 Alpha  occ. eigenvalues --  -11.23198  -1.44768  -1.43734  -1.36839  -1.35444
 Alpha  occ. eigenvalues --   -1.34788  -1.33027  -1.24007  -1.19916  -1.05845
 Alpha  occ. eigenvalues --   -1.05018  -0.98686  -0.93931  -0.86544  -0.85243
 Alpha  occ. eigenvalues --   -0.82079  -0.79923  -0.76688  -0.74619  -0.74117
 Alpha  occ. eigenvalues --   -0.72890  -0.70617  -0.69102  -0.68472  -0.67762
 Alpha  occ. eigenvalues --   -0.66525  -0.65486  -0.63532  -0.62931  -0.61857
 Alpha  occ. eigenvalues --   -0.61042  -0.60467  -0.58993  -0.58256  -0.57216
 Alpha  occ. eigenvalues --   -0.53820  -0.53444  -0.52760  -0.51840  -0.51507
 Alpha  occ. eigenvalues --   -0.50337  -0.49164  -0.48755  -0.47287  -0.46834
 Alpha  occ. eigenvalues --   -0.43086  -0.40127
 Alpha virt. eigenvalues --    0.02744   0.03279   0.03514   0.04298   0.05046
 Alpha virt. eigenvalues --    0.05604   0.06059   0.06604   0.06831   0.07542
 Alpha virt. eigenvalues --    0.08175   0.08519   0.09292   0.09644   0.10980

 Mulliken charges:
               1
     1  C    0.697843
     2  C    0.247568
     3  C    0.568807
     4  C    0.593589
     5  C   -0.070031
     6  C    0.856260
     7  C    0.619422
     8  C    0.524156
     9  H    0.190758
    10  H    0.102015
    11  H   -0.136416
    12  H   -0.031355
    13  H    0.172320
    14  H   -0.352460
    15  H   -0.002557
    16  H   -0.029250
    17  H    0.198273
    18  H    0.070032
    19  H   -0.229653
    20  H   -0.257213
    21  H    0.143582
    22  H    0.045726
    23  N   -0.443654
    24  N   -0.253114
    25  O   -0.532125
    26  O   -0.497849
    27  O   -0.501004
    28  O   -0.456855
    29  O   -0.630430
    30  O   -0.606382
 Sum of Mulliken charges =  -0.00000

 Dipole moment (field-independent basis, Debye):
    X=             -3.3823    Y=             -0.8611    Z=              0.6281  Tot=              3.5463

 Test job not archived.
 1\1\GINC-SE273\SP\RHF\Aug-CC-pVDZ\C8H14N2O6\OHZDE\08-Apr-2025\0\\#t hf
  aug-cc-pvdz iop(5/13=1,5/36=2,99/5=2) pseudo=read geom=check guess=(r
 ead,tcheck) scf=(maxcycle=1)\\title\\0,1\C,0,-1.62106,-0.481807,0.1228
 36\C,0,-0.390556,0.159525,-0.488861\C,0,-2.78291,0.432098,-0.213819\C,
 0,-4.10337,-0.201505,-0.11714\C,0,2.03664,-0.00626804,-0.543684\C,0,3.
 17138,-1.03864,-0.609259\C,0,2.60151,1.18305,0.309169\C,0,1.90518,2.53
 743,0.285626\H,0,3.64505,-2.81195,-0.0615525\H,0,2.42268,3.21051,1.041
 92\H,0,0.845998,2.54409,0.513783\H,0,1.98711,2.99151,-0.702193\H,0,1.8

 Normal termination of Gaussian 16 at Tue Apr  8 20:09:13 2025.
