 Gaussian 16, Revision C.01,

 ----------------------------------------------------------------------
 #t hf aug-cc-pvdz symm=none int=(grid=ultrafine) guess=(read,tcheck) s
 table=(opt,rrhf)
 ----------------------------------------------------------------------
 -----
 title
 -----
 Symbolic Z-matrix:
 Charge =  0 Multiplicity = 1

 SCF Done:  E(RHF) =  -456.277922083     A.U. after   11 cycles
 Normal termination of Gaussian 16 at Tue Apr  8 21:07:46 2025.
 Gaussian 16:  ES64L-G16RevC.01  3-Jul-2019

 ----------------------------------------------------------------------
 #t hf aug-cc-pvdz iop(5/13=1,5/36=2,99/5=2) pseudo=read geom=check gue
 ss=(read,tcheck) scf=(maxcycle=1)
 ----------------------------------------------------------------------
 -----
 title
 -----
 Structure from the checkpoint file:  "ANI1ccx_1844_conf42_mol1.chk"
 Charge =  0 Multiplicity = 1

                         Standard orientation:
 ---------------------------------------------------------------------
 Center     Atomic      Atomic             Coordinates (Angstroms)
 Number     Number       Type             X           Y           Z
 ---------------------------------------------------------------------
      1          1           0        2.350130    0.506325   -0.535236
      2          1           0       -2.284991   -1.689848   -1.316080
      3          1           0       -2.485200   -0.415727   -0.435662
      4          1           0        2.736849   -1.674413   -1.164030
      5          1           0        1.637119   -1.475582   -0.040225
      6          1           0       -0.008181   -1.929490    1.576500
      7          1           0        2.815042    1.818807    0.173918
      8          1           0       -0.809818   -1.520350    0.317747
      9          1           0       -0.085782    0.468018    1.078200
     10          1           0        0.654058    1.593369    0.289488
     11          1           0       -1.496889    1.409711   -0.036087
     12          1           0       -3.034559    1.775432    0.073430
     13          8           0        2.572819   -1.250542   -0.283537
     14          8           0       -0.109496    1.429270    0.914133
     15          8           0       -2.350431   -1.406068   -0.393885
     16          8           0        0.063374   -1.392010    0.767820
     17          8           0        2.217901    1.495238   -0.544177
     18          8           0       -2.392639    1.265832   -0.458101
 ---------------------------------------------------------------------

 SCF Done:  E(RHF) =  -456.428525205     A.U. after    2 cycles

 The electronic state is 1-A.
 Alpha  occ. eigenvalues --  -20.59833 -20.58686 -20.57964 -20.57286 -20.56861
 Alpha  occ. eigenvalues --  -20.55386  -1.33783  -1.31409  -1.30946  -1.29982
 Alpha  occ. eigenvalues --   -1.29219  -1.27523  -0.75576  -0.73956  -0.73836
 Alpha  occ. eigenvalues --   -0.72326  -0.71613  -0.71072  -0.65044  -0.62288
 Alpha  occ. eigenvalues --   -0.60895  -0.60617  -0.58726  -0.56953  -0.54338
 Alpha  occ. eigenvalues --   -0.52967  -0.52836  -0.51821  -0.51384  -0.50016
 Alpha virt. eigenvalues --    0.02663   0.04600   0.04805   0.05208   0.05975
 Alpha virt. eigenvalues --    0.07768   0.08427   0.08854   0.08941   0.10103
 Alpha virt. eigenvalues --    0.10574   0.12515   0.16286   0.18302   0.19476

 Mulliken charges:
               1
     1  H    0.262329
     2  H    0.170725
     3  H    0.290131
     4  H    0.206892
     5  H    0.275629
     6  H    0.240087
     7  H    0.215812
     8  H    0.342436
     9  H    0.244073
    10  H    0.301605
    11  H    0.300553
    12  H    0.177537
    13  O   -0.446591
    14  O   -0.532632
    15  O   -0.451192
    16  O   -0.658094
    17  O   -0.477503
    18  O   -0.461797
 Sum of Mulliken charges =  -0.00000

 Dipole moment (field-independent basis, Debye):
    X=              0.0310    Y=             -2.7183    Z=              0.0013  Tot=              2.7185

 Test job not archived.
 1\1\GINC-SE097\SP\RHF\Aug-CC-pVDZ\H12O6\OHZDE\08-Apr-2025\0\\#t hf aug
 -cc-pvdz iop(5/13=1,5/36=2,99/5=2) pseudo=read geom=check guess=(read,
 tcheck) scf=(maxcycle=1)\\title\\0,1\H,0,2.35013,0.506327,-0.535236\H,
 0,-2.28499,-1.68985,-1.31608\H,0,-2.4852,-0.415729,-0.435662\H,0,2.736
 85,-1.67441,-1.16403\H,0,1.63712,-1.47558,-0.0402251\H,0,-0.0081798,-1
 .92949,1.5765\H,0,2.81504,1.81881,0.173918\H,0,-0.809817,-1.52035,0.31
 7747\H,0,-0.0857821,0.468018,1.0782\H,0,0.654057,1.59337,0.289488\H,0,
 -1.49689,1.40971,-0.0360874\H,0,-3.03456,1.77543,0.0734299\O,0,2.57282

 Normal termination of Gaussian 16 at Tue Apr  8 21:07:51 2025.
