 Gaussian 16, Revision C.01,

 ----------------------------------------------------------------------
 #t hf aug-cc-pvdz symm=none int=(grid=ultrafine) guess=(read,tcheck) s
 table=(opt,rrhf)
 ----------------------------------------------------------------------
 -----
 title
 -----
 Symbolic Z-matrix:
 Charge =  0 Multiplicity = 1

 SCF Done:  E(RHF) =  -809.798122285     A.U. after   14 cycles
 Normal termination of Gaussian 16 at Tue Apr  8 20:30:48 2025.
 Gaussian 16:  ES64L-G16RevC.01  3-Jul-2019

 ----------------------------------------------------------------------
 #t hf aug-cc-pvdz iop(5/13=1,5/36=2,99/5=2) pseudo=read geom=check gue
 ss=(read,tcheck) scf=(maxcycle=1)
 ----------------------------------------------------------------------
 -----
 title
 -----
 Structure from the checkpoint file:  "ANI1ccx_1634_conf8_mol1.chk"
 Charge =  0 Multiplicity = 1

                         Standard orientation:
 ---------------------------------------------------------------------
 Center     Atomic      Atomic             Coordinates (Angstroms)
 Number     Number       Type             X           Y           Z
 ---------------------------------------------------------------------
      1          6           0        3.406571   -0.010314    0.505799
      2          6           0        2.187931    0.764172    0.019084
      3          6           0        0.531862   -1.125170    0.461784
      4          6           0        0.137231   -1.807020   -0.884400
      5          6           0       -0.427902   -1.272550    1.619340
      6          6           0       -1.449949   -0.185952    1.913030
      7          6           0       -2.762699   -0.303213    1.168130
      8          6           0       -2.210478    1.258462   -0.645645
      9          1           0       -1.306031   -2.673989   -1.749710
     10          1           0       -3.965957    2.267313   -0.062433
     11          1           0       -2.665257    3.237632   -0.603147
     12          1           0       -1.094637    2.306301   -1.707040
     13          1           0       -2.290620   -0.782000   -0.786593
     14          1           0       -3.101150   -1.341077    1.198970
     15          1           0       -3.526709    0.341652    1.609460
     16          1           0       -1.719729   -0.314382    2.960060
     17          1           0       -0.996310    0.812600    1.783430
     18          1           0        0.217700   -1.373650    2.509840
     19          1           0       -0.912299   -2.255169    1.504250
     20          1           0        1.468220   -1.609921    0.748092
     21          1           0        0.207702    0.842164   -0.313428
     22          1           0        3.230021   -0.403516    1.506800
     23          1           0        3.504810   -0.935676   -0.096447
     24          1           0        4.653232    1.161397   -0.527763
     25          1           0        4.397622    1.548057    1.011770
     26          7           0        4.610271    0.756723    0.408736
     27          7           0        0.903566    0.272442    0.171918
     28          7           0       -2.655169    0.002050   -0.249517
     29          7           0       -1.205898    1.340501   -1.415950
     30          7           0       -2.955457    2.380172   -0.165604
     31          8           0        2.328822    1.879148   -0.420599
     32          8           0        0.844579   -1.927071   -1.832190
     33          8           0       -1.105551   -2.202259   -0.894205
 ---------------------------------------------------------------------

 SCF Done:  E(RHF) =  -810.044632362     A.U. after    2 cycles

 The electronic state is 1-A.
 Alpha  occ. eigenvalues --  -20.64993 -20.56793 -20.52337 -15.65308 -15.62707
 Alpha  occ. eigenvalues --  -15.62438 -15.59806 -15.59334 -11.40349 -11.36952
 Alpha  occ. eigenvalues --  -11.34653 -11.30662 -11.27788 -11.26648 -11.25153
 Alpha  occ. eigenvalues --  -11.24087  -1.46236  -1.34740  -1.34472  -1.27270
 Alpha  occ. eigenvalues --   -1.18889  -1.16342  -1.15375  -1.12078  -1.06693
 Alpha  occ. eigenvalues --   -1.00121  -0.92977  -0.92040  -0.86703  -0.82728
 Alpha  occ. eigenvalues --   -0.79930  -0.76471  -0.74529  -0.71632  -0.71258
 Alpha  occ. eigenvalues --   -0.69836  -0.69622  -0.68320  -0.67069  -0.65808
 Alpha  occ. eigenvalues --   -0.64098  -0.64028  -0.62885  -0.60313  -0.60068
 Alpha  occ. eigenvalues --   -0.58814  -0.56831  -0.56042  -0.54967  -0.53078
 Alpha  occ. eigenvalues --   -0.52396  -0.51741  -0.50546  -0.49819  -0.48753
 Alpha  occ. eigenvalues --   -0.47274  -0.43919  -0.43572  -0.40662  -0.39242
 Alpha  occ. eigenvalues --   -0.38258  -0.36390
 Alpha virt. eigenvalues --    0.02126   0.02723   0.03179   0.03941   0.05106
 Alpha virt. eigenvalues --    0.05438   0.05873   0.05994   0.06408   0.07017
 Alpha virt. eigenvalues --    0.07758   0.08306   0.08666   0.09191   0.09654

 Mulliken charges:
               1
     1  C    0.800620
     2  C    0.339041
     3  C   -0.163529
     4  C    0.883109
     5  C    0.231233
     6  C    0.518374
     7  C    0.682946
     8  C    0.558639
     9  H    0.301235
    10  H    0.002851
    11  H   -0.049544
    12  H   -0.023367
    13  H   -0.060303
    14  H   -0.127070
    15  H   -0.259543
    16  H   -0.110008
    17  H   -0.096767
    18  H   -0.045608
    19  H   -0.074491
    20  H   -0.100001
    21  H   -0.142292
    22  H   -0.092879
    23  H   -0.025083
    24  H    0.075347
    25  H    0.061314
    26  N   -0.418202
    27  N   -0.110473
    28  N   -0.217456
    29  N   -0.341502
    30  N   -0.164450
    31  O   -0.572137
    32  O   -0.513678
    33  O   -0.746327
 Sum of Mulliken charges =  -0.00000

 Dipole moment (field-independent basis, Debye):
    X=             -6.6132    Y=             -1.9219    Z=              2.7934  Tot=              7.4318

 Test job not archived.
 1\1\GINC-SE092\SP\RHF\Aug-CC-pVDZ\C8H17N5O3\OHZDE\08-Apr-2025\0\\#t hf
  aug-cc-pvdz iop(5/13=1,5/36=2,99/5=2) pseudo=read geom=check guess=(r
 ead,tcheck) scf=(maxcycle=1)\\title\\0,1\C,0,3.40657,-0.0103117,0.5057
 99\C,0,2.18793,0.764174,0.0190835\C,0,0.531862,-1.12517,0.461784\C,0,0
 .137232,-1.80702,-0.8844\C,0,-0.427902,-1.27255,1.61934\C,0,-1.44995,-
 0.185953,1.91303\C,0,-2.7627,-0.303215,1.16813\C,0,-2.21048,1.25846,-0
 .645645\H,0,-1.30603,-2.67399,-1.74971\H,0,-3.96596,2.26731,-0.0624331
 \H,0,-2.66526,3.23763,-0.603147\H,0,-1.09464,2.3063,-1.70704\H,0,-2.29

 Normal termination of Gaussian 16 at Tue Apr  8 20:31:38 2025.
