 Gaussian 16, Revision C.01,

 ----------------------------------------------------------------------
 #t hf aug-cc-pvdz symm=none int=(grid=ultrafine) guess=(read,tcheck) s
 table=(opt,rrhf)
 ----------------------------------------------------------------------
 -----
 title
 -----
 Symbolic Z-matrix:
 Charge =  0 Multiplicity = 1

 SCF Done:  E(RHF) =  -794.387760072     A.U. after   14 cycles
 Normal termination of Gaussian 16 at Tue Apr  8 20:03:07 2025.
 Gaussian 16:  ES64L-G16RevC.01  3-Jul-2019

 ----------------------------------------------------------------------
 #t hf aug-cc-pvdz iop(5/13=1,5/36=2,99/5=2) pseudo=read geom=check gue
 ss=(read,tcheck) scf=(maxcycle=1)
 ----------------------------------------------------------------------
 -----
 title
 -----
 Structure from the checkpoint file:  "ANI1ccx_1592_conf24_mol1.chk"
 Charge =  0 Multiplicity = 1

                         Standard orientation:
 ---------------------------------------------------------------------
 Center     Atomic      Atomic             Coordinates (Angstroms)
 Number     Number       Type             X           Y           Z
 ---------------------------------------------------------------------
      1          6           0       -0.792020    0.589301    0.342646
      2          6           0        0.364843    1.462919   -0.028157
      3          6           0       -2.144598    1.248590    0.151330
      4          6           0       -3.411639    0.341511    0.455015
      5          6           0       -3.343579   -0.746422   -0.493232
      6          6           0        2.174681   -0.362908    0.591471
      7          6           0        3.488751   -0.625254   -0.284434
      8          6           0        1.351481   -1.564301    0.516499
      9          1           0        2.691361    0.736514   -1.290970
     10          1           0        0.313263   -1.287351    0.912870
     11          1           0        1.302250   -2.112431   -0.399659
     12          1           0        1.871500   -2.196591    1.261610
     13          1           0        2.561461   -0.258172    1.587370
     14          1           0        2.251502    1.805828    0.349414
     15          1           0       -3.008230   -2.532400   -0.778788
     16          1           0       -4.424989    0.823202    0.352650
     17          1           0       -3.353009   -0.104157    1.425620
     18          1           0       -2.053248    2.087180    0.849386
     19          1           0       -2.269718    1.593270   -0.824121
     20          1           0       -0.772033   -0.277872   -0.347712
     21          1           0       -1.390089   -0.216891    2.253920
     22          1           0       -0.072406    0.684145    2.319050
     23          7           0       -0.648956    0.126167    1.722890
     24          7           0        1.668221    0.958312    0.113963
     25          8           0        0.377208    2.614709   -0.405827
     26          8           0       -3.268899   -0.532198   -1.707540
     27          8           0       -3.355330   -1.969130   -0.034605
     28          8           0        4.420201   -1.291132    0.028883
     29          8           0        3.463071    0.128219   -1.385340
 ---------------------------------------------------------------------

 SCF Done:  E(RHF) =  -794.634511423     A.U. after    2 cycles

 The electronic state is 1-A.
 Alpha  occ. eigenvalues --  -20.65664 -20.60791 -20.57798 -20.56798 -20.55963
 Alpha  occ. eigenvalues --  -15.67859 -15.64258 -11.41266 -11.40394 -11.39331
 Alpha  occ. eigenvalues --  -11.32557 -11.31690 -11.28190 -11.26563 -11.24166
 Alpha  occ. eigenvalues --   -1.46028  -1.42118  -1.39557  -1.33392  -1.32872
 Alpha  occ. eigenvalues --   -1.22707  -1.19914  -1.09312  -1.06226  -1.01951
 Alpha  occ. eigenvalues --   -0.93198  -0.89008  -0.84139  -0.82659  -0.78980
 Alpha  occ. eigenvalues --   -0.75647  -0.74218  -0.73113  -0.72898  -0.72372
 Alpha  occ. eigenvalues --   -0.69975  -0.68865  -0.67890  -0.66695  -0.65080
 Alpha  occ. eigenvalues --   -0.64221  -0.62263  -0.60742  -0.59968  -0.59274
 Alpha  occ. eigenvalues --   -0.57568  -0.56448  -0.56024  -0.53934  -0.53620
 Alpha  occ. eigenvalues --   -0.51277  -0.50083  -0.49361  -0.48506  -0.48290
 Alpha  occ. eigenvalues --   -0.45782  -0.42334  -0.40499
 Alpha virt. eigenvalues --    0.01717   0.02625   0.03220   0.03833   0.05274
 Alpha virt. eigenvalues --    0.05676   0.05781   0.06537   0.06763   0.07802
 Alpha virt. eigenvalues --    0.08220   0.08454   0.08914   0.09577   0.10155

 Mulliken charges:
               1
     1  C   -0.209831
     2  C    0.451908
     3  C    0.941291
     4  C    0.404013
     5  C    0.668648
     6  C    0.213131
     7  C    0.779053
     8  C    0.467529
     9  H    0.306059
    10  H    0.090398
    11  H   -0.101350
    12  H    0.051171
    13  H   -0.310050
    14  H    0.051117
    15  H    0.203316
    16  H    0.106362
    17  H   -0.171373
    18  H   -0.010556
    19  H   -0.175847
    20  H   -0.264399
    21  H   -0.152560
    22  H    0.039917
    23  N   -0.248876
    24  N   -0.567780
    25  O   -0.507664
    26  O   -0.616131
    27  O   -0.493626
    28  O   -0.455900
    29  O   -0.487971
 Sum of Mulliken charges =  -0.00000

 Dipole moment (field-independent basis, Debye):
    X=             -5.2187    Y=             -0.4643    Z=              5.3655  Tot=              7.4993

 Test job not archived.
 1\1\GINC-SE367\SP\RHF\Aug-CC-pVDZ\C8H14N2O5\OHZDE\08-Apr-2025\0\\#t hf
  aug-cc-pvdz iop(5/13=1,5/36=2,99/5=2) pseudo=read geom=check guess=(r
 ead,tcheck) scf=(maxcycle=1)\\title\\0,1\C,0,-0.792021,0.589302,0.3426
 46\C,0,0.364841,1.46292,-0.0281564\C,0,-2.1446,1.24859,0.15133\C,0,-3.
 41164,0.341511,0.455015\C,0,-3.34358,-0.746422,-0.493232\C,0,2.17468,-
 0.362906,0.591471\C,0,3.48875,-0.625252,-0.284434\C,0,1.35148,-1.5643,
 0.516499\H,0,2.69136,0.736516,-1.29097\H,0,0.313262,-1.28735,0.91287\H
 ,0,1.30225,-2.11243,-0.399659\H,0,1.8715,-2.19659,1.26161\H,0,2.56146,

 Normal termination of Gaussian 16 at Tue Apr  8 20:03:35 2025.
