 Gaussian 16, Revision C.01,

 ----------------------------------------------------------------------
 #t hf aug-cc-pvdz symm=none int=(grid=ultrafine) guess=(read,tcheck) s
 table=(opt,rrhf)
 ----------------------------------------------------------------------
 -----
 title
 -----
 Symbolic Z-matrix:
 Charge =  0 Multiplicity = 1

 SCF Done:  E(RHF) =  -376.431496459     A.U. after   14 cycles
 Normal termination of Gaussian 16 at Tue Apr  8 21:42:34 2025.
 Gaussian 16:  ES64L-G16RevC.01  3-Jul-2019

 ----------------------------------------------------------------------
 #t hf aug-cc-pvdz iop(5/13=1,5/36=2,99/5=2) pseudo=read geom=check gue
 ss=(read,tcheck) scf=(maxcycle=1)
 ----------------------------------------------------------------------
 -----
 title
 -----
 Structure from the checkpoint file:  "ANI1ccx_494_conf2_mol2.chk"
 Charge =  0 Multiplicity = 1

                         Standard orientation:
 ---------------------------------------------------------------------
 Center     Atomic      Atomic             Coordinates (Angstroms)
 Number     Number       Type             X           Y           Z
 ---------------------------------------------------------------------
      1          6           0        0.737841    0.126877   -0.021553
      2          6           0       -0.769951   -0.199930   -0.005069
      3          1           0        2.400412   -0.757518    0.035337
      4          1           0       -0.850152    1.683178   -0.065980
      5          8           0        1.441802   -0.977874   -0.048048
      6          8           0        1.131317    1.264643    0.059115
      7          8           0       -1.495582    0.942057   -0.038896
      8          8           0       -1.247237   -1.289743    0.051625
 ---------------------------------------------------------------------

 SCF Done:  E(RHF) =  -376.552241211     A.U. after    2 cycles

 The electronic state is 1-A.
 Alpha  occ. eigenvalues --  -20.67866 -20.64368 -20.62533 -20.60114 -11.45611
 Alpha  occ. eigenvalues --  -11.43401  -1.49001  -1.43963  -1.39399  -1.35799
 Alpha  occ. eigenvalues --   -0.98453  -0.86013  -0.82158  -0.77042  -0.71493
 Alpha  occ. eigenvalues --   -0.70842  -0.67945  -0.65137  -0.61945  -0.57934
 Alpha  occ. eigenvalues --   -0.55356  -0.52436  -0.48949
 Alpha virt. eigenvalues --    0.02537   0.04714   0.05351   0.08014   0.09011
 Alpha virt. eigenvalues --    0.10628   0.11629   0.11736   0.12570   0.13987
 Alpha virt. eigenvalues --    0.17948   0.19093   0.19779   0.21365   0.22838

 Mulliken charges:
               1
     1  C    0.567843
     2  C    0.608965
     3  H    0.218112
     4  H    0.247193
     5  O   -0.398261
     6  O   -0.435031
     7  O   -0.474560
     8  O   -0.334263
 Sum of Mulliken charges =   0.00000

 Dipole moment (field-independent basis, Debye):
    X=              3.4883    Y=              1.1434    Z=             -0.1742  Tot=              3.6750

 Test job not archived.
 1\1\GINC-SE041\SP\RHF\Aug-CC-pVDZ\C2H2O4\OHZDE\08-Apr-2025\0\\#t hf au
 g-cc-pvdz iop(5/13=1,5/36=2,99/5=2) pseudo=read geom=check guess=(read
 ,tcheck) scf=(maxcycle=1)\\title\\0,1\C,0,0.737841,0.126875,-0.0215526
 \C,0,-0.769951,-0.199928,-0.00506873\H,0,2.40041,-0.757524,0.0353369\H
 ,0,-0.850148,1.68318,-0.0659798\O,0,1.4418,-0.977878,-0.0480482\O,0,1.
 13132,1.26464,0.0591154\O,0,-1.49558,0.942061,-0.0388963\O,0,-1.24724,
 -1.28974,0.0516255\\Version=ES64L-G16RevC.01\State=1-A\HF=-376.5522412
 \RMSD=3.889e-03\Dipole=1.3724017,0.4498528,-0.0685332\Quadrupole=1.197

 Normal termination of Gaussian 16 at Tue Apr  8 21:42:37 2025.
