 Gaussian 16, Revision C.01,

 ----------------------------------------------------------------------
 #t hf aug-cc-pvdz symm=none int=(grid=ultrafine) guess=(read,tcheck) s
 table=(opt,rrhf)
 ----------------------------------------------------------------------
 -----
 title
 -----
 Symbolic Z-matrix:
 Charge =  0 Multiplicity = 1

 SCF Done:  E(RHF) =  -509.546510933     A.U. after   14 cycles
 Normal termination of Gaussian 16 at Tue Apr  8 22:08:46 2025.
 Gaussian 16:  ES64L-G16RevC.01  3-Jul-2019

 ----------------------------------------------------------------------
 #t hf aug-cc-pvdz iop(5/13=1,5/36=2,99/5=2) pseudo=read geom=check gue
 ss=(read,tcheck) scf=(maxcycle=1)
 ----------------------------------------------------------------------
 -----
 title
 -----
 Structure from the checkpoint file:  "ANI1ccx_939_conf20_mol1.chk"
 Charge =  0 Multiplicity = 1

                         Standard orientation:
 ---------------------------------------------------------------------
 Center     Atomic      Atomic             Coordinates (Angstroms)
 Number     Number       Type             X           Y           Z
 ---------------------------------------------------------------------
      1          6           0       -0.790615    0.538112   -0.731162
      2          6           0       -1.446909   -0.493330    0.074175
      3          6           0        0.696227    0.263501   -1.036820
      4          6           0        1.623131   -0.067308    0.097169
      5          1           0       -1.078739    2.582490   -0.774990
      6          1           0       -1.673169    1.768460    0.559687
      7          1           0       -1.271049    0.501288   -1.730280
      8          1           0        0.813594   -0.551610   -1.783620
      9          1           0        1.190821    1.134400   -1.495640
     10          1           0        2.282681    0.298004    1.745100
     11          1           0       -1.293099   -2.386670    0.353357
     12          7           0       -0.877532    1.819510   -0.086817
     13          8           0       -2.300789   -0.292272    0.861777
     14          8           0        2.673281   -0.677153   -0.177445
     15          8           0        1.461061    0.511198    1.276570
     16          8           0       -0.998466   -1.732870   -0.296661
 ---------------------------------------------------------------------

 SCF Done:  E(RHF) =  -509.705883486     A.U. after    2 cycles

 The electronic state is 1-A.
 Alpha  occ. eigenvalues --  -20.63883 -20.63584 -20.59032 -20.55375 -15.62418
 Alpha  occ. eigenvalues --  -11.41470 -11.40430 -11.30423 -11.26939  -1.44917
 Alpha  occ. eigenvalues --   -1.43540  -1.35902  -1.30730  -1.19055  -1.04474
 Alpha  occ. eigenvalues --   -0.96294  -0.85479  -0.81479  -0.75300  -0.74162
 Alpha  occ. eigenvalues --   -0.72422  -0.69478  -0.66812  -0.66604  -0.64191
 Alpha  occ. eigenvalues --   -0.63221  -0.59434  -0.58057  -0.56865  -0.53716
 Alpha  occ. eigenvalues --   -0.53095  -0.49689  -0.48008  -0.46670  -0.40544
 Alpha virt. eigenvalues --    0.02763   0.03691   0.04219   0.04910   0.05753
 Alpha virt. eigenvalues --    0.07045   0.07748   0.10300   0.10640   0.11275
 Alpha virt. eigenvalues --    0.12111   0.13111   0.13790   0.13921   0.14758

 Mulliken charges:
               1
     1  C    0.046989
     2  C    0.709244
     3  C    0.226882
     4  C    0.594904
     5  H    0.061719
     6  H    0.062000
     7  H    0.141990
     8  H    0.045852
     9  H    0.083055
    10  H    0.192011
    11  H    0.194359
    12  N   -0.299170
    13  O   -0.432451
    14  O   -0.585898
    15  O   -0.494457
    16  O   -0.547027
 Sum of Mulliken charges =  -0.00000

 Dipole moment (field-independent basis, Debye):
    X=             -1.7045    Y=              0.8070    Z=             -1.0985  Tot=              2.1825

 Test job not archived.
 1\1\GINC-SE340\SP\RHF\Aug-CC-pVDZ\C4H7N1O4\OHZDE\08-Apr-2025\0\\#t hf
 aug-cc-pvdz iop(5/13=1,5/36=2,99/5=2) pseudo=read geom=check guess=(re
 ad,tcheck) scf=(maxcycle=1)\\title\\0,1\C,0,-0.790616,0.538112,-0.7311
 62\C,0,-1.44691,-0.49333,0.0741748\C,0,0.696226,0.263501,-1.03682\C,0,
 1.62313,-0.0673079,0.0971684\H,0,-1.07874,2.58249,-0.77499\H,0,-1.6731
 7,1.76846,0.559687\H,0,-1.27105,0.501288,-1.73028\H,0,0.813593,-0.5516
 1,-1.78362\H,0,1.19082,1.1344,-1.49564\H,0,2.28268,0.298004,1.7451\H,0
 ,-1.2931,-2.38667,0.353357\N,0,-0.877533,1.81951,-0.086817\O,0,-2.3007

 Normal termination of Gaussian 16 at Tue Apr  8 22:08:52 2025.
