 Gaussian 16, Revision C.01,

 ----------------------------------------------------------------------
 #t hf aug-cc-pvdz symm=none int=(grid=ultrafine) guess=(read,tcheck) s
 table=(opt,rrhf)
 ----------------------------------------------------------------------
 -----
 title
 -----
 Symbolic Z-matrix:
 Charge =  0 Multiplicity = 1

 SCF Done:  E(RHF) =  -578.800996827     A.U. after   14 cycles
 Normal termination of Gaussian 16 at Tue Apr  8 22:14:53 2025.
 Gaussian 16:  ES64L-G16RevC.01  3-Jul-2019

 ----------------------------------------------------------------------
 #t hf aug-cc-pvdz iop(5/13=1,5/36=2,99/5=2) pseudo=read geom=check gue
 ss=(read,tcheck) scf=(maxcycle=1)
 ----------------------------------------------------------------------
 -----
 title
 -----
 Structure from the checkpoint file:  "ANI1ccx_987_conf3_mol2.chk"
 Charge =  0 Multiplicity = 1

                         Standard orientation:
 ---------------------------------------------------------------------
 Center     Atomic      Atomic             Coordinates (Angstroms)
 Number     Number       Type             X           Y           Z
 ---------------------------------------------------------------------
      1          6           0        2.109430   -0.449000    0.006487
      2          6           0        0.432789    1.162650    0.072692
      3          6           0       -1.783330    0.432924    0.880774
      4          6           0       -2.211461   -0.620145   -0.200392
      5          1           0       -0.364281   -1.279970   -0.194755
      6          1           0       -2.299170    0.161129    1.822050
      7          1           0       -2.317360    1.305271    0.565781
      8          1           0        0.417010    2.693910   -1.240200
      9          1           0        0.079620   -0.166075    1.498830
     10          1           0        1.874069   -2.277500    0.568287
     11          1           0        3.870560    0.249369   -0.671847
     12          1           0        3.882919   -1.404611   -0.196662
     13          1           0       -0.815666    2.764880   -0.086524
     14          7           0        3.425960   -0.532342   -0.184850
     15          7           0        1.350329   -1.403190    0.438399
     16          7           0        1.630660    0.823618   -0.299677
     17          7           0       -0.165631    2.169870   -0.579047
     18          7           0       -0.358257    0.582984    1.015720
     19          8           0       -1.232081   -1.387430   -0.665537
     20          8           0       -3.367131   -0.699015   -0.503984
 ---------------------------------------------------------------------

 SCF Done:  E(RHF) =  -578.977910523     A.U. after    2 cycles

 The electronic state is 1-A.
 Alpha  occ. eigenvalues --  -20.59416 -20.54339 -15.66570 -15.66055 -15.65200
 Alpha  occ. eigenvalues --  -15.60588 -15.59110 -11.39824 -11.38415 -11.37119
 Alpha  occ. eigenvalues --  -11.30286  -1.40014  -1.32446  -1.31314  -1.26676
 Alpha  occ. eigenvalues --   -1.18751  -1.14497  -1.10975  -0.98802  -0.88351
 Alpha  occ. eigenvalues --   -0.83538  -0.82047  -0.75837  -0.73802  -0.72753
 Alpha  occ. eigenvalues --   -0.70356  -0.68335  -0.66851  -0.65461  -0.63291
 Alpha  occ. eigenvalues --   -0.61811  -0.59288  -0.56547  -0.56316  -0.55729
 Alpha  occ. eigenvalues --   -0.48239  -0.47614  -0.45223  -0.43180  -0.41041
 Alpha  occ. eigenvalues --   -0.39515  -0.35856
 Alpha virt. eigenvalues --    0.02399   0.02468   0.03277   0.04889   0.05718
 Alpha virt. eigenvalues --    0.05865   0.07734   0.08586   0.08982   0.09936
 Alpha virt. eigenvalues --    0.10955   0.12031   0.12973   0.13309   0.13644

 Mulliken charges:
               1
     1  C    0.876152
     2  C    0.622409
     3  C    0.628987
     4  C    0.509078
     5  H    0.328976
     6  H   -0.025132
     7  H   -0.131995
     8  H    0.005495
     9  H    0.041210
    10  H   -0.057247
    11  H    0.024694
    12  H   -0.062045
    13  H    0.007027
    14  N   -0.169889
    15  N   -0.467019
    16  N   -0.648486
    17  N   -0.149288
    18  N   -0.378366
    19  O   -0.452379
    20  O   -0.502181
 Sum of Mulliken charges =   0.00000

 Dipole moment (field-independent basis, Debye):
    X=              5.2528    Y=              3.2131    Z=              2.1542  Tot=              6.5235

 Test job not archived.
 1\1\GINC-SE332\SP\RHF\Aug-CC-pVDZ\C4H9N5O2\OHZDE\08-Apr-2025\0\\#t hf
 aug-cc-pvdz iop(5/13=1,5/36=2,99/5=2) pseudo=read geom=check guess=(re
 ad,tcheck) scf=(maxcycle=1)\\title\\0,1\C,0,2.10943,-0.449,0.006487\C,
 0,0.432789,1.16265,0.0726917\C,0,-1.78333,0.432924,0.880774\C,0,-2.211
 46,-0.620146,-0.200392\H,0,-0.36428,-1.27997,-0.194755\H,0,-2.29917,0.
 161128,1.82205\H,0,-2.31736,1.30527,0.565781\H,0,0.41701,2.69391,-1.24
 02\H,0,0.0796204,-0.166075,1.49883\H,0,1.87407,-2.2775,0.568287\H,0,3.
 87056,0.24937,-0.671847\H,0,3.88292,-1.40461,-0.196662\H,0,-0.815666,2

 Normal termination of Gaussian 16 at Tue Apr  8 22:15:04 2025.
