 Gaussian 16, Revision C.01,

 ----------------------------------------------------------------------
 #t hf aug-cc-pvdz symm=none int=(grid=ultrafine) guess=(read,tcheck) s
 table=(opt,rrhf)
 ----------------------------------------------------------------------
 -----
 title
 -----
 Symbolic Z-matrix:
 Charge =  0 Multiplicity = 1

 SCF Done:  E(RHF) =  -313.639245105     A.U. after   14 cycles
 Normal termination of Gaussian 16 at Tue Apr  8 21:09:16 2025.
 Gaussian 16:  ES64L-G16RevC.01  3-Jul-2019

 ----------------------------------------------------------------------
 #t hf aug-cc-pvdz iop(5/13=1,5/36=2,99/5=2) pseudo=read geom=check gue
 ss=(read,tcheck) scf=(maxcycle=1)
 ----------------------------------------------------------------------
 -----
 title
 -----
 Structure from the checkpoint file:  "ANI1ccx_1854_conf5_mol2.chk"
 Charge =  0 Multiplicity = 1

                         Standard orientation:
 ---------------------------------------------------------------------
 Center     Atomic      Atomic             Coordinates (Angstroms)
 Number     Number       Type             X           Y           Z
 ---------------------------------------------------------------------
      1          1           0        0.191350    0.978584    0.415470
      2          7           0       -3.222512   -0.316853   -0.259728
      3          7           0       -2.322282    0.033500    0.276351
      4          7           0        1.569388   -0.212867    0.401579
      5          8           0        0.931462    0.843993   -0.202371
      6          8           0        2.523098   -0.532123   -0.215489
 ---------------------------------------------------------------------

 SCF Done:  E(RHF) =  -313.735792121     A.U. after    2 cycles

 The electronic state is 1-A.
 Alpha  occ. eigenvalues --  -20.66547 -20.66236 -15.85672 -15.77543 -15.77182
 Alpha  occ. eigenvalues --   -1.55337  -1.43801  -1.38096  -0.93752  -0.80301
 Alpha  occ. eigenvalues --   -0.77364  -0.74330  -0.69977  -0.64360  -0.63251
 Alpha  occ. eigenvalues --   -0.62189  -0.62174  -0.54388  -0.47316
 Alpha virt. eigenvalues --    0.04341   0.08329   0.09189   0.10576   0.11131
 Alpha virt. eigenvalues --    0.11880   0.12079   0.13326   0.15349   0.15457
 Alpha virt. eigenvalues --    0.17865   0.19989   0.20971   0.22380   0.23599

 Mulliken charges:
               1
     1  H    0.260121
     2  N   -0.009653
     3  N    0.003677
     4  N    0.526416
     5  O   -0.437389
     6  O   -0.343172
 Sum of Mulliken charges =  -0.00000

 Dipole moment (field-independent basis, Debye):
    X=             -2.4314    Y=              0.6601    Z=              1.4173  Tot=              2.8907

 Test job not archived.
 1\1\GINC-SE150\SP\RHF\Aug-CC-pVDZ\H1N3O2\OHZDE\08-Apr-2025\0\\#t hf au
 g-cc-pvdz iop(5/13=1,5/36=2,99/5=2) pseudo=read geom=check guess=(read
 ,tcheck) scf=(maxcycle=1)\\title\\0,1\H,0,0.191352,0.978584,0.41547\N,
 0,-3.22251,-0.316853,-0.259728\N,0,-2.32228,0.0335004,0.276351\N,0,1.5
 6939,-0.212867,0.401579\O,0,0.931464,0.843993,-0.202371\O,0,2.5231,-0.
 532123,-0.215489\\Version=ES64L-G16RevC.01\State=1-A\HF=-313.7357921\R
 MSD=2.786e-03\Dipole=-0.9566029,0.2597035,0.5575932\Quadrupole=-2.3832
 071,1.3205061,1.062701,0.1622233,0.7761366,1.1000744\PG=C01 [X(H1N3O2)

 Normal termination of Gaussian 16 at Tue Apr  8 21:09:18 2025.
