 Gaussian 16, Revision C.01,

 ----------------------------------------------------------------------
 #t hf aug-cc-pvdz symm=none int=(grid=ultrafine) guess=(read,tcheck) s
 table=(opt,rrhf)
 ----------------------------------------------------------------------
 -----
 title
 -----
 Symbolic Z-matrix:
 Charge =  0 Multiplicity = 1

 SCF Done:  E(RHF) =  -689.345842286     A.U. after   15 cycles
 Normal termination of Gaussian 16 at Tue Apr  8 21:52:41 2025.
 Gaussian 16:  ES64L-G16RevC.01  3-Jul-2019

 ----------------------------------------------------------------------
 #t hf aug-cc-pvdz iop(5/13=1,5/36=2,99/5=2) pseudo=read geom=check gue
 ss=(read,tcheck) scf=(maxcycle=1)
 ----------------------------------------------------------------------
 -----
 title
 -----
 Structure from the checkpoint file:  "ANI1ccx_756_conf5_mol1.chk"
 Charge =  0 Multiplicity = 1

                         Standard orientation:
 ---------------------------------------------------------------------
 Center     Atomic      Atomic             Coordinates (Angstroms)
 Number     Number       Type             X           Y           Z
 ---------------------------------------------------------------------
      1          6           0       -2.762121   -0.208679   -0.195067
      2          6           0        0.022969    1.413460    0.491742
      3          6           0        1.954229    0.119402    0.079428
      4          1           0        3.738399    0.946024    0.420567
      5          1           0       -0.511646    1.868740    1.351940
      6          1           0       -0.381694    0.339903   -1.163240
      7          1           0        3.828279   -1.525411   -0.550451
      8          1           0       -2.472091   -2.085080    0.610904
      9          1           0       -0.159633   -1.302320    0.636608
     10          1           0       -2.691941    1.652500   -0.882918
     11          7           0       -1.963901   -1.252220    0.290761
     12          7           0       -2.106131    0.999650   -0.358052
     13          7           0       -0.772582    1.074900   -0.580477
     14          7           0        1.294779    1.164410    0.659728
     15          7           0        3.304669    0.027851    0.353723
     16          8           0        1.461909   -0.800278   -0.583597
     17          8           0       -0.925087   -0.989915    1.106090
     18          8           0       -3.918051   -0.349535   -0.473157
     19          8           0        4.013979   -0.602968   -0.704308
 ---------------------------------------------------------------------

 SCF Done:  E(RHF) =  -689.555399022     A.U. after    2 cycles

 The electronic state is 1-A.
 Alpha  occ. eigenvalues --  -20.63595 -20.62521 -20.56307 -20.56213 -15.72465
 Alpha  occ. eigenvalues --  -15.71419 -15.71087 -15.70929 -15.63971 -11.42097
 Alpha  occ. eigenvalues --  -11.41388 -11.40195  -1.44514  -1.41474  -1.39245
 Alpha  occ. eigenvalues --   -1.35653  -1.33743  -1.22874  -1.14838  -1.12198
 Alpha  occ. eigenvalues --   -1.08670  -0.92571  -0.87595  -0.83500  -0.79534
 Alpha  occ. eigenvalues --   -0.77998  -0.77627  -0.72248  -0.71415  -0.70335
 Alpha  occ. eigenvalues --   -0.68375  -0.66970  -0.66303  -0.64395  -0.61944
 Alpha  occ. eigenvalues --   -0.60694  -0.58887  -0.54622  -0.53509  -0.50993
 Alpha  occ. eigenvalues --   -0.48296  -0.46644  -0.44193  -0.43003  -0.42793
 Alpha  occ. eigenvalues --   -0.40726
 Alpha virt. eigenvalues --    0.02966   0.03475   0.03911   0.04149   0.05688
 Alpha virt. eigenvalues --    0.06668   0.06828   0.08204   0.09231   0.10695
 Alpha virt. eigenvalues --    0.11811   0.12359   0.12977   0.13780   0.14357

 Mulliken charges:
               1
     1  C    0.748172
     2  C    0.980066
     3  C    0.829531
     4  H    0.112649
     5  H   -0.274431
     6  H    0.055394
     7  H    0.182925
     8  H    0.033396
     9  H    0.261148
    10  H    0.020077
    11  N    0.038317
    12  N   -0.333719
    13  N   -0.033204
    14  N   -0.451493
    15  N   -0.141398
    16  O   -0.585848
    17  O   -0.554982
    18  O   -0.426763
    19  O   -0.459836
 Sum of Mulliken charges =  -0.00000

 Dipole moment (field-independent basis, Debye):
    X=              0.9213    Y=              1.3971    Z=              0.6654  Tot=              1.8010

 Test job not archived.
 1\1\GINC-SE424\SP\RHF\Aug-CC-pVDZ\C3H7N5O4\OHZDE\08-Apr-2025\0\\#t hf
 aug-cc-pvdz iop(5/13=1,5/36=2,99/5=2) pseudo=read geom=check guess=(re
 ad,tcheck) scf=(maxcycle=1)\\title\\0,1\C,0,-2.76212,-0.208679,-0.1950
 67\C,0,0.0229693,1.41346,0.491742\C,0,1.95423,0.119403,0.0794285\H,0,3
 .7384,0.946025,0.420567\H,0,-0.511645,1.86874,1.35194\H,0,-0.381693,0.
 339903,-1.16324\H,0,3.82828,-1.52541,-0.550451\H,0,-2.47209,-2.08508,0
 .610904\H,0,-0.159632,-1.30232,0.636608\H,0,-2.69194,1.6525,-0.882918\
 N,0,-1.9639,-1.25222,0.290761\N,0,-2.10613,0.99965,-0.358052\N,0,-0.77

 Normal termination of Gaussian 16 at Tue Apr  8 21:52:52 2025.
