 Gaussian 16, Revision C.01,

 ----------------------------------------------------------------------
 #t hf aug-cc-pvdz symm=none int=(grid=ultrafine) guess=(read,tcheck) s
 table=(opt,rrhf)
 ----------------------------------------------------------------------
 -----
 title
 -----
 Symbolic Z-matrix:
 Charge =  0 Multiplicity = 1

 SCF Done:  E(RHF) =  -600.299705997     A.U. after   17 cycles
 Normal termination of Gaussian 16 at Tue Apr  8 20:18:32 2025.
 Gaussian 16:  ES64L-G16RevC.01  3-Jul-2019

 ----------------------------------------------------------------------
 #t hf aug-cc-pvdz iop(5/13=1,5/36=2,99/5=2) pseudo=read geom=check gue
 ss=(read,tcheck) scf=(maxcycle=1)
 ----------------------------------------------------------------------
 -----
 title
 -----
 Structure from the checkpoint file:  "ANI1ccx_1685_conf1_mol1.chk"
 Charge =  0 Multiplicity = 1

                         Standard orientation:
 ---------------------------------------------------------------------
 Center     Atomic      Atomic             Coordinates (Angstroms)
 Number     Number       Type             X           Y           Z
 ---------------------------------------------------------------------
      1          6           0       -1.616959   -0.113108    0.009706
      2          6           0        0.725304   -0.652359    0.088424
      3          6           0        1.807143   -1.570159    0.086784
      4          6           0        3.116162   -1.200698    0.046159
      5          6           0        3.397271    0.206655   -0.075310
      6          6           0        2.393940    1.143242   -0.018675
      7          6           0        1.068960    0.721386    0.016973
      8          6           0       -1.311940    1.338918    0.054474
      9          1           0        0.214700    2.633589   -0.146618
     10          1           0        2.550569    2.264622   -0.155762
     11          1           0        4.399300    0.569759   -0.201657
     12          1           0        3.902853   -1.921747    0.019604
     13          1           0       -0.944335   -1.899262   -0.535895
     14          1           0       -2.483137   -2.223023    0.642253
     15          1           0       -4.008887   -2.035555   -0.077300
     16          1           0        1.595294   -2.642999    0.148961
     17          7           0        0.009078    1.630999   -0.109060
     18          7           0       -3.028687   -1.799194   -0.124006
     19          7           0       -2.880819   -0.444862   -0.078079
     20          7           0       -0.612650   -1.056381    0.023467
     21          8           0       -2.139261    2.212177    0.133618
 ---------------------------------------------------------------------

 SCF Done:  E(RHF) =  -600.472997983     A.U. after    2 cycles

 The electronic state is 1-A.
 Alpha  occ. eigenvalues --  -20.54594 -15.68375 -15.67845 -15.66487 -15.66269
 Alpha  occ. eigenvalues --  -11.38108 -11.33159 -11.31622 -11.31458 -11.26932
 Alpha  occ. eigenvalues --  -11.26635 -11.26432 -11.25950  -1.37263  -1.31129
 Alpha  occ. eigenvalues --   -1.26242  -1.20534  -1.14613  -1.06324  -1.03195
 Alpha  occ. eigenvalues --   -1.00044  -0.91390  -0.87020  -0.85111  -0.77349
 Alpha  occ. eigenvalues --   -0.75062  -0.72903  -0.72443  -0.69813  -0.65687
 Alpha  occ. eigenvalues --   -0.65370  -0.64224  -0.63393  -0.61334  -0.59937
 Alpha  occ. eigenvalues --   -0.56597  -0.55883  -0.55264  -0.51712  -0.49793
 Alpha  occ. eigenvalues --   -0.45843  -0.45698  -0.44511  -0.36622  -0.34373
 Alpha  occ. eigenvalues --   -0.29069
 Alpha virt. eigenvalues --    0.02509   0.02868   0.03895   0.04842   0.05094
 Alpha virt. eigenvalues --    0.05532   0.07443   0.08120   0.09092   0.09391
 Alpha virt. eigenvalues --    0.09671   0.09743   0.10946   0.11363   0.11697

 Mulliken charges:
               1
     1  C    0.776749
     2  C   -0.274729
     3  C    1.386345
     4  C    0.445270
     5  C    0.852191
     6  C    0.072881
     7  C    0.524190
     8  C    0.377753
     9  H   -0.029248
    10  H   -0.439460
    11  H   -0.473412
    12  H   -0.482534
    13  H    0.086759
    14  H    0.118401
    15  H    0.001241
    16  H   -0.563994
    17  N   -0.541308
    18  N   -0.035010
    19  N   -0.554771
    20  N   -0.740620
    21  O   -0.506694
 Sum of Mulliken charges =  -0.00000

 Dipole moment (field-independent basis, Debye):
    X=              4.1134    Y=             -3.4613    Z=              0.0694  Tot=              5.3764

 Test job not archived.
 1\1\GINC-SE460\SP\RHF\Aug-CC-pVDZ\C8H8N4O1\OHZDE\08-Apr-2025\0\\#t hf
 aug-cc-pvdz iop(5/13=1,5/36=2,99/5=2) pseudo=read geom=check guess=(re
 ad,tcheck) scf=(maxcycle=1)\\title\\0,1\C,0,-1.61696,-0.113106,0.00970
 586\C,0,0.725302,-0.652359,0.0884242\C,0,1.80714,-1.57016,0.0867835\C,
 0,3.11616,-1.2007,0.0461586\C,0,3.39727,0.206652,-0.0753096\C,0,2.3939
 4,1.14324,-0.0186749\C,0,1.06896,0.721386,0.0169734\C,0,-1.31194,1.338
 92,0.054474\H,0,0.214702,2.63359,-0.146618\H,0,2.55057,2.26462,-0.1557
 62\H,0,4.3993,0.569755,-0.201657\H,0,3.90285,-1.92175,0.0196039\H,0,-0

 Normal termination of Gaussian 16 at Tue Apr  8 20:18:48 2025.
