 Gaussian 16, Revision C.01,

 ----------------------------------------------------------------------
 #t hf aug-cc-pvdz symm=none int=(grid=ultrafine) guess=(read,tcheck) s
 table=(opt,rrhf)
 ----------------------------------------------------------------------
 -----
 title
 -----
 Symbolic Z-matrix:
 Charge =  0 Multiplicity = 1

 SCF Done:  E(RHF) =  -461.461248475     A.U. after   16 cycles
 Normal termination of Gaussian 16 at Tue Apr  8 21:33:48 2025.
 Gaussian 16:  ES64L-G16RevC.01  3-Jul-2019

 ----------------------------------------------------------------------
 #t hf aug-cc-pvdz iop(5/13=1,5/36=2,99/5=2) pseudo=read geom=check gue
 ss=(read,tcheck) scf=(maxcycle=1)
 ----------------------------------------------------------------------
 -----
 title
 -----
 Structure from the checkpoint file:  "ANI1ccx_394_conf3_mol1.chk"
 Charge =  0 Multiplicity = 1

                         Standard orientation:
 ---------------------------------------------------------------------
 Center     Atomic      Atomic             Coordinates (Angstroms)
 Number     Number       Type             X           Y           Z
 ---------------------------------------------------------------------
      1          6           0        0.051393    0.667359    0.032061
      2          1           0        2.663490    0.624851    0.634685
      3          1           0        2.361700    0.620569   -0.895267
      4          1           0       -2.631230    0.181316    0.966126
      5          7           0        2.333210    0.027638   -0.080925
      6          7           0        0.993847   -0.268513    0.226482
      7          7           0        0.468378   -1.515711    0.119097
      8          7           0       -0.711561   -1.547431   -0.128476
      9          7           0       -1.067841   -0.089550   -0.285368
     10          8           0       -2.298740    0.423630    0.024551
     11          8           0        0.196921    1.866879   -0.006249
 ---------------------------------------------------------------------

 SCF Done:  E(RHF) =  -461.596553015     A.U. after    2 cycles

 The electronic state is 1-A.
 Alpha  occ. eigenvalues --  -20.66897 -20.57012 -15.77663 -15.77482 -15.76592
 Alpha  occ. eigenvalues --  -15.76132 -15.69970 -11.42235  -1.50673  -1.41296
 Alpha  occ. eigenvalues --   -1.38196  -1.29589  -1.15757  -1.11237  -0.92771
 Alpha  occ. eigenvalues --   -0.86134  -0.80409  -0.76589  -0.74807  -0.69800
 Alpha  occ. eigenvalues --   -0.68177  -0.63674  -0.61363  -0.59556  -0.57498
 Alpha  occ. eigenvalues --   -0.54042  -0.50130  -0.46651  -0.44160  -0.41528
 Alpha virt. eigenvalues --    0.02609   0.03263   0.04908   0.08936   0.09638
 Alpha virt. eigenvalues --    0.10545   0.10625   0.12745   0.12947   0.13544
 Alpha virt. eigenvalues --    0.15471   0.16044   0.16839   0.17791   0.18513

 Mulliken charges:
               1
     1  C    0.845796
     2  H    0.073316
     3  H    0.050161
     4  H    0.247628
     5  N    0.081370
     6  N   -0.174155
     7  N   -0.044592
     8  N   -0.103929
     9  N    0.019082
    10  O   -0.578622
    11  O   -0.416056
 Sum of Mulliken charges =  -0.00000

 Dipole moment (field-independent basis, Debye):
    X=              0.6412    Y=             -0.7715    Z=              1.7923  Tot=              2.0539

 Test job not archived.
 1\1\GINC-SE365\SP\RHF\Aug-CC-pVDZ\C1H3N5O2\OHZDE\08-Apr-2025\0\\#t hf
 aug-cc-pvdz iop(5/13=1,5/36=2,99/5=2) pseudo=read geom=check guess=(re
 ad,tcheck) scf=(maxcycle=1)\\title\\0,1\C,0,0.0513936,0.66736,0.032060
 7\H,0,2.66349,0.624853,0.634685\H,0,2.3617,0.620571,-0.895267\H,0,-2.6
 3123,0.181316,0.966126\N,0,2.33321,0.0276399,-0.0809246\N,0,0.993848,-
 0.268512,0.226482\N,0,0.468379,-1.51571,0.119097\N,0,-0.71156,-1.54743
 ,-0.128476\N,0,-1.06784,-0.08955,-0.285368\O,0,-2.29874,0.42363,0.0245
 514\O,0,0.196921,1.86688,-0.00624915\\Version=ES64L-G16RevC.01\State=1

 Normal termination of Gaussian 16 at Tue Apr  8 21:33:52 2025.
