 Gaussian 16, Revision C.01,

 ----------------------------------------------------------------------
 #t hf aug-cc-pvdz symm=none int=(grid=ultrafine) guess=(read,tcheck) s
 table=(opt,rrhf)
 ----------------------------------------------------------------------
 -----
 title
 -----
 Symbolic Z-matrix:
 Charge =  0 Multiplicity = 1

 SCF Done:  E(RHF) =  -700.072104731     A.U. after   16 cycles
 Normal termination of Gaussian 16 at Tue Apr  8 20:58:12 2025.
 Gaussian 16:  ES64L-G16RevC.01  3-Jul-2019

 ----------------------------------------------------------------------
 #t hf aug-cc-pvdz iop(5/13=1,5/36=2,99/5=2) pseudo=read geom=check gue
 ss=(read,tcheck) scf=(maxcycle=1)
 ----------------------------------------------------------------------
 -----
 title
 -----
 Structure from the checkpoint file:  "ANI1ccx_1838_conf2_mol1.chk"
 Charge =  0 Multiplicity = 1

                         Standard orientation:
 ---------------------------------------------------------------------
 Center     Atomic      Atomic             Coordinates (Angstroms)
 Number     Number       Type             X           Y           Z
 ---------------------------------------------------------------------
      1          6           0       -3.315199   -0.105815   -0.329306
      2          6           0       -2.611749   -0.866715    0.797341
      3          6           0       -0.283213    0.053065    0.476198
      4          6           0        1.124241   -0.206694    0.108499
      5          6           0        1.683381   -1.496710    0.103121
      6          6           0        3.043341   -1.644850   -0.136810
      7          6           0        3.859021   -0.554597   -0.399757
      8          6           0        3.330731    0.710683   -0.383891
      9          6           0        1.951001    0.891448   -0.057189
     10          1           0        0.630138    2.125510    0.331819
     11          1           0        3.866911    1.609240   -0.599209
     12          1           0        4.923621   -0.662653   -0.693562
     13          1           0        3.493941   -2.671970   -0.073536
     14          1           0       -2.687379   -0.461470    1.798730
     15          1           0       -0.978563   -1.666540   -0.265395
     16          1           0       -2.936619   -1.925710    0.749031
     17          1           0       -2.173879    1.240110    0.144753
     18          1           0        1.057041   -2.336520    0.440434
     19          7           0       -1.155699   -0.957919    0.455062
     20          8           0       -0.656400    1.223600    0.814199
     21          8           0       -3.007309    1.165020   -0.390875
     22          8           0       -4.066149   -0.672323   -1.128370
     23          8           0        1.505531    2.130770   -0.055922
 ---------------------------------------------------------------------

 SCF Done:  E(RHF) =  -700.283712099     A.U. after    2 cycles

 The electronic state is 1-A.
 Alpha  occ. eigenvalues --  -20.61663 -20.60197 -20.59211 -20.56144 -15.70425
 Alpha  occ. eigenvalues --  -11.42284 -11.40622 -11.34659 -11.32954 -11.29099
 Alpha  occ. eigenvalues --  -11.28269 -11.27470 -11.26579 -11.25907  -1.42987
 Alpha  occ. eigenvalues --   -1.40983  -1.37716  -1.31799  -1.25018  -1.17156
 Alpha  occ. eigenvalues --   -1.07376  -1.02729  -1.01504  -0.90690  -0.85878
 Alpha  occ. eigenvalues --   -0.85798  -0.83177  -0.78348  -0.77168  -0.74628
 Alpha  occ. eigenvalues --   -0.71149  -0.70409  -0.68121  -0.66862  -0.64912
 Alpha  occ. eigenvalues --   -0.64515  -0.63252  -0.61756  -0.61039  -0.60977
 Alpha  occ. eigenvalues --   -0.59106  -0.57758  -0.55883  -0.53618  -0.51354
 Alpha  occ. eigenvalues --   -0.49798  -0.48625  -0.48385  -0.44506  -0.38305
 Alpha  occ. eigenvalues --   -0.33868
 Alpha virt. eigenvalues --    0.02118   0.03032   0.03703   0.04257   0.04856
 Alpha virt. eigenvalues --    0.05174   0.05849   0.06538   0.07435   0.08483
 Alpha virt. eigenvalues --    0.09429   0.09630   0.10423   0.10517   0.11469

 Mulliken charges:
               1
     1  C    0.728148
     2  C    0.645925
     3  C   -0.146088
     4  C    1.584843
     5  C    0.212578
     6  C    0.375958
     7  C    0.276485
     8  C    1.385164
     9  C   -0.826810
    10  H    0.199682
    11  H   -0.549874
    12  H   -0.357297
    13  H   -0.374236
    14  H   -0.158591
    15  H    0.023382
    16  H   -0.168600
    17  H    0.319953
    18  H   -0.580995
    19  N   -0.282294
    20  O   -0.856631
    21  O   -0.444006
    22  O   -0.521954
    23  O   -0.484741
 Sum of Mulliken charges =  -0.00000

 Dipole moment (field-independent basis, Debye):
    X=              4.5452    Y=             -4.1151    Z=              2.7546  Tot=              6.7216

 Test job not archived.
 1\1\GINC-SE150\SP\RHF\Aug-CC-pVDZ\C9H9N1O4\OHZDE\08-Apr-2025\0\\#t hf
 aug-cc-pvdz iop(5/13=1,5/36=2,99/5=2) pseudo=read geom=check guess=(re
 ad,tcheck) scf=(maxcycle=1)\\title\\0,1\C,0,-3.3152,-0.105815,-0.32930
 6\C,0,-2.61175,-0.866715,0.797341\C,0,-0.283214,0.0530644,0.476198\C,0
 ,1.12424,-0.206694,0.108499\C,0,1.68338,-1.49671,0.103121\C,0,3.04334,
 -1.64485,-0.13681\C,0,3.85902,-0.554597,-0.399757\C,0,3.33073,0.710683
 ,-0.383891\C,0,1.951,0.891448,-0.0571886\H,0,0.630137,2.12551,0.331819
 \H,0,3.86691,1.60924,-0.599209\H,0,4.92362,-0.662653,-0.693562\H,0,3.4

 Normal termination of Gaussian 16 at Tue Apr  8 20:58:33 2025.
