 Gaussian 16, Revision C.01,

 ----------------------------------------------------------------------
 #t hf aug-cc-pvdz symm=none int=(grid=ultrafine) guess=(read,tcheck) s
 table=(opt,rrhf)
 ----------------------------------------------------------------------
 -----
 title
 -----
 Symbolic Z-matrix:
 Charge =  0 Multiplicity = 1

 SCF Done:  E(RHF) =  -962.726786949     A.U. after   15 cycles
 Normal termination of Gaussian 16 at Tue Apr  8 22:54:43 2025.
 Gaussian 16:  ES64L-G16RevC.01  3-Jul-2019

 ----------------------------------------------------------------------
 #t hf aug-cc-pvdz iop(5/13=1,5/36=2,99/5=2) pseudo=read geom=check gue
 ss=(read,tcheck) scf=(maxcycle=1)
 ----------------------------------------------------------------------
 -----
 title
 -----
 Structure from the checkpoint file:  "ANI1ccx_98_conf17_mol2.chk"
 Charge =  0 Multiplicity = 1

                         Standard orientation:
 ---------------------------------------------------------------------
 Center     Atomic      Atomic             Coordinates (Angstroms)
 Number     Number       Type             X           Y           Z
 ---------------------------------------------------------------------
      1          6           0        2.026941   -0.292791    0.258268
      2          6           0       -1.837699   -1.687720    1.567280
      3          6           0       -2.140069   -0.264548    1.923650
      4          6           0       -0.941506    0.666810    1.684660
      5          6           0       -1.528819    2.114350   -0.397769
      6          6           0       -2.356349   -1.619320   -0.839845
      7          6           0        3.833781   -2.090060    0.483945
      8          6           0        3.499131   -0.667170    0.172732
      9          6           0        1.898491    1.227600    0.204183
     10          6           0       -0.559311    1.097850    0.284362
     11          1           0       -2.979879    0.113506    1.370450
     12          1           0       -2.009029    0.802071   -1.792770
     13          1           0       -4.327609   -1.631130   -1.375360
     14          1           0       -4.074689   -2.002190    0.201165
     15          1           0       -0.900745   -1.320860   -1.990540
     16          1           0       -0.579983   -1.855050   -0.098031
     17          1           0       -2.629579   -2.388840    1.755420
     18          1           0       -0.957767   -2.000200    2.163540
     19          1           0       -2.382659   -0.236396    2.963260
     20          1           0       -1.074569    1.543950    2.343110
     21          1           0       -0.512312    0.194916   -0.287419
     22          1           0        1.369951   -0.390899   -1.610050
     23          1           0        0.632819    2.832980    0.375472
     24          1           0        3.325021   -2.461550    1.318280
     25          1           0        4.863191   -2.146690    0.725354
     26          1           0        3.644211   -2.718910   -0.428977
     27          1           0        4.101811    0.615896   -1.111220
     28          1           0        4.014021   -0.008678    0.936080
     29          1           0        1.622361   -0.717415    1.161290
     30          1           0        1.649021   -1.805640   -0.933999
     31          1           0       -0.125503    0.124942    2.052850
     32          7           0        1.181421   -0.926825   -0.780265
     33          7           0        0.683532    1.820410    0.302583
     34          7           0       -1.550529   -1.998590    0.195995
     35          7           0       -1.889139   -1.188850   -1.983720
     36          7           0       -3.676679   -1.596800   -0.613968
     37          8           0        3.974061   -0.341893   -1.136540
     38          8           0       -1.683059    3.209410    0.117055
     39          8           0        2.877891    1.961400   -0.030062
     40          8           0       -2.328379    1.643680   -1.404340
 ---------------------------------------------------------------------

 SCF Done:  E(RHF) =  -963.017177808     A.U. after    2 cycles

 The electronic state is 1-A.
 Alpha  occ. eigenvalues --  -20.61043 -20.57359 -20.56498 -20.55184 -15.66399
 Alpha  occ. eigenvalues --  -15.65588 -15.65061 -15.64738 -15.58084 -11.40499
 Alpha  occ. eigenvalues --  -11.38695 -11.37784 -11.30841 -11.30507 -11.30177
 Alpha  occ. eigenvalues --  -11.29469 -11.25120 -11.24848 -11.24069  -1.39969
 Alpha  occ. eigenvalues --   -1.36112  -1.32685  -1.31969  -1.30023  -1.23101
 Alpha  occ. eigenvalues --   -1.20126  -1.18494  -1.12779  -1.08191  -1.05116
 Alpha  occ. eigenvalues --   -1.00916  -0.97513  -0.92602  -0.86698  -0.85205
 Alpha  occ. eigenvalues --   -0.83316  -0.82046  -0.79666  -0.76110  -0.74839
 Alpha  occ. eigenvalues --   -0.74230  -0.71890  -0.69448  -0.69181  -0.68280
 Alpha  occ. eigenvalues --   -0.67231  -0.66478  -0.66383  -0.64751  -0.63969
 Alpha  occ. eigenvalues --   -0.63073  -0.62200  -0.61134  -0.59520  -0.59212
 Alpha  occ. eigenvalues --   -0.57734  -0.57550  -0.57056  -0.56591  -0.56104
 Alpha  occ. eigenvalues --   -0.55225  -0.52941  -0.52465  -0.51037  -0.49682
 Alpha  occ. eigenvalues --   -0.49198  -0.48574  -0.46502  -0.45856  -0.44109
 Alpha  occ. eigenvalues --   -0.42644  -0.41445  -0.40196  -0.35864
 Alpha virt. eigenvalues --    0.01486   0.02399   0.03050   0.03909   0.04439
 Alpha virt. eigenvalues --    0.04934   0.05456   0.05888   0.06535   0.06904
 Alpha virt. eigenvalues --    0.07087   0.07637   0.07983   0.08366   0.08914

 Mulliken charges:
               1
     1  C    0.682058
     2  C    0.739651
     3  C    0.762067
     4  C    0.722485
     5  C    0.685144
     6  C    0.599497
     7  C    0.920149
     8  C    0.378288
     9  C    0.384201
    10  C    0.030842
    11  H   -0.245780
    12  H    0.295410
    13  H   -0.088189
    14  H   -0.029262
    15  H   -0.000063
    16  H    0.040479
    17  H   -0.373785
    18  H   -0.083473
    19  H   -0.141988
    20  H   -0.067993
    21  H   -0.602521
    22  H    0.174409
    23  H   -0.050995
    24  H   -0.123999
    25  H   -0.122850
    26  H    0.154865
    27  H    0.197715
    28  H   -0.077034
    29  H   -0.522458
    30  H    0.010292
    31  H   -0.292891
    32  N   -0.622078
    33  N   -0.296393
    34  N   -0.172709
    35  N   -0.542809
    36  N   -0.016156
    37  O   -0.631456
    38  O   -0.560386
    39  O   -0.608163
    40  O   -0.504122
 Sum of Mulliken charges =  -0.00000

 Dipole moment (field-independent basis, Debye):
    X=             -0.9262    Y=             -7.0001    Z=              4.6901  Tot=              8.4768

 Test job not archived.
 1\1\GINC-SE087\SP\RHF\Aug-CC-pVDZ\C10H21N5O4\OHZDE\08-Apr-2025\0\\#t h
 f aug-cc-pvdz iop(5/13=1,5/36=2,99/5=2) pseudo=read geom=check guess=(
 read,tcheck) scf=(maxcycle=1)\\title\\0,1\C,0,2.02694,-0.292791,0.2582
 68\C,0,-1.8377,-1.68772,1.56728\C,0,-2.14007,-0.264548,1.92365\C,0,-0.
 941507,0.66681,1.68466\C,0,-1.52882,2.11435,-0.397769\C,0,-2.35635,-1.
 61932,-0.839845\C,0,3.83378,-2.09006,0.483945\C,0,3.49913,-0.66717,0.1
 72732\C,0,1.89849,1.2276,0.204183\C,0,-0.559312,1.09785,0.284362\H,0,-
 2.97988,0.113506,1.37045\H,0,-2.00903,0.802071,-1.79277\H,0,-4.32761,-

 Normal termination of Gaussian 16 at Tue Apr  8 22:56:13 2025.
