 Gaussian 16, Revision C.01,

 ----------------------------------------------------------------------
 #t hf aug-cc-pvdz symm=none int=(grid=ultrafine) guess=(read,tcheck) s
 table=(opt,rrhf)
 ----------------------------------------------------------------------
 -----
 title
 -----
 Symbolic Z-matrix:
 Charge =  0 Multiplicity = 1

 SCF Done:  E(RHF) =  -456.285700313     A.U. after   11 cycles
 Normal termination of Gaussian 16 at Tue Apr  8 21:06:44 2025.
 Gaussian 16:  ES64L-G16RevC.01  3-Jul-2019

 ----------------------------------------------------------------------
 #t hf aug-cc-pvdz iop(5/13=1,5/36=2,99/5=2) pseudo=read geom=check gue
 ss=(read,tcheck) scf=(maxcycle=1)
 ----------------------------------------------------------------------
 -----
 title
 -----
 Structure from the checkpoint file:  "ANI1ccx_1844_conf33_mol1.chk"
 Charge =  0 Multiplicity = 1

                         Standard orientation:
 ---------------------------------------------------------------------
 Center     Atomic      Atomic             Coordinates (Angstroms)
 Number     Number       Type             X           Y           Z
 ---------------------------------------------------------------------
      1          1           0        0.983619   -1.969757    1.586670
      2          1           0       -1.546144   -1.411364   -0.454138
      3          1           0       -1.433580   -2.940464   -0.573675
      4          1           0       -0.547580    2.060569    0.175439
      5          1           0       -1.130603    1.991947    1.611140
      6          1           0       -2.193440    0.587018    0.302849
      7          1           0        0.567804   -2.114358    0.120831
      8          1           0       -3.127448    0.068639   -0.817513
      9          1           0        3.248292   -0.108088   -0.733799
     10          1           0        2.198573   -0.570318    0.285986
     11          1           0        1.610368    1.443034   -0.515150
     12          1           0        1.354384    2.968894   -0.600676
     13          8           0       -1.394793    2.015646    0.675671
     14          8           0        2.712591    0.223033   -0.001723
     15          8           0       -0.914330   -2.144462   -0.704115
     16          8           0       -2.660418   -0.228883   -0.012895
     17          8           0        1.349707   -1.985566    0.698289
     18          8           0        0.909212    2.119513   -0.703723
 ---------------------------------------------------------------------

 SCF Done:  E(RHF) =  -456.438185434     A.U. after    2 cycles

 The electronic state is 1-A.
 Alpha  occ. eigenvalues --  -20.57492 -20.57272 -20.57197 -20.56990 -20.56970
 Alpha  occ. eigenvalues --  -20.56925  -1.32298  -1.31649  -1.31314  -1.29828
 Alpha  occ. eigenvalues --   -1.29594  -1.28731  -0.73790  -0.73462  -0.73076
 Alpha  occ. eigenvalues --   -0.72798  -0.72731  -0.72576  -0.64196  -0.62820
 Alpha  occ. eigenvalues --   -0.62181  -0.58827  -0.58475  -0.56817  -0.52540
 Alpha  occ. eigenvalues --   -0.52367  -0.52182  -0.52059  -0.51856  -0.51509
 Alpha virt. eigenvalues --    0.02936   0.04383   0.04947   0.05137   0.06338
 Alpha virt. eigenvalues --    0.06940   0.08427   0.08560   0.09612   0.10300
 Alpha virt. eigenvalues --    0.10812   0.11230   0.17115   0.18816   0.19267

 Mulliken charges:
               1
     1  H    0.175573
     2  H    0.305054
     3  H    0.152199
     4  H    0.289460
     5  H    0.194541
     6  H    0.282815
     7  H    0.283372
     8  H    0.193494
     9  H    0.172080
    10  H    0.279947
    11  H    0.285699
    12  H    0.161538
    13  O   -0.487363
    14  O   -0.442113
    15  O   -0.443680
    16  O   -0.478611
    17  O   -0.479207
    18  O   -0.444799
 Sum of Mulliken charges =  -0.00000

 Dipole moment (field-independent basis, Debye):
    X=             -0.0578    Y=              0.1184    Z=              0.8015  Tot=              0.8122

 Test job not archived.
 1\1\GINC-SE454\SP\RHF\Aug-CC-pVDZ\H12O6\OHZDE\08-Apr-2025\0\\#t hf aug
 -cc-pvdz iop(5/13=1,5/36=2,99/5=2) pseudo=read geom=check guess=(read,
 tcheck) scf=(maxcycle=1)\\title\\0,1\H,0,0.983612,-1.96976,1.58667\H,0
 ,-1.54615,-1.41136,-0.454138\H,0,-1.43359,-2.94046,-0.573675\H,0,-0.54
 7576,2.06057,0.175439\H,0,-1.1306,1.99195,1.61114\H,0,-2.19344,0.58702
 4,0.302849\H,0,0.567797,-2.11436,0.120831\H,0,-3.12745,0.0686475,-0.81
 7513\H,0,3.24829,-0.108097,-0.733799\H,0,2.19857,-0.570324,0.285986\H,
 0,1.61037,1.44303,-0.51515\H,0,1.35439,2.96889,-0.600676\O,0,-1.39479,

 Normal termination of Gaussian 16 at Tue Apr  8 21:06:49 2025.
