 Gaussian 16, Revision C.01,

 ----------------------------------------------------------------------
 #t hf aug-cc-pvdz symm=none int=(grid=ultrafine) guess=(read,tcheck) s
 table=(opt,rrhf)
 ----------------------------------------------------------------------
 -----
 title
 -----
 Symbolic Z-matrix:
 Charge =  0 Multiplicity = 1

 SCF Done:  E(RHF) =  -453.325356917     A.U. after   15 cycles
 Normal termination of Gaussian 16 at Tue Apr  8 21:59:10 2025.
 Gaussian 16:  ES64L-G16RevC.01  3-Jul-2019

 ----------------------------------------------------------------------
 #t hf aug-cc-pvdz iop(5/13=1,5/36=2,99/5=2) pseudo=read geom=check gue
 ss=(read,tcheck) scf=(maxcycle=1)
 ----------------------------------------------------------------------
 -----
 title
 -----
 Structure from the checkpoint file:  "ANI1ccx_892_conf4_mol2.chk"
 Charge =  0 Multiplicity = 1

                         Standard orientation:
 ---------------------------------------------------------------------
 Center     Atomic      Atomic             Coordinates (Angstroms)
 Number     Number       Type             X           Y           Z
 ---------------------------------------------------------------------
      1          6           0       -1.758690    0.015084   -0.007493
      2          6           0       -0.661189   -1.072920    0.076395
      3          6           0        0.667445   -1.110110    0.017911
      4          6           0        1.717320   -0.083311   -0.022202
      5          1           0       -0.471561    1.443640    0.039326
      6          1           0       -1.141100   -2.041210    0.111243
      7          1           0        1.107980   -2.105960    0.024607
      8          1           0        2.013440    1.800780   -0.030753
      9          8           0       -1.433830    1.307760    0.084140
     10          8           0       -2.897130   -0.379609   -0.098182
     11          8           0        1.261430    1.202950   -0.035779
     12          8           0        2.907270   -0.329816   -0.016691
 ---------------------------------------------------------------------

 SCF Done:  E(RHF) =  -453.467705745     A.U. after    2 cycles

 The electronic state is 1-A.
 Alpha  occ. eigenvalues --  -20.67419 -20.63197 -20.60682 -20.57873 -11.44823
 Alpha  occ. eigenvalues --  -11.42646 -11.31784 -11.30740  -1.46931  -1.43209
 Alpha  occ. eigenvalues --   -1.36733  -1.34494  -1.12093  -0.96637  -0.88712
 Alpha  occ. eigenvalues --   -0.85334  -0.79246  -0.76279  -0.70277  -0.69307
 Alpha  occ. eigenvalues --   -0.67454  -0.66285  -0.65307  -0.64577  -0.56748
 Alpha  occ. eigenvalues --   -0.55052  -0.52003  -0.51172  -0.48795  -0.43977
 Alpha virt. eigenvalues --    0.02304   0.02430   0.03556   0.05400   0.06625
 Alpha virt. eigenvalues --    0.08495   0.09699   0.10250   0.11487   0.12445
 Alpha virt. eigenvalues --    0.12522   0.12972   0.13884   0.14633   0.15447

 Mulliken charges:
               1
     1  C    0.496342
     2  C    0.544429
     3  C    0.811910
     4  C    0.343116
     5  H    0.220337
     6  H   -0.422267
     7  H   -0.376832
     8  H    0.197123
     9  O   -0.408352
    10  O   -0.419019
    11  O   -0.557443
    12  O   -0.429345
 Sum of Mulliken charges =  -0.00000

 Dipole moment (field-independent basis, Debye):
    X=              3.1023    Y=              0.3035    Z=              0.1369  Tot=              3.1201

 Test job not archived.
 1\1\GINC-SE334\SP\RHF\Aug-CC-pVDZ\C4H4O4\OHZDE\08-Apr-2025\0\\#t hf au
 g-cc-pvdz iop(5/13=1,5/36=2,99/5=2) pseudo=read geom=check guess=(read
 ,tcheck) scf=(maxcycle=1)\\title\\0,1\C,0,-1.75869,0.0150837,-0.007493
 43\C,0,-0.661189,-1.07292,0.0763954\C,0,0.667445,-1.11011,0.0179106\C,
 0,1.71732,-0.0833116,-0.0222016\H,0,-0.471561,1.44364,0.0393265\H,0,-1
 .1411,-2.04121,0.111243\H,0,1.10798,-2.10596,0.0246067\H,0,2.01344,1.8
 0078,-0.030753\O,0,-1.43383,1.30776,0.08414\O,0,-2.89713,-0.379609,-0.
 0981819\O,0,1.26143,1.20295,-0.0357785\O,0,2.90727,-0.329816,-0.016690

 Normal termination of Gaussian 16 at Tue Apr  8 21:59:15 2025.
