 Gaussian 16, Revision C.01,

 ----------------------------------------------------------------------
 #t hf aug-cc-pvdz symm=none int=(grid=ultrafine) guess=(read,tcheck) s
 table=(opt,rrhf)
 ----------------------------------------------------------------------
 -----
 title
 -----
 Symbolic Z-matrix:
 Charge =  0 Multiplicity = 1

 SCF Done:  E(RHF) =  -380.216595491     A.U. after   11 cycles
 Normal termination of Gaussian 16 at Tue Apr  8 21:03:26 2025.
 Gaussian 16:  ES64L-G16RevC.01  3-Jul-2019

 ----------------------------------------------------------------------
 #t hf aug-cc-pvdz iop(5/13=1,5/36=2,99/5=2) pseudo=read geom=check gue
 ss=(read,tcheck) scf=(maxcycle=1)
 ----------------------------------------------------------------------
 -----
 title
 -----
 Structure from the checkpoint file:  "ANI1ccx_1843_conf75_mol1.chk"
 Charge =  0 Multiplicity = 1

                         Standard orientation:
 ---------------------------------------------------------------------
 Center     Atomic      Atomic             Coordinates (Angstroms)
 Number     Number       Type             X           Y           Z
 ---------------------------------------------------------------------
      1          1           0       -0.083021    1.618178    0.322963
      2          1           0        0.905376    2.086197    1.504091
      3          1           0       -1.578969    0.485073   -0.403356
      4          1           0       -1.161848    1.672499   -1.396859
      5          1           0       -2.762590   -1.270360    0.305000
      6          1           0       -1.186220   -1.369261    0.283774
      7          1           0        0.901827   -1.289883    0.080480
      8          1           0        0.388841   -0.437104    1.235061
      9          1           0        2.957740   -0.862168   -0.649026
     10          1           0        1.969951    0.311380   -0.430053
     11          8           0        0.797341    1.432728    0.763166
     12          8           0       -1.386028    1.454379   -0.457754
     13          8           0       -1.993580   -1.157310   -0.294594
     14          8           0        0.396432   -1.381042    0.919014
     15          8           0        2.141950   -0.466824   -1.036339
 ---------------------------------------------------------------------

 SCF Done:  E(RHF) =  -380.341801986     A.U. after    2 cycles

 The electronic state is 1-A.
 Alpha  occ. eigenvalues --  -20.58859 -20.58545 -20.57762 -20.57620 -20.56807
 Alpha  occ. eigenvalues --   -1.32977  -1.31332  -1.30349  -1.29369  -1.28268
 Alpha  occ. eigenvalues --   -0.74781  -0.74497  -0.72333  -0.72061  -0.70965
 Alpha  occ. eigenvalues --   -0.64194  -0.61301  -0.60917  -0.59932  -0.57687
 Alpha  occ. eigenvalues --   -0.53029  -0.52828  -0.52536  -0.51996  -0.51130
 Alpha virt. eigenvalues --    0.02939   0.04696   0.05042   0.05431   0.07838
 Alpha virt. eigenvalues --    0.07998   0.08317   0.08867   0.10559   0.11463
 Alpha virt. eigenvalues --    0.16903   0.17322   0.19099   0.20006   0.20523

 Mulliken charges:
               1
     1  H    0.358525
     2  H    0.224136
     3  H    0.280554
     4  H    0.220279
     5  H    0.212624
     6  H    0.302389
     7  H    0.240507
     8  H    0.249490
     9  H    0.209222
    10  H    0.236307
    11  O   -0.592413
    12  O   -0.499505
    13  O   -0.482258
    14  O   -0.523039
    15  O   -0.436818
 Sum of Mulliken charges =  -0.00000

 Dipole moment (field-independent basis, Debye):
    X=              0.5467    Y=              2.0074    Z=              1.4980  Tot=              2.5637

 Test job not archived.
 1\1\GINC-SE081\SP\RHF\Aug-CC-pVDZ\H10O5\OHZDE\08-Apr-2025\0\\#t hf aug
 -cc-pvdz iop(5/13=1,5/36=2,99/5=2) pseudo=read geom=check guess=(read,
 tcheck) scf=(maxcycle=1)\\title\\0,1\H,0,-0.0830226,1.61818,0.322962\H
 ,0,0.905374,2.0862,1.50409\H,0,-1.57897,0.485073,-0.403357\H,0,-1.1618
 5,1.6725,-1.39686\H,0,-2.76259,-1.27036,0.304999\H,0,-1.18622,-1.36926
 ,0.283773\H,0,0.901827,-1.28988,0.080479\H,0,0.388841,-0.437102,1.2350
 6\H,0,2.95774,-0.862164,-0.649027\H,0,1.96995,0.311383,-0.430054\O,0,0
 .797339,1.43273,0.763165\O,0,-1.38603,1.45438,-0.457755\O,0,-1.99358,-

 Normal termination of Gaussian 16 at Tue Apr  8 21:03:30 2025.
