 Gaussian 16, Revision C.01,

 ----------------------------------------------------------------------
 #t hf aug-cc-pvdz symm=none int=(grid=ultrafine) guess=(read,tcheck) s
 table=(opt,rrhf)
 ----------------------------------------------------------------------
 -----
 title
 -----
 Symbolic Z-matrix:
 Charge =  0 Multiplicity = 1

 SCF Done:  E(RHF) =  -489.168051712     A.U. after   13 cycles
 Normal termination of Gaussian 16 at Tue Apr  8 21:48:43 2025.
 Gaussian 16:  ES64L-G16RevC.01  3-Jul-2019

 ----------------------------------------------------------------------
 #t hf aug-cc-pvdz iop(5/13=1,5/36=2,99/5=2) pseudo=read geom=check gue
 ss=(read,tcheck) scf=(maxcycle=1)
 ----------------------------------------------------------------------
 -----
 title
 -----
 Structure from the checkpoint file:  "ANI1ccx_667_conf3_mol2.chk"
 Charge =  0 Multiplicity = 1

                         Standard orientation:
 ---------------------------------------------------------------------
 Center     Atomic      Atomic             Coordinates (Angstroms)
 Number     Number       Type             X           Y           Z
 ---------------------------------------------------------------------
      1          6           0        1.209279   -0.386374   -0.009914
      2          6           0        0.009965    1.582180    0.267569
      3          6           0       -1.220501   -0.360783   -0.022763
      4          1           0        0.008419    1.531720    1.348270
      5          1           0       -0.077156    2.591750   -0.107705
      6          8           0        2.199498   -1.024663   -0.109091
      7          8           0        1.158471    0.952620   -0.223869
      8          8           0       -1.174309    0.920309   -0.243093
      9          8           0       -2.188522   -1.040106   -0.088065
     10          8           0        0.014395   -0.949861    0.332879
 ---------------------------------------------------------------------

 SCF Done:  E(RHF) =  -489.328729925     A.U. after    2 cycles

 The electronic state is 1-A.
 Alpha  occ. eigenvalues --  -20.69076 -20.68954 -20.68665 -20.60623 -20.60463
 Alpha  occ. eigenvalues --  -11.50040 -11.50006 -11.43424  -1.55495  -1.47798
 Alpha  occ. eigenvalues --   -1.43743  -1.38782  -1.38315  -1.05748  -0.96881
 Alpha  occ. eigenvalues --   -0.88057  -0.84994  -0.80561  -0.76325  -0.72026
 Alpha  occ. eigenvalues --   -0.71093  -0.70912  -0.68549  -0.63458  -0.63120
 Alpha  occ. eigenvalues --   -0.58092  -0.56053  -0.55196  -0.52844  -0.52213
 Alpha virt. eigenvalues --    0.02153   0.03858   0.06358   0.06680   0.09552
 Alpha virt. eigenvalues --    0.10319   0.10495   0.11049   0.11219   0.13079
 Alpha virt. eigenvalues --    0.13208   0.14202   0.14341   0.15095   0.16964

 Mulliken charges:
               1
     1  C    0.722717
     2  C    1.177732
     3  C    0.703491
     4  H   -0.130511
     5  H   -0.250456
     6  O   -0.334910
     7  O   -0.521251
     8  O   -0.477455
     9  O   -0.336189
    10  O   -0.553167
 Sum of Mulliken charges =  -0.00000

 Dipole moment (field-independent basis, Debye):
    X=             -0.0719    Y=              4.9469    Z=              1.3580  Tot=              5.1304

 Test job not archived.
 1\1\GINC-SE187\SP\RHF\Aug-CC-pVDZ\C3H2O5\OHZDE\08-Apr-2025\0\\#t hf au
 g-cc-pvdz iop(5/13=1,5/36=2,99/5=2) pseudo=read geom=check guess=(read
 ,tcheck) scf=(maxcycle=1)\\title\\0,1\C,0,1.20928,-0.386372,-0.0099138
 2\C,0,0.00996225,1.58218,0.267569\C,0,-1.2205,-0.360785,-0.0227631\H,0
 ,0.00841688,1.53172,1.34827\H,0,-0.0771595,2.59175,-0.107705\O,0,2.199
 5,-1.02466,-0.109091\O,0,1.15847,0.952621,-0.223869\O,0,-1.17431,0.920
 307,-0.243093\O,0,-2.18852,-1.04011,-0.0880648\O,0,0.0143964,-0.949861
 ,0.332879\\Version=ES64L-G16RevC.01\State=1-A\HF=-489.3287299\RMSD=2.8

 Normal termination of Gaussian 16 at Tue Apr  8 21:48:48 2025.
