 Gaussian 16, Revision C.01,

 ----------------------------------------------------------------------
 #t hf aug-cc-pvdz symm=none int=(grid=ultrafine) guess=(read,tcheck) s
 table=(opt,rrhf)
 ----------------------------------------------------------------------
 -----
 title
 -----
 Symbolic Z-matrix:
 Charge =  0 Multiplicity = 1

 SCF Done:  E(RHF) =  -626.317668992     A.U. after   16 cycles
 Normal termination of Gaussian 16 at Tue Apr  8 20:23:37 2025.
 Gaussian 16:  ES64L-G16RevC.01  3-Jul-2019

 ----------------------------------------------------------------------
 #t hf aug-cc-pvdz iop(5/13=1,5/36=2,99/5=2) pseudo=read geom=check gue
 ss=(read,tcheck) scf=(maxcycle=1)
 ----------------------------------------------------------------------
 -----
 title
 -----
 Structure from the checkpoint file:  "ANI1ccx_1715_conf2_mol2.chk"
 Charge =  0 Multiplicity = 1

                         Standard orientation:
 ---------------------------------------------------------------------
 Center     Atomic      Atomic             Coordinates (Angstroms)
 Number     Number       Type             X           Y           Z
 ---------------------------------------------------------------------
      1          6           0       -2.506060   -1.128411    0.353428
      2          6           0        2.202960    0.447203    0.652816
      3          6           0        2.479950   -0.627099   -0.425730
      4          6           0        0.914482    0.007365    1.333080
      5          6           0       -0.385498   -0.009904    0.648236
      6          6           0       -0.874340    1.082009   -0.037086
      7          6           0       -1.241780   -1.139521    0.813309
      8          6           0       -2.207711    1.148929   -0.391829
      9          6           0       -2.990190    0.040519   -0.249757
     10          1           0        1.166320   -0.945474    1.748520
     11          1           0        0.766666    0.627080    2.256050
     12          1           0        3.045220    0.310379    1.315380
     13          1           0        2.652719    2.352550    0.952065
     14          1           0        3.437460   -0.920246   -1.978360
     15          1           0       -2.637071    2.010919   -0.943493
     16          1           0       -4.317631    0.941180   -1.252760
     17          1           0       -0.222345    1.950910   -0.158799
     18          1           0       -3.015050   -2.097191    0.497182
     19          1           0        2.706579    2.071431   -0.659713
     20          1           0       -0.907062   -2.028291    1.306970
     21          7           0        2.193959    1.781670    0.184264
     22          8           0        1.941370   -1.682100   -0.488842
     23          8           0        3.498260   -0.298460   -1.281670
     24          8           0       -4.237680    0.021624   -0.798449
 ---------------------------------------------------------------------

 SCF Done:  E(RHF) =  -626.508844680     A.U. after    2 cycles

 The electronic state is 1-A.
 Alpha  occ. eigenvalues --  -20.62425 -20.59979 -20.57303 -15.62777 -11.40177
 Alpha  occ. eigenvalues --  -11.30106 -11.29741 -11.23481 -11.23313 -11.23265
 Alpha  occ. eigenvalues --  -11.23177 -11.23112 -11.22804  -1.43746  -1.35096
 Alpha  occ. eigenvalues --   -1.34177  -1.18797  -1.14080  -1.04427  -1.01655
 Alpha  occ. eigenvalues --   -0.97567  -0.90514  -0.84146  -0.82856  -0.78107
 Alpha  occ. eigenvalues --   -0.73024  -0.72620  -0.71950  -0.70416  -0.67340
 Alpha  occ. eigenvalues --   -0.64077  -0.63363  -0.62270  -0.60300  -0.59829
 Alpha  occ. eigenvalues --   -0.59388  -0.59153  -0.57031  -0.55202  -0.52623
 Alpha  occ. eigenvalues --   -0.51678  -0.50870  -0.48517  -0.47499  -0.45866
 Alpha  occ. eigenvalues --   -0.39968  -0.34531  -0.29946
 Alpha virt. eigenvalues --    0.02765   0.03357   0.03894   0.04264   0.05133
 Alpha virt. eigenvalues --    0.05733   0.06386   0.07128   0.07693   0.08543
 Alpha virt. eigenvalues --    0.09686   0.10179   0.10767   0.11148   0.11931

 Mulliken charges:
               1
     1  C    0.401766
     2  C    0.381266
     3  C    0.443256
     4  C    0.340398
     5  C    0.482250
     6  C    0.492401
     7  C    0.632853
     8  C    0.010551
     9  C    0.780618
    10  H   -0.229366
    11  H    0.082391
    12  H    0.037212
    13  H    0.160486
    14  H    0.147765
    15  H   -0.517945
    16  H    0.197709
    17  H   -0.589221
    18  H   -0.429623
    19  H    0.070336
    20  H   -0.687793
    21  N   -0.592323
    22  O   -0.413720
    23  O   -0.535612
    24  O   -0.665656
 Sum of Mulliken charges =   0.00000

 Dipole moment (field-independent basis, Debye):
    X=              2.9241    Y=              2.8589    Z=              0.0227  Tot=              4.0896

 Test job not archived.
 1\1\GINC-SE460\SP\RHF\Aug-CC-pVDZ\C9H11N1O3\OHZDE\08-Apr-2025\0\\#t hf
  aug-cc-pvdz iop(5/13=1,5/36=2,99/5=2) pseudo=read geom=check guess=(r
 ead,tcheck) scf=(maxcycle=1)\\title\\0,1\C,0,-2.50606,-1.12841,0.35342
 8\C,0,2.20296,0.447203,0.652816\C,0,2.47995,-0.627099,-0.42573\C,0,0.9
 14482,0.00736515,1.33308\C,0,-0.385498,-0.00990313,0.648236\C,0,-0.874
 339,1.08201,-0.0370863\C,0,-1.24178,-1.13952,0.813309\C,0,-2.20771,1.1
 4893,-0.391829\C,0,-2.99019,0.0405198,-0.249757\H,0,1.16632,-0.945474,
 1.74852\H,0,0.766666,0.62708,2.25605\H,0,3.04522,0.310378,1.31538\H,0,

 Normal termination of Gaussian 16 at Tue Apr  8 20:23:57 2025.
