 Gaussian 16, Revision C.01,

 ----------------------------------------------------------------------
 #t hf aug-cc-pvdz symm=none int=(grid=ultrafine) guess=(read,tcheck) s
 table=(opt,rrhf)
 ----------------------------------------------------------------------
 -----
 title
 -----
 Symbolic Z-matrix:
 Charge =  0 Multiplicity = 1

 SCF Done:  E(RHF) =  -565.457216582     A.U. after   15 cycles
 Normal termination of Gaussian 16 at Tue Apr  8 19:24:53 2025.
 Gaussian 16:  ES64L-G16RevC.01  3-Jul-2019

 ----------------------------------------------------------------------
 #t hf aug-cc-pvdz iop(5/13=1,5/36=2,99/5=2) pseudo=read geom=check gue
 ss=(read,tcheck) scf=(maxcycle=1)
 ----------------------------------------------------------------------
 -----
 title
 -----
 Structure from the checkpoint file:  "ANI1ccx_1346_conf8_mol1.chk"
 Charge =  0 Multiplicity = 1

                         Standard orientation:
 ---------------------------------------------------------------------
 Center     Atomic      Atomic             Coordinates (Angstroms)
 Number     Number       Type             X           Y           Z
 ---------------------------------------------------------------------
      1          6           0       -2.485559   -0.056636   -0.188594
      2          6           0       -1.038619    0.057687    0.234176
      3          6           0       -0.995812   -0.215318    1.764640
      4          6           0       -0.187613   -1.147450   -0.366212
      5          6           0        1.804051   -0.015315   -0.005817
      6          6           0       -0.281326    1.250410   -0.280812
      7          1           0        1.561849    2.050721   -0.095199
      8          1           0        1.538372   -2.059299    0.344266
      9          1           0       -0.018194   -0.122592    2.205740
     10          1           0       -1.668499    0.473695    2.288170
     11          1           0       -1.282788   -1.213521    1.912910
     12          1           0       -2.673159   -0.429708   -1.234740
     13          1           0       -3.012310    0.829864   -0.002319
     14          1           0       -3.008058   -0.857461    0.424496
     15          7           0        1.071762   -1.145329    0.054913
     16          7           0        1.123570    1.152111   -0.202298
     17          8           0       -0.728811   -2.021851   -1.045490
     18          8           0        3.021691   -0.043919    0.158556
     19          8           0       -0.754789    2.320839   -0.582557
 ---------------------------------------------------------------------

 SCF Done:  E(RHF) =  -565.629684090     A.U. after    2 cycles

 The electronic state is 1-A.
 Alpha  occ. eigenvalues --  -20.59296 -20.59141 -20.56650 -15.70982 -15.70367
 Alpha  occ. eigenvalues --  -11.44289 -11.41355 -11.41066 -11.31022 -11.27199
 Alpha  occ. eigenvalues --  -11.24981  -1.42158  -1.39525  -1.37865  -1.27917
 Alpha  occ. eigenvalues --   -1.22569  -1.12454  -0.96872  -0.95578  -0.91575
 Alpha  occ. eigenvalues --   -0.89091  -0.79070  -0.77989  -0.71729  -0.71335
 Alpha  occ. eigenvalues --   -0.69108  -0.67860  -0.66560  -0.66121  -0.60465
 Alpha  occ. eigenvalues --   -0.59880  -0.59104  -0.57045  -0.55762  -0.54873
 Alpha  occ. eigenvalues --   -0.51283  -0.50747  -0.48814  -0.46602  -0.45531
 Alpha  occ. eigenvalues --   -0.44923
 Alpha virt. eigenvalues --    0.02535   0.03648   0.04020   0.04555   0.06100
 Alpha virt. eigenvalues --    0.06527   0.07060   0.07343   0.07846   0.08680
 Alpha virt. eigenvalues --    0.10171   0.10742   0.11588   0.12322   0.12849

 Mulliken charges:
               1
     1  C    1.257252
     2  C   -1.799335
     3  C    1.080475
     4  C    0.810038
     5  C    0.707448
     6  C    0.328567
     7  H   -0.078253
     8  H    0.081325
     9  H   -0.149523
    10  H    0.024305
    11  H   -0.140182
    12  H    0.045150
    13  H   -0.166663
    14  H    0.062679
    15  N   -0.402940
    16  N   -0.246420
    17  O   -0.504753
    18  O   -0.477912
    19  O   -0.431255
 Sum of Mulliken charges =   0.00000

 Dipole moment (field-independent basis, Debye):
    X=             -1.3633    Y=             -0.7526    Z=              3.3142  Tot=              3.6618

 Test job not archived.
 1\1\GINC-SE116\SP\RHF\Aug-CC-pVDZ\C6H8N2O3\OHZDE\08-Apr-2025\0\\#t hf
 aug-cc-pvdz iop(5/13=1,5/36=2,99/5=2) pseudo=read geom=check guess=(re
 ad,tcheck) scf=(maxcycle=1)\\title\\0,1\C,0,-2.48556,-0.0566339,-0.188
 594\C,0,-1.03862,0.0576878,0.234176\C,0,-0.995813,-0.215317,1.76464\C,
 0,-0.187615,-1.14745,-0.366212\C,0,1.80405,-0.0153161,-0.0058172\C,0,-
 0.281326,1.25041,-0.280812\H,0,1.56185,2.05072,-0.0951992\H,0,1.53837,
 -2.0593,0.344266\H,0,-0.0181952,-0.122592,2.20574\H,0,-1.6685,0.473696
 ,2.28817\H,0,-1.28279,-1.21352,1.91291\H,0,-2.67316,-0.429706,-1.23474

 Normal termination of Gaussian 16 at Tue Apr  8 19:25:05 2025.
