 Gaussian 16, Revision C.01,

 ----------------------------------------------------------------------
 #t hf aug-cc-pvdz symm=none int=(grid=ultrafine) guess=(read,tcheck) s
 table=(opt,rrhf)
 ----------------------------------------------------------------------
 -----
 title
 -----
 Symbolic Z-matrix:
 Charge =  0 Multiplicity = 1

 SCF Done:  E(RHF) =  -587.252846053     A.U. after   15 cycles
 Normal termination of Gaussian 16 at Tue Apr  8 20:20:08 2025.
 Gaussian 16:  ES64L-G16RevC.01  3-Jul-2019

 ----------------------------------------------------------------------
 #t hf aug-cc-pvdz iop(5/13=1,5/36=2,99/5=2) pseudo=read geom=check gue
 ss=(read,tcheck) scf=(maxcycle=1)
 ----------------------------------------------------------------------
 -----
 title
 -----
 Structure from the checkpoint file:  "ANI1ccx_1694_conf1_mol1.chk"
 Charge =  0 Multiplicity = 1

                         Standard orientation:
 ---------------------------------------------------------------------
 Center     Atomic      Atomic             Coordinates (Angstroms)
 Number     Number       Type             X           Y           Z
 ---------------------------------------------------------------------
      1          6           0       -0.310817    2.404601   -0.722031
      2          6           0       -1.181120    1.416411    0.122750
      3          6           0       -1.980861   -0.858603    0.033298
      4          6           0       -0.312229    0.408220    0.992544
      5          6           0        1.070169    0.053490    0.510738
      6          6           0        2.386019    0.276287    0.838906
      7          6           0        3.183549   -0.437902   -0.104283
      8          6           0        2.316249   -1.066280   -0.943078
      9          1           0        2.428009   -1.701850   -1.840030
     10          1           0        4.297899   -0.391326   -0.129137
     11          1           0        2.878990    0.734735    1.762370
     12          1           0       -0.075952    0.842423    2.017100
     13          1           0       -0.899315    3.344901   -1.026190
     14          1           0       -1.905720    1.950701    0.808921
     15          1           0        0.665572    2.706091   -0.086763
     16          1           0        0.048596    1.830741   -1.635380
     17          1           0       -2.809211    0.587500   -1.072840
     18          7           0       -1.973481    0.400660   -0.590276
     19          8           0       -1.041021   -0.794257    1.017300
     20          8           0       -2.726921   -1.773238   -0.239034
     21          8           0        1.037909   -0.668241   -0.658166
 ---------------------------------------------------------------------

 SCF Done:  E(RHF) =  -587.428171338     A.U. after    2 cycles

 The electronic state is 1-A.
 Alpha  occ. eigenvalues --  -20.64228 -20.62701 -20.55090 -15.65039 -11.42603
 Alpha  occ. eigenvalues --  -11.34676 -11.32239 -11.31807 -11.31402 -11.27545
 Alpha  occ. eigenvalues --  -11.26297 -11.25302  -1.44181  -1.41937  -1.33625
 Alpha  occ. eigenvalues --   -1.20111  -1.08734  -1.07202  -1.00414  -0.94364
 Alpha  occ. eigenvalues --   -0.85546  -0.83007  -0.81822  -0.78274  -0.74986
 Alpha  occ. eigenvalues --   -0.72816  -0.67836  -0.67086  -0.65376  -0.63491
 Alpha  occ. eigenvalues --   -0.61529  -0.60473  -0.58707  -0.57883  -0.57266
 Alpha  occ. eigenvalues --   -0.55552  -0.55337  -0.53515  -0.50281  -0.48147
 Alpha  occ. eigenvalues --   -0.46965  -0.41496  -0.40519  -0.32930
 Alpha virt. eigenvalues --    0.02511   0.03172   0.03674   0.04533   0.04951
 Alpha virt. eigenvalues --    0.05328   0.06854   0.06935   0.08030   0.08881
 Alpha virt. eigenvalues --    0.10304   0.10660   0.11311   0.12011   0.12426

 Mulliken charges:
               1
     1  C    0.142904
     2  C    0.036178
     3  C    0.819833
     4  C    0.146687
     5  C   -0.182247
     6  C    0.660984
     7  C    0.465664
     8  C    0.595394
     9  H   -0.363150
    10  H   -0.284588
    11  H   -0.273329
    12  H    0.018626
    13  H    0.022113
    14  H   -0.125594
    15  H    0.266759
    16  H    0.131852
    17  H   -0.193448
    18  N   -0.269752
    19  O   -0.597266
    20  O   -0.452180
    21  O   -0.565439
 Sum of Mulliken charges =  -0.00000

 Dipole moment (field-independent basis, Debye):
    X=              3.0566    Y=              5.3099    Z=              0.3273  Tot=              6.1355

 Test job not archived.
 1\1\GINC-SE457\SP\RHF\Aug-CC-pVDZ\C8H9N1O3\OHZDE\08-Apr-2025\0\\#t hf
 aug-cc-pvdz iop(5/13=1,5/36=2,99/5=2) pseudo=read geom=check guess=(re
 ad,tcheck) scf=(maxcycle=1)\\title\\0,1\C,0,-0.310817,2.4046,-0.722031
 \C,0,-1.18112,1.41641,0.12275\C,0,-1.98086,-0.858604,0.033298\C,0,-0.3
 12228,0.408219,0.992544\C,0,1.07017,0.0534894,0.510738\C,0,2.38602,0.2
 76287,0.838906\C,0,3.18355,-0.437902,-0.104283\C,0,2.31625,-1.06628,-0
 .943078\H,0,2.42801,-1.70185,-1.84003\H,0,4.2979,-0.391325,-0.129137\H
 ,0,2.87899,0.734735,1.76237\H,0,-0.0759516,0.842422,2.0171\H,0,-0.8993

 Normal termination of Gaussian 16 at Tue Apr  8 20:20:23 2025.
