 Gaussian 16, Revision C.01,

 ----------------------------------------------------------------------
 #t hf aug-cc-pvdz symm=none int=(grid=ultrafine) guess=(read,tcheck) s
 table=(opt,rrhf)
 ----------------------------------------------------------------------
 -----
 title
 -----
 Symbolic Z-matrix:
 Charge =  0 Multiplicity = 1

 SCF Done:  E(RHF) =  -663.586891533     A.U. after   13 cycles
 Normal termination of Gaussian 16 at Tue Apr  8 19:21:22 2025.
 Gaussian 16:  ES64L-G16RevC.01  3-Jul-2019

 ----------------------------------------------------------------------
 #t hf aug-cc-pvdz iop(5/13=1,5/36=2,99/5=2) pseudo=read geom=check gue
 ss=(read,tcheck) scf=(maxcycle=1)
 ----------------------------------------------------------------------
 -----
 title
 -----
 Structure from the checkpoint file:  "ANI1ccx_1233_conf2_mol1.chk"
 Charge =  0 Multiplicity = 1

                         Standard orientation:
 ---------------------------------------------------------------------
 Center     Atomic      Atomic             Coordinates (Angstroms)
 Number     Number       Type             X           Y           Z
 ---------------------------------------------------------------------
      1          6           0        0.156508   -0.562118   -1.026460
      2          6           0        1.008779    0.722287   -0.903278
      3          6           0        0.403434    1.591540    0.171517
      4          6           0       -0.013421    0.530381    1.168010
      5          6           0       -0.541824   -0.700657    0.348278
      6          6           0       -2.023840   -0.767857    0.134567
      7          1           0       -2.046751    0.953761   -0.610920
      8          1           0       -2.270570   -1.771221   -0.278362
      9          1           0       -2.435880   -0.798036    1.187900
     10          1           0        0.548765   -1.472010    1.638230
     11          1           0        1.933819    0.211074    1.465050
     12          1           0       -0.799142    0.802777    1.863350
     13          1           0       -0.603842    2.934349   -0.870068
     14          1           0        1.077978    2.358080    0.630349
     15          1           0        2.493380   -0.490034   -0.938825
     16          1           0        1.163539    1.186910   -1.857830
     17          1           0       -0.623070   -0.334412   -1.780600
     18          1           0        0.844920   -1.937590   -2.338500
     19          1           0        0.832660   -2.374470   -0.634667
     20          7           0        1.016220   -1.670760   -1.360280
     21          8           0        2.370739    0.348460   -0.482470
     22          8           0       -0.804964    2.242839   -0.225520
     23          8           0        1.070369    0.077321    1.944710
     24          8           0       -0.177080   -1.887120    1.047510
     25          8           0       -2.604961    0.161586   -0.697850
 ---------------------------------------------------------------------

 SCF Done:  E(RHF) =  -663.785341662     A.U. after    2 cycles

 The electronic state is 1-A.
 Alpha  occ. eigenvalues --  -20.62080 -20.59850 -20.57770 -20.57280 -20.56287
 Alpha  occ. eigenvalues --  -15.62355 -11.32432 -11.30740 -11.30279 -11.29685
 Alpha  occ. eigenvalues --  -11.27914 -11.27303  -1.38266  -1.36246  -1.33302
 Alpha  occ. eigenvalues --   -1.32503  -1.30890  -1.17076  -1.08975  -0.99052
 Alpha  occ. eigenvalues --   -0.95396  -0.90081  -0.83258  -0.78819  -0.76221
 Alpha  occ. eigenvalues --   -0.74394  -0.71961  -0.71041  -0.69532  -0.67949
 Alpha  occ. eigenvalues --   -0.66903  -0.65695  -0.63373  -0.61854  -0.60519
 Alpha  occ. eigenvalues --   -0.59144  -0.58308  -0.56393  -0.54906  -0.53566
 Alpha  occ. eigenvalues --   -0.53229  -0.51842  -0.49613  -0.47400  -0.46686
 Alpha  occ. eigenvalues --   -0.45239  -0.42221  -0.39918
 Alpha virt. eigenvalues --    0.02546   0.03471   0.04155   0.04771   0.05690
 Alpha virt. eigenvalues --    0.05807   0.06240   0.06470   0.07185   0.08693
 Alpha virt. eigenvalues --    0.09070   0.09571   0.10175   0.11577   0.12051

 Mulliken charges:
               1
     1  C    0.514645
     2  C    0.628542
     3  C    0.669263
     4  C    0.813825
     5  C   -0.929938
     6  C    1.230407
     7  H    0.248383
     8  H    0.006705
     9  H    0.058976
    10  H    0.303999
    11  H    0.306286
    12  H   -0.227047
    13  H    0.179741
    14  H   -0.053092
    15  H    0.270962
    16  H   -0.346690
    17  H   -0.095153
    18  H    0.119214
    19  H    0.199184
    20  N   -0.582230
    21  O   -0.673520
    22  O   -0.649122
    23  O   -0.729100
    24  O   -0.773322
    25  O   -0.490915
 Sum of Mulliken charges =  -0.00000

 Dipole moment (field-independent basis, Debye):
    X=              1.9205    Y=              2.1891    Z=             -2.3801  Tot=              3.7611

 Test job not archived.
 1\1\GINC-SE128\SP\RHF\Aug-CC-pVDZ\C6H13N1O5\OHZDE\08-Apr-2025\0\\#t hf
  aug-cc-pvdz iop(5/13=1,5/36=2,99/5=2) pseudo=read geom=check guess=(r
 ead,tcheck) scf=(maxcycle=1)\\title\\0,1\C,0,0.156508,-0.562118,-1.026
 46\C,0,1.00878,0.722287,-0.903278\C,0,0.403435,1.59154,0.171517\C,0,-0
 .01342,0.530381,1.16801\C,0,-0.541824,-0.700656,0.348278\C,0,-2.02384,
 -0.767856,0.134567\H,0,-2.04675,0.953762,-0.61092\H,0,-2.27057,-1.7712
 2,-0.278362\H,0,-2.43588,-0.798035,1.1879\H,0,0.548765,-1.47201,1.6382
 3\H,0,1.93382,0.211074,1.46505\H,0,-0.799141,0.802778,1.86335\H,0,-0.6

 Normal termination of Gaussian 16 at Tue Apr  8 19:21:44 2025.
