 Gaussian 16, Revision C.01,

 ----------------------------------------------------------------------
 #t hf aug-cc-pvdz symm=none int=(grid=ultrafine) guess=(read,tcheck) s
 table=(opt,rrhf)
 ----------------------------------------------------------------------
 -----
 title
 -----
 Symbolic Z-matrix:
 Charge =  0 Multiplicity = 1

 SCF Done:  E(RHF) =  -336.778083637     A.U. after   15 cycles
 Normal termination of Gaussian 16 at Tue Apr  8 21:43:49 2025.
 Gaussian 16:  ES64L-G16RevC.01  3-Jul-2019

 ----------------------------------------------------------------------
 #t hf aug-cc-pvdz iop(5/13=1,5/36=2,99/5=2) pseudo=read geom=check gue
 ss=(read,tcheck) scf=(maxcycle=1)
 ----------------------------------------------------------------------
 -----
 title
 -----
 Structure from the checkpoint file:  "ANI1ccx_515_conf3_mol1.chk"
 Charge =  0 Multiplicity = 1

                         Standard orientation:
 ---------------------------------------------------------------------
 Center     Atomic      Atomic             Coordinates (Angstroms)
 Number     Number       Type             X           Y           Z
 ---------------------------------------------------------------------
      1          6           0        0.738275   -0.221844   -0.035169
      2          6           0       -0.736688    0.244056    0.001671
      3          1           0        2.541993    0.694423    0.297228
      4          1           0        1.157155    1.697666    0.229300
      5          1           0       -2.600841   -0.745018   -0.016998
      6          1           0       -1.171614   -1.711748    0.136420
      7          7           0        1.561793    0.797698    0.065137
      8          7           0       -1.590351   -0.824993    0.129612
      9          8           0        1.049867   -1.414763   -0.111894
     10          8           0       -1.016905    1.430072   -0.114132
 ---------------------------------------------------------------------

 SCF Done:  E(RHF) =  -336.882988713     A.U. after    2 cycles

 The electronic state is 1-A.
 Alpha  occ. eigenvalues --  -20.57247 -20.56108 -15.67024 -15.66689 -11.39855
 Alpha  occ. eigenvalues --  -11.39109  -1.38405  -1.35175  -1.21591  -1.19411
 Alpha  occ. eigenvalues --   -0.92313  -0.81019  -0.78025  -0.73138  -0.68079
 Alpha  occ. eigenvalues --   -0.67517  -0.63197  -0.61537  -0.56505  -0.53233
 Alpha  occ. eigenvalues --   -0.45067  -0.44123  -0.43014
 Alpha virt. eigenvalues --    0.03223   0.03447   0.05516   0.06871   0.08728
 Alpha virt. eigenvalues --    0.09794   0.10801   0.12214   0.12711   0.13272
 Alpha virt. eigenvalues --    0.14364   0.16210   0.16535   0.17094   0.19131

 Mulliken charges:
               1
     1  C    0.583700
     2  C    0.655863
     3  H    0.002273
     4  H    0.046107
     5  H    0.019825
     6  H    0.001679
     7  N   -0.089468
     8  N   -0.152957
     9  O   -0.545637
    10  O   -0.521384
 Sum of Mulliken charges =  -0.00000

 Dipole moment (field-independent basis, Debye):
    X=             -0.0357    Y=              0.2485    Z=              0.9135  Tot=              0.9473

 Test job not archived.
 1\1\GINC-SE087\SP\RHF\Aug-CC-pVDZ\C2H4N2O2\OHZDE\08-Apr-2025\0\\#t hf
 aug-cc-pvdz iop(5/13=1,5/36=2,99/5=2) pseudo=read geom=check guess=(re
 ad,tcheck) scf=(maxcycle=1)\\title\\0,1\C,0,0.738275,-0.221841,-0.0351
 687\C,0,-0.73669,0.244055,0.00167048\H,0,2.54199,0.69443,0.297228\H,0,
 1.15715,1.69767,0.2293\H,0,-2.60084,-0.745024,-0.0169976\H,0,-1.17161,
 -1.71175,0.13642\N,0,1.56179,0.797703,0.0651373\N,0,-1.59035,-0.824997
 ,0.129612\O,0,1.04987,-1.41476,-0.111894\O,0,-1.01691,1.43007,-0.11413
 2\\Version=ES64L-G16RevC.01\State=1-A\HF=-336.8829887\RMSD=3.355e-03\D

 Normal termination of Gaussian 16 at Tue Apr  8 21:43:53 2025.
