 Gaussian 16, Revision C.01,

 ----------------------------------------------------------------------
 #t hf aug-cc-pvdz symm=none int=(grid=ultrafine) guess=(read,tcheck) s
 table=(opt,rrhf)
 ----------------------------------------------------------------------
 -----
 title
 -----
 Symbolic Z-matrix:
 Charge =  0 Multiplicity = 1

 SCF Done:  E(RHF) =  -982.049122109     A.U. after   15 cycles
 Normal termination of Gaussian 16 at Tue Apr  8 20:47:25 2025.
 Gaussian 16:  ES64L-G16RevC.01  3-Jul-2019

 ----------------------------------------------------------------------
 #t hf aug-cc-pvdz iop(5/13=1,5/36=2,99/5=2) pseudo=read geom=check gue
 ss=(read,tcheck) scf=(maxcycle=1)
 ----------------------------------------------------------------------
 -----
 title
 -----
 Structure from the checkpoint file:  "ANI1ccx_1743_conf32_mol1.chk"
 Charge =  0 Multiplicity = 1

                         Standard orientation:
 ---------------------------------------------------------------------
 Center     Atomic      Atomic             Coordinates (Angstroms)
 Number     Number       Type             X           Y           Z
 ---------------------------------------------------------------------
      1          6           0       -1.347981    1.790439   -0.455915
      2          6           0        0.003960    1.936680    0.089214
      3          6           0       -2.322421    1.266749    0.650417
      4          6           0       -2.573191   -0.161133    0.999963
      5          6           0       -2.816370   -1.036411   -0.224018
      6          6           0        0.926418   -0.476379   -0.243722
      7          6           0        0.528880   -1.067290    1.113690
      8          6           0        2.207090   -1.016520   -0.878264
      9          6           0        3.476559   -0.343312   -0.397965
     10          1           0       -0.588244   -2.394110    0.206796
     11          1           0        5.317779   -0.200126   -0.732192
     12          1           0        2.212570   -0.903633   -1.964600
     13          1           0        2.055490   -2.095250   -0.878260
     14          1           0       -0.019693   -0.618023   -0.805434
     15          1           0        1.813609    1.234170    0.456349
     16          1           0       -4.065990   -1.479941   -1.608000
     17          1           0       -3.490141   -0.245689    1.621060
     18          1           0       -1.882131   -0.682437    1.583200
     19          1           0       -2.101431    1.724599    1.588230
     20          1           0       -3.313801    1.600889    0.361379
     21          1           0       -1.591661    2.854509   -0.593770
     22          1           0       -2.326681    1.048169   -2.158810
     23          1           0       -0.659775    1.303260   -2.373820
     24          7           0       -1.410081    1.046149   -1.692920
     25          7           0        1.006989    0.997433   -0.120516
     26          8           0        0.237657    3.002660    0.642734
     27          8           0       -2.033680   -1.848431   -0.706502
     28          8           0       -4.079371   -0.876676   -0.817820
     29          8           0        0.830474   -0.473431    2.136100
     30          8           0        3.487529    0.310143    0.653300
     31          8           0        4.501089   -0.468064   -1.217930
     32          8           0       -0.073189   -2.247250    1.069060
 ---------------------------------------------------------------------

 SCF Done:  E(RHF) =  -982.348696636     A.U. after    2 cycles

 The electronic state is 1-A.
 Alpha  occ. eigenvalues --  -20.65737 -20.65205 -20.61933 -20.60258 -20.57675
 Alpha  occ. eigenvalues --  -20.55401 -20.53128 -15.63554 -15.63316 -11.44128
 Alpha  occ. eigenvalues --  -11.42878 -11.39284 -11.35739 -11.30919 -11.29131
 Alpha  occ. eigenvalues --  -11.28728 -11.27680 -11.26340  -1.45154  -1.43667
 Alpha  occ. eigenvalues --   -1.41257  -1.34454  -1.34393  -1.33693  -1.31685
 Alpha  occ. eigenvalues --   -1.19897  -1.17520  -1.09471  -1.06823  -0.98804
 Alpha  occ. eigenvalues --   -0.95832  -0.90066  -0.86444  -0.84353  -0.83219
 Alpha  occ. eigenvalues --   -0.78297  -0.75374  -0.74265  -0.73943  -0.73114
 Alpha  occ. eigenvalues --   -0.71420  -0.69090  -0.67942  -0.67683  -0.67290
 Alpha  occ. eigenvalues --   -0.67237  -0.66106  -0.65302  -0.63029  -0.62542
 Alpha  occ. eigenvalues --   -0.61897  -0.60203  -0.59496  -0.58968  -0.57202
 Alpha  occ. eigenvalues --   -0.56134  -0.55538  -0.54875  -0.53565  -0.52839
 Alpha  occ. eigenvalues --   -0.50852  -0.50427  -0.49120  -0.48821  -0.47854
 Alpha  occ. eigenvalues --   -0.45568  -0.43454  -0.40347  -0.39133
 Alpha virt. eigenvalues --    0.01926   0.02804   0.03536   0.03838   0.04474
 Alpha virt. eigenvalues --    0.05227   0.06179   0.06513   0.07352   0.07701
 Alpha virt. eigenvalues --    0.08101   0.08489   0.09263   0.09856   0.10485

 Mulliken charges:
               1
     1  C    0.744709
     2  C    0.545325
     3  C   -0.016329
     4  C    0.777413
     5  C    0.683382
     6  C   -0.221690
     7  C    0.680186
     8  C    0.936778
     9  C    0.822962
    10  H    0.362388
    11  H    0.249863
    12  H   -0.018973
    13  H   -0.018374
    14  H   -0.204095
    15  H    0.073802
    16  H    0.195220
    17  H    0.083574
    18  H   -0.444869
    19  H   -0.116749
    20  H   -0.026219
    21  H   -0.067839
    22  H    0.014866
    23  H    0.043244
    24  N   -0.362611
    25  N   -0.468183
    26  O   -0.637583
    27  O   -0.614720
    28  O   -0.646881
    29  O   -0.596676
    30  O   -0.559263
    31  O   -0.546003
    32  O   -0.646656
 Sum of Mulliken charges =  -0.00000

 Dipole moment (field-independent basis, Debye):
    X=             -2.6901    Y=             -3.5167    Z=             -6.7890  Tot=              8.1052

 Test job not archived.
 1\1\GINC-SE059\SP\RHF\Aug-CC-pVDZ\C9H14N2O7\OHZDE\08-Apr-2025\0\\#t hf
  aug-cc-pvdz iop(5/13=1,5/36=2,99/5=2) pseudo=read geom=check guess=(r
 ead,tcheck) scf=(maxcycle=1)\\title\\0,1\C,0,-1.34798,1.79044,-0.45591
 5\C,0,0.00396159,1.93668,0.0892136\C,0,-2.32242,1.26675,0.650417\C,0,-
 2.57319,-0.161132,0.999963\C,0,-2.81637,-1.03641,-0.224018\C,0,0.92641
 9,-0.476379,-0.243722\C,0,0.52888,-1.06729,1.11369\C,0,2.20709,-1.0165
 2,-0.878264\C,0,3.47656,-0.343313,-0.397965\H,0,-0.588244,-2.39411,0.2
 06796\H,0,5.31778,-0.200127,-0.732192\H,0,2.21257,-0.903633,-1.9646\H,

 Normal termination of Gaussian 16 at Tue Apr  8 20:48:18 2025.
