 Gaussian 16, Revision C.01,

 ----------------------------------------------------------------------
 #t hf aug-cc-pvdz symm=none int=(grid=ultrafine) guess=(read,tcheck) s
 table=(opt,rrhf)
 ----------------------------------------------------------------------
 -----
 title
 -----
 Symbolic Z-matrix:
 Charge =  0 Multiplicity = 1

 SCF Done:  E(RHF) =  -301.624565551     A.U. after   14 cycles
 Normal termination of Gaussian 16 at Tue Apr  8 21:10:19 2025.
 Gaussian 16:  ES64L-G16RevC.01  3-Jul-2019

 ----------------------------------------------------------------------
 #t hf aug-cc-pvdz iop(5/13=1,5/36=2,99/5=2) pseudo=read geom=check gue
 ss=(read,tcheck) scf=(maxcycle=1)
 ----------------------------------------------------------------------
 -----
 title
 -----
 Structure from the checkpoint file:  "ANI1ccx_1884_conf2_mol2.chk"
 Charge =  0 Multiplicity = 1

                         Standard orientation:
 ---------------------------------------------------------------------
 Center     Atomic      Atomic             Coordinates (Angstroms)
 Number     Number       Type             X           Y           Z
 ---------------------------------------------------------------------
      1          1           0       -1.991610   -0.543937    0.402104
      2          1           0       -2.855340    0.680259    0.292470
      3          1           0       -0.054585    1.212990   -0.380707
      4          1           0        1.425030   -1.241100    0.906367
      5          8           0       -2.714740   -0.178890   -0.120528
      6          8           0        0.654722    1.130870    0.254239
      7          8           0        1.495210    0.152444   -0.337115
      8          8           0        0.999371   -1.117950    0.050875
 ---------------------------------------------------------------------

 SCF Done:  E(RHF) =  -301.725236538     A.U. after    2 cycles

 The electronic state is 1-A.
 Alpha  occ. eigenvalues --  -20.72470 -20.66848 -20.66613 -20.58769  -1.51262
 Alpha  occ. eigenvalues --   -1.35015  -1.31930  -1.14040  -0.81163  -0.73270
 Alpha  occ. eigenvalues --   -0.72953  -0.71331  -0.67972  -0.60930  -0.55137
 Alpha  occ. eigenvalues --   -0.54662  -0.53632  -0.53151
 Alpha virt. eigenvalues --    0.03234   0.04399   0.06408   0.07601   0.12022
 Alpha virt. eigenvalues --    0.13266   0.16848   0.18147   0.18582   0.20140
 Alpha virt. eigenvalues --    0.21515   0.22774   0.23594   0.24068   0.24644

 Mulliken charges:
               1
     1  H    0.146918
     2  H    0.129393
     3  H    0.221695
     4  H    0.238910
     5  O   -0.275306
     6  O   -0.159101
     7  O   -0.126862
     8  O   -0.175648
 Sum of Mulliken charges =  -0.00000

 Dipole moment (field-independent basis, Debye):
    X=              0.3133    Y=              0.6670    Z=              2.1604  Tot=              2.2826

 Test job not archived.
 1\1\GINC-SE068\SP\RHF\Aug-CC-pVDZ\H4O4\OHZDE\08-Apr-2025\0\\#t hf aug-
 cc-pvdz iop(5/13=1,5/36=2,99/5=2) pseudo=read geom=check guess=(read,t
 check) scf=(maxcycle=1)\\title\\0,1\H,0,-1.99161,-0.543938,0.402104\H,
 0,-2.85534,0.680258,0.29247\H,0,-0.0545855,1.21299,-0.380707\H,0,1.425
 03,-1.2411,0.906367\O,0,-2.71474,-0.178891,-0.120528\O,0,0.654722,1.13
 087,0.254239\O,0,1.49521,0.152444,-0.337115\O,0,0.999371,-1.11795,0.05
 08749\\Version=ES64L-G16RevC.01\State=1-A\HF=-301.7252365\RMSD=2.280e-
 03\Dipole=0.1232513,0.2624123,0.8499727\Quadrupole=-3.0579649,1.708419

 Normal termination of Gaussian 16 at Tue Apr  8 21:10:21 2025.
