 Gaussian 16, Revision C.01,

 ----------------------------------------------------------------------
 #t hf aug-cc-pvdz symm=none int=(grid=ultrafine) guess=(read,tcheck) s
 table=(opt,rrhf)
 ----------------------------------------------------------------------
 -----
 title
 -----
 Symbolic Z-matrix:
 Charge =  0 Multiplicity = 1

 SCF Done:  E(RHF) =  -451.770551557     A.U. after   13 cycles
 Normal termination of Gaussian 16 at Tue Apr  8 21:52:15 2025.
 Gaussian 16:  ES64L-G16RevC.01  3-Jul-2019

 ----------------------------------------------------------------------
 #t hf aug-cc-pvdz iop(5/13=1,5/36=2,99/5=2) pseudo=read geom=check gue
 ss=(read,tcheck) scf=(maxcycle=1)
 ----------------------------------------------------------------------
 -----
 title
 -----
 Structure from the checkpoint file:  "ANI1ccx_764_conf43_mol1.chk"
 Charge =  0 Multiplicity = 1

                         Standard orientation:
 ---------------------------------------------------------------------
 Center     Atomic      Atomic             Coordinates (Angstroms)
 Number     Number       Type             X           Y           Z
 ---------------------------------------------------------------------
      1          6           0       -1.839930   -0.904819    0.470537
      2          6           0       -0.133127    0.862183    0.040824
      3          6           0        2.082480   -0.237337   -0.574350
      4          1           0       -2.766780    0.425822   -0.564307
      5          1           0       -2.010221   -2.054879    0.369314
      6          1           0       -2.023820   -0.339094    1.420830
      7          1           0        0.047195   -1.156700   -0.553924
      8          1           0        1.575311    1.710070   -0.165125
      9          1           0        1.679850   -1.069630   -1.174840
     10          1           0        3.019670    0.353507   -0.868793
     11          1           0        1.920909   -1.481810    0.887392
     12          7           0       -0.481523   -0.504731    0.091502
     13          7           0        1.184850    0.886415   -0.383772
     14          8           0       -2.813300   -0.536950   -0.592600
     15          8           0       -0.641192    1.864421    0.479418
     16          8           0        2.576750   -0.999875    0.497341
 ---------------------------------------------------------------------

 SCF Done:  E(RHF) =  -451.910506349     A.U. after    2 cycles

 The electronic state is 1-A.
 Alpha  occ. eigenvalues --  -20.58578 -20.58275 -20.56368 -15.67457 -15.64758
 Alpha  occ. eigenvalues --  -11.41631 -11.36269 -11.36083  -1.39142  -1.36975
 Alpha  occ. eigenvalues --   -1.32300  -1.23609  -1.17265  -0.96121  -0.92720
 Alpha  occ. eigenvalues --   -0.80916  -0.78383  -0.76298  -0.71345  -0.69113
 Alpha  occ. eigenvalues --   -0.65735  -0.65476  -0.63156  -0.61296  -0.58372
 Alpha  occ. eigenvalues --   -0.56145  -0.55463  -0.50390  -0.49800  -0.47204
 Alpha  occ. eigenvalues --   -0.44354  -0.41932
 Alpha virt. eigenvalues --    0.02573   0.03670   0.04185   0.04926   0.06159
 Alpha virt. eigenvalues --    0.06572   0.07573   0.09181   0.10128   0.11747
 Alpha virt. eigenvalues --    0.12323   0.12797   0.13861   0.14352   0.14897

 Mulliken charges:
               1
     1  C    0.822377
     2  C    0.664321
     3  C    0.987301
     4  H    0.148614
     5  H   -0.064557
     6  H   -0.085369
     7  H   -0.002844
     8  H   -0.230071
     9  H   -0.103599
    10  H   -0.105561
    11  H    0.088802
    12  N   -0.446137
    13  N   -0.204720
    14  O   -0.562177
    15  O   -0.456310
    16  O   -0.450070
 Sum of Mulliken charges =  -0.00000

 Dipole moment (field-independent basis, Debye):
    X=              1.5858    Y=             -2.3171    Z=             -0.5152  Tot=              2.8547

 Test job not archived.
 1\1\GINC-SE232\SP\RHF\Aug-CC-pVDZ\C3H8N2O3\OHZDE\08-Apr-2025\0\\#t hf
 aug-cc-pvdz iop(5/13=1,5/36=2,99/5=2) pseudo=read geom=check guess=(re
 ad,tcheck) scf=(maxcycle=1)\\title\\0,1\C,0,-1.83993,-0.90482,0.470537
 \C,0,-0.133127,0.862183,0.0408242\C,0,2.08248,-0.237337,-0.57435\H,0,-
 2.76678,0.42582,-0.564307\H,0,-2.01022,-2.05488,0.369314\H,0,-2.02382,
 -0.339095,1.42083\H,0,0.0471954,-1.1567,-0.553924\H,0,1.57531,1.71007,
 -0.165125\H,0,1.67985,-1.06963,-1.17484\H,0,3.01967,0.353508,-0.868793
 \H,0,1.92091,-1.48181,0.887392\N,0,-0.481523,-0.504732,0.0915015\N,0,1

 Normal termination of Gaussian 16 at Tue Apr  8 21:52:21 2025.
