 Gaussian 16, Revision C.01,

 ----------------------------------------------------------------------
 #t hf aug-cc-pvdz symm=none int=(grid=ultrafine) guess=(read,tcheck) s
 table=(opt,rrhf)
 ----------------------------------------------------------------------
 -----
 title
 -----
 Symbolic Z-matrix:
 Charge =  0 Multiplicity = 1

 SCF Done:  E(RHF) =  -654.477448255     A.U. after   18 cycles
 Normal termination of Gaussian 16 at Tue Apr  8 19:27:59 2025.
 Gaussian 16:  ES64L-G16RevC.01  3-Jul-2019

 ----------------------------------------------------------------------
 #t hf aug-cc-pvdz iop(5/13=1,5/36=2,99/5=2) pseudo=read geom=check gue
 ss=(read,tcheck) scf=(maxcycle=1)
 ----------------------------------------------------------------------
 -----
 title
 -----
 Structure from the checkpoint file:  "ANI1ccx_1371_conf1_mol2.chk"
 Charge =  0 Multiplicity = 1

                         Standard orientation:
 ---------------------------------------------------------------------
 Center     Atomic      Atomic             Coordinates (Angstroms)
 Number     Number       Type             X           Y           Z
 ---------------------------------------------------------------------
      1          6           0       -4.225940   -0.464771   -0.017503
      2          6           0       -2.984311    0.437424    0.039422
      3          6           0       -0.557068    0.087509   -0.002960
      4          6           0        0.917494    1.821570   -0.000445
      5          6           0        1.873959   -0.203702    0.019455
      6          6           0        0.561247   -0.805060   -0.021043
      7          1           0        2.566010   -1.941069    0.019820
      8          1           0        0.309249    3.788140   -0.077592
      9          1           0        2.030558    3.549550   -0.020282
     10          1           0       -1.849650   -1.405091   -0.065879
     11          1           0       -2.934021    1.163309   -0.786974
     12          1           0       -2.980341    1.078429    0.958663
     13          1           0       -5.148301    0.138940   -0.160939
     14          1           0       -4.076710   -1.159441   -0.872943
     15          1           0       -4.283820   -1.078361    0.885972
     16          7           0       -1.787700   -0.409249   -0.006310
     17          7           0       -0.367602    1.402840    0.031254
     18          7           0        1.086868    3.182410   -0.044509
     19          7           0        2.071029    1.087951    0.041355
     20          7           0        0.304928   -2.138180    0.003779
     21          8           0        2.912100   -1.006049   -0.008027
     22          8           0        1.300660   -2.900530   -0.012020
 ---------------------------------------------------------------------

 SCF Done:  E(RHF) =  -654.670517717     A.U. after    2 cycles

 The electronic state is 1-A.
 Alpha  occ. eigenvalues --  -20.60996 -20.60045 -15.76579 -15.66816 -15.66528
 Alpha  occ. eigenvalues --  -15.62855 -15.62773 -11.40531 -11.39380 -11.37203
 Alpha  occ. eigenvalues --  -11.29637 -11.27287 -11.25685  -1.43500  -1.39261
 Alpha  occ. eigenvalues --   -1.31812  -1.26337  -1.18579  -1.15869  -1.10839
 Alpha  occ. eigenvalues --   -1.02753  -0.94378  -0.89708  -0.87652  -0.86384
 Alpha  occ. eigenvalues --   -0.78356  -0.77408  -0.74979  -0.71185  -0.67051
 Alpha  occ. eigenvalues --   -0.66804  -0.66665  -0.64542  -0.64089  -0.61844
 Alpha  occ. eigenvalues --   -0.59371  -0.59140  -0.58495  -0.55601  -0.54342
 Alpha  occ. eigenvalues --   -0.53491  -0.50830  -0.49132  -0.43169  -0.42768
 Alpha  occ. eigenvalues --   -0.41009  -0.38421  -0.34775
 Alpha virt. eigenvalues --    0.02389   0.02961   0.04201   0.04478   0.04795
 Alpha virt. eigenvalues --    0.05325   0.05878   0.07225   0.07541   0.08746
 Alpha virt. eigenvalues --    0.09445   0.09924   0.11028   0.12229   0.12842

 Mulliken charges:
               1
     1  C    0.111754
     2  C    0.892937
     3  C    0.067928
     4  C    0.851568
     5  C    0.718631
     6  C    0.835030
     7  H    0.288630
     8  H   -0.069444
     9  H   -0.016835
    10  H   -0.019013
    11  H   -0.204337
    12  H   -0.110316
    13  H   -0.003747
    14  H   -0.011446
    15  H   -0.029171
    16  N   -0.370965
    17  N   -0.565920
    18  N   -0.184381
    19  N   -0.543394
    20  N   -0.380764
    21  O   -0.555804
    22  O   -0.700940
 Sum of Mulliken charges =  -0.00000

 Dipole moment (field-independent basis, Debye):
    X=             -4.7263    Y=              4.1310    Z=             -0.0741  Tot=              6.2777

 Test job not archived.
 1\1\GINC-SE457\SP\RHF\Aug-CC-pVDZ\C6H9N5O2\OHZDE\08-Apr-2025\0\\#t hf
 aug-cc-pvdz iop(5/13=1,5/36=2,99/5=2) pseudo=read geom=check guess=(re
 ad,tcheck) scf=(maxcycle=1)\\title\\0,1\C,0,-4.22594,-0.46477,-0.01750
 29\C,0,-2.98431,0.437425,0.0394221\C,0,-0.557067,0.0875098,-0.00295964
 \C,0,0.917495,1.82157,-0.00044482\C,0,1.87396,-0.203702,0.0194546\C,0,
 0.561247,-0.80506,-0.0210433\H,0,2.56601,-1.94107,0.0198196\H,0,0.3092
 51,3.78814,-0.0775917\H,0,2.03056,3.54955,-0.020282\H,0,-1.84965,-1.40
 509,-0.0658788\H,0,-2.93402,1.16331,-0.786974\H,0,-2.98034,1.07843,0.9

 Normal termination of Gaussian 16 at Tue Apr  8 19:28:15 2025.
