 Gaussian 16, Revision C.01,

 ----------------------------------------------------------------------
 #t hf aug-cc-pvdz symm=none int=(grid=ultrafine) guess=(read,tcheck) s
 table=(opt,rrhf)
 ----------------------------------------------------------------------
 -----
 title
 -----
 Symbolic Z-matrix:
 Charge =  0 Multiplicity = 1

 SCF Done:  E(RHF) =  -451.829358658     A.U. after   13 cycles
 Normal termination of Gaussian 16 at Tue Apr  8 21:52:30 2025.
 Gaussian 16:  ES64L-G16RevC.01  3-Jul-2019

 ----------------------------------------------------------------------
 #t hf aug-cc-pvdz iop(5/13=1,5/36=2,99/5=2) pseudo=read geom=check gue
 ss=(read,tcheck) scf=(maxcycle=1)
 ----------------------------------------------------------------------
 -----
 title
 -----
 Structure from the checkpoint file:  "ANI1ccx_764_conf6_mol1.chk"
 Charge =  0 Multiplicity = 1

                         Standard orientation:
 ---------------------------------------------------------------------
 Center     Atomic      Atomic             Coordinates (Angstroms)
 Number     Number       Type             X           Y           Z
 ---------------------------------------------------------------------
      1          6           0       -2.007151   -0.561073    0.589044
      2          6           0       -0.034045    0.740569    0.113221
      3          6           0        2.259779   -0.206300    0.344908
      4          1           0       -2.209062    0.267320   -1.059460
      5          1           0       -2.206400   -1.528311    1.062410
      6          1           0       -2.477642    0.291676    1.130600
      7          1           0       -0.112353   -0.945072    1.346420
      8          1           0        1.611417    1.735332   -0.221580
      9          1           0        3.238528    0.271422    0.431792
     10          1           0        2.088309   -0.797685    1.273040
     11          1           0        1.347180   -1.448718   -0.810009
     12          7           0       -0.564182   -0.465958    0.576999
     13          7           0        1.339998    0.905196    0.308789
     14          8           0       -2.507471   -0.595039   -0.704857
     15          8           0       -0.734611    1.565990   -0.437951
     16          8           0        2.239309   -1.065927   -0.811789
 ---------------------------------------------------------------------

 SCF Done:  E(RHF) =  -451.971510204     A.U. after    2 cycles

 The electronic state is 1-A.
 Alpha  occ. eigenvalues --  -20.59615 -20.57138 -20.56115 -15.66579 -15.66536
 Alpha  occ. eigenvalues --  -11.41585 -11.35767 -11.33560  -1.39406  -1.34547
 Alpha  occ. eigenvalues --   -1.33798  -1.22408  -1.18180  -0.95696  -0.92077
 Alpha  occ. eigenvalues --   -0.80832  -0.77039  -0.74616  -0.70822  -0.69121
 Alpha  occ. eigenvalues --   -0.67824  -0.65374  -0.63220  -0.60994  -0.60565
 Alpha  occ. eigenvalues --   -0.57020  -0.54276  -0.50476  -0.48790  -0.47579
 Alpha  occ. eigenvalues --   -0.44142  -0.42609
 Alpha virt. eigenvalues --    0.02391   0.03433   0.04516   0.04922   0.06267
 Alpha virt. eigenvalues --    0.06508   0.07984   0.08754   0.10224   0.11662
 Alpha virt. eigenvalues --    0.12367   0.13352   0.13902   0.14367   0.15122

 Mulliken charges:
               1
     1  C    1.089560
     2  C    0.755880
     3  C    1.098573
     4  H    0.192121
     5  H   -0.266826
     6  H   -0.115148
     7  H   -0.081214
     8  H   -0.014801
     9  H   -0.211639
    10  H   -0.126742
    11  H    0.184963
    12  N   -0.500411
    13  N   -0.415218
    14  O   -0.532152
    15  O   -0.514042
    16  O   -0.542905
 Sum of Mulliken charges =   0.00000

 Dipole moment (field-independent basis, Debye):
    X=              2.1106    Y=             -0.8013    Z=              3.8373  Tot=              4.4521

 Test job not archived.
 1\1\GINC-SE247\SP\RHF\Aug-CC-pVDZ\C3H8N2O3\OHZDE\08-Apr-2025\0\\#t hf
 aug-cc-pvdz iop(5/13=1,5/36=2,99/5=2) pseudo=read geom=check guess=(re
 ad,tcheck) scf=(maxcycle=1)\\title\\0,1\C,0,-2.00715,-0.561072,0.58904
 4\C,0,-0.0340433,0.740568,0.113221\C,0,2.25978,-0.206303,0.344908\H,0,
 -2.20906,0.267321,-1.05946\H,0,-2.2064,-1.52831,1.06241\H,0,-2.47764,0
 .291677,1.1306\H,0,-0.112352,-0.945073,1.34642\H,0,1.61142,1.73533,-0.
 22158\H,0,3.23853,0.271419,0.431792\H,0,2.08831,-0.797687,1.27304\H,0,
 1.34718,-1.44872,-0.810009\N,0,-0.564181,-0.465958,0.576999\N,0,1.34,0

 Normal termination of Gaussian 16 at Tue Apr  8 21:52:36 2025.
