 Gaussian 16, Revision C.01,

 ----------------------------------------------------------------------
 #t hf aug-cc-pvdz symm=none int=(grid=ultrafine) guess=(read,tcheck) s
 table=(opt,rrhf)
 ----------------------------------------------------------------------
 -----
 title
 -----
 Symbolic Z-matrix:
 Charge =  0 Multiplicity = 1

 SCF Done:  E(RHF) =  -228.120948888     A.U. after   11 cycles
 Normal termination of Gaussian 16 at Tue Apr  8 21:12:19 2025.
 Gaussian 16:  ES64L-G16RevC.01  3-Jul-2019

 ----------------------------------------------------------------------
 #t hf aug-cc-pvdz iop(5/13=1,5/36=2,99/5=2) pseudo=read geom=check gue
 ss=(read,tcheck) scf=(maxcycle=1)
 ----------------------------------------------------------------------
 -----
 title
 -----
 Structure from the checkpoint file:  "ANI1ccx_1900_conf31_mol1.chk"
 Charge =  0 Multiplicity = 1

                         Standard orientation:
 ---------------------------------------------------------------------
 Center     Atomic      Atomic             Coordinates (Angstroms)
 Number     Number       Type             X           Y           Z
 ---------------------------------------------------------------------
      1          1           0        2.046499   -0.792250    0.713954
      2          1           0        0.611807   -1.210341    0.078960
      3          1           0        0.724668    1.096809   -0.068194
      4          1           0       -0.067886    2.164681    0.684528
      5          1           0       -2.110862   -0.933990    0.609800
      6          1           0       -1.119960    0.025335   -0.210225
      7          8           0        1.505579   -0.688157   -0.087789
      8          8           0       -0.158301    1.569281   -0.084077
      9          8           0       -1.357812   -0.924904   -0.054237
 ---------------------------------------------------------------------

 SCF Done:  E(RHF) =  -228.196619645     A.U. after    2 cycles

 The electronic state is 1-A.
 Alpha  occ. eigenvalues --  -20.58571 -20.58508 -20.57168  -1.31356  -1.29219
 Alpha  occ. eigenvalues --   -1.28351  -0.73830  -0.71117  -0.70253  -0.61745
 Alpha  occ. eigenvalues --   -0.59856  -0.57936  -0.53708  -0.51941  -0.51235
 Alpha virt. eigenvalues --    0.02672   0.04969   0.05275   0.08083   0.08580
 Alpha virt. eigenvalues --    0.08886   0.16629   0.18595   0.19254   0.21126
 Alpha virt. eigenvalues --    0.21401   0.21717   0.23853   0.25751   0.26540

 Mulliken charges:
               1
     1  H    0.162783
     2  H    0.299531
     3  H    0.237725
     4  H    0.183296
     5  H    0.203022
     6  H    0.243568
     7  O   -0.465125
     8  O   -0.432073
     9  O   -0.432727
 Sum of Mulliken charges =  -0.00000

 Dipole moment (field-independent basis, Debye):
    X=              0.2629    Y=              0.8665    Z=              3.8714  Tot=              3.9759

 Test job not archived.
 1\1\GINC-SE096\SP\RHF\Aug-CC-pVDZ\H6O3\OHZDE\08-Apr-2025\0\\#t hf aug-
 cc-pvdz iop(5/13=1,5/36=2,99/5=2) pseudo=read geom=check guess=(read,t
 check) scf=(maxcycle=1)\\title\\0,1\H,0,2.0465,-0.792247,0.713954\H,0,
 0.611809,-1.21034,0.0789599\H,0,0.724666,1.09681,-0.0681937\H,0,-0.067
 8898,2.16468,0.684528\H,0,-2.11086,-0.933994,0.6098\H,0,-1.11996,0.025
 3319,-0.210225\O,0,1.50558,-0.688155,-0.0877891\O,0,-0.158304,1.56928,
 -0.0840773\O,0,-1.35781,-0.924907,-0.0542365\\Version=ES64L-G16RevC.01
 \State=1-A\HF=-228.1966196\RMSD=1.866e-03\Dipole=0.1034514,0.3409163,1

 Normal termination of Gaussian 16 at Tue Apr  8 21:12:21 2025.
