 Gaussian 16, Revision C.01,

 ----------------------------------------------------------------------
 #t hf aug-cc-pvdz symm=none int=(grid=ultrafine) guess=(read,tcheck) s
 table=(opt,rrhf)
 ----------------------------------------------------------------------
 -----
 title
 -----
 Symbolic Z-matrix:
 Charge =  0 Multiplicity = 1

 SCF Done:  E(RHF) =  -541.247421607     A.U. after   15 cycles
 Normal termination of Gaussian 16 at Tue Apr  8 21:56:19 2025.
 Gaussian 16:  ES64L-G16RevC.01  3-Jul-2019

 ----------------------------------------------------------------------
 #t hf aug-cc-pvdz iop(5/13=1,5/36=2,99/5=2) pseudo=read geom=check gue
 ss=(read,tcheck) scf=(maxcycle=1)
 ----------------------------------------------------------------------
 -----
 title
 -----
 Structure from the checkpoint file:  "ANI1ccx_869_conf9_mol1.chk"
 Charge =  0 Multiplicity = 1

                         Standard orientation:
 ---------------------------------------------------------------------
 Center     Atomic      Atomic             Coordinates (Angstroms)
 Number     Number       Type             X           Y           Z
 ---------------------------------------------------------------------
      1          6           0       -1.288719    0.069861   -0.089656
      2          6           0       -0.428414    1.349160   -0.100125
      3          6           0        1.701321   -0.050201    0.002433
      4          6           0       -0.447138   -1.278310   -0.014497
      5          1           0       -2.869860   -0.875185    0.216697
      6          1           0        1.470232    2.033369    0.297738
      7          1           0        1.369600   -2.145821   -0.062996
      8          7           0       -2.537609    0.076221    0.184089
      9          7           0        0.911855    1.147469    0.190415
     10          7           0        0.938118   -1.229281   -0.154215
     11          8           0       -0.977872    2.407850   -0.145875
     12          8           0        2.930541    0.021883    0.049828
     13          8           0       -1.000020   -2.369270   -0.001753
 ---------------------------------------------------------------------

 SCF Done:  E(RHF) =  -541.408100483     A.U. after    2 cycles

 The electronic state is 1-A.
 Alpha  occ. eigenvalues --  -20.60969 -20.60675 -20.59880 -15.73647 -15.72811
 Alpha  occ. eigenvalues --  -15.69698 -11.48163 -11.44122 -11.42810 -11.36830
 Alpha  occ. eigenvalues --   -1.42730  -1.41266  -1.40354  -1.27805  -1.23937
 Alpha  occ. eigenvalues --   -1.22565  -0.99058  -0.92343  -0.89894  -0.81841
 Alpha  occ. eigenvalues --   -0.78005  -0.72695  -0.71987  -0.70548  -0.69439
 Alpha  occ. eigenvalues --   -0.68962  -0.66155  -0.62713  -0.60687  -0.54733
 Alpha  occ. eigenvalues --   -0.53382  -0.51231  -0.48914  -0.47871  -0.47189
 Alpha  occ. eigenvalues --   -0.45923
 Alpha virt. eigenvalues --    0.01215   0.03092   0.03965   0.04617   0.05732
 Alpha virt. eigenvalues --    0.08249   0.08951   0.09580   0.10916   0.11578
 Alpha virt. eigenvalues --    0.12470   0.12922   0.13161   0.13468   0.13714

 Mulliken charges:
               1
     1  C    0.313609
     2  C    0.602158
     3  C    0.930373
     4  C    0.752924
     5  H    0.073216
     6  H    0.052932
     7  H   -0.006965
     8  N   -0.354738
     9  N   -0.531208
    10  N   -0.472210
    11  O   -0.405283
    12  O   -0.440809
    13  O   -0.513997
 Sum of Mulliken charges =  -0.00000

 Dipole moment (field-independent basis, Debye):
    X=              1.0829    Y=             -1.4776    Z=              0.1500  Tot=              1.8381

 Test job not archived.
 1\1\GINC-SE232\SP\RHF\Aug-CC-pVDZ\C4H3N3O3\OHZDE\08-Apr-2025\0\\#t hf
 aug-cc-pvdz iop(5/13=1,5/36=2,99/5=2) pseudo=read geom=check guess=(re
 ad,tcheck) scf=(maxcycle=1)\\title\\0,1\C,0,-1.28872,0.0698609,-0.0896
 556\C,0,-0.428415,1.34916,-0.100125\C,0,1.70132,-0.0501998,0.00243298\
 C,0,-0.447138,-1.27831,-0.0144973\H,0,-2.86986,-0.875186,0.216697\H,0,
 1.47023,2.03337,0.297738\H,0,1.3696,-2.14582,-0.0629962\N,0,-2.53761,0
 .0762205,0.184089\N,0,0.911854,1.14747,0.190415\N,0,0.938118,-1.22928,
 -0.154215\O,0,-0.977874,2.40785,-0.145875\O,0,2.93054,0.0218842,0.0498

 Normal termination of Gaussian 16 at Tue Apr  8 21:56:26 2025.
