 Gaussian 16, Revision C.01,

 ----------------------------------------------------------------------
 #t hf aug-cc-pvdz symm=none int=(grid=ultrafine) guess=(read,tcheck) s
 table=(opt,rrhf)
 ----------------------------------------------------------------------
 -----
 title
 -----
 Symbolic Z-matrix:
 Charge =  0 Multiplicity = 1

 SCF Done:  E(RHF) =  -489.694923998     A.U. after   14 cycles
 Normal termination of Gaussian 16 at Tue Apr  8 22:12:05 2025.
 Gaussian 16:  ES64L-G16RevC.01  3-Jul-2019

 ----------------------------------------------------------------------
 #t hf aug-cc-pvdz iop(5/13=1,5/36=2,99/5=2) pseudo=read geom=check gue
 ss=(read,tcheck) scf=(maxcycle=1)
 ----------------------------------------------------------------------
 -----
 title
 -----
 Structure from the checkpoint file:  "ANI1ccx_957_conf36_mol1.chk"
 Charge =  0 Multiplicity = 1

                         Standard orientation:
 ---------------------------------------------------------------------
 Center     Atomic      Atomic             Coordinates (Angstroms)
 Number     Number       Type             X           Y           Z
 ---------------------------------------------------------------------
      1          6           0       -0.618592    0.589680   -0.269565
      2          6           0       -1.392771   -0.655581    0.079857
      3          6           0        0.693210    0.791469    0.650025
      4          6           0        1.833489    0.053699   -0.016630
      5          1           0       -2.947971    0.431198    0.063835
      6          1           0        2.813850   -1.672208   -0.465671
      7          1           0        0.619912    0.410164    1.709890
      8          1           0        1.038308    1.846701    0.689429
      9          1           0        1.159660   -1.892209   -0.199156
     10          1           0       -1.198942    2.276180    0.668696
     11          1           0       -1.472672    2.303650   -0.944456
     12          1           0       -0.193757    0.526630   -1.261220
     13          7           0       -1.528401    1.694370   -0.152866
     14          7           0        1.926020   -1.241098   -0.177360
     15          8           0        2.857179    0.734797   -0.168946
     16          8           0       -0.896025   -1.750410    0.201250
     17          8           0       -2.672871   -0.494213   -0.108791
 ---------------------------------------------------------------------

 SCF Done:  E(RHF) =  -489.847071662     A.U. after    2 cycles

 The electronic state is 1-A.
 Alpha  occ. eigenvalues --  -20.62398 -20.56955 -20.51774 -15.65977 -15.64396
 Alpha  occ. eigenvalues --  -11.40621 -11.35889 -11.31962 -11.28021  -1.44250
 Alpha  occ. eigenvalues --   -1.34208  -1.33586  -1.21419  -1.17616  -1.03463
 Alpha  occ. eigenvalues --   -0.94185  -0.85412  -0.81054  -0.76757  -0.73262
 Alpha  occ. eigenvalues --   -0.70868  -0.69411  -0.66197  -0.65809  -0.63701
 Alpha  occ. eigenvalues --   -0.61154  -0.58553  -0.56473  -0.55199  -0.52655
 Alpha  occ. eigenvalues --   -0.50243  -0.49067  -0.45692  -0.41864  -0.40750
 Alpha virt. eigenvalues --    0.02143   0.03540   0.04076   0.04621   0.05665
 Alpha virt. eigenvalues --    0.06817   0.07412   0.07914   0.10802   0.10907
 Alpha virt. eigenvalues --    0.11393   0.12622   0.13437   0.13832   0.13980

 Mulliken charges:
               1
     1  C    0.392748
     2  C    0.475848
     3  C    0.459714
     4  C    0.473795
     5  H    0.270105
     6  H    0.002040
     7  H    0.064655
     8  H   -0.130902
     9  H   -0.002297
    10  H    0.194628
    11  H    0.059302
    12  H   -0.021151
    13  N   -0.626751
    14  N   -0.099408
    15  O   -0.603205
    16  O   -0.482186
    17  O   -0.426935
 Sum of Mulliken charges =  -0.00000

 Dipole moment (field-independent basis, Debye):
    X=             -2.7213    Y=              2.5907    Z=             -0.0502  Tot=              3.7576

 Test job not archived.
 1\1\GINC-SE094\SP\RHF\Aug-CC-pVDZ\C4H8N2O3\OHZDE\08-Apr-2025\0\\#t hf
 aug-cc-pvdz iop(5/13=1,5/36=2,99/5=2) pseudo=read geom=check guess=(re
 ad,tcheck) scf=(maxcycle=1)\\title\\0,1\C,0,-0.618591,0.589679,-0.2695
 65\C,0,-1.39277,-0.655581,0.079857\C,0,0.693211,0.791468,0.650025\C,0,
 1.83349,0.0536973,-0.0166298\H,0,-2.94797,0.431198,0.0638347\H,0,2.813
 85,-1.67221,-0.465671\H,0,0.619913,0.410163,1.70989\H,0,1.03831,1.8467
 ,0.689429\H,0,1.15966,-1.89221,-0.199156\H,0,-1.19894,2.27618,0.668696
 \H,0,-1.47267,2.30365,-0.944456\H,0,-0.193756,0.526629,-1.26122\N,0,-1

 Normal termination of Gaussian 16 at Tue Apr  8 22:12:12 2025.
