 Gaussian 16, Revision C.01,

 ----------------------------------------------------------------------
 #t hf aug-cc-pvdz symm=none int=(grid=ultrafine) guess=(read,tcheck) s
 table=(opt,rrhf)
 ----------------------------------------------------------------------
 -----
 title
 -----
 Symbolic Z-matrix:
 Charge =  0 Multiplicity = 1

 SCF Done:  E(RHF) =  -456.193577530     A.U. after   11 cycles
 Normal termination of Gaussian 16 at Tue Apr  8 21:07:48 2025.
 Gaussian 16:  ES64L-G16RevC.01  3-Jul-2019

 ----------------------------------------------------------------------
 #t hf aug-cc-pvdz iop(5/13=1,5/36=2,99/5=2) pseudo=read geom=check gue
 ss=(read,tcheck) scf=(maxcycle=1)
 ----------------------------------------------------------------------
 -----
 title
 -----
 Structure from the checkpoint file:  "ANI1ccx_1844_conf660_mol1.chk"
 Charge =  0 Multiplicity = 1

                         Standard orientation:
 ---------------------------------------------------------------------
 Center     Atomic      Atomic             Coordinates (Angstroms)
 Number     Number       Type             X           Y           Z
 ---------------------------------------------------------------------
      1          1           0       -0.158211   -0.052152    1.757880
      2          1           0        1.696668    0.627801   -0.948139
      3          1           0        1.740903    2.414385   -0.867706
      4          1           0       -2.131512    0.607376    0.828792
      5          1           0       -1.388468   -0.862694    0.474078
      6          1           0        0.287829   -1.463859   -1.088810
      7          1           0        0.899323    1.073812    1.084610
      8          1           0       -1.017555   -2.075443   -1.863040
      9          1           0       -1.479941    0.397244   -1.228490
     10          1           0       -0.598963    1.621508   -0.716937
     11          1           0        2.397974   -1.759214   -0.169004
     12          1           0        1.525262   -0.699540    0.641178
     13          8           0       -1.808180   -0.285877    1.298730
     14          8           0       -1.484304    1.335006   -0.983628
     15          8           0        1.258435    1.505983   -0.627375
     16          8           0       -0.711625   -1.649062   -0.972798
     17          8           0        0.822507    0.253312    1.810200
     18          8           0        1.701503   -1.138015   -0.263177
 ---------------------------------------------------------------------

 SCF Done:  E(RHF) =  -456.338993207     A.U. after    2 cycles

 The electronic state is 1-A.
 Alpha  occ. eigenvalues --  -20.62216 -20.59880 -20.59855 -20.56069 -20.55860
 Alpha  occ. eigenvalues --  -20.55321  -1.34484  -1.31552  -1.30162  -1.28691
 Alpha  occ. eigenvalues --   -1.25725  -1.23455  -0.78482  -0.74455  -0.73693
 Alpha  occ. eigenvalues --   -0.73075  -0.68532  -0.67593  -0.62952  -0.62496
 Alpha  occ. eigenvalues --   -0.60577  -0.59283  -0.56684  -0.55795  -0.54852
 Alpha  occ. eigenvalues --   -0.53909  -0.53245  -0.49845  -0.49567  -0.48357
 Alpha virt. eigenvalues --    0.01902   0.03397   0.04261   0.06131   0.07168
 Alpha virt. eigenvalues --    0.07516   0.08112   0.08768   0.09022   0.10229
 Alpha virt. eigenvalues --    0.10708   0.11022   0.15280   0.17109   0.17744

 Mulliken charges:
               1
     1  H    0.292085
     2  H    0.354148
     3  H    0.295763
     4  H    0.316472
     5  H    0.370504
     6  H    0.333404
     7  H    0.388216
     8  H    0.274667
     9  H    0.198520
    10  H    0.238791
    11  H    0.174809
    12  H    0.367688
    13  O   -0.675559
    14  O   -0.375769
    15  O   -0.706146
    16  O   -0.608791
    17  O   -0.661494
    18  O   -0.577307
 Sum of Mulliken charges =  -0.00000

 Dipole moment (field-independent basis, Debye):
    X=              4.6428    Y=             -0.5330    Z=             -4.7611  Tot=              6.6714

 Test job not archived.
 1\1\GINC-SE457\SP\RHF\Aug-CC-pVDZ\H12O6\OHZDE\08-Apr-2025\0\\#t hf aug
 -cc-pvdz iop(5/13=1,5/36=2,99/5=2) pseudo=read geom=check guess=(read,
 tcheck) scf=(maxcycle=1)\\title\\0,1\H,0,-0.158211,-0.0521516,1.75788\
 H,0,1.69667,0.627796,-0.948139\H,0,1.74091,2.41438,-0.867706\H,0,-2.13
 151,0.607382,0.828792\H,0,-1.38847,-0.86269,0.474078\H,0,0.287825,-1.4
 6386,-1.08881\H,0,0.899326,1.07381,1.08461\H,0,-1.01756,-2.07544,-1.86
 304\H,0,-1.47994,0.397248,-1.22849\H,0,-0.598958,1.62151,-0.716937\H,0
 ,2.39797,-1.75922,-0.169004\H,0,1.52526,-0.699544,0.641178\O,0,-1.8081

 Normal termination of Gaussian 16 at Tue Apr  8 21:07:53 2025.
