 Gaussian 16, Revision C.01,

 ----------------------------------------------------------------------
 #t hf aug-cc-pvdz symm=none int=(grid=ultrafine) guess=(read,tcheck) s
 table=(opt,rrhf)
 ----------------------------------------------------------------------
 -----
 title
 -----
 Symbolic Z-matrix:
 Charge =  0 Multiplicity = 1

 SCF Done:  E(RHF) =  -490.255903585     A.U. after   15 cycles
 Normal termination of Gaussian 16 at Tue Apr  8 21:49:50 2025.
 Gaussian 16:  ES64L-G16RevC.01  3-Jul-2019

 ----------------------------------------------------------------------
 #t hf aug-cc-pvdz iop(5/13=1,5/36=2,99/5=2) pseudo=read geom=check gue
 ss=(read,tcheck) scf=(maxcycle=1)
 ----------------------------------------------------------------------
 -----
 title
 -----
 Structure from the checkpoint file:  "ANI1ccx_703_conf47_mol1.chk"
 Charge =  0 Multiplicity = 1

                         Standard orientation:
 ---------------------------------------------------------------------
 Center     Atomic      Atomic             Coordinates (Angstroms)
 Number     Number       Type             X           Y           Z
 ---------------------------------------------------------------------
      1          6           0        0.038455   -0.082471    0.768826
      2          6           0        1.368129    0.334845    0.025362
      3          6           0       -1.152000    0.085150   -0.107310
      4          1           0       -0.703688   -1.697280    0.047943
      5          1           0       -0.245287    0.449893    1.737120
      6          1           0        2.333630   -0.394220   -1.385270
      7          1           0       -2.865412    1.251357   -0.426407
      8          8           0       -0.025641   -1.515879    0.842088
      9          8           0        1.766841   -0.773032   -0.680886
     10          8           0        1.844428    1.517953    0.078341
     11          8           0       -1.932162    1.365489   -0.004656
     12          8           0       -1.659309   -0.798893   -0.746719
 ---------------------------------------------------------------------

 SCF Done:  E(RHF) =  -490.404588433     A.U. after    2 cycles

 The electronic state is 1-A.
 Alpha  occ. eigenvalues --  -20.66789 -20.64367 -20.63498 -20.60727 -20.58701
 Alpha  occ. eigenvalues --  -11.46193 -11.45767 -11.37003  -1.46554  -1.43554
 Alpha  occ. eigenvalues --   -1.33571  -1.33281  -1.31786  -1.04098  -0.90522
 Alpha  occ. eigenvalues --   -0.80961  -0.78918  -0.75203  -0.74447  -0.72584
 Alpha  occ. eigenvalues --   -0.68258  -0.65736  -0.63100  -0.62636  -0.61121
 Alpha  occ. eigenvalues --   -0.56526  -0.54457  -0.53182  -0.52938  -0.51337
 Alpha  occ. eigenvalues --   -0.47693
 Alpha virt. eigenvalues --    0.02881   0.03678   0.04933   0.06187   0.07248
 Alpha virt. eigenvalues --    0.09084   0.09612   0.10888   0.11199   0.11687
 Alpha virt. eigenvalues --    0.12453   0.13315   0.14204   0.15618   0.16021

 Mulliken charges:
               1
     1  C    0.783194
     2  C    0.717429
     3  C    0.492490
     4  H    0.381698
     5  H    0.052041
     6  H    0.205767
     7  H    0.220320
     8  O   -0.679243
     9  O   -0.468447
    10  O   -0.520138
    11  O   -0.676578
    12  O   -0.508534
 Sum of Mulliken charges =  -0.00000

 Dipole moment (field-independent basis, Debye):
    X=             -1.4007    Y=             -0.0373    Z=             -1.4087  Tot=              1.9869

 Test job not archived.
 1\1\GINC-SE232\SP\RHF\Aug-CC-pVDZ\C3H4O5\OHZDE\08-Apr-2025\0\\#t hf au
 g-cc-pvdz iop(5/13=1,5/36=2,99/5=2) pseudo=read geom=check guess=(read
 ,tcheck) scf=(maxcycle=1)\\title\\0,1\C,0,0.0384551,-0.0824716,0.76882
 6\C,0,1.36813,0.334842,0.025362\C,0,-1.152,0.0851504,-0.10731\H,0,-0.7
 0369,-1.69728,0.0479429\H,0,-0.245286,0.449892,1.73712\H,0,2.33363,-0.
 394224,-1.38527\H,0,-2.86541,1.25136,-0.426407\O,0,-0.0256433,-1.51588
 ,0.842088\O,0,1.76684,-0.773035,-0.680886\O,0,1.84443,1.51795,0.078341
 2\O,0,-1.93216,1.36549,-0.00465641\O,0,-1.65931,-0.798892,-0.746719\\V

 Normal termination of Gaussian 16 at Tue Apr  8 21:49:56 2025.
