 Gaussian 16, Revision C.01,

 ----------------------------------------------------------------------
 #t hf aug-cc-pvdz symm=none int=(grid=ultrafine) guess=(read,tcheck) s
 table=(opt,rrhf)
 ----------------------------------------------------------------------
 -----
 title
 -----
 Symbolic Z-matrix:
 Charge =  0 Multiplicity = 1

 SCF Done:  E(RHF) =  -281.808130286     A.U. after   13 cycles
 Normal termination of Gaussian 16 at Tue Apr  8 21:11:19 2025.
 Gaussian 16:  ES64L-G16RevC.01  3-Jul-2019

 ----------------------------------------------------------------------
 #t hf aug-cc-pvdz iop(5/13=1,5/36=2,99/5=2) pseudo=read geom=check gue
 ss=(read,tcheck) scf=(maxcycle=1)
 ----------------------------------------------------------------------
 -----
 title
 -----
 Structure from the checkpoint file:  "ANI1ccx_1889_conf7_mol1.chk"
 Charge =  0 Multiplicity = 1

                         Standard orientation:
 ---------------------------------------------------------------------
 Center     Atomic      Atomic             Coordinates (Angstroms)
 Number     Number       Type             X           Y           Z
 ---------------------------------------------------------------------
      1          1           0       -2.608412   -0.930591   -0.083112
      2          1           0       -1.769272    1.117300   -0.746981
      3          1           0        2.219778    1.178039    0.305122
      4          1           0        1.170078   -0.692849    1.006150
      5          1           0        0.513760   -0.167561   -0.401783
      6          7           0        1.344918   -0.567348    0.019992
      7          8           0       -1.688862   -0.627012   -0.081492
      8          8           0       -1.890252    0.752012    0.159148
      9          8           0        2.461568    0.308387   -0.105074
 ---------------------------------------------------------------------

 SCF Done:  E(RHF) =  -281.900118442     A.U. after    2 cycles

 The electronic state is 1-A.
 Alpha  occ. eigenvalues --  -20.66463 -20.66263 -20.59703 -15.65385  -1.46385
 Alpha  occ. eigenvalues --   -1.33808  -1.20289  -1.03798  -0.76833  -0.74926
 Alpha  occ. eigenvalues --   -0.70837  -0.68097  -0.65762  -0.57774  -0.54673
 Alpha  occ. eigenvalues --   -0.53094  -0.48937  -0.40681
 Alpha virt. eigenvalues --    0.02681   0.03913   0.05088   0.06735   0.07921
 Alpha virt. eigenvalues --    0.13826   0.15216   0.15896   0.18267   0.18419
 Alpha virt. eigenvalues --    0.20139   0.21749   0.22037   0.22901   0.23331

 Mulliken charges:
               1
     1  H    0.246582
     2  H    0.241838
     3  H    0.156440
     4  H    0.076305
     5  H    0.122678
     6  N    0.122010
     7  O   -0.265268
     8  O   -0.240012
     9  O   -0.460573
 Sum of Mulliken charges =   0.00000

 Dipole moment (field-independent basis, Debye):
    X=             -4.1027    Y=              1.7995    Z=             -0.0409  Tot=              4.4802

 Test job not archived.
 1\1\GINC-SE030\SP\RHF\Aug-CC-pVDZ\H5N1O3\OHZDE\08-Apr-2025\0\\#t hf au
 g-cc-pvdz iop(5/13=1,5/36=2,99/5=2) pseudo=read geom=check guess=(read
 ,tcheck) scf=(maxcycle=1)\\title\\0,1\H,0,-2.60841,-0.930591,-0.083112
 6\H,0,-1.76927,1.1173,-0.746981\H,0,2.21978,1.17804,0.305122\H,0,1.170
 08,-0.692849,1.00615\H,0,0.513762,-0.167561,-0.401783\N,0,1.34492,-0.5
 67348,0.019992\O,0,-1.68886,-0.627012,-0.0814925\O,0,-1.89025,0.752012
 ,0.159148\O,0,2.46157,0.308388,-0.105074\\Version=ES64L-G16RevC.01\Sta
 te=1-A\HF=-281.9001184\RMSD=2.029e-03\Dipole=-1.6141214,0.7079677,-0.0

 Normal termination of Gaussian 16 at Tue Apr  8 21:11:21 2025.
