 Gaussian 16, Revision C.01,

 ----------------------------------------------------------------------
 #t hf aug-cc-pvdz symm=none int=(grid=ultrafine) guess=(read,tcheck) s
 table=(opt,rrhf)
 ----------------------------------------------------------------------
 -----
 title
 -----
 Symbolic Z-matrix:
 Charge =  0 Multiplicity = 1

 SCF Done:  E(RHF) =  -923.154417426     A.U. after   14 cycles
 Normal termination of Gaussian 16 at Tue Apr  8 20:05:53 2025.
 Gaussian 16:  ES64L-G16RevC.01  3-Jul-2019

 ----------------------------------------------------------------------
 #t hf aug-cc-pvdz iop(5/13=1,5/36=2,99/5=2) pseudo=read geom=check gue
 ss=(read,tcheck) scf=(maxcycle=1)
 ----------------------------------------------------------------------
 -----
 title
 -----
 Structure from the checkpoint file:  "ANI1ccx_1584_conf34_mol1.chk"
 Charge =  0 Multiplicity = 1

                         Standard orientation:
 ---------------------------------------------------------------------
 Center     Atomic      Atomic             Coordinates (Angstroms)
 Number     Number       Type             X           Y           Z
 ---------------------------------------------------------------------
      1          6           0       -2.488219   -1.214130    0.079924
      2          6           0       -1.193789   -1.293350   -0.679149
      3          6           0       -3.101809    0.142924   -0.354268
      4          6           0       -2.061869    1.257830    0.012174
      5          6           0        1.278701   -0.951730   -0.685965
      6          6           0        2.233911   -1.326460    0.388655
      7          6           0        1.701081    0.445216   -1.346920
      8          6           0        1.998581    1.560270   -0.350211
      9          1           0        2.882781   -0.881403    2.000420
     10          1           0        0.014788    2.412930    0.148964
     11          1           0        1.373621    2.870290    0.968403
     12          1           0        0.901460    0.749860   -2.182780
     13          1           0        2.709411    0.323665   -1.820030
     14          1           0        1.247951   -1.601650   -1.564200
     15          1           0       -0.004625   -0.619818    0.803599
     16          1           0       -1.554759    0.439184    1.689710
     17          1           0       -4.116559    0.272435    0.066058
     18          1           0       -3.068419    0.254911   -1.401270
     19          1           0       -3.216629   -1.957400   -0.365195
     20          1           0       -3.332579   -0.795982    2.013680
     21          1           0       -2.100739   -1.939740    1.995690
     22          7           0       -2.593909   -1.139250    1.498930
     23          7           0       -0.055403   -0.799481   -0.121420
     24          7           0        1.011061    2.356060    0.207290
     25          8           0       -1.179309   -1.865600   -1.775480
     26          8           0       -2.051849    2.298230   -0.683360
     27          8           0       -1.499929    1.300780    1.219590
     28          8           0        3.265681   -2.016861    0.219006
     29          8           0        3.124571    1.776939   -0.050606
     30          8           0        2.032401   -0.764986    1.591840
 ---------------------------------------------------------------------

 SCF Done:  E(RHF) =  -923.433322565     A.U. after    2 cycles

 The electronic state is 1-A.
 Alpha  occ. eigenvalues --  -20.65645 -20.64088 -20.58469 -20.57796 -20.57159
 Alpha  occ. eigenvalues --  -20.53620 -15.68550 -15.67597 -15.62268 -11.43316
 Alpha  occ. eigenvalues --  -11.42646 -11.40984 -11.36625 -11.33820 -11.33707
 Alpha  occ. eigenvalues --  -11.29707 -11.28545  -1.45955  -1.43873  -1.37934
 Alpha  occ. eigenvalues --   -1.37287  -1.32635  -1.32583  -1.25772  -1.23278
 Alpha  occ. eigenvalues --   -1.15442  -1.08514  -1.06150  -0.96832  -0.94079
 Alpha  occ. eigenvalues --   -0.87435  -0.87028  -0.84719  -0.79081  -0.78527
 Alpha  occ. eigenvalues --   -0.75866  -0.74471  -0.73947  -0.73295  -0.70861
 Alpha  occ. eigenvalues --   -0.69335  -0.69007  -0.68354  -0.66965  -0.65832
 Alpha  occ. eigenvalues --   -0.64798  -0.64360  -0.62591  -0.61437  -0.60359
 Alpha  occ. eigenvalues --   -0.60042  -0.58760  -0.56849  -0.55691  -0.54901
 Alpha  occ. eigenvalues --   -0.53630  -0.50546  -0.50348  -0.50103  -0.48356
 Alpha  occ. eigenvalues --   -0.47531  -0.44599  -0.43882  -0.42469  -0.40211
 Alpha virt. eigenvalues --    0.00950   0.02481   0.03242   0.04086   0.05054
 Alpha virt. eigenvalues --    0.05621   0.05897   0.06671   0.06712   0.07834
 Alpha virt. eigenvalues --    0.08274   0.08976   0.09180   0.09462   0.09867

 Mulliken charges:
               1
     1  C    0.686841
     2  C    0.478148
     3  C    0.284843
     4  C    0.496585
     5  C    0.170395
     6  C    0.875235
     7  C   -0.039416
     8  C    0.667444
     9  H    0.202726
    10  H   -0.069663
    11  H   -0.029825
    12  H    0.184757
    13  H    0.003419
    14  H   -0.155268
    15  H   -0.100340
    16  H    0.342256
    17  H   -0.044986
    18  H   -0.048395
    19  H   -0.016821
    20  H   -0.106494
    21  H    0.068149
    22  N   -0.365000
    23  N    0.044058
    24  N   -0.114435
    25  O   -0.601094
    26  O   -0.617486
    27  O   -0.497073
    28  O   -0.568964
    29  O   -0.539266
    30  O   -0.590330
 Sum of Mulliken charges =  -0.00000

 Dipole moment (field-independent basis, Debye):
    X=             -6.6916    Y=             -2.9919    Z=              5.3914  Tot=              9.0992

 Test job not archived.
 1\1\GINC-SE179\SP\RHF\Aug-CC-pVDZ\C8H13N3O6\OHZDE\08-Apr-2025\0\\#t hf
  aug-cc-pvdz iop(5/13=1,5/36=2,99/5=2) pseudo=read geom=check guess=(r
 ead,tcheck) scf=(maxcycle=1)\\title\\0,1\C,0,-2.48822,-1.21413,0.07992
 39\C,0,-1.19379,-1.29335,-0.679149\C,0,-3.10181,0.142924,-0.354268\C,0
 ,-2.06187,1.25783,0.0121739\C,0,1.2787,-0.95173,-0.685965\C,0,2.23391,
 -1.32646,0.388655\C,0,1.70108,0.445216,-1.34692\C,0,1.99858,1.56027,-0
 .350211\H,0,2.88278,-0.881402,2.00042\H,0,0.0147873,2.41293,0.148964\H
 ,0,1.37362,2.87029,0.968403\H,0,0.901459,0.74986,-2.18278\H,0,2.70941,

 Normal termination of Gaussian 16 at Tue Apr  8 20:06:38 2025.
