 Gaussian 16, Revision C.01,

 ----------------------------------------------------------------------
 #t hf aug-cc-pvdz symm=none int=(grid=ultrafine) guess=(read,tcheck) s
 table=(opt,rrhf)
 ----------------------------------------------------------------------
 -----
 title
 -----
 Symbolic Z-matrix:
 Charge =  0 Multiplicity = 1

 SCF Done:  E(RHF) =  -542.445388868     A.U. after   14 cycles
 Normal termination of Gaussian 16 at Tue Apr  8 22:03:01 2025.
 Gaussian 16:  ES64L-G16RevC.01  3-Jul-2019

 ----------------------------------------------------------------------
 #t hf aug-cc-pvdz iop(5/13=1,5/36=2,99/5=2) pseudo=read geom=check gue
 ss=(read,tcheck) scf=(maxcycle=1)
 ----------------------------------------------------------------------
 -----
 title
 -----
 Structure from the checkpoint file:  "ANI1ccx_904_conf1_mol2.chk"
 Charge =  0 Multiplicity = 1

                         Standard orientation:
 ---------------------------------------------------------------------
 Center     Atomic      Atomic             Coordinates (Angstroms)
 Number     Number       Type             X           Y           Z
 ---------------------------------------------------------------------
      1          6           0        1.200191    0.048411   -0.321076
      2          6           0        0.301593    1.324451   -0.194268
      3          6           0       -1.677339   -0.131070    0.050047
      4          6           0        0.485538   -1.257149   -0.206636
      5          1           0        2.849040   -0.561311    0.590573
      6          1           0        2.545441    1.046250    0.760450
      7          1           0        1.557441    0.089147   -1.324860
      8          1           0       -1.620389    1.904681    0.024039
      9          1           0       -1.340710   -2.022839    0.497788
     10          7           0        2.167561    0.131776    0.650016
     11          7           0       -1.070489    1.125601   -0.307368
     12          7           0       -0.872760   -1.296119    0.044550
     13          8           0        0.773097    2.403430   -0.014592
     14          8           0       -2.851109   -0.145174    0.309460
     15          8           0        1.150400   -2.269830   -0.198215
 ---------------------------------------------------------------------

 SCF Done:  E(RHF) =  -542.611347797     A.U. after    2 cycles

 The electronic state is 1-A.
 Alpha  occ. eigenvalues --  -20.59363 -20.59229 -20.58635 -15.71509 -15.70939
 Alpha  occ. eigenvalues --  -15.62953 -11.45669 -11.41466 -11.41413 -11.32695
 Alpha  occ. eigenvalues --   -1.43001  -1.41239  -1.40080  -1.26823  -1.22541
 Alpha  occ. eigenvalues --   -1.22147  -1.01625  -0.90566  -0.89690  -0.82537
 Alpha  occ. eigenvalues --   -0.80588  -0.73286  -0.71773  -0.71466  -0.69719
 Alpha  occ. eigenvalues --   -0.68282  -0.66559  -0.64837  -0.62930  -0.61155
 Alpha  occ. eigenvalues --   -0.57064  -0.52775  -0.52141  -0.47188  -0.46825
 Alpha  occ. eigenvalues --   -0.46323  -0.41368
 Alpha virt. eigenvalues --    0.03077   0.04049   0.04235   0.04461   0.07032
 Alpha virt. eigenvalues --    0.08143   0.08925   0.09703   0.10084   0.10921
 Alpha virt. eigenvalues --    0.12555   0.12844   0.13548   0.13759   0.14201

 Mulliken charges:
               1
     1  C    0.467812
     2  C    0.654640
     3  C    0.891532
     4  C    0.662822
     5  H   -0.051359
     6  H   -0.012663
     7  H    0.062224
     8  H   -0.009626
     9  H   -0.097628
    10  N   -0.265824
    11  N   -0.484861
    12  N   -0.394918
    13  O   -0.473128
    14  O   -0.421617
    15  O   -0.527406
 Sum of Mulliken charges =  -0.00000

 Dipole moment (field-independent basis, Debye):
    X=              0.8416    Y=              0.1999    Z=             -0.5757  Tot=              1.0390

 Test job not archived.
 1\1\GINC-SE110\SP\RHF\Aug-CC-pVDZ\C4H5N3O3\OHZDE\08-Apr-2025\0\\#t hf
 aug-cc-pvdz iop(5/13=1,5/36=2,99/5=2) pseudo=read geom=check guess=(re
 ad,tcheck) scf=(maxcycle=1)\\title\\0,1\C,0,1.20019,0.0484103,-0.32107
 6\C,0,0.301592,1.32445,-0.194268\C,0,-1.67734,-0.131071,0.0500472\C,0,
 0.485538,-1.25715,-0.206636\H,0,2.84904,-0.561311,0.590573\H,0,2.54544
 ,1.04625,0.76045\H,0,1.55744,0.0891465,-1.32486\H,0,-1.62039,1.90468,0
 .0240389\H,0,-1.34071,-2.02284,0.497788\N,0,2.16756,0.131776,0.650016\
 N,0,-1.07049,1.1256,-0.307368\N,0,-0.87276,-1.29612,0.0445502\O,0,0.77

 Normal termination of Gaussian 16 at Tue Apr  8 22:03:09 2025.
