 Gaussian 16, Revision C.01,

 ----------------------------------------------------------------------
 #t hf aug-cc-pvdz symm=none int=(grid=ultrafine) guess=(read,tcheck) s
 table=(opt,rrhf)
 ----------------------------------------------------------------------
 -----
 title
 -----
 Symbolic Z-matrix:
 Charge =  0 Multiplicity = 1

 SCF Done:  E(RHF) =  -389.476766528     A.U. after   15 cycles
 Normal termination of Gaussian 16 at Tue Apr  8 21:40:36 2025.
 Gaussian 16:  ES64L-G16RevC.01  3-Jul-2019

 ----------------------------------------------------------------------
 #t hf aug-cc-pvdz iop(5/13=1,5/36=2,99/5=2) pseudo=read geom=check gue
 ss=(read,tcheck) scf=(maxcycle=1)
 ----------------------------------------------------------------------
 -----
 title
 -----
 Structure from the checkpoint file:  "ANI1ccx_473_conf15_mol1.chk"
 Charge =  0 Multiplicity = 1

                         Standard orientation:
 ---------------------------------------------------------------------
 Center     Atomic      Atomic             Coordinates (Angstroms)
 Number     Number       Type             X           Y           Z
 ---------------------------------------------------------------------
      1          6           0       -1.191560    1.039852   -0.045275
      2          6           0       -1.284841   -1.335808    0.010300
      3          1           0       -2.097802   -2.002338   -0.067902
      4          7           0       -1.824741   -0.010134    0.061238
      5          7           0        3.011379   -0.150870    0.065105
      6          7           0        1.992659    0.282647   -0.068714
      7          8           0       -0.569652    2.013971    0.007886
      8          8           0       -0.092707   -1.648149   -0.023592
 ---------------------------------------------------------------------

 SCF Done:  E(RHF) =  -389.596484998     A.U. after    2 cycles

 The electronic state is 1-A.
 Alpha  occ. eigenvalues --  -20.67814 -20.60479 -15.74604 -15.74304 -15.68596
 Alpha  occ. eigenvalues --  -11.46873 -11.42464  -1.48174  -1.39933  -1.38461
 Alpha  occ. eigenvalues --   -1.26061  -0.95733  -0.79428  -0.75975  -0.74375
 Alpha  occ. eigenvalues --   -0.71216  -0.70390  -0.67474  -0.60891  -0.59160
 Alpha  occ. eigenvalues --   -0.58695  -0.58601  -0.52775  -0.48558  -0.46706
 Alpha virt. eigenvalues --    0.03195   0.05936   0.06383   0.07710   0.08466
 Alpha virt. eigenvalues --    0.10200   0.10739   0.11033   0.12844   0.13147
 Alpha virt. eigenvalues --    0.13950   0.14618   0.15379   0.16195   0.17325

 Mulliken charges:
               1
     1  C   -0.031525
     2  C    1.031484
     3  H   -0.253995
     4  N   -0.237933
     5  N   -0.027997
     6  N    0.013448
     7  O   -0.118224
     8  O   -0.375258
 Sum of Mulliken charges =  -0.00000

 Dipole moment (field-independent basis, Debye):
    X=             -2.8632    Y=             -0.3344    Z=             -0.2358  Tot=              2.8923

 Test job not archived.
 1\1\GINC-SE083\SP\RHF\Aug-CC-pVDZ\C2H1N3O2\OHZDE\08-Apr-2025\0\\#t hf
 aug-cc-pvdz iop(5/13=1,5/36=2,99/5=2) pseudo=read geom=check guess=(re
 ad,tcheck) scf=(maxcycle=1)\\title\\0,1\C,0,-1.19156,1.03985,-0.045275
 2\C,0,-1.28484,-1.33581,0.0102998\H,0,-2.0978,-2.00234,-0.0679021\N,0,
 -1.82474,-0.0101362,0.0612385\N,0,3.01138,-0.15087,0.0651051\N,0,1.992
 66,0.282647,-0.0687144\O,0,-0.569652,2.01397,0.0078859\O,0,-0.0927055,
 -1.64815,-0.0235921\\Version=ES64L-G16RevC.01\State=1-A\HF=-389.596485
 \RMSD=2.574e-03\Dipole=-1.1264568,-0.1315747,-0.0927588\Quadrupole=1.2

 Normal termination of Gaussian 16 at Tue Apr  8 21:40:39 2025.
