 Gaussian 16, Revision C.01,

 ----------------------------------------------------------------------
 #t hf aug-cc-pvdz symm=none int=(grid=ultrafine) guess=(read,tcheck) s
 table=(opt,rrhf)
 ----------------------------------------------------------------------
 -----
 title
 -----
 Symbolic Z-matrix:
 Charge =  0 Multiplicity = 1

 SCF Done:  E(RHF) =  -460.252898358     A.U. after   17 cycles
 Normal termination of Gaussian 16 at Tue Apr  8 21:21:35 2025.
 Gaussian 16:  ES64L-G16RevC.01  3-Jul-2019

 ----------------------------------------------------------------------
 #t hf aug-cc-pvdz iop(5/13=1,5/36=2,99/5=2) pseudo=read geom=check gue
 ss=(read,tcheck) scf=(maxcycle=1)
 ----------------------------------------------------------------------
 -----
 title
 -----
 Structure from the checkpoint file:  "ANI1ccx_373_conf6_mol1.chk"
 Charge =  0 Multiplicity = 1

                         Standard orientation:
 ---------------------------------------------------------------------
 Center     Atomic      Atomic             Coordinates (Angstroms)
 Number     Number       Type             X           Y           Z
 ---------------------------------------------------------------------
      1          6           0        0.088714   -0.060621    0.018387
      2          1           0        2.779789   -1.053720   -0.127466
      3          7           0       -1.364521   -0.039959   -0.025108
      4          7           0        0.649533    1.111850   -0.105965
      5          7           0        1.891200    0.818873   -0.100250
      6          7           0        1.979349   -0.519859    0.098596
      7          7           0        0.828212   -1.143910    0.121756
      8          8           0       -1.939410    1.085660    0.154056
      9          8           0       -1.960401   -1.107100   -0.142313
 ---------------------------------------------------------------------

 SCF Done:  E(RHF) =  -460.383010258     A.U. after    2 cycles

 The electronic state is 1-A.
 Alpha  occ. eigenvalues --  -20.65243 -20.63340 -15.94326 -15.81846 -15.78990
 Alpha  occ. eigenvalues --  -15.76840 -15.73874 -11.40792  -1.55779  -1.52916
 Alpha  occ. eigenvalues --   -1.36415  -1.31603  -1.21943  -1.04890  -0.97231
 Alpha  occ. eigenvalues --   -0.88201  -0.83075  -0.77398  -0.75764  -0.74095
 Alpha  occ. eigenvalues --   -0.70963  -0.63695  -0.57173  -0.54928  -0.53070
 Alpha  occ. eigenvalues --   -0.51547  -0.51056  -0.48158  -0.45808
 Alpha virt. eigenvalues --    0.01425   0.01502   0.06601   0.07511   0.07597
 Alpha virt. eigenvalues --    0.08201   0.11559   0.12204   0.13139   0.14952
 Alpha virt. eigenvalues --    0.15423   0.17061   0.17366   0.18132   0.18759

 Mulliken charges:
               1
     1  C    1.093821
     2  H    0.028088
     3  N    0.404689
     4  N   -0.194945
     5  N   -0.148894
     6  N    0.256149
     7  N   -0.330178
     8  O   -0.571749
     9  O   -0.536981
 Sum of Mulliken charges =  -0.00000

 Dipole moment (field-independent basis, Debye):
    X=              5.6354    Y=             -2.2438    Z=             -0.2642  Tot=              6.0714

 Test job not archived.
 1\1\GINC-SE342\SP\RHF\Aug-CC-pVDZ\C1H1N5O2\OHZDE\08-Apr-2025\0\\#t hf
 aug-cc-pvdz iop(5/13=1,5/36=2,99/5=2) pseudo=read geom=check guess=(re
 ad,tcheck) scf=(maxcycle=1)\\title\\0,1\C,0,0.0887147,-0.0606214,0.018
 3866\H,0,2.77979,-1.05372,-0.127466\N,0,-1.36452,-0.0399594,-0.025108\
 N,0,0.649533,1.11185,-0.105965\N,0,1.8912,0.818873,-0.10025\N,0,1.9793
 5,-0.519859,0.0985961\N,0,0.828213,-1.14391,0.121756\O,0,-1.93941,1.08
 566,0.154056\O,0,-1.9604,-1.1071,-0.142313\\Version=ES64L-G16RevC.01\S
 tate=1-A\HF=-460.3830103\RMSD=3.516e-03\Dipole=2.2171394,-0.8827643,-0

 Normal termination of Gaussian 16 at Tue Apr  8 21:21:39 2025.
