 Gaussian 16, Revision C.01,

 ----------------------------------------------------------------------
 #t hf aug-cc-pvdz symm=none int=(grid=ultrafine) guess=(read,tcheck) s
 table=(opt,rrhf)
 ----------------------------------------------------------------------
 -----
 title
 -----
 Symbolic Z-matrix:
 Charge =  0 Multiplicity = 1

 SCF Done:  E(RHF) =  -489.708535755     A.U. after   14 cycles
 Normal termination of Gaussian 16 at Tue Apr  8 22:12:06 2025.
 Gaussian 16:  ES64L-G16RevC.01  3-Jul-2019

 ----------------------------------------------------------------------
 #t hf aug-cc-pvdz iop(5/13=1,5/36=2,99/5=2) pseudo=read geom=check gue
 ss=(read,tcheck) scf=(maxcycle=1)
 ----------------------------------------------------------------------
 -----
 title
 -----
 Structure from the checkpoint file:  "ANI1ccx_957_conf4_mol1.chk"
 Charge =  0 Multiplicity = 1

                         Standard orientation:
 ---------------------------------------------------------------------
 Center     Atomic      Atomic             Coordinates (Angstroms)
 Number     Number       Type             X           Y           Z
 ---------------------------------------------------------------------
      1          6           0        0.486850    0.414362    0.323684
      2          6           0        1.871260   -0.069813    0.001254
      3          6           0       -0.535051   -0.659976   -0.162284
      4          6           0       -2.035200   -0.319619   -0.083640
      5          1           0        3.075581   -1.415027    0.474938
      6          1           0       -1.426191    1.041859    1.224060
      7          1           0       -0.314366   -0.887309   -1.243450
      8          1           0       -0.420943   -1.607971    0.281795
      9          1           0       -3.160621    1.042097    1.009010
     10          1           0        0.858213    2.423511    0.064020
     11          1           0        0.192218    1.685540   -1.251720
     12          1           0        0.545666    0.483297    1.432310
     13          7           0        0.212552    1.726950   -0.245676
     14          7           0       -2.255250    0.648195    0.804146
     15          8           0       -2.800339   -1.023083   -0.739028
     16          8           0        2.571000    0.198954   -0.935364
     17          8           0        2.257111   -1.123588    0.877600
 ---------------------------------------------------------------------

 SCF Done:  E(RHF) =  -489.858765917     A.U. after    2 cycles

 The electronic state is 1-A.
 Alpha  occ. eigenvalues --  -20.62965 -20.59435 -20.53573 -15.65832 -15.63633
 Alpha  occ. eigenvalues --  -11.41838 -11.37344 -11.32421 -11.26814  -1.43183
 Alpha  occ. eigenvalues --   -1.33996  -1.33754  -1.21359  -1.18656  -1.04174
 Alpha  occ. eigenvalues --   -0.95056  -0.81854  -0.80234  -0.75517  -0.73804
 Alpha  occ. eigenvalues --   -0.71604  -0.70381  -0.67450  -0.64399  -0.63441
 Alpha  occ. eigenvalues --   -0.62731  -0.59705  -0.58418  -0.54910  -0.52558
 Alpha  occ. eigenvalues --   -0.52009  -0.49847  -0.44507  -0.43316  -0.40937
 Alpha virt. eigenvalues --    0.02450   0.03641   0.04074   0.04436   0.06071
 Alpha virt. eigenvalues --    0.07103   0.07659   0.07914   0.09782   0.11475
 Alpha virt. eigenvalues --    0.11746   0.12538   0.13141   0.13753   0.14032

 Mulliken charges:
               1
     1  C    0.357841
     2  C    0.625732
     3  C    0.364588
     4  C    0.526586
     5  H    0.192455
     6  H    0.146036
     7  H    0.095463
     8  H   -0.161128
     9  H   -0.029902
    10  H   -0.011191
    11  H    0.042534
    12  H   -0.097877
    13  N   -0.258492
    14  N   -0.145197
    15  O   -0.558395
    16  O   -0.495330
    17  O   -0.593723
 Sum of Mulliken charges =  -0.00000

 Dipole moment (field-independent basis, Debye):
    X=              2.1135    Y=              2.8306    Z=              3.1880  Tot=              4.7584

 Test job not archived.
 1\1\GINC-SE339\SP\RHF\Aug-CC-pVDZ\C4H8N2O3\OHZDE\08-Apr-2025\0\\#t hf
 aug-cc-pvdz iop(5/13=1,5/36=2,99/5=2) pseudo=read geom=check guess=(re
 ad,tcheck) scf=(maxcycle=1)\\title\\0,1\C,0,0.48685,0.414362,0.323684\
 C,0,1.87126,-0.0698148,0.00125376\C,0,-0.535052,-0.659975,-0.162284\C,
 0,-2.0352,-0.319617,-0.0836399\H,0,3.07558,-1.41503,0.474938\H,0,-1.42
 619,1.04186,1.22406\H,0,-0.314367,-0.887309,-1.24345\H,0,-0.420945,-1.
 60797,0.281795\H,0,-3.16062,1.0421,1.00901\H,0,0.858215,2.42351,0.0640
 201\H,0,0.192219,1.68554,-1.25172\H,0,0.545666,0.483297,1.43231\N,0,0.

 Normal termination of Gaussian 16 at Tue Apr  8 22:12:14 2025.
