 Gaussian 16, Revision C.01,

 ----------------------------------------------------------------------
 #t hf aug-cc-pvdz symm=none int=(grid=ultrafine) guess=(read,tcheck) s
 table=(opt,rrhf)
 ----------------------------------------------------------------------
 -----
 title
 -----
 Symbolic Z-matrix:
 Charge =  0 Multiplicity = 1

 SCF Done:  E(RHF) =  -656.446675987     A.U. after   17 cycles
 Normal termination of Gaussian 16 at Tue Apr  8 19:52:39 2025.
 Gaussian 16:  ES64L-G16RevC.01  3-Jul-2019

 ----------------------------------------------------------------------
 #t hf aug-cc-pvdz iop(5/13=1,5/36=2,99/5=2) pseudo=read geom=check gue
 ss=(read,tcheck) scf=(maxcycle=1)
 ----------------------------------------------------------------------
 -----
 title
 -----
 Structure from the checkpoint file:  "ANI1ccx_1562_conf1_mol2.chk"
 Charge =  0 Multiplicity = 1

                         Standard orientation:
 ---------------------------------------------------------------------
 Center     Atomic      Atomic             Coordinates (Angstroms)
 Number     Number       Type             X           Y           Z
 ---------------------------------------------------------------------
      1          6           0        4.211280   -1.002880    0.213398
      2          6           0        1.943510   -0.083761    0.080199
      3          6           0        1.635730    2.128011   -0.221919
      4          6           0       -0.271478    0.880682   -0.087501
      5          6           0       -2.526380    0.061601    0.729896
      6          6           0       -3.632270   -0.431681   -0.155496
      7          6           0       -4.918690   -0.188307    0.071900
      8          6           0        0.525899   -0.295898   -0.016060
      9          1           0       -5.693780   -0.555319   -0.596846
     10          1           0       -5.238120    0.385254    0.943145
     11          1           0       -3.306450   -1.007099   -1.016610
     12          1           0       -1.966600   -0.776284    1.133310
     13          1           0       -2.939130    0.635439    1.576400
     14          1           0        2.085660    3.110951   -0.370583
     15          1           0        2.344530   -2.040199    0.193173
     16          1           0        4.636640   -1.984030    0.418105
     17          1           0        4.586250   -0.635875   -0.751061
     18          1           0        4.545830   -0.294653    0.973104
     19          1           0       -1.942330    1.890611   -0.141224
     20          7           0        0.169260   -1.618569   -0.227884
     21          7           0        2.770880   -1.128069    0.229113
     22          7           0        2.499090    1.136341   -0.002239
     23          7           0        0.315457    2.092541   -0.269305
     24          7           0       -1.610560    0.939845   -0.001258
     25          8           0       -0.990872   -1.886249   -0.518300
 ---------------------------------------------------------------------

 SCF Done:  E(RHF) =  -656.638695388     A.U. after    2 cycles

 The electronic state is 1-A.
 Alpha  occ. eigenvalues --  -20.60693 -15.76031 -15.66522 -15.65935 -15.62280
 Alpha  occ. eigenvalues --  -15.61919 -11.37222 -11.36339 -11.34304 -11.28846
 Alpha  occ. eigenvalues --  -11.27837 -11.27241 -11.24604 -11.23983  -1.43627
 Alpha  occ. eigenvalues --   -1.30782  -1.26271  -1.21444  -1.13610  -1.10482
 Alpha  occ. eigenvalues --   -1.05813  -0.97343  -0.96093  -0.92463  -0.86370
 Alpha  occ. eigenvalues --   -0.82304  -0.78284  -0.77513  -0.73114  -0.71537
 Alpha  occ. eigenvalues --   -0.69995  -0.66254  -0.64589  -0.63340  -0.62750
 Alpha  occ. eigenvalues --   -0.62012  -0.61072  -0.60459  -0.59007  -0.56941
 Alpha  occ. eigenvalues --   -0.55975  -0.53761  -0.52359  -0.48953  -0.47993
 Alpha  occ. eigenvalues --   -0.44576  -0.42193  -0.39952  -0.37799  -0.35136
 Alpha  occ. eigenvalues --   -0.34443
 Alpha virt. eigenvalues --    0.03106   0.03393   0.03679   0.04176   0.04830
 Alpha virt. eigenvalues --    0.05391   0.05648   0.06172   0.06691   0.07428
 Alpha virt. eigenvalues --    0.07807   0.08430   0.09915   0.10633   0.11076

 Mulliken charges:
               1
     1  C    0.854324
     2  C   -0.064069
     3  C    0.536988
     4  C    0.546163
     5  C    0.690432
     6  C    0.464140
     7  C    0.672279
     8  C    1.316114
     9  H   -0.295002
    10  H   -0.282655
    11  H   -0.480358
    12  H   -0.049872
    13  H   -0.270157
    14  H   -0.391449
    15  H   -0.045077
    16  H   -0.273356
    17  H   -0.074410
    18  H   -0.097316
    19  H   -0.032056
    20  N   -0.550929
    21  N   -0.318090
    22  N   -0.418907
    23  N   -0.554627
    24  N   -0.410875
    25  O   -0.471234
 Sum of Mulliken charges =  -0.00000

 Dipole moment (field-independent basis, Debye):
    X=              1.1090    Y=              0.5116    Z=              1.3706  Tot=              1.8358

 Test job not archived.
 1\1\GINC-SE028\SP\RHF\Aug-CC-pVDZ\C8H11N5O1\OHZDE\08-Apr-2025\0\\#t hf
  aug-cc-pvdz iop(5/13=1,5/36=2,99/5=2) pseudo=read geom=check guess=(r
 ead,tcheck) scf=(maxcycle=1)\\title\\0,1\C,0,4.21128,-1.00288,0.213398
 \C,0,1.94351,-0.0837617,0.0801996\C,0,1.63573,2.12801,-0.221919\C,0,-0
 .271478,0.880681,-0.0875007\C,0,-2.52638,0.0615999,0.729896\C,0,-3.632
 27,-0.431682,-0.155496\C,0,-4.91869,-0.188308,0.0719006\C,0,0.525899,-
 0.295899,-0.0160599\H,0,-5.69378,-0.55532,-0.596846\H,0,-5.23812,0.385
 253,0.943145\H,0,-3.30645,-1.0071,-1.01661\H,0,-1.9666,-0.776285,1.133

 Normal termination of Gaussian 16 at Tue Apr  8 19:53:01 2025.
