 Gaussian 16, Revision C.01,

 ----------------------------------------------------------------------
 #t hf aug-cc-pvdz symm=none int=(grid=ultrafine) guess=(read,tcheck) s
 table=(opt,rrhf)
 ----------------------------------------------------------------------
 -----
 title
 -----
 Symbolic Z-matrix:
 Charge =  0 Multiplicity = 1

 SCF Done:  E(RHF) =  -259.750465777     A.U. after   14 cycles
 Normal termination of Gaussian 16 at Tue Apr  8 21:09:15 2025.
 Gaussian 16:  ES64L-G16RevC.01  3-Jul-2019

 ----------------------------------------------------------------------
 #t hf aug-cc-pvdz iop(5/13=1,5/36=2,99/5=2) pseudo=read geom=check gue
 ss=(read,tcheck) scf=(maxcycle=1)
 ----------------------------------------------------------------------
 -----
 title
 -----
 Structure from the checkpoint file:  "ANI1ccx_1858_conf9_mol1.chk"
 Charge =  0 Multiplicity = 1

                         Standard orientation:
 ---------------------------------------------------------------------
 Center     Atomic      Atomic             Coordinates (Angstroms)
 Number     Number       Type             X           Y           Z
 ---------------------------------------------------------------------
      1          1           0        0.666422    0.684111   -0.544857
      2          1           0        2.452760    0.006990    0.923065
      3          7           0       -1.624540    0.451685    0.077487
      4          7           0       -2.399250   -0.352341   -0.003475
      5          8           0        0.836737   -0.165259   -0.083890
      6          8           0        2.294180   -0.008055   -0.028147
 ---------------------------------------------------------------------

 SCF Done:  E(RHF) =  -259.831628272     A.U. after    2 cycles

 The electronic state is 1-A.
 Alpha  occ. eigenvalues --  -20.65038 -20.64394 -15.76237 -15.75927  -1.42318
 Alpha  occ. eigenvalues --   -1.41095  -1.19465  -0.76686  -0.73044  -0.71989
 Alpha  occ. eigenvalues --   -0.63702  -0.61957  -0.60037  -0.59547  -0.54325
 Alpha  occ. eigenvalues --   -0.50688
 Alpha virt. eigenvalues --    0.04027   0.05760   0.09921   0.12197   0.12765
 Alpha virt. eigenvalues --    0.12976   0.14221   0.15808   0.17329   0.20157
 Alpha virt. eigenvalues --    0.21812   0.22945   0.23376   0.24927   0.25766

 Mulliken charges:
               1
     1  H    0.281622
     2  H    0.214490
     3  N    0.031750
     4  N   -0.054949
     5  O   -0.228194
     6  O   -0.244720
 Sum of Mulliken charges =  -0.00000

 Dipole moment (field-independent basis, Debye):
    X=             -0.1258    Y=              1.5009    Z=              0.9789  Tot=              1.7963

 Test job not archived.
 1\1\GINC-SE338\SP\RHF\Aug-CC-pVDZ\H2N2O2\OHZDE\08-Apr-2025\0\\#t hf au
 g-cc-pvdz iop(5/13=1,5/36=2,99/5=2) pseudo=read geom=check guess=(read
 ,tcheck) scf=(maxcycle=1)\\title\\0,1\H,0,0.666422,0.684111,-0.544857\
 H,0,2.45276,0.00698973,0.923065\N,0,-1.62454,0.451685,0.0774871\N,0,-2
 .39925,-0.352341,-0.00347463\O,0,0.836737,-0.165259,-0.0838901\O,0,2.2
 9418,-0.00805484,-0.0281468\\Version=ES64L-G16RevC.01\State=1-A\HF=-25
 9.8316283\RMSD=2.342e-03\Dipole=-0.0495101,0.5905065,0.3851256\Quadrup
 ole=-0.7238195,-0.5183819,1.2422014,0.3909019,3.0737684,-0.7955013\PG=

 Normal termination of Gaussian 16 at Tue Apr  8 21:09:17 2025.
