 Gaussian 16, Revision C.01,

 ----------------------------------------------------------------------
 #t hf aug-cc-pvdz symm=none int=(grid=ultrafine) guess=(read,tcheck) s
 table=(opt,rrhf)
 ----------------------------------------------------------------------
 -----
 title
 -----
 Symbolic Z-matrix:
 Charge =  0 Multiplicity = 1

 SCF Done:  E(RHF) =  -583.230275134     A.U. after   16 cycles
 Normal termination of Gaussian 16 at Tue Apr  8 22:01:57 2025.
 Gaussian 16:  ES64L-G16RevC.01  3-Jul-2019

 ----------------------------------------------------------------------
 #t hf aug-cc-pvdz iop(5/13=1,5/36=2,99/5=2) pseudo=read geom=check gue
 ss=(read,tcheck) scf=(maxcycle=1)
 ----------------------------------------------------------------------
 -----
 title
 -----
 Structure from the checkpoint file:  "ANI1ccx_900_conf8_mol1.chk"
 Charge =  0 Multiplicity = 1

                         Standard orientation:
 ---------------------------------------------------------------------
 Center     Atomic      Atomic             Coordinates (Angstroms)
 Number     Number       Type             X           Y           Z
 ---------------------------------------------------------------------
      1          6           0       -2.045351   -0.081627   -0.011101
      2          6           0       -1.077211    0.642779   -0.921994
      3          6           0        1.318049    0.711618    0.060910
      4          6           0        1.343039   -0.788994    0.089446
      5          1           0       -1.458941    1.145091    1.180040
      6          1           0       -0.707898   -0.184962   -1.608210
      7          1           0       -1.594381    1.165530   -1.672290
      8          1           0        0.143939    2.312131   -0.460603
      9          1           0        3.011039   -0.610054   -0.151275
     10          7           0        0.072209    1.299321   -0.200563
     11          8           0       -2.033371    0.374352    1.249280
     12          8           0       -2.805731   -0.876662   -0.384046
     13          8           0        2.405509    1.311202    0.140078
     14          8           0        2.462589   -1.367928   -0.000327
     15          8           0        0.329706   -1.419169    0.096603
 ---------------------------------------------------------------------

 SCF Done:  E(RHF) =  -583.415621333     A.U. after    2 cycles

 The electronic state is 1-A.
 Alpha  occ. eigenvalues --  -20.66597 -20.62646 -20.62384 -20.59423 -20.56240
 Alpha  occ. eigenvalues --  -15.72518 -11.44757 -11.43370 -11.39996 -11.33105
 Alpha  occ. eigenvalues --   -1.51106  -1.44220  -1.40616  -1.38590  -1.35502
 Alpha  occ. eigenvalues --   -1.24239  -1.03350  -0.96815  -0.88741  -0.83944
 Alpha  occ. eigenvalues --   -0.80332  -0.76499  -0.75014  -0.72601  -0.71770
 Alpha  occ. eigenvalues --   -0.70270  -0.67991  -0.65706  -0.63890  -0.62546
 Alpha  occ. eigenvalues --   -0.60408  -0.58104  -0.57171  -0.52618  -0.50758
 Alpha  occ. eigenvalues --   -0.50316  -0.48492  -0.45313
 Alpha virt. eigenvalues --    0.01698   0.03291   0.03623   0.03918   0.05214
 Alpha virt. eigenvalues --    0.06504   0.08419   0.09542   0.09704   0.10287
 Alpha virt. eigenvalues --    0.12033   0.12434   0.12898   0.13454   0.13660

 Mulliken charges:
               1
     1  C    0.511689
     2  C    0.668110
     3  C    0.666773
     4  C    0.421697
     5  H    0.239260
     6  H    0.123775
     7  H   -0.144451
     8  H    0.059938
     9  H    0.202515
    10  N   -0.654527
    11  O   -0.457240
    12  O   -0.414060
    13  O   -0.526107
    14  O   -0.341746
    15  O   -0.355626
 Sum of Mulliken charges =  -0.00000

 Dipole moment (field-independent basis, Debye):
    X=              2.6316    Y=              5.2321    Z=             -2.3027  Tot=              6.2931

 Test job not archived.
 1\1\GINC-SE454\SP\RHF\Aug-CC-pVDZ\C4H5N1O5\OHZDE\08-Apr-2025\0\\#t hf
 aug-cc-pvdz iop(5/13=1,5/36=2,99/5=2) pseudo=read geom=check guess=(re
 ad,tcheck) scf=(maxcycle=1)\\title\\0,1\C,0,-2.04535,-0.0816269,-0.011
 1016\C,0,-1.07721,0.642778,-0.921994\C,0,1.31805,0.711617,0.06091\C,0,
 1.34304,-0.788995,0.0894459\H,0,-1.45894,1.14509,1.18004\H,0,-0.707897
 ,-0.184963,-1.60821\H,0,-1.59438,1.16553,-1.67229\H,0,0.143941,2.31213
 ,-0.460603\H,0,3.01104,-0.610056,-0.151275\N,0,0.0722099,1.29932,-0.20
 0563\O,0,-2.03337,0.374352,1.24928\O,0,-2.80573,-0.876662,-0.384046\O,

 Normal termination of Gaussian 16 at Tue Apr  8 22:02:04 2025.
