 Gaussian 16, Revision C.01,

 ----------------------------------------------------------------------
 #t hf aug-cc-pvdz symm=none int=(grid=ultrafine) guess=(read,tcheck) s
 table=(opt,rrhf)
 ----------------------------------------------------------------------
 -----
 title
 -----
 Symbolic Z-matrix:
 Charge =  0 Multiplicity = 1

 SCF Done:  E(RHF) =  -446.825834691     A.U. after   14 cycles
 Normal termination of Gaussian 16 at Tue Apr  8 21:46:22 2025.
 Gaussian 16:  ES64L-G16RevC.01  3-Jul-2019

 ----------------------------------------------------------------------
 #t hf aug-cc-pvdz iop(5/13=1,5/36=2,99/5=2) pseudo=read geom=check gue
 ss=(read,tcheck) scf=(maxcycle=1)
 ----------------------------------------------------------------------
 -----
 title
 -----
 Structure from the checkpoint file:  "ANI1ccx_555_conf4_mol1.chk"
 Charge =  0 Multiplicity = 1

                         Standard orientation:
 ---------------------------------------------------------------------
 Center     Atomic      Atomic             Coordinates (Angstroms)
 Number     Number       Type             X           Y           Z
 ---------------------------------------------------------------------
      1          6           0        1.416208    0.239234   -0.145928
      2          6           0       -1.511142   -0.046466   -0.004540
      3          1           0        3.374658    0.665532    0.329031
      4          1           0        3.137328   -0.888940    0.053424
      5          1           0        1.087538   -1.734020   -0.485283
      6          1           0       -0.807819   -0.468408   -1.787609
      7          1           0       -0.524458   -0.842402    1.500651
      8          1           0       -1.992322    0.032591    1.985881
      9          7           0        2.682108   -0.056424    0.424507
     10          7           0        0.612170   -0.872679   -0.383304
     11          7           0       -0.664389   -0.715153   -0.811479
     12          7           0       -1.343622   -0.313922    1.302151
     13          8           0        0.890502    1.367960   -0.187520
     14          8           0       -2.479152    0.605326   -0.364528
 ---------------------------------------------------------------------

 SCF Done:  E(RHF) =  -446.964009209     A.U. after    2 cycles

 The electronic state is 1-A.
 Alpha  occ. eigenvalues --  -20.55749 -20.51319 -15.71287 -15.69287 -15.68318
 Alpha  occ. eigenvalues --  -15.62910 -11.42667 -11.38019  -1.39307  -1.34872
 Alpha  occ. eigenvalues --   -1.28979  -1.20751  -1.16901  -1.09671  -0.87609
 Alpha  occ. eigenvalues --   -0.82117  -0.78774  -0.75848  -0.74407  -0.69108
 Alpha  occ. eigenvalues --   -0.66901  -0.64404  -0.61639  -0.60913  -0.58824
 Alpha  occ. eigenvalues --   -0.48786  -0.48049  -0.45782  -0.43786  -0.42037
 Alpha  occ. eigenvalues --   -0.40488
 Alpha virt. eigenvalues --    0.01083   0.03205   0.03721   0.04809   0.06618
 Alpha virt. eigenvalues --    0.07846   0.09485   0.10892   0.11877   0.12648
 Alpha virt. eigenvalues --    0.13915   0.14651   0.15236   0.15928   0.16191

 Mulliken charges:
               1
     1  C    1.009081
     2  C    0.764314
     3  H    0.039949
     4  H    0.013534
     5  H   -0.094313
     6  H    0.008668
     7  H    0.049153
     8  H   -0.034380
     9  N   -0.294435
    10  N   -0.164354
    11  N   -0.144635
    12  N   -0.143329
    13  O   -0.495743
    14  O   -0.513510
 Sum of Mulliken charges =  -0.00000

 Dipole moment (field-independent basis, Debye):
    X=              6.5450    Y=             -5.4519    Z=              0.3044  Tot=              8.5237

 Test job not archived.
 1\1\GINC-SE221\SP\RHF\Aug-CC-pVDZ\C2H6N4O2\OHZDE\08-Apr-2025\0\\#t hf
 aug-cc-pvdz iop(5/13=1,5/36=2,99/5=2) pseudo=read geom=check guess=(re
 ad,tcheck) scf=(maxcycle=1)\\title\\0,1\C,0,1.41621,0.239234,-0.145929
 \C,0,-1.51114,-0.046466,-0.00454057\H,0,3.37466,0.665533,0.32903\H,0,3
 .13733,-0.888939,0.0534232\H,0,1.08754,-1.73402,-0.485284\H,0,-0.80781
 7,-0.468408,-1.78761\H,0,-0.524456,-0.842402,1.50065\H,0,-1.99232,0.03
 25911,1.98588\N,0,2.68211,-0.0564235,0.424506\N,0,0.612172,-0.872679,-
 0.383305\N,0,-0.664387,-0.715153,-0.81148\N,0,-1.34362,-0.313922,1.302

 Normal termination of Gaussian 16 at Tue Apr  8 21:46:28 2025.
