 Gaussian 16, Revision C.01,

 ----------------------------------------------------------------------
 #t hf aug-cc-pvdz symm=none int=(grid=ultrafine) guess=(read,tcheck) s
 table=(opt,rrhf)
 ----------------------------------------------------------------------
 -----
 title
 -----
 Symbolic Z-matrix:
 Charge =  0 Multiplicity = 1

 SCF Done:  E(RHF) =  -564.586506577     A.U. after   14 cycles
 Normal termination of Gaussian 16 at Tue Apr  8 22:12:20 2025.
 Gaussian 16:  ES64L-G16RevC.01  3-Jul-2019

 ----------------------------------------------------------------------
 #t hf aug-cc-pvdz iop(5/13=1,5/36=2,99/5=2) pseudo=read geom=check gue
 ss=(read,tcheck) scf=(maxcycle=1)
 ----------------------------------------------------------------------
 -----
 title
 -----
 Structure from the checkpoint file:  "ANI1ccx_958_conf1_mol1.chk"
 Charge =  0 Multiplicity = 1

                         Standard orientation:
 ---------------------------------------------------------------------
 Center     Atomic      Atomic             Coordinates (Angstroms)
 Number     Number       Type             X           Y           Z
 ---------------------------------------------------------------------
      1          6           0       -0.471889    1.799740    1.052840
      2          6           0       -0.382018   -0.019023   -0.462575
      3          6           0        2.055909   -0.369265   -0.029194
      4          6           0       -1.719921   -0.705481   -0.093426
      5          1           0       -2.580931    0.911914   -0.576399
      6          1           0        1.472309    1.426380   -0.764202
      7          1           0        3.117629    1.089200   -0.872788
      8          1           0        0.562518   -1.599770    0.544521
      9          1           0       -1.349951    1.465889    1.618200
     10          1           0        0.413428    1.417390    1.591330
     11          1           0       -0.423204    2.882100    1.014230
     12          1           0       -0.288962   -0.174643   -1.529520
     13          7           0        0.679671   -0.632761    0.225115
     14          7           0        2.170999    0.748151   -0.800656
     15          8           0       -2.831371    0.022960   -0.386374
     16          8           0       -0.497242    1.387790   -0.286572
     17          8           0        2.886170   -1.123130    0.429137
     18          8           0       -1.778810   -1.845371    0.268501
 ---------------------------------------------------------------------

 SCF Done:  E(RHF) =  -564.764249463     A.U. after    2 cycles

 The electronic state is 1-A.
 Alpha  occ. eigenvalues --  -20.64304 -20.63487 -20.58975 -20.54947 -15.66043
 Alpha  occ. eigenvalues --  -15.65668 -11.42412 -11.41148 -11.38098 -11.31803
 Alpha  occ. eigenvalues --   -1.44869  -1.40513  -1.37396  -1.36047  -1.23561
 Alpha  occ. eigenvalues --   -1.18149  -1.02569  -0.94066  -0.86652  -0.83011
 Alpha  occ. eigenvalues --   -0.80778  -0.76588  -0.74828  -0.73300  -0.69528
 Alpha  occ. eigenvalues --   -0.67571  -0.65840  -0.65329  -0.64548  -0.62390
 Alpha  occ. eigenvalues --   -0.61321  -0.58911  -0.55610  -0.52556  -0.52311
 Alpha  occ. eigenvalues --   -0.48529  -0.46898  -0.44748  -0.42236
 Alpha virt. eigenvalues --    0.02126   0.03609   0.03652   0.04782   0.05981
 Alpha virt. eigenvalues --    0.06942   0.07216   0.07680   0.09549   0.11368
 Alpha virt. eigenvalues --    0.11725   0.12588   0.12941   0.13438   0.13760

 Mulliken charges:
               1
     1  C    0.863735
     2  C    0.847515
     3  C    0.659801
     4  C    0.597463
     5  H    0.189261
     6  H    0.033681
     7  H    0.000204
     8  H   -0.010442
     9  H   -0.148256
    10  H    0.004021
    11  H   -0.178610
    12  H   -0.233116
    13  N   -0.420984
    14  N    0.000170
    15  O   -0.453416
    16  O   -0.840831
    17  O   -0.460212
    18  O   -0.449984
 Sum of Mulliken charges =  -0.00000

 Dipole moment (field-independent basis, Debye):
    X=             -0.5678    Y=              6.0489    Z=             -1.1941  Tot=              6.1917

 Test job not archived.
 1\1\GINC-SE460\SP\RHF\Aug-CC-pVDZ\C4H8N2O4\OHZDE\08-Apr-2025\0\\#t hf
 aug-cc-pvdz iop(5/13=1,5/36=2,99/5=2) pseudo=read geom=check guess=(re
 ad,tcheck) scf=(maxcycle=1)\\title\\0,1\C,0,-0.471888,1.79974,1.05284\
 C,0,-0.382017,-0.0190225,-0.462575\C,0,2.05591,-0.369265,-0.0291945\C,
 0,-1.71992,-0.70548,-0.0934261\H,0,-2.58093,0.911915,-0.576399\H,0,1.4
 7231,1.42638,-0.764202\H,0,3.11763,1.0892,-0.872788\H,0,0.562518,-1.59
 977,0.544521\H,0,-1.34995,1.46589,1.6182\H,0,0.413429,1.41739,1.59133\
 H,0,-0.423203,2.8821,1.01423\H,0,-0.288961,-0.174643,-1.52952\N,0,0.67

 Normal termination of Gaussian 16 at Tue Apr  8 22:12:29 2025.
