 Gaussian 16, Revision C.01,

 ----------------------------------------------------------------------
 #t hf aug-cc-pvdz symm=none int=(grid=ultrafine) guess=(read,tcheck) s
 table=(opt,rrhf)
 ----------------------------------------------------------------------
 -----
 title
 -----
 Symbolic Z-matrix:
 Charge =  0 Multiplicity = 1

 SCF Done:  E(RHF) =  -436.944569875     A.U. after   13 cycles
 Normal termination of Gaussian 16 at Tue Apr  8 21:54:32 2025.
 Gaussian 16:  ES64L-G16RevC.01  3-Jul-2019

 ----------------------------------------------------------------------
 #t hf aug-cc-pvdz iop(5/13=1,5/36=2,99/5=2) pseudo=read geom=check gue
 ss=(read,tcheck) scf=(maxcycle=1)
 ----------------------------------------------------------------------
 -----
 title
 -----
 Structure from the checkpoint file:  "ANI1ccx_818_conf1_mol1.chk"
 Charge =  0 Multiplicity = 1

                         Standard orientation:
 ---------------------------------------------------------------------
 Center     Atomic      Atomic             Coordinates (Angstroms)
 Number     Number       Type             X           Y           Z
 ---------------------------------------------------------------------
      1          6           0       -0.173613   -0.204068    0.024377
      2          6           0       -1.526151   -0.606397   -0.522122
      3          6           0        0.862426   -1.157471   -0.531840
      4          6           0        0.122303    1.177549   -0.522542
      5          1           0        1.351890    1.503959    0.927397
      6          1           0       -0.714048    1.859490   -0.364882
      7          1           0        0.287390    1.080099   -1.588739
      8          1           0        2.353699   -0.014381   -0.190920
      9          1           0        0.580826   -2.168461   -0.225236
     10          1           0        1.002459   -1.140191   -1.606399
     11          1           0       -2.570420    0.393811    0.887813
     12          1           0       -1.745332   -1.616989   -0.201768
     13          1           0       -1.578561   -0.589049   -1.613549
     14          1           0       -0.826022   -0.964617    1.693061
     15          1           0        0.710000   -0.419453    1.778421
     16          7           0       -0.242467   -0.190694    1.459891
     17          8           0       -2.597530    0.244667   -0.060096
     18          8           0        2.144979   -0.941265    0.024044
     19          8           0        1.344501    1.715719   -0.014155
 ---------------------------------------------------------------------

 SCF Done:  E(RHF) =  -437.080193270     A.U. after    2 cycles

 The electronic state is 1-A.
 Alpha  occ. eigenvalues --  -20.58614 -20.57717 -20.57369 -15.63069 -11.30225
 Alpha  occ. eigenvalues --  -11.29199 -11.28642 -11.27935  -1.34905  -1.32371
 Alpha  occ. eigenvalues --   -1.32253  -1.19758  -1.04104  -0.93406  -0.92431
 Alpha  occ. eigenvalues --   -0.80897  -0.74410  -0.73062  -0.70103  -0.67129
 Alpha  occ. eigenvalues --   -0.65574  -0.63163  -0.62234  -0.60524  -0.59836
 Alpha  occ. eigenvalues --   -0.58407  -0.55482  -0.51865  -0.50925  -0.48472
 Alpha  occ. eigenvalues --   -0.46901  -0.45673  -0.41322
 Alpha virt. eigenvalues --    0.03065   0.03999   0.04294   0.04658   0.06394
 Alpha virt. eigenvalues --    0.06683   0.06830   0.07168   0.07998   0.09282
 Alpha virt. eigenvalues --    0.09645   0.12529   0.12819   0.13559   0.14019

 Mulliken charges:
               1
     1  C   -2.921537
     2  C    1.657330
     3  C    1.662864
     4  C    1.515354
     5  H    0.196998
     6  H   -0.025929
     7  H   -0.060955
     8  H    0.221334
     9  H   -0.096325
    10  H   -0.171370
    11  H    0.167115
    12  H   -0.136268
    13  H   -0.030835
    14  H   -0.042648
    15  H    0.086182
    16  N   -0.194920
    17  O   -0.598217
    18  O   -0.599477
    19  O   -0.628696
 Sum of Mulliken charges =  -0.00000

 Dipole moment (field-independent basis, Debye):
    X=             -0.7509    Y=             -1.6613    Z=              0.5245  Tot=              1.8970

 Test job not archived.
 1\1\GINC-SE044\SP\RHF\Aug-CC-pVDZ\C4H11N1O3\OHZDE\08-Apr-2025\0\\#t hf
  aug-cc-pvdz iop(5/13=1,5/36=2,99/5=2) pseudo=read geom=check guess=(r
 ead,tcheck) scf=(maxcycle=1)\\title\\0,1\C,0,-0.173612,-0.204068,0.024
 3763\C,0,-1.52615,-0.606398,-0.522123\C,0,0.862427,-1.15747,-0.531841\
 C,0,0.122303,1.17755,-0.522543\H,0,1.35189,1.50396,0.927396\H,0,-0.714
 049,1.85949,-0.364883\H,0,0.28739,1.0801,-1.58874\H,0,2.3537,-0.014378
 9,-0.190921\H,0,0.580828,-2.16846,-0.225237\H,0,1.00246,-1.14019,-1.60
 64\H,0,-2.57042,0.39381,0.887812\H,0,-1.74533,-1.61699,-0.201769\H,0,-

 Normal termination of Gaussian 16 at Tue Apr  8 21:54:41 2025.
