 Gaussian 16, Revision C.01,

 ----------------------------------------------------------------------
 #t hf aug-cc-pvdz symm=none int=(grid=ultrafine) guess=(read,tcheck) s
 table=(opt,rrhf)
 ----------------------------------------------------------------------
 -----
 title
 -----
 Symbolic Z-matrix:
 Charge =  0 Multiplicity = 1

 SCF Done:  E(RHF) =  -555.319250030     A.U. after   16 cycles
 Normal termination of Gaussian 16 at Tue Apr  8 21:58:08 2025.
 Gaussian 16:  ES64L-G16RevC.01  3-Jul-2019

 ----------------------------------------------------------------------
 #t hf aug-cc-pvdz iop(5/13=1,5/36=2,99/5=2) pseudo=read geom=check gue
 ss=(read,tcheck) scf=(maxcycle=1)
 ----------------------------------------------------------------------
 -----
 title
 -----
 Structure from the checkpoint file:  "ANI1ccx_886_conf11_mol1.chk"
 Charge =  0 Multiplicity = 1

                         Standard orientation:
 ---------------------------------------------------------------------
 Center     Atomic      Atomic             Coordinates (Angstroms)
 Number     Number       Type             X           Y           Z
 ---------------------------------------------------------------------
      1          6           0        1.339601    0.723237   -0.066110
      2          6           0       -0.944180    0.727340    0.035975
      3          6           0       -0.963927   -0.696706   -0.084560
      4          6           0        1.296471   -0.746989   -0.018179
      5          1           0        2.496350    2.383230   -0.125403
      6          1           0        3.330731    0.883801   -0.552104
      7          1           0        2.375041   -2.382940    0.146820
      8          1           0        3.097311   -1.011640    0.834408
      9          7           0        2.547041    1.346590   -0.043845
     10          7           0        0.247885    1.383700    0.028246
     11          7           0       -2.208289    1.151439    0.142559
     12          7           0       -2.215449   -1.093001   -0.095586
     13          7           0        0.201898   -1.403390   -0.092082
     14          7           0        2.515381   -1.357580    0.101730
     15          8           0       -2.910809   -0.013506    0.025796
 ---------------------------------------------------------------------

 SCF Done:  E(RHF) =  -555.477402938     A.U. after    2 cycles

 The electronic state is 1-A.
 Alpha  occ. eigenvalues --  -20.69902 -15.71488 -15.71000 -15.68882 -15.67809
 Alpha  occ. eigenvalues --  -15.66245 -15.65319 -11.38240 -11.37902 -11.33149
 Alpha  occ. eigenvalues --  -11.32215  -1.52533  -1.33830  -1.26217  -1.23186
 Alpha  occ. eigenvalues --   -1.19848  -1.14838  -1.11396  -0.94231  -0.90085
 Alpha  occ. eigenvalues --   -0.86448  -0.78884  -0.78322  -0.73771  -0.71715
 Alpha  occ. eigenvalues --   -0.70391  -0.68783  -0.67545  -0.62941  -0.62311
 Alpha  occ. eigenvalues --   -0.55006  -0.53543  -0.50906  -0.49607  -0.48347
 Alpha  occ. eigenvalues --   -0.46438  -0.41131  -0.36629  -0.36102
 Alpha virt. eigenvalues --    0.01412   0.02833   0.03551   0.04657   0.05558
 Alpha virt. eigenvalues --    0.08192   0.08450   0.09865   0.10314   0.10791
 Alpha virt. eigenvalues --    0.12865   0.12899   0.12965   0.13414   0.13846

 Mulliken charges:
               1
     1  C    0.473579
     2  C    0.872313
     3  C    0.759848
     4  C    0.558308
     5  H    0.065002
     6  H    0.091158
     7  H    0.092411
     8  H    0.016463
     9  N   -0.401515
    10  N   -0.468786
    11  N   -0.371508
    12  N   -0.295496
    13  N   -0.472969
    14  N   -0.357477
    15  O   -0.561330
 Sum of Mulliken charges =  -0.00000

 Dipole moment (field-independent basis, Debye):
    X=              8.1395    Y=             -0.0980    Z=              0.1298  Tot=              8.1412

 Test job not archived.
 1\1\GINC-SE074\SP\RHF\Aug-CC-pVDZ\C4H4N6O1\OHZDE\08-Apr-2025\0\\#t hf
 aug-cc-pvdz iop(5/13=1,5/36=2,99/5=2) pseudo=read geom=check guess=(re
 ad,tcheck) scf=(maxcycle=1)\\title\\0,1\C,0,1.3396,0.723237,-0.06611\C
 ,0,-0.944181,0.72734,0.0359752\C,0,-0.963928,-0.696706,-0.0845601\C,0,
 1.29647,-0.746989,-0.018179\H,0,2.49635,2.38323,-0.125403\H,0,3.33073,
 0.883801,-0.552104\H,0,2.37504,-2.38294,0.14682\H,0,3.09731,-1.01164,0
 .834408\N,0,2.54704,1.34659,-0.0438445\N,0,0.247884,1.3837,0.0282461\N
 ,0,-2.20829,1.15144,0.142559\N,0,-2.21545,-1.093,-0.0955858\N,0,0.2018

 Normal termination of Gaussian 16 at Tue Apr  8 21:58:17 2025.
