 Gaussian 16, Revision C.01,

 ----------------------------------------------------------------------
 #t hf aug-cc-pvdz symm=none int=(grid=ultrafine) guess=(read,tcheck) s
 table=(opt,rrhf)
 ----------------------------------------------------------------------
 -----
 title
 -----
 Symbolic Z-matrix:
 Charge =  0 Multiplicity = 1

 SCF Done:  E(RHF) =  -381.950831460     A.U. after   13 cycles

 1\1\GINC-SE366\Stability\RHF\Aug-CC-pVDZ\C4H10O3\OHZDE\08-Apr-2025\0\\
 #t hf aug-cc-pvdz symm=none int=(grid=ultrafine) guess=(read,tcheck) s
 table=(opt,rrhf)\\title\\0,1\C,0,-1.70323,-1.58019,0.622043\C,0,-1.885
 76,-0.632758,-0.515358\C,0,-1.53003,0.837403,-0.267713\C,0,-0.0483129,
 0.853776,-0.0466513\H,0,1.31732,1.87792,0.687956\H,0,-2.09959,1.24352,
 0.618683\H,0,-1.74645,1.47017,-1.12696\H,0,-2.94867,-0.79943,-0.785058
 \H,0,-1.34882,-1.01993,-1.36467\H,0,-2.39185,-1.44806,1.44893\H,0,-0.7
 33479,-1.52559,1.13203\H,0,-1.80427,-2.61858,0.34154\H,0,2.5138,-1.177

 Normal termination of Gaussian 16 at Tue Apr  8 21:53:17 2025.
 Gaussian 16:  ES64L-G16RevC.01  3-Jul-2019

 ----------------------------------------------------------------------
 #t hf aug-cc-pvdz iop(5/13=1,5/36=2,99/5=2) pseudo=read geom=check gue
 ss=(read,tcheck) scf=(maxcycle=1)
 ----------------------------------------------------------------------
 -----
 title
 -----
 Structure from the checkpoint file:  "ANI1ccx_813_conf2_mol1.chk"
 Charge =  0 Multiplicity = 1

                         Standard orientation:
 ---------------------------------------------------------------------
 Center     Atomic      Atomic             Coordinates (Angstroms)
 Number     Number       Type             X           Y           Z
 ---------------------------------------------------------------------
      1          6           0       -1.703229   -1.580190    0.622043
      2          6           0       -1.885759   -0.632758   -0.515358
      3          6           0       -1.530030    0.837403   -0.267713
      4          6           0       -0.048313    0.853776   -0.046651
      5          1           0        1.317320    1.877920    0.687956
      6          1           0       -2.099590    1.243520    0.618683
      7          1           0       -1.746450    1.470170   -1.126960
      8          1           0       -2.948669   -0.799430   -0.785058
      9          1           0       -1.348819   -1.019930   -1.364670
     10          1           0       -2.391849   -1.448060    1.448930
     11          1           0       -0.733478   -1.525590    1.132030
     12          1           0       -1.804269   -2.618580    0.341540
     13          1           0        2.513801   -1.177209    0.181184
     14          1           0        3.499721   -0.349737   -0.765399
     15          8           0        3.440051   -1.003659    0.009708
     16          8           0        0.397899    1.964300    0.493977
     17          8           0        0.755334   -0.025948   -0.393956
 ---------------------------------------------------------------------

 SCF Done:  E(RHF) =  -382.075288451     A.U. after    2 cycles

 The electronic state is 1-A.
 Alpha  occ. eigenvalues --  -20.64013 -20.56972 -20.55217 -11.41668 -11.27467
 Alpha  occ. eigenvalues --  -11.24234 -11.22363  -1.45281  -1.32547  -1.26929
 Alpha  occ. eigenvalues --   -1.08973  -0.99168  -0.88375  -0.81018  -0.73785
 Alpha  occ. eigenvalues --   -0.71746  -0.69573  -0.68526  -0.63072  -0.61485
 Alpha  occ. eigenvalues --   -0.58175  -0.57064  -0.55871  -0.51950  -0.50660
 Alpha  occ. eigenvalues --   -0.50158  -0.49527  -0.48298  -0.47218
 Alpha virt. eigenvalues --    0.02945   0.04003   0.04286   0.04688   0.06138
 Alpha virt. eigenvalues --    0.06495   0.06810   0.07558   0.07840   0.10315
 Alpha virt. eigenvalues --    0.11634   0.12473   0.13247   0.13853   0.14377

 Mulliken charges:
               1
     1  C    0.437869
     2  C    0.238753
     3  C    0.187049
     4  C    0.431519
     5  H    0.147648
     6  H    0.075325
     7  H    0.037227
     8  H   -0.012338
     9  H   -0.160096
    10  H   -0.154354
    11  H   -0.156311
    12  H   -0.121869
    13  H    0.190081
    14  H    0.195214
    15  O   -0.344414
    16  O   -0.404298
    17  O   -0.587005
 Sum of Mulliken charges =  -0.00000

 Dipole moment (field-independent basis, Debye):
    X=             -3.5332    Y=              2.3688    Z=             -0.3094  Tot=              4.2651

 Test job not archived.
 1\1\GINC-SE366\SP\RHF\Aug-CC-pVDZ\C4H10O3\OHZDE\08-Apr-2025\0\\#t hf a
 ug-cc-pvdz iop(5/13=1,5/36=2,99/5=2) pseudo=read geom=check guess=(rea
 d,tcheck) scf=(maxcycle=1)\\title\\0,1\C,0,-1.70323,-1.58019,0.622043\
 C,0,-1.88576,-0.632758,-0.515358\C,0,-1.53003,0.837403,-0.267713\C,0,-
 0.0483129,0.853776,-0.0466513\H,0,1.31732,1.87792,0.687956\H,0,-2.0995
 9,1.24352,0.618683\H,0,-1.74645,1.47017,-1.12696\H,0,-2.94867,-0.79943
 ,-0.785058\H,0,-1.34882,-1.01993,-1.36467\H,0,-2.39185,-1.44806,1.4489
 3\H,0,-0.733479,-1.52559,1.13203\H,0,-1.80427,-2.61858,0.34154\H,0,2.5

 Normal termination of Gaussian 16 at Tue Apr  8 21:53:22 2025.
