 Gaussian 16, Revision C.01,

 ----------------------------------------------------------------------
 #t hf aug-cc-pvdz symm=none int=(grid=ultrafine) guess=(read,tcheck) s
 table=(opt,rrhf)
 ----------------------------------------------------------------------
 -----
 title
 -----
 Symbolic Z-matrix:
 Charge =  0 Multiplicity = 1

 SCF Done:  E(RHF) =  -441.676961643     A.U. after   15 cycles
 Normal termination of Gaussian 16 at Tue Apr  8 21:35:49 2025.
 Gaussian 16:  ES64L-G16RevC.01  3-Jul-2019

 ----------------------------------------------------------------------
 #t hf aug-cc-pvdz iop(5/13=1,5/36=2,99/5=2) pseudo=read geom=check gue
 ss=(read,tcheck) scf=(maxcycle=1)
 ----------------------------------------------------------------------
 -----
 title
 -----
 Structure from the checkpoint file:  "ANI1ccx_405_conf4_mol1.chk"
 Charge =  0 Multiplicity = 1

                         Standard orientation:
 ---------------------------------------------------------------------
 Center     Atomic      Atomic             Coordinates (Angstroms)
 Number     Number       Type             X           Y           Z
 ---------------------------------------------------------------------
      1          6           0        0.024846    0.671991   -0.042177
      2          1           0        2.606500    0.747969   -0.615215
      3          1           0        2.396430    0.631869    0.945483
      4          1           0       -2.368180    1.258131   -0.238449
      5          1           0       -2.626810    0.419842    0.986522
      6          7           0        2.315770    0.080150    0.084695
      7          7           0        1.020530   -0.288652    0.000429
      8          7           0        0.528494   -1.544639   -0.052818
      9          7           0       -0.730259   -1.497169   -0.031365
     10          7           0       -1.051920   -0.150131   -0.046638
     11          7           0       -2.309260    0.272729    0.012820
     12          8           0        0.178687    1.850531   -0.074393
 ---------------------------------------------------------------------

 SCF Done:  E(RHF) =  -441.805250133     A.U. after    2 cycles

 The electronic state is 1-A.
 Alpha  occ. eigenvalues --  -20.57052 -15.75744 -15.75445 -15.75239 -15.75154
 Alpha  occ. eigenvalues --  -15.68975 -15.68859 -11.41702  -1.49642  -1.39121
 Alpha  occ. eigenvalues --   -1.34318  -1.27174  -1.11721  -1.09438  -0.90134
 Alpha  occ. eigenvalues --   -0.89203  -0.78148  -0.76614  -0.74416  -0.70453
 Alpha  occ. eigenvalues --   -0.68669  -0.63507  -0.58284  -0.57966  -0.54752
 Alpha  occ. eigenvalues --   -0.52518  -0.49196  -0.45053  -0.42657  -0.37852
 Alpha virt. eigenvalues --    0.02827   0.03303   0.04178   0.06649   0.09356
 Alpha virt. eigenvalues --    0.09870   0.11564   0.12307   0.12734   0.13214
 Alpha virt. eigenvalues --    0.13857   0.15073   0.15821   0.17368   0.17784

 Mulliken charges:
               1
     1  C    0.580637
     2  H    0.042798
     3  H    0.082337
     4  H   -0.022147
     5  H    0.109007
     6  N    0.269716
     7  N   -0.327751
     8  N   -0.160021
     9  N   -0.253455
    10  N   -0.172862
    11  N    0.230310
    12  O   -0.378569
 Sum of Mulliken charges =  -0.00000

 Dipole moment (field-independent basis, Debye):
    X=             -0.1129    Y=              1.7288    Z=              1.2478  Tot=              2.1351

 Test job not archived.
 1\1\GINC-SE038\SP\RHF\Aug-CC-pVDZ\C1H4N6O1\OHZDE\08-Apr-2025\0\\#t hf
 aug-cc-pvdz iop(5/13=1,5/36=2,99/5=2) pseudo=read geom=check guess=(re
 ad,tcheck) scf=(maxcycle=1)\\title\\0,1\C,0,0.0248465,0.67199,-0.04217
 71\H,0,2.6065,0.747968,-0.615215\H,0,2.39643,0.631868,0.945483\H,0,-2.
 36818,1.25813,-0.238449\H,0,-2.62681,0.419841,0.986522\N,0,2.31577,0.0
 801492,0.084695\N,0,1.02053,-0.288653,0.00042934\N,0,0.528494,-1.54464
 ,-0.052818\N,0,-0.730259,-1.49717,-0.0313651\N,0,-1.05192,-0.150132,-0
 .046638\N,0,-2.30926,0.272728,0.0128202\O,0,0.178687,1.85053,-0.074392

 Normal termination of Gaussian 16 at Tue Apr  8 21:35:54 2025.
