 Gaussian 16, Revision C.01,

 ----------------------------------------------------------------------
 #t hf aug-cc-pvdz symm=none int=(grid=ultrafine) guess=(read,tcheck) s
 table=(opt,rrhf)
 ----------------------------------------------------------------------
 -----
 title
 -----
 Symbolic Z-matrix:
 Charge =  0 Multiplicity = 1

 SCF Done:  E(RHF) =  -585.404230974     A.U. after   15 cycles
 Normal termination of Gaussian 16 at Tue Apr  8 22:14:08 2025.
 Gaussian 16:  ES64L-G16RevC.01  3-Jul-2019

 ----------------------------------------------------------------------
 #t hf aug-cc-pvdz iop(5/13=1,5/36=2,99/5=2) pseudo=read geom=check gue
 ss=(read,tcheck) scf=(maxcycle=1)
 ----------------------------------------------------------------------
 -----
 title
 -----
 Structure from the checkpoint file:  "ANI1ccx_978_conf3_mol1.chk"
 Charge =  0 Multiplicity = 1

                         Standard orientation:
 ---------------------------------------------------------------------
 Center     Atomic      Atomic             Coordinates (Angstroms)
 Number     Number       Type             X           Y           Z
 ---------------------------------------------------------------------
      1          6           0       -0.255180   -1.491960    0.160076
      2          6           0        0.165294   -0.151238   -0.434716
      3          6           0        1.545550   -0.185859   -0.993519
      4          6           0       -0.918211    0.432425   -1.403431
      5          1           0       -2.424860   -0.091810   -0.256858
      6          1           0       -0.965819   -0.264990   -2.311971
      7          1           0       -0.567364    1.394060   -1.761481
      8          1           0        1.937480    0.859927   -1.204871
      9          1           0        3.285390   -0.636486   -0.329562
     10          1           0       -0.308622   -2.231930   -0.582841
     11          1           0        0.600602   -1.750260    0.829976
     12          1           0       -1.325440   -1.033730    1.626169
     13          1           0        1.531770   -0.717778   -1.993911
     14          7           0        0.271119    0.882651    0.737614
     15          8           0       -0.251747    0.667137    1.817749
     16          8           0       -1.505410   -1.528590    0.813941
     17          8           0        2.379980   -0.872762   -0.029918
     18          8           0       -2.226760    0.614253   -0.918736
     19          8           0        0.743225    1.954240    0.423410
 ---------------------------------------------------------------------

 SCF Done:  E(RHF) =  -585.582458041     A.U. after    2 cycles

 The electronic state is 1-A.
 Alpha  occ. eigenvalues --  -20.62938 -20.62680 -20.61819 -20.59751 -20.58437
 Alpha  occ. eigenvalues --  -15.91730 -11.34253 -11.34079 -11.32657 -11.31318
 Alpha  occ. eigenvalues --   -1.56407  -1.38068  -1.36110  -1.35321  -1.33033
 Alpha  occ. eigenvalues --   -1.14136  -0.95583  -0.94825  -0.94057  -0.83161
 Alpha  occ. eigenvalues --   -0.77656  -0.76432  -0.75107  -0.73206  -0.71646
 Alpha  occ. eigenvalues --   -0.67804  -0.66305  -0.65478  -0.63919  -0.62375
 Alpha  occ. eigenvalues --   -0.61067  -0.58800  -0.56344  -0.53750  -0.53379
 Alpha  occ. eigenvalues --   -0.50763  -0.49399  -0.48581  -0.46669  -0.46210
 Alpha virt. eigenvalues --    0.02215   0.03734   0.04165   0.05080   0.06277
 Alpha virt. eigenvalues --    0.06521   0.06717   0.07148   0.08251   0.09232
 Alpha virt. eigenvalues --    0.10851   0.11524   0.12959   0.13333   0.14310

 Mulliken charges:
               1
     1  C    1.264281
     2  C   -1.863111
     3  C    1.108483
     4  C    1.309422
     5  H    0.246261
     6  H    0.055601
     7  H   -0.061018
     8  H    0.116312
     9  H    0.188552
    10  H   -0.178269
    11  H    0.154901
    12  H    0.238609
    13  H    0.034080
    14  N    0.382408
    15  O   -0.616599
    16  O   -0.634568
    17  O   -0.573676
    18  O   -0.571671
    19  O   -0.599999
 Sum of Mulliken charges =  -0.00000

 Dipole moment (field-independent basis, Debye):
    X=              3.5690    Y=             -2.4110    Z=             -3.3196  Tot=              5.4379

 Test job not archived.
 1\1\GINC-SE110\SP\RHF\Aug-CC-pVDZ\C4H9N1O5\OHZDE\08-Apr-2025\0\\#t hf
 aug-cc-pvdz iop(5/13=1,5/36=2,99/5=2) pseudo=read geom=check guess=(re
 ad,tcheck) scf=(maxcycle=1)\\title\\0,1\C,0,-0.25518,-1.49196,0.160077
 \C,0,0.165294,-0.151238,-0.434715\C,0,1.54555,-0.185859,-0.993518\C,0,
 -0.918211,0.432425,-1.40343\H,0,-2.42486,-0.0918103,-0.256857\H,0,-0.9
 65819,-0.26499,-2.31197\H,0,-0.567364,1.39406,-1.76148\H,0,1.93748,0.8
 59927,-1.20487\H,0,3.28539,-0.636486,-0.329561\H,0,-0.308622,-2.23193,
 -0.58284\H,0,0.600602,-1.75026,0.829977\H,0,-1.32544,-1.03373,1.62617\

 Normal termination of Gaussian 16 at Tue Apr  8 22:14:18 2025.
