 Gaussian 16, Revision C.01,

 ----------------------------------------------------------------------
 #t hf aug-cc-pvdz symm=none int=(grid=ultrafine) guess=(read,tcheck) s
 table=(opt,rrhf)
 ----------------------------------------------------------------------
 -----
 title
 -----
 Symbolic Z-matrix:
 Charge =  0 Multiplicity = 1

 SCF Done:  E(RHF) =  -380.220723517     A.U. after   11 cycles
 Normal termination of Gaussian 16 at Tue Apr  8 21:02:27 2025.
 Gaussian 16:  ES64L-G16RevC.01  3-Jul-2019

 ----------------------------------------------------------------------
 #t hf aug-cc-pvdz iop(5/13=1,5/36=2,99/5=2) pseudo=read geom=check gue
 ss=(read,tcheck) scf=(maxcycle=1)
 ----------------------------------------------------------------------
 -----
 title
 -----
 Structure from the checkpoint file:  "ANI1ccx_1843_conf55_mol1.chk"
 Charge =  0 Multiplicity = 1

                         Standard orientation:
 ---------------------------------------------------------------------
 Center     Atomic      Atomic             Coordinates (Angstroms)
 Number     Number       Type             X           Y           Z
 ---------------------------------------------------------------------
      1          1           0        0.228004   -1.324019    0.279614
      2          1           0       -0.548546   -1.914369    1.575630
      3          1           0        1.925640   -0.337890   -0.302413
      4          1           0        1.755651   -1.571318   -1.262320
      5          1           0        2.323179    1.676192    0.432308
      6          1           0        0.875329    1.450632   -0.125192
      7          1           0       -1.393551    1.261581    0.034403
      8          1           0       -0.625011    0.633119    1.148510
      9          1           0       -3.280240   -0.208152   -0.735489
     10          1           0       -1.839010   -0.688307   -0.402679
     11          8           0       -0.605758   -1.249939    0.833571
     12          8           0        1.829711   -1.351708   -0.309246
     13          8           0        1.837599    1.274772   -0.336558
     14          8           0       -0.656773    1.479611    0.658598
     15          8           0       -2.332460   -0.024920   -0.926663
 ---------------------------------------------------------------------

 SCF Done:  E(RHF) =  -380.346012591     A.U. after    2 cycles

 The electronic state is 1-A.
 Alpha  occ. eigenvalues --  -20.59140 -20.58134 -20.57979 -20.57369 -20.56218
 Alpha  occ. eigenvalues --   -1.32597  -1.31112  -1.30569  -1.29345  -1.28209
 Alpha  occ. eigenvalues --   -0.75018  -0.73357  -0.72283  -0.72173  -0.70541
 Alpha  occ. eigenvalues --   -0.64430  -0.62053  -0.61326  -0.59440  -0.57034
 Alpha  occ. eigenvalues --   -0.53802  -0.52415  -0.52196  -0.51823  -0.50906
 Alpha virt. eigenvalues --    0.02801   0.04678   0.05010   0.05433   0.07671
 Alpha virt. eigenvalues --    0.08046   0.08407   0.09094   0.10485   0.11071
 Alpha virt. eigenvalues --    0.16937   0.17794   0.19478   0.19681   0.20448

 Mulliken charges:
               1
     1  H    0.358576
     2  H    0.225244
     3  H    0.333181
     4  H    0.194879
     5  H    0.230127
     6  H    0.287586
     7  H    0.276833
     8  H    0.240542
     9  H    0.208982
    10  H    0.214017
    11  O   -0.617394
    12  O   -0.519212
    13  O   -0.515009
    14  O   -0.520294
    15  O   -0.398056
 Sum of Mulliken charges =  -0.00000

 Dipole moment (field-independent basis, Debye):
    X=             -1.1707    Y=             -2.1479    Z=              1.4153  Tot=              2.8262

 Test job not archived.
 1\1\GINC-SE249\SP\RHF\Aug-CC-pVDZ\H10O5\OHZDE\08-Apr-2025\0\\#t hf aug
 -cc-pvdz iop(5/13=1,5/36=2,99/5=2) pseudo=read geom=check guess=(read,
 tcheck) scf=(maxcycle=1)\\title\\0,1\H,0,0.228003,-1.32402,0.279614\H,
 0,-0.548547,-1.91437,1.57563\H,0,1.92564,-0.337892,-0.302413\H,0,1.755
 65,-1.57132,-1.26232\H,0,2.32318,1.67619,0.432308\H,0,0.87533,1.45063,
 -0.125192\H,0,-1.39355,1.26158,0.0344031\H,0,-0.625011,0.633118,1.1485
 1\H,0,-3.28024,-0.208152,-0.735489\H,0,-1.83901,-0.688307,-0.402679\O,
 0,-0.605758,-1.24994,0.833571\O,0,1.82971,-1.35171,-0.309246\O,0,1.837

 Normal termination of Gaussian 16 at Tue Apr  8 21:02:31 2025.
