 Gaussian 16, Revision C.01,

 ----------------------------------------------------------------------
 #t hf aug-cc-pvdz symm=none int=(grid=ultrafine) guess=(read,tcheck) s
 table=(opt,rrhf)
 ----------------------------------------------------------------------
 -----
 title
 -----
 Symbolic Z-matrix:
 Charge =  0 Multiplicity = 1

 SCF Done:  E(RHF) =  -456.234576004     A.U. after   11 cycles
 Normal termination of Gaussian 16 at Tue Apr  8 21:07:40 2025.
 Gaussian 16:  ES64L-G16RevC.01  3-Jul-2019

 ----------------------------------------------------------------------
 #t hf aug-cc-pvdz iop(5/13=1,5/36=2,99/5=2) pseudo=read geom=check gue
 ss=(read,tcheck) scf=(maxcycle=1)
 ----------------------------------------------------------------------
 -----
 title
 -----
 Structure from the checkpoint file:  "ANI1ccx_1844_conf452_mol1.chk"
 Charge =  0 Multiplicity = 1

                         Standard orientation:
 ---------------------------------------------------------------------
 Center     Atomic      Atomic             Coordinates (Angstroms)
 Number     Number       Type             X           Y           Z
 ---------------------------------------------------------------------
      1          1           0       -2.416561    0.961342    0.185183
      2          1           0       -0.326799    1.886441    0.304481
      3          1           0        1.134509    2.349631    1.243560
      4          1           0        3.208329    1.232101   -0.938581
      5          1           0        2.041929    1.052781   -0.057307
      6          1           0       -0.651985   -1.989879    1.678040
      7          1           0       -2.229001    2.552651   -0.175509
      8          1           0        0.348170   -1.664929    0.533238
      9          1           0        1.881729   -1.102689   -0.807017
     10          1           0        2.750389   -1.754929    0.137825
     11          1           0       -2.181721   -1.283259   -0.266343
     12          1           0       -2.719231   -0.415584   -1.485100
     13          8           0        2.783939    0.522028   -0.500838
     14          8           0        1.772779   -1.777419   -0.131767
     15          8           0        0.711746    2.004801    0.396634
     16          8           0       -0.628892   -1.912049    0.723377
     17          8           0       -1.761451    1.736151    0.104644
     18          8           0       -2.983091   -0.801470   -0.636108
 ---------------------------------------------------------------------

 SCF Done:  E(RHF) =  -456.386502086     A.U. after    2 cycles

 The electronic state is 1-A.
 Alpha  occ. eigenvalues --  -20.61187 -20.57535 -20.57011 -20.55960 -20.55725
 Alpha  occ. eigenvalues --  -20.54678  -1.33614  -1.31697  -1.29669  -1.29082
 Alpha  occ. eigenvalues --   -1.26941  -1.26090  -0.76469  -0.75134  -0.72200
 Alpha  occ. eigenvalues --   -0.71504  -0.71285  -0.68943  -0.63758  -0.62223
 Alpha  occ. eigenvalues --   -0.60753  -0.58206  -0.56498  -0.55624  -0.52969
 Alpha  occ. eigenvalues --   -0.51910  -0.51525  -0.51314  -0.50536  -0.49500
 Alpha virt. eigenvalues --    0.02598   0.04100   0.05207   0.05214   0.06285
 Alpha virt. eigenvalues --    0.06805   0.07894   0.08140   0.09708   0.10293
 Alpha virt. eigenvalues --    0.10619   0.11625   0.17494   0.18609   0.19017

 Mulliken charges:
               1
     1  H    0.297862
     2  H    0.424162
     3  H    0.211177
     4  H    0.125334
     5  H    0.338427
     6  H    0.164518
     7  H    0.209534
     8  H    0.349912
     9  H    0.215253
    10  H    0.248346
    11  H    0.255958
    12  H    0.182477
    13  O   -0.430018
    14  O   -0.519476
    15  O   -0.636441
    16  O   -0.487582
    17  O   -0.521646
    18  O   -0.427798
 Sum of Mulliken charges =  -0.00000

 Dipole moment (field-independent basis, Debye):
    X=              1.0400    Y=              4.0705    Z=              0.6270  Tot=              4.2478

 Test job not archived.
 1\1\GINC-SE016\SP\RHF\Aug-CC-pVDZ\H12O6\OHZDE\08-Apr-2025\0\\#t hf aug
 -cc-pvdz iop(5/13=1,5/36=2,99/5=2) pseudo=read geom=check guess=(read,
 tcheck) scf=(maxcycle=1)\\title\\0,1\H,0,-2.41656,0.961341,0.185183\H,
 0,-0.326798,1.88644,0.304481\H,0,1.13451,2.34963,1.24356\H,0,3.20833,1
 .2321,-0.938581\H,0,2.04193,1.05278,-0.0573064\H,0,-0.651984,-1.98988,
 1.67804\H,0,-2.229,2.55265,-0.175509\H,0,0.348171,-1.66493,0.533238\H,
 0,1.88173,-1.10269,-0.807017\H,0,2.75039,-1.75493,0.137825\H,0,-2.1817
 2,-1.28326,-0.266343\H,0,-2.71923,-0.415585,-1.4851\O,0,2.78394,0.5220

 Normal termination of Gaussian 16 at Tue Apr  8 21:07:45 2025.
