 Gaussian 16, Revision C.01,

 ----------------------------------------------------------------------
 #t hf aug-cc-pvdz symm=none int=(grid=ultrafine) guess=(read,tcheck) s
 table=(opt,rrhf)
 ----------------------------------------------------------------------
 -----
 title
 -----
 Symbolic Z-matrix:
 Charge =  0 Multiplicity = 1

 SCF Done:  E(RHF) =  -849.490005861     A.U. after   14 cycles
 Normal termination of Gaussian 16 at Tue Apr  8 20:14:06 2025.
 Gaussian 16:  ES64L-G16RevC.01  3-Jul-2019

 ----------------------------------------------------------------------
 #t hf aug-cc-pvdz iop(5/13=1,5/36=2,99/5=2) pseudo=read geom=check gue
 ss=(read,tcheck) scf=(maxcycle=1)
 ----------------------------------------------------------------------
 -----
 title
 -----
 Structure from the checkpoint file:  "ANI1ccx_1611_conf15_mol2.chk"
 Charge =  0 Multiplicity = 1

                         Standard orientation:
 ---------------------------------------------------------------------
 Center     Atomic      Atomic             Coordinates (Angstroms)
 Number     Number       Type             X           Y           Z
 ---------------------------------------------------------------------
      1          6           0       -2.344570   -0.664858    0.594027
      2          6           0       -0.996028   -1.169380    0.086067
      3          6           0       -3.069420    0.389705   -0.282861
      4          6           0       -2.520711    1.815169   -0.119519
      5          6           0        1.258250   -0.477039   -0.774686
      6          6           0        2.372170   -1.319908   -0.016842
      7          6           0        1.704419    0.954255   -1.220890
      8          6           0        1.610339    1.895901   -0.016092
      9          1           0        1.005191   -2.538339    0.116857
     10          1           0        3.704189    1.848122    0.181905
     11          1           0        2.740568    2.733802    1.303970
     12          1           0        2.719479    0.944179   -1.601100
     13          1           0        0.961145    1.357121   -1.879060
     14          1           0        0.937405   -1.139069   -1.569160
     15          1           0       -0.255020    0.644768    0.224045
     16          1           0       -2.202821    2.074129    0.892502
     17          1           0       -1.679381    1.825289   -0.753614
     18          1           0       -3.192382    2.598179   -0.391047
     19          1           0       -3.603590    0.310432   -2.142190
     20          1           0       -4.075050    0.415724    0.082360
     21          1           0       -2.982039   -1.549591    0.579443
     22          1           0       -2.180780   -1.038121    2.628610
     23          1           0       -1.585560    0.399565    2.156610
     24          7           0       -2.349980   -0.219734    2.001660
     25          7           0        0.057340   -0.298223    0.018937
     26          7           0        2.822839    2.197812    0.487535
     27          8           0       -0.748454   -2.352840   -0.172129
     28          8           0       -3.003170   -0.152936   -1.585470
     29          8           0        3.475210   -0.875785    0.190691
     30          8           0        0.554813    2.271061    0.476769
     31          8           0        1.957921   -2.538029    0.229857
 ---------------------------------------------------------------------

 SCF Done:  E(RHF) =  -849.749820636     A.U. after    2 cycles

 The electronic state is 1-A.
 Alpha  occ. eigenvalues --  -20.61463 -20.58912 -20.56516 -20.56254 -20.55775
 Alpha  occ. eigenvalues --  -15.66272 -15.65500 -15.63392 -11.40335 -11.39190
 Alpha  occ. eigenvalues --  -11.38074 -11.32485 -11.30734 -11.29369 -11.27845
 Alpha  occ. eigenvalues --  -11.22556  -1.43067  -1.37853  -1.36773  -1.35023
 Alpha  occ. eigenvalues --   -1.33740  -1.22076  -1.20821  -1.17708  -1.06227
 Alpha  occ. eigenvalues --   -1.03084  -0.96768  -0.94051  -0.86236  -0.83800
 Alpha  occ. eigenvalues --   -0.82392  -0.79909  -0.76639  -0.75009  -0.73881
 Alpha  occ. eigenvalues --   -0.70901  -0.70428  -0.69599  -0.68194  -0.67602
 Alpha  occ. eigenvalues --   -0.65201  -0.64478  -0.63860  -0.61876  -0.61133
 Alpha  occ. eigenvalues --   -0.60110  -0.58768  -0.58386  -0.56991  -0.56826
 Alpha  occ. eigenvalues --   -0.55274  -0.54516  -0.53492  -0.50241  -0.49945
 Alpha  occ. eigenvalues --   -0.48425  -0.48155  -0.46399  -0.45554  -0.43904
 Alpha  occ. eigenvalues --   -0.41659  -0.39767
 Alpha virt. eigenvalues --    0.02535   0.03186   0.03582   0.04264   0.04874
 Alpha virt. eigenvalues --    0.05316   0.06112   0.06381   0.06515   0.07894
 Alpha virt. eigenvalues --    0.08092   0.08532   0.09244   0.09922   0.10250

 Mulliken charges:
               1
     1  C    0.303556
     2  C    0.260217
     3  C    0.698106
     4  C    0.723015
     5  C    0.405845
     6  C    0.713493
     7  C    0.653247
     8  C    0.594855
     9  H    0.223379
    10  H    0.006844
    11  H   -0.028735
    12  H   -0.208238
    13  H    0.094930
    14  H   -0.363933
    15  H   -0.014995
    16  H   -0.007154
    17  H   -0.084365
    18  H   -0.267781
    19  H    0.143670
    20  H   -0.171099
    21  H   -0.099818
    22  H    0.045749
    23  H    0.032114
    24  N   -0.211031
    25  N   -0.565595
    26  N   -0.098671
    27  O   -0.649289
    28  O   -0.628578
    29  O   -0.481408
    30  O   -0.608650
    31  O   -0.409681
 Sum of Mulliken charges =  -0.00000

 Dipole moment (field-independent basis, Debye):
    X=             -1.3984    Y=              4.7842    Z=             -1.3294  Tot=              5.1587

 Test job not archived.
 1\1\GINC-SE338\SP\RHF\Aug-CC-pVDZ\C8H15N3O5\OHZDE\08-Apr-2025\0\\#t hf
  aug-cc-pvdz iop(5/13=1,5/36=2,99/5=2) pseudo=read geom=check guess=(r
 ead,tcheck) scf=(maxcycle=1)\\title\\0,1\C,0,-2.34457,-0.664857,0.5940
 27\C,0,-0.996028,-1.16938,0.0860671\C,0,-3.06942,0.389706,-0.282861\C,
 0,-2.52071,1.81517,-0.119519\C,0,1.25825,-0.47704,-0.774686\C,0,2.3721
 7,-1.31991,-0.0168423\C,0,1.70442,0.954254,-1.22089\C,0,1.61034,1.8959
 ,-0.0160922\H,0,1.00519,-2.53834,0.116857\H,0,3.70419,1.84812,0.181905
 \H,0,2.74057,2.7338,1.30397\H,0,2.71948,0.944177,-1.6011\H,0,0.961146,

 Normal termination of Gaussian 16 at Tue Apr  8 20:14:42 2025.
