 Gaussian 16, Revision C.01,

 ----------------------------------------------------------------------
 #t hf aug-cc-pvdz symm=none int=(grid=ultrafine) guess=(read,tcheck) s
 table=(opt,rrhf)
 ----------------------------------------------------------------------
 -----
 title
 -----
 Symbolic Z-matrix:
 Charge =  0 Multiplicity = 1

 SCF Done:  E(RHF) =  -660.928543422     A.U. after   16 cycles
 Normal termination of Gaussian 16 at Tue Apr  8 20:18:01 2025.
 Gaussian 16:  ES64L-G16RevC.01  3-Jul-2019

 ----------------------------------------------------------------------
 #t hf aug-cc-pvdz iop(5/13=1,5/36=2,99/5=2) pseudo=read geom=check gue
 ss=(read,tcheck) scf=(maxcycle=1)
 ----------------------------------------------------------------------
 -----
 title
 -----
 Structure from the checkpoint file:  "ANI1ccx_1675_conf2_mol1.chk"
 Charge =  0 Multiplicity = 1

                         Standard orientation:
 ---------------------------------------------------------------------
 Center     Atomic      Atomic             Coordinates (Angstroms)
 Number     Number       Type             X           Y           Z
 ---------------------------------------------------------------------
      1          6           0        1.566000   -1.097071    0.359465
      2          6           0       -0.799165   -0.806350   -0.144522
      3          6           0       -1.979230   -1.474630   -0.011336
      4          6           0       -3.176730   -0.785113    0.064131
      5          6           0       -3.113939    0.625009    0.146564
      6          6           0       -1.895579    1.269700    0.087116
      7          6           0       -0.701398    0.566281   -0.072717
      8          6           0        1.700980    0.385563    0.111785
      9          1           0        1.443271    2.610469   -0.788454
     10          1           0       -1.828409    2.365120    0.178261
     11          1           0       -4.005119    1.212041    0.261137
     12          1           0        1.387110   -1.234551    1.455860
     13          1           0       -2.014161   -2.601220   -0.030273
     14          1           0        3.414440   -1.259382    0.189347
     15          1           0       -4.130000   -1.298649    0.035894
     16          7           0        0.569887    1.058079   -0.189471
     17          8           0        0.782507    2.427009   -0.109116
     18          8           0        2.619800   -1.778672   -0.124924
     19          8           0        0.321777   -1.504761   -0.356455
     20          8           0        2.793171    0.943834    0.188197
 ---------------------------------------------------------------------

 SCF Done:  E(RHF) =  -661.129456662     A.U. after    2 cycles

 The electronic state is 1-A.
 Alpha  occ. eigenvalues --  -20.65096 -20.61813 -20.61476 -20.57783 -15.74845
 Alpha  occ. eigenvalues --  -11.40061 -11.39532 -11.31725 -11.30976 -11.26362
 Alpha  occ. eigenvalues --  -11.25846 -11.25615 -11.25560  -1.45572  -1.41650
 Alpha  occ. eigenvalues --   -1.37140  -1.35077  -1.21447  -1.15043  -1.03889
 Alpha  occ. eigenvalues --   -1.03038  -0.96070  -0.90463  -0.86689  -0.81557
 Alpha  occ. eigenvalues --   -0.79734  -0.76065  -0.74732  -0.72193  -0.70885
 Alpha  occ. eigenvalues --   -0.68402  -0.66776  -0.65537  -0.63714  -0.61762
 Alpha  occ. eigenvalues --   -0.60698  -0.59866  -0.57721  -0.55442  -0.54371
 Alpha  occ. eigenvalues --   -0.53416  -0.51167  -0.51152  -0.46145  -0.46014
 Alpha  occ. eigenvalues --   -0.35190  -0.32021
 Alpha virt. eigenvalues --    0.03176   0.03811   0.03857   0.04827   0.05536
 Alpha virt. eigenvalues --    0.06194   0.07125   0.08841   0.09394   0.09555
 Alpha virt. eigenvalues --    0.10117   0.11067   0.11721   0.12224   0.12872

 Mulliken charges:
               1
     1  C    0.933008
     2  C    0.311330
     3  C    0.042849
     4  C    0.811201
     5  C    0.297279
     6  C    1.189062
     7  C    0.424124
     8  C    0.322163
     9  H    0.212463
    10  H   -0.541265
    11  H   -0.474141
    12  H    0.042391
    13  H   -0.445557
    14  H    0.239955
    15  H   -0.434171
    16  N   -0.547805
    17  O   -0.517882
    18  O   -0.543905
    19  O   -0.786528
    20  O   -0.534568
 Sum of Mulliken charges =   0.00000

 Dipole moment (field-independent basis, Debye):
    X=             -1.9015    Y=              0.5025    Z=              0.6920  Tot=              2.0850

 Test job not archived.
 1\1\GINC-SE086\SP\RHF\Aug-CC-pVDZ\C8H7N1O4\OHZDE\08-Apr-2025\0\\#t hf
 aug-cc-pvdz iop(5/13=1,5/36=2,99/5=2) pseudo=read geom=check guess=(re
 ad,tcheck) scf=(maxcycle=1)\\title\\0,1\C,0,1.566,-1.09707,0.359465\C,
 0,-0.799165,-0.80635,-0.144522\C,0,-1.97923,-1.47463,-0.0113358\C,0,-3
 .17673,-0.785114,0.0641313\C,0,-3.11394,0.625008,0.146564\C,0,-1.89558
 ,1.2697,0.0871159\C,0,-0.701399,0.566281,-0.0727169\C,0,1.70098,0.3855
 64,0.111785\H,0,1.44327,2.61047,-0.788454\H,0,-1.82841,2.36512,0.17826
 1\H,0,-4.00512,1.21204,0.261137\H,0,1.38711,-1.23455,1.45586\H,0,-2.01

 Normal termination of Gaussian 16 at Tue Apr  8 20:18:18 2025.
