 Gaussian 16, Revision C.01,

 ----------------------------------------------------------------------
 #t hf aug-cc-pvdz symm=none int=(grid=ultrafine) guess=(read,tcheck) s
 table=(opt,rrhf)
 ----------------------------------------------------------------------
 -----
 title
 -----
 Symbolic Z-matrix:
 Charge =  0 Multiplicity = 1

 SCF Done:  E(RHF) =  -390.627191414     A.U. after   14 cycles
 Normal termination of Gaussian 16 at Tue Apr  8 21:42:49 2025.
 Gaussian 16:  ES64L-G16RevC.01  3-Jul-2019

 ----------------------------------------------------------------------
 #t hf aug-cc-pvdz iop(5/13=1,5/36=2,99/5=2) pseudo=read geom=check gue
 ss=(read,tcheck) scf=(maxcycle=1)
 ----------------------------------------------------------------------
 -----
 title
 -----
 Structure from the checkpoint file:  "ANI1ccx_502_conf1_mol2.chk"
 Charge =  0 Multiplicity = 1

                         Standard orientation:
 ---------------------------------------------------------------------
 Center     Atomic      Atomic             Coordinates (Angstroms)
 Number     Number       Type             X           Y           Z
 ---------------------------------------------------------------------
      1          6           0       -1.143989   -0.179260    0.051985
      2          6           0        1.152951   -0.211152   -0.031850
      3          1           0       -1.236829    1.743869   -0.535948
      4          1           0        1.182561    1.711099    0.590902
      5          1           0        0.010294   -2.005241    0.055407
      6          7           0       -0.706954    1.148699    0.133614
      7          7           0        0.722602    1.151729   -0.128866
      8          7           0        0.012105   -0.970961    0.040315
      9          8           0       -2.325849   -0.531739   -0.048148
     10          8           0        2.300341   -0.519953   -0.020178
 ---------------------------------------------------------------------

 SCF Done:  E(RHF) =  -390.745254149     A.U. after    2 cycles

 The electronic state is 1-A.
 Alpha  occ. eigenvalues --  -20.58159 -20.57748 -15.71875 -15.71869 -15.71531
 Alpha  occ. eigenvalues --  -11.44429 -11.43813  -1.43164  -1.38660  -1.31886
 Alpha  occ. eigenvalues --   -1.22423  -1.10197  -0.88576  -0.88263  -0.75453
 Alpha  occ. eigenvalues --   -0.74344  -0.69403  -0.68649  -0.66832  -0.64717
 Alpha  occ. eigenvalues --   -0.59760  -0.55206  -0.51264  -0.47729  -0.46848
 Alpha  occ. eigenvalues --   -0.42151
 Alpha virt. eigenvalues --    0.03015   0.03564   0.04148   0.06940   0.09974
 Alpha virt. eigenvalues --    0.10568   0.11780   0.11954   0.12868   0.13531
 Alpha virt. eigenvalues --    0.14394   0.14887   0.16204   0.16766   0.17142

 Mulliken charges:
               1
     1  C    0.848559
     2  C    0.744431
     3  H    0.135108
     4  H    0.131946
     5  H    0.006775
     6  N   -0.306819
     7  N   -0.322482
     8  N   -0.375930
     9  O   -0.474792
    10  O   -0.386796
 Sum of Mulliken charges =  -0.00000

 Dipole moment (field-independent basis, Debye):
    X=              0.2513    Y=              1.3633    Z=              0.3103  Tot=              1.4206

 Test job not archived.
 1\1\GINC-SE343\SP\RHF\Aug-CC-pVDZ\C2H3N3O2\OHZDE\08-Apr-2025\0\\#t hf
 aug-cc-pvdz iop(5/13=1,5/36=2,99/5=2) pseudo=read geom=check guess=(re
 ad,tcheck) scf=(maxcycle=1)\\title\\0,1\C,0,-1.14399,-0.179259,0.05198
 44\C,0,1.15295,-0.211151,-0.0318505\H,0,-1.23683,1.74387,-0.535948\H,0
 ,1.18256,1.7111,0.590902\H,0,0.010293,-2.00524,0.0554065\N,0,-0.706955
 ,1.1487,0.133614\N,0,0.722601,1.15173,-0.128866\N,0,0.0121035,-0.97096
 ,0.040315\O,0,-2.32585,-0.531738,-0.0481483\O,0,2.30034,-0.519952,-0.0
 201782\\Version=ES64L-G16RevC.01\State=1-A\HF=-390.7452541\RMSD=2.746e

 Normal termination of Gaussian 16 at Tue Apr  8 21:42:52 2025.
