 Gaussian 16, Revision C.01,

 ----------------------------------------------------------------------
 #t hf aug-cc-pvdz symm=none int=(grid=ultrafine) guess=(read,tcheck) s
 table=(opt,rrhf)
 ----------------------------------------------------------------------
 -----
 title
 -----
 Symbolic Z-matrix:
 Charge =  0 Multiplicity = 1

 SCF Done:  E(RHF) =  -889.019061152     A.U. after   16 cycles
 Normal termination of Gaussian 16 at Tue Apr  8 21:34:21 2025.
 Gaussian 16:  ES64L-G16RevC.01  3-Jul-2019

 ----------------------------------------------------------------------
 #t hf aug-cc-pvdz iop(5/13=1,5/36=2,99/5=2) pseudo=read geom=check gue
 ss=(read,tcheck) scf=(maxcycle=1)
 ----------------------------------------------------------------------
 -----
 title
 -----
 Structure from the checkpoint file:  "ANI1ccx_317_conf7_mol1.chk"
 Charge =  0 Multiplicity = 1

                         Standard orientation:
 ---------------------------------------------------------------------
 Center     Atomic      Atomic             Coordinates (Angstroms)
 Number     Number       Type             X           Y           Z
 ---------------------------------------------------------------------
      1          6           0        1.029312    2.793769   -0.708574
      2          6           0       -4.017250    0.820625   -0.195322
      3          6           0       -3.146069    1.590553    0.475830
      4          6           0       -3.733741   -0.436757   -0.631174
      5          6           0       -2.514031   -1.002258   -0.125972
      6          6           0       -1.571311   -0.237300    0.626147
      7          6           0       -1.897900    1.146591    0.905460
      8          6           0       -0.398037   -1.010600    0.685489
      9          6           0        0.830600   -0.772389    1.505079
     10          6           0        2.641868   -1.406552   -0.144927
     11          6           0        2.191589   -0.373708    0.845856
     12          6           0        1.218231    1.276949   -0.639275
     13          6           0       -0.706949   -2.254140    0.203058
     14          1           0       -2.259483   -2.849198   -1.128591
     15          1           0        1.176309   -0.863797   -1.318621
     16          1           0       -4.936880    1.215824   -0.589108
     17          1           0       -3.452098    2.611113    0.587775
     18          1           0       -4.523082   -1.064146   -1.109861
     19          1           0       -1.276879    1.862891    1.438559
     20          1           0        0.038404   -3.009520    0.210076
     21          1           0        0.044044    3.034190   -0.214974
     22          1           0        0.993489   -1.616651    2.115169
     23          1           0        2.890279   -0.349040    1.663779
     24          1           0        2.573391    1.721498    0.688407
     25          1           0        0.907817    3.004009   -1.840481
     26          1           0        1.646063    4.275478    0.527350
     27          1           0        2.803153    3.865817   -0.433775
     28          1           0        0.563337    0.004399    2.153599
     29          7           0        2.063012    3.459368    0.087226
     30          7           0        2.117150    0.932726    0.258791
     31          7           0       -1.978653   -2.251048   -0.315195
     32          8           0        3.529828   -2.147263    0.054069
     33          8           0        0.716167    0.397554   -1.325161
     34          8           0        1.734468   -1.705152   -1.200801
 ---------------------------------------------------------------------

 SCF Done:  E(RHF) =  -889.283444581     A.U. after    2 cycles

 The electronic state is 1-A.
 Alpha  occ. eigenvalues --  -20.55862 -20.54365 -20.53996 -15.66617 -15.66220
 Alpha  occ. eigenvalues --  -15.65982 -11.38666 -11.36635 -11.32376 -11.30225
 Alpha  occ. eigenvalues --  -11.27649 -11.26184 -11.25099 -11.24505 -11.24342
 Alpha  occ. eigenvalues --  -11.23863 -11.22722 -11.22461 -11.21883  -1.40126
 Alpha  occ. eigenvalues --   -1.37870  -1.26965  -1.26340  -1.24744  -1.19751
 Alpha  occ. eigenvalues --   -1.12538  -1.08598  -1.03677  -0.99038  -0.98705
 Alpha  occ. eigenvalues --   -0.96407  -0.91050  -0.84612  -0.83523  -0.80308
 Alpha  occ. eigenvalues --   -0.78176  -0.76494  -0.75981  -0.73267  -0.72407
 Alpha  occ. eigenvalues --   -0.70369  -0.67393  -0.66768  -0.65625  -0.65401
 Alpha  occ. eigenvalues --   -0.64571  -0.63174  -0.61559  -0.60373  -0.60283
 Alpha  occ. eigenvalues --   -0.59268  -0.58049  -0.57701  -0.56685  -0.54937
 Alpha  occ. eigenvalues --   -0.54150  -0.53062  -0.52861  -0.50132  -0.48938
 Alpha  occ. eigenvalues --   -0.48102  -0.47032  -0.46215  -0.45475  -0.43408
 Alpha  occ. eigenvalues --   -0.41600  -0.37167  -0.30334  -0.27709
 Alpha virt. eigenvalues --    0.01445   0.03035   0.03119   0.03653   0.04551
 Alpha virt. eigenvalues --    0.04713   0.05732   0.06014   0.06165   0.07024
 Alpha virt. eigenvalues --    0.07794   0.08095   0.08614   0.08736   0.09634

 Mulliken charges:
               1
     1  C    0.294952
     2  C    0.627108
     3  C    0.197027
     4  C    0.868495
     5  C   -0.150381
     6  C   -0.898581
     7  C    1.565913
     8  C   -0.467511
     9  C    0.966004
    10  C    0.529269
    11  C    0.168184
    12  C    0.541317
    13  C    1.328795
    14  H   -0.010271
    15  H    0.480061
    16  H   -0.471591
    17  H   -0.590563
    18  H   -0.415282
    19  H   -0.672179
    20  H   -0.379638
    21  H    0.050450
    22  H   -0.165595
    23  H   -0.298629
    24  H    0.025614
    25  H    0.190338
    26  H    0.073553
    27  H    0.018225
    28  H   -0.275001
    29  N   -0.321488
    30  N   -0.172251
    31  N   -0.823851
    32  O   -0.426575
    33  O   -0.695715
    34  O   -0.690204
 Sum of Mulliken charges =  -0.00000

 Dipole moment (field-independent basis, Debye):
    X=             -1.3746    Y=              7.4542    Z=              1.4764  Tot=              7.7223

 Test job not archived.
 1\1\GINC-SE226\SP\RHF\Aug-CC-pVDZ\C13H15N3O3\OHZDE\08-Apr-2025\0\\#t h
 f aug-cc-pvdz iop(5/13=1,5/36=2,99/5=2) pseudo=read geom=check guess=(
 read,tcheck) scf=(maxcycle=1)\\title\\0,1\C,0,1.02931,2.79377,-0.70857
 3\C,0,-4.01725,0.820622,-0.195321\C,0,-3.14607,1.59055,0.475831\C,0,-3
 .73374,-0.43676,-0.631173\C,0,-2.51403,-1.00226,-0.125971\C,0,-1.57131
 ,-0.237301,0.626148\C,0,-1.8979,1.14659,0.905461\C,0,-0.398036,-1.0106
 ,0.68549\C,0,0.830601,-0.772388,1.50508\C,0,2.64187,-1.40655,-0.144926
 \C,0,2.19159,-0.373706,0.845857\C,0,1.21823,1.27695,-0.639274\C,0,-0.7

 Normal termination of Gaussian 16 at Tue Apr  8 21:35:27 2025.
