 Gaussian 16, Revision C.01,

 ----------------------------------------------------------------------
 #t hf aug-cc-pvdz symm=none int=(grid=ultrafine) guess=(read,tcheck) s
 table=(opt,rrhf)
 ----------------------------------------------------------------------
 -----
 title
 -----
 Symbolic Z-matrix:
 Charge =  0 Multiplicity = 1

 SCF Done:  E(RHF) =  -222.386390635     A.U. after   12 cycles
 Normal termination of Gaussian 16 at Tue Apr  8 21:12:22 2025.
 Gaussian 16:  ES64L-G16RevC.01  3-Jul-2019

 ----------------------------------------------------------------------
 #t hf aug-cc-pvdz iop(5/13=1,5/36=2,99/5=2) pseudo=read geom=check gue
 ss=(read,tcheck) scf=(maxcycle=1)
 ----------------------------------------------------------------------
 -----
 title
 -----
 Structure from the checkpoint file:  "ANI1ccx_1903_conf9_mol2.chk"
 Charge =  0 Multiplicity = 1

                         Standard orientation:
 ---------------------------------------------------------------------
 Center     Atomic      Atomic             Coordinates (Angstroms)
 Number     Number       Type             X           Y           Z
 ---------------------------------------------------------------------
      1          1           0       -2.634861    0.437155    1.024820
      2          1           0       -3.188381   -0.072561   -0.414137
      3          1           0       -1.227301    1.073620   -0.723078
      4          1           0       -1.015921   -0.586862   -0.952402
      5          1           0        0.887185    0.982568   -0.140049
      6          1           0        2.074329    1.129970    0.895828
      7          1           0        2.183789   -1.183620   -0.823817
      8          1           0        1.188969   -1.062810    0.596713
      9          7           0       -2.466491   -0.253891    0.274592
     10          7           0       -1.148611    0.155277   -0.288586
     11          7           0        1.850319    0.710859   -0.022179
     12          7           0        2.012239   -0.714739    0.112762
 ---------------------------------------------------------------------

 SCF Done:  E(RHF) =  -222.455540856     A.U. after    2 cycles

 The electronic state is 1-A.
 Alpha  occ. eigenvalues --  -15.65718 -15.65586 -15.62487 -15.61823  -1.22046
 Alpha  occ. eigenvalues --   -1.19140  -1.00251  -0.96049  -0.70422  -0.66829
 Alpha  occ. eigenvalues --   -0.65361  -0.64078  -0.58305  -0.57907  -0.45408
 Alpha  occ. eigenvalues --   -0.41328  -0.38925  -0.38234
 Alpha virt. eigenvalues --    0.02787   0.03532   0.04538   0.05093   0.06892
 Alpha virt. eigenvalues --    0.07413   0.08205   0.10405   0.15476   0.16545
 Alpha virt. eigenvalues --    0.17235   0.17781   0.18236   0.18857   0.19083

 Mulliken charges:
               1
     1  H    0.099034
     2  H    0.045780
     3  H    0.058918
     4  H    0.112729
     5  H    0.047587
     6  H    0.099566
     7  H    0.121783
     8  H    0.052673
     9  N   -0.139019
    10  N   -0.209568
    11  N   -0.101602
    12  N   -0.187882
 Sum of Mulliken charges =  -0.00000

 Dipole moment (field-independent basis, Debye):
    X=             -3.7015    Y=              1.2002    Z=             -1.0860  Tot=              4.0400

 Test job not archived.
 1\1\GINC-SE362\SP\RHF\Aug-CC-pVDZ\H8N4\OHZDE\08-Apr-2025\0\\#t hf aug-
 cc-pvdz iop(5/13=1,5/36=2,99/5=2) pseudo=read geom=check guess=(read,t
 check) scf=(maxcycle=1)\\title\\0,1\H,0,-2.63486,0.437155,1.02482\H,0,
 -3.18838,-0.0725602,-0.414137\H,0,-1.2273,1.07362,-0.723078\H,0,-1.015
 92,-0.586862,-0.952402\H,0,0.887186,0.982568,-0.140049\H,0,2.07433,1.1
 2997,0.895828\H,0,2.18379,-1.18362,-0.823817\H,0,1.18897,-1.06281,0.59
 6713\N,0,-2.46649,-0.253891,0.274592\N,0,-1.14861,0.155277,-0.288586\N
 ,0,1.85032,0.710859,-0.0221791\N,0,2.01224,-0.714739,0.112762\\Version

 Normal termination of Gaussian 16 at Tue Apr  8 21:12:24 2025.
