 Gaussian 16, Revision C.01,

 ----------------------------------------------------------------------
 #t hf aug-cc-pvdz symm=none int=(grid=ultrafine) guess=(read,tcheck) s
 table=(opt,rrhf)
 ----------------------------------------------------------------------
 -----
 title
 -----
 Symbolic Z-matrix:
 Charge =  0 Multiplicity = 1

 SCF Done:  E(RHF) =  -583.261890429     A.U. after   16 cycles
 Normal termination of Gaussian 16 at Tue Apr  8 22:01:54 2025.
 Gaussian 16:  ES64L-G16RevC.01  3-Jul-2019

 ----------------------------------------------------------------------
 #t hf aug-cc-pvdz iop(5/13=1,5/36=2,99/5=2) pseudo=read geom=check gue
 ss=(read,tcheck) scf=(maxcycle=1)
 ----------------------------------------------------------------------
 -----
 title
 -----
 Structure from the checkpoint file:  "ANI1ccx_900_conf7_mol2.chk"
 Charge =  0 Multiplicity = 1

                         Standard orientation:
 ---------------------------------------------------------------------
 Center     Atomic      Atomic             Coordinates (Angstroms)
 Number     Number       Type             X           Y           Z
 ---------------------------------------------------------------------
      1          6           0       -2.154411   -0.065323    0.039394
      2          6           0       -1.121621    0.550236   -0.935406
      3          6           0        1.251089    0.710753   -0.027250
      4          6           0        1.453289   -0.824894    0.018090
      5          1           0       -1.118551    0.648549    1.492830
      6          1           0       -0.725846   -0.275132   -1.548501
      7          1           0       -1.664721    1.263111   -1.532191
      8          1           0        0.051522    2.204221   -0.339568
      9          1           0        3.299339   -0.278897    0.145597
     10          7           0       -0.019759    1.204791   -0.199630
     11          8           0       -1.980241    0.236878    1.350760
     12          8           0       -3.088511   -0.742711   -0.375241
     13          8           0        2.192589    1.467181    0.093035
     14          8           0        2.755949   -1.104629    0.128153
     15          8           0        0.586024   -1.634219   -0.120423
 ---------------------------------------------------------------------

 SCF Done:  E(RHF) =  -583.443174905     A.U. after    2 cycles

 The electronic state is 1-A.
 Alpha  occ. eigenvalues --  -20.65967 -20.63679 -20.62003 -20.61910 -20.57099
 Alpha  occ. eigenvalues --  -15.71200 -11.45416 -11.43834 -11.41869 -11.33696
 Alpha  occ. eigenvalues --   -1.47230  -1.42373  -1.42213  -1.38225  -1.33074
 Alpha  occ. eigenvalues --   -1.25509  -1.03112  -0.96184  -0.87252  -0.85748
 Alpha  occ. eigenvalues --   -0.79727  -0.75746  -0.75461  -0.73141  -0.70001
 Alpha  occ. eigenvalues --   -0.69600  -0.67037  -0.65634  -0.63340  -0.62735
 Alpha  occ. eigenvalues --   -0.60929  -0.58975  -0.57839  -0.54231  -0.50223
 Alpha  occ. eigenvalues --   -0.50049  -0.49053  -0.45087
 Alpha virt. eigenvalues --    0.02037   0.03362   0.03792   0.04095   0.05157
 Alpha virt. eigenvalues --    0.06208   0.08169   0.09376   0.10251   0.10534
 Alpha virt. eigenvalues --    0.11825   0.12460   0.12511   0.13288   0.13931

 Mulliken charges:
               1
     1  C    0.583133
     2  C    0.688953
     3  C    0.510633
     4  C    0.594985
     5  H    0.222748
     6  H    0.058559
     7  H   -0.072679
     8  H    0.029176
     9  H    0.232750
    10  N   -0.546359
    11  O   -0.460777
    12  O   -0.513667
    13  O   -0.512297
    14  O   -0.482659
    15  O   -0.332499
 Sum of Mulliken charges =  -0.00000

 Dipole moment (field-independent basis, Debye):
    X=              3.3120    Y=              4.7938    Z=             -1.2331  Tot=              5.9557

 Test job not archived.
 1\1\GINC-SE331\SP\RHF\Aug-CC-pVDZ\C4H5N1O5\OHZDE\08-Apr-2025\0\\#t hf
 aug-cc-pvdz iop(5/13=1,5/36=2,99/5=2) pseudo=read geom=check guess=(re
 ad,tcheck) scf=(maxcycle=1)\\title\\0,1\C,0,-2.15441,-0.0653233,0.0393
 943\C,0,-1.12162,0.550235,-0.935405\C,0,1.25109,0.710752,-0.0272494\C,
 0,1.45329,-0.824895,0.0180906\H,0,-1.11855,0.648548,1.49283\H,0,-0.725
 845,-0.275133,-1.5485\H,0,-1.66472,1.26311,-1.53219\H,0,0.0515233,2.20
 422,-0.339567\H,0,3.29934,-0.278898,0.145597\N,0,-0.019758,1.20479,-0.
 199629\O,0,-1.98024,0.236877,1.35076\O,0,-3.08851,-0.742712,-0.37524\O

 Normal termination of Gaussian 16 at Tue Apr  8 22:02:01 2025.
