 Gaussian 16, Revision C.01,

 ----------------------------------------------------------------------
 #t hf aug-cc-pvdz symm=none int=(grid=ultrafine) guess=(read,tcheck) s
 table=(opt,rrhf)
 ----------------------------------------------------------------------
 -----
 title
 -----
 Symbolic Z-matrix:
 Charge =  0 Multiplicity = 1

 SCF Done:  E(RHF) =  -410.050349797     A.U. after   13 cycles
 Normal termination of Gaussian 16 at Tue Apr  8 21:39:11 2025.
 Gaussian 16:  ES64L-G16RevC.01  3-Jul-2019

 ----------------------------------------------------------------------
 #t hf aug-cc-pvdz iop(5/13=1,5/36=2,99/5=2) pseudo=read geom=check gue
 ss=(read,tcheck) scf=(maxcycle=1)
 ----------------------------------------------------------------------
 -----
 title
 -----
 Structure from the checkpoint file:  "ANI1ccx_451_conf2_mol2.chk"
 Charge =  0 Multiplicity = 1

                         Standard orientation:
 ---------------------------------------------------------------------
 Center     Atomic      Atomic             Coordinates (Angstroms)
 Number     Number       Type             X           Y           Z
 ---------------------------------------------------------------------
      1          6           0       -0.274060   -0.012506   -0.275037
      2          1           0        3.585010   -1.103737    0.910495
      3          1           0        2.785450   -0.780538   -0.379311
      4          1           0       -2.428239   -1.895673   -0.665857
      5          1           0       -1.238619   -2.380702    0.366962
      6          1           0       -1.710721    0.080706    1.260470
      7          1           0        0.930939    1.425690   -0.888410
      8          1           0       -1.642673    2.087508   -0.169940
      9          1           0       -0.597367    2.400339    1.081850
     10          7           0       -1.951299   -1.661983    0.234740
     11          7           0       -1.472271   -0.321929    0.358512
     12          7           0        0.112372    1.211229   -0.316935
     13          7           0       -0.663923    2.340409    0.092416
     14          8           0        3.256349   -0.396623    0.369747
     15          8           0        0.466954   -0.944956   -0.675643
 ---------------------------------------------------------------------

 SCF Done:  E(RHF) =  -410.179085620     A.U. after    2 cycles

 The electronic state is 1-A.
 Alpha  occ. eigenvalues --  -20.55227 -20.52189 -15.68849 -15.68384 -15.68119
 Alpha  occ. eigenvalues --  -15.65260 -11.39325  -1.36563  -1.28832  -1.26827
 Alpha  occ. eigenvalues --   -1.23188  -1.08619  -1.02872  -0.83781  -0.76306
 Alpha  occ. eigenvalues --   -0.72115  -0.71816  -0.69992  -0.67098  -0.64124
 Alpha  occ. eigenvalues --   -0.61275  -0.57621  -0.57060  -0.50473  -0.48427
 Alpha  occ. eigenvalues --   -0.45898  -0.42138  -0.41796  -0.40519
 Alpha virt. eigenvalues --    0.02671   0.03671   0.03994   0.04570   0.06618
 Alpha virt. eigenvalues --    0.07169   0.07751   0.08893   0.11762   0.13004
 Alpha virt. eigenvalues --    0.15094   0.15345   0.15517   0.16563   0.17096

 Mulliken charges:
               1
     1  C    0.742611
     2  H    0.134024
     3  H    0.182535
     4  H    0.087035
     5  H    0.032195
     6  H    0.016104
     7  H    0.037817
     8  H    0.110344
     9  H    0.061155
    10  N   -0.070468
    11  N   -0.306498
    12  N   -0.104719
    13  N    0.006728
    14  O   -0.313987
    15  O   -0.614876
 Sum of Mulliken charges =  -0.00000

 Dipole moment (field-independent basis, Debye):
    X=             -2.5076    Y=              0.7118    Z=              1.2083  Tot=              2.8731

 Test job not archived.
 1\1\GINC-SE247\SP\RHF\Aug-CC-pVDZ\C1H8N4O2\OHZDE\08-Apr-2025\0\\#t hf
 aug-cc-pvdz iop(5/13=1,5/36=2,99/5=2) pseudo=read geom=check guess=(re
 ad,tcheck) scf=(maxcycle=1)\\title\\0,1\C,0,-0.274059,-0.0125048,-0.27
 5037\H,0,3.58501,-1.10374,0.910495\H,0,2.78545,-0.78054,-0.379311\H,0,
 -2.42824,-1.89567,-0.665857\H,0,-1.23862,-2.3807,0.366962\H,0,-1.71072
 ,0.0807083,1.26047\H,0,0.930941,1.42569,-0.88841\H,0,-1.64267,2.08751,
 -0.16994\H,0,-0.597364,2.40034,1.08185\N,0,-1.9513,-1.66198,0.23474\N,
 0,-1.47227,-0.321927,0.358512\N,0,0.112374,1.21123,-0.316935\N,0,-0.66

 Normal termination of Gaussian 16 at Tue Apr  8 21:39:16 2025.
