 Gaussian 16, Revision C.01,

 ----------------------------------------------------------------------
 #t hf aug-cc-pvdz symm=none int=(grid=ultrafine) guess=(read,tcheck) s
 table=(opt,rrhf)
 ----------------------------------------------------------------------
 -----
 title
 -----
 Symbolic Z-matrix:
 Charge =  0 Multiplicity = 1

 SCF Done:  E(RHF) =  -794.442009607     A.U. after   15 cycles
 Normal termination of Gaussian 16 at Tue Apr  8 20:08:17 2025.
 Gaussian 16:  ES64L-G16RevC.01  3-Jul-2019

 ----------------------------------------------------------------------
 #t hf aug-cc-pvdz iop(5/13=1,5/36=2,99/5=2) pseudo=read geom=check gue
 ss=(read,tcheck) scf=(maxcycle=1)
 ----------------------------------------------------------------------
 -----
 title
 -----
 Structure from the checkpoint file:  "ANI1ccx_1592_conf9_mol1.chk"
 Charge =  0 Multiplicity = 1

                         Standard orientation:
 ---------------------------------------------------------------------
 Center     Atomic      Atomic             Coordinates (Angstroms)
 Number     Number       Type             X           Y           Z
 ---------------------------------------------------------------------
      1          6           0        0.536262    1.309071   -0.312284
      2          6           0       -0.820462    1.805871    0.129501
      3          6           0        1.486331    1.224561    0.903417
      4          6           0        2.692291    0.405304    0.545434
      5          6           0        2.398310   -1.015019    0.136888
      6          6           0       -1.548649   -0.542958    0.659461
      7          6           0       -1.915080   -1.201679   -0.712691
      8          6           0       -2.381710   -1.171029    1.774890
      9          1           0       -0.129362   -1.918289   -0.833360
     10          1           0       -3.457340   -0.915322    1.589600
     11          1           0       -2.072700   -0.770482    2.756740
     12          1           0       -2.276350   -2.238069    1.790550
     13          1           0       -0.439510   -0.701576    0.905527
     14          1           0       -2.724259    1.200092    0.547489
     15          1           0        3.422940   -2.535200   -0.231653
     16          1           0        3.242611    0.940136   -0.247529
     17          1           0        3.474401    0.326960    1.378910
     18          1           0        1.798761    2.195431    1.394210
     19          1           0        0.905613    0.735229    1.630370
     20          1           0        0.348845    0.328132   -0.578779
     21          1           0        0.541917    1.731561   -2.218810
     22          1           0        0.971342    3.030731   -1.294930
     23          7           0        1.100481    2.062121   -1.387360
     24          7           0       -1.767379    0.851137    0.553532
     25          8           0       -1.176909    2.996061   -0.010416
     26          8           0        1.372290   -1.656629    0.267339
     27          8           0        3.547230   -1.557020   -0.240149
     28          8           0       -2.894820   -0.947843   -1.311360
     29          8           0       -1.050590   -2.170429   -1.142820
 ---------------------------------------------------------------------

 SCF Done:  E(RHF) =  -794.685264750     A.U. after    2 cycles

 The electronic state is 1-A.
 Alpha  occ. eigenvalues --  -20.66425 -20.61096 -20.61001 -20.56525 -20.54576
 Alpha  occ. eigenvalues --  -15.65396 -15.62590 -11.44542 -11.39041 -11.37558
 Alpha  occ. eigenvalues --  -11.30948 -11.29414 -11.28552 -11.26645 -11.25394
 Alpha  occ. eigenvalues --   -1.47284  -1.41669  -1.37153  -1.33756  -1.32805
 Alpha  occ. eigenvalues --   -1.21452  -1.19331  -1.09509  -1.03505  -0.99552
 Alpha  occ. eigenvalues --   -0.91569  -0.89904  -0.83536  -0.82526  -0.78933
 Alpha  occ. eigenvalues --   -0.76791  -0.75042  -0.73966  -0.72497  -0.70633
 Alpha  occ. eigenvalues --   -0.68796  -0.67068  -0.66305  -0.65367  -0.65032
 Alpha  occ. eigenvalues --   -0.62011  -0.60670  -0.60271  -0.58354  -0.58056
 Alpha  occ. eigenvalues --   -0.57152  -0.56559  -0.56186  -0.54563  -0.53686
 Alpha  occ. eigenvalues --   -0.52213  -0.50409  -0.49678  -0.49643  -0.46938
 Alpha  occ. eigenvalues --   -0.45822  -0.41360  -0.38930
 Alpha virt. eigenvalues --    0.01926   0.03121   0.03610   0.04197   0.05372
 Alpha virt. eigenvalues --    0.05615   0.05964   0.06342   0.06837   0.08021
 Alpha virt. eigenvalues --    0.08642   0.08897   0.09266   0.10400   0.10486

 Mulliken charges:
               1
     1  C    0.270458
     2  C    0.768781
     3  C    0.643079
     4  C    0.329750
     5  C    0.532565
     6  C   -0.334816
     7  C    0.780630
     8  C    0.910559
     9  H    0.304943
    10  H    0.078935
    11  H    0.054414
    12  H   -0.055367
    13  H   -0.180514
    14  H   -0.092607
    15  H    0.207910
    16  H    0.030378
    17  H    0.081571
    18  H   -0.038949
    19  H   -0.360631
    20  H   -0.519158
    21  H    0.141757
    22  H   -0.021730
    23  N   -0.358075
    24  N   -0.400120
    25  O   -0.620666
    26  O   -0.589437
    27  O   -0.523292
    28  O   -0.471813
    29  O   -0.568554
 Sum of Mulliken charges =  -0.00000

 Dipole moment (field-independent basis, Debye):
    X=              5.7700    Y=             -2.1608    Z=              3.6587  Tot=              7.1657

 Test job not archived.
 1\1\GINC-SE051\SP\RHF\Aug-CC-pVDZ\C8H14N2O5\OHZDE\08-Apr-2025\0\\#t hf
  aug-cc-pvdz iop(5/13=1,5/36=2,99/5=2) pseudo=read geom=check guess=(r
 ead,tcheck) scf=(maxcycle=1)\\title\\0,1\C,0,0.536261,1.30907,-0.31228
 4\C,0,-0.820463,1.80587,0.129501\C,0,1.48633,1.22456,0.903417\C,0,2.69
 229,0.405303,0.545434\C,0,2.39831,-1.01502,0.136888\C,0,-1.54865,-0.54
 2959,0.659461\C,0,-1.91508,-1.20168,-0.712691\C,0,-2.38171,-1.17103,1.
 77489\H,0,-0.129362,-1.91829,-0.83336\H,0,-3.45734,-0.915324,1.5896\H,
 0,-2.0727,-0.770483,2.75674\H,0,-2.27635,-2.23807,1.79055\H,0,-0.43951

 Normal termination of Gaussian 16 at Tue Apr  8 20:08:53 2025.
