 Gaussian 16, Revision C.01,

 ----------------------------------------------------------------------
 #t hf aug-cc-pvdz symm=none int=(grid=ultrafine) guess=(read,tcheck) s
 table=(opt,rrhf)
 ----------------------------------------------------------------------
 -----
 title
 -----
 Symbolic Z-matrix:
 Charge =  0 Multiplicity = 1

 SCF Done:  E(RHF) =  -281.813344131     A.U. after   13 cycles
 Normal termination of Gaussian 16 at Tue Apr  8 21:11:20 2025.
 Gaussian 16:  ES64L-G16RevC.01  3-Jul-2019

 ----------------------------------------------------------------------
 #t hf aug-cc-pvdz iop(5/13=1,5/36=2,99/5=2) pseudo=read geom=check gue
 ss=(read,tcheck) scf=(maxcycle=1)
 ----------------------------------------------------------------------
 -----
 title
 -----
 Structure from the checkpoint file:  "ANI1ccx_1889_conf21_mol2.chk"
 Charge =  0 Multiplicity = 1

                         Standard orientation:
 ---------------------------------------------------------------------
 Center     Atomic      Atomic             Coordinates (Angstroms)
 Number     Number       Type             X           Y           Z
 ---------------------------------------------------------------------
      1          1           0       -0.537882    1.039751    0.102727
      2          1           0       -2.284800   -0.838444    0.030108
      3          1           0        0.580532   -1.120050    0.169316
      4          1           0        1.836231    0.577519    1.112110
      5          1           0        2.018452    1.075758   -0.519450
      6          7           0        1.399281    0.618648    0.198757
      7          8           0       -1.416278    0.763534   -0.230051
      8          8           0       -1.374160   -0.634407    0.224245
      9          8           0        1.364500   -0.762261   -0.279958
 ---------------------------------------------------------------------

 SCF Done:  E(RHF) =  -281.903879318     A.U. after    2 cycles

 The electronic state is 1-A.
 Alpha  occ. eigenvalues --  -20.63809 -20.62784 -20.60092 -15.69159  -1.41390
 Alpha  occ. eigenvalues --   -1.34366  -1.18647  -1.06119  -0.75688  -0.72129
 Alpha  occ. eigenvalues --   -0.67567  -0.65472  -0.63127  -0.61714  -0.56816
 Alpha  occ. eigenvalues --   -0.52410  -0.47737  -0.42747
 Alpha virt. eigenvalues --    0.03601   0.04484   0.05313   0.06285   0.07947
 Alpha virt. eigenvalues --    0.13328   0.15194   0.17566   0.19066   0.19374
 Alpha virt. eigenvalues --    0.19891   0.20709   0.21821   0.22566   0.23628

 Mulliken charges:
               1
     1  H    0.311526
     2  H    0.225570
     3  H    0.212928
     4  H    0.124701
     5  H    0.170251
     6  N   -0.109910
     7  O   -0.212217
     8  O   -0.303534
     9  O   -0.419314
 Sum of Mulliken charges =  -0.00000

 Dipole moment (field-independent basis, Debye):
    X=              0.5317    Y=              0.6242    Z=              1.4326  Tot=              1.6507

 Test job not archived.
 1\1\GINC-SE043\SP\RHF\Aug-CC-pVDZ\H5N1O3\OHZDE\08-Apr-2025\0\\#t hf au
 g-cc-pvdz iop(5/13=1,5/36=2,99/5=2) pseudo=read geom=check guess=(read
 ,tcheck) scf=(maxcycle=1)\\title\\0,1\H,0,-0.537884,1.03975,0.102727\H
 ,0,-2.2848,-0.838446,0.0301081\H,0,0.580532,-1.12005,0.169316\H,0,1.83
 623,0.577521,1.11211\H,0,2.01845,1.07576,-0.51945\N,0,1.39928,0.618649
 ,0.198757\O,0,-1.41628,0.763533,-0.230051\O,0,-1.37416,-0.634408,0.224
 245\O,0,1.3645,-0.76226,-0.279958\\Version=ES64L-G16RevC.01\State=1-A\
 HF=-281.9038793\RMSD=2.055e-03\Dipole=0.2091829,0.2455949,0.5636424\Qu

 Normal termination of Gaussian 16 at Tue Apr  8 21:11:24 2025.
