 Gaussian 16, Revision C.01,

 ----------------------------------------------------------------------
 #t hf aug-cc-pvdz symm=none int=(grid=ultrafine) guess=(read,tcheck) s
 table=(opt,rrhf)
 ----------------------------------------------------------------------
 -----
 title
 -----
 Symbolic Z-matrix:
 Charge =  0 Multiplicity = 1

 SCF Done:  E(RHF) =  -279.018893785     A.U. after   13 cycles
 Normal termination of Gaussian 16 at Tue Apr  8 21:36:33 2025.
 Gaussian 16:  ES64L-G16RevC.01  3-Jul-2019

 ----------------------------------------------------------------------
 #t hf aug-cc-pvdz iop(5/13=1,5/36=2,99/5=2) pseudo=read geom=check gue
 ss=(read,tcheck) scf=(maxcycle=1)
 ----------------------------------------------------------------------
 -----
 title
 -----
 Structure from the checkpoint file:  "ANI1ccx_417_conf5_mol2.chk"
 Charge =  0 Multiplicity = 1

                         Standard orientation:
 ---------------------------------------------------------------------
 Center     Atomic      Atomic             Coordinates (Angstroms)
 Number     Number       Type             X           Y           Z
 ---------------------------------------------------------------------
      1          6           0        0.619325   -0.077769    0.000951
      2          1           0       -2.388861    0.126229   -0.739671
      3          1           0       -2.269901   -0.191124    0.887026
      4          1           0       -0.659568   -1.730591    0.032327
      5          1           0        1.481319    1.750670   -0.025775
      6          1           0       -0.254844    1.784579   -0.014738
      7          7           0       -1.729401    0.133051    0.064690
      8          7           0       -0.659940   -0.716572   -0.126348
      9          7           0        0.598415    1.316660   -0.004975
     10          8           0        1.614049   -0.800640    0.040194
 ---------------------------------------------------------------------

 SCF Done:  E(RHF) =  -279.105402110     A.U. after    2 cycles

 The electronic state is 1-A.
 Alpha  occ. eigenvalues --  -20.52360 -15.67578 -15.67020 -15.63802 -11.39346
 Alpha  occ. eigenvalues --   -1.34391  -1.26122  -1.16626  -1.02493  -0.81198
 Alpha  occ. eigenvalues --   -0.74954  -0.71068  -0.69563  -0.65939  -0.61009
 Alpha  occ. eigenvalues --   -0.57652  -0.46973  -0.43695  -0.41555  -0.39560
 Alpha virt. eigenvalues --    0.02631   0.03597   0.04521   0.04982   0.07587
 Alpha virt. eigenvalues --    0.12046   0.12544   0.13020   0.15174   0.15940
 Alpha virt. eigenvalues --    0.16807   0.17547   0.18100   0.19230   0.19748

 Mulliken charges:
               1
     1  C    0.961531
     2  H    0.118431
     3  H    0.104180
     4  H   -0.018295
     5  H   -0.049160
     6  H   -0.007157
     7  N   -0.347371
     8  N   -0.171066
     9  N   -0.085059
    10  O   -0.506034
 Sum of Mulliken charges =  -0.00000

 Dipole moment (field-independent basis, Debye):
    X=             -4.6674    Y=              1.6855    Z=              0.1897  Tot=              4.9661

 Test job not archived.
 1\1\GINC-SE087\SP\RHF\Aug-CC-pVDZ\C1H5N3O1\OHZDE\08-Apr-2025\0\\#t hf
 aug-cc-pvdz iop(5/13=1,5/36=2,99/5=2) pseudo=read geom=check guess=(re
 ad,tcheck) scf=(maxcycle=1)\\title\\0,1\C,0,0.619326,-0.0777685,0.0009
 51\H,0,-2.38886,0.12623,-0.739671\H,0,-2.2699,-0.191123,0.887026\H,0,-
 0.659567,-1.73059,0.0323275\H,0,1.48132,1.75067,-0.0257745\H,0,-0.2548
 43,1.78458,-0.0147381\N,0,-1.7294,0.133052,0.0646905\N,0,-0.659939,-0.
 716571,-0.126348\N,0,0.598416,1.31666,-0.00497489\O,0,1.61405,-0.80064
 ,0.0401942\\Version=ES64L-G16RevC.01\State=1-A\HF=-279.1054021\RMSD=2.

 Normal termination of Gaussian 16 at Tue Apr  8 21:36:37 2025.
