 Gaussian 16, Revision C.01,

 ----------------------------------------------------------------------
 #t hf aug-cc-pvdz symm=none int=(grid=ultrafine) guess=(read,tcheck) s
 table=(opt,rrhf)
 ----------------------------------------------------------------------
 -----
 title
 -----
 Symbolic Z-matrix:
 Charge =  0 Multiplicity = 1

 SCF Done:  E(RHF) =  -456.247628254     A.U. after   12 cycles
 Normal termination of Gaussian 16 at Tue Apr  8 21:06:44 2025.
 Gaussian 16:  ES64L-G16RevC.01  3-Jul-2019

 ----------------------------------------------------------------------
 #t hf aug-cc-pvdz iop(5/13=1,5/36=2,99/5=2) pseudo=read geom=check gue
 ss=(read,tcheck) scf=(maxcycle=1)
 ----------------------------------------------------------------------
 -----
 title
 -----
 Structure from the checkpoint file:  "ANI1ccx_1844_conf254_mol1.chk"
 Charge =  0 Multiplicity = 1

                         Standard orientation:
 ---------------------------------------------------------------------
 Center     Atomic      Atomic             Coordinates (Angstroms)
 Number     Number       Type             X           Y           Z
 ---------------------------------------------------------------------
      1          1           0       -0.632175   -1.862750    1.636100
      2          1           0       -2.413950    0.383120   -0.189257
      3          1           0       -2.986498   -0.933798   -0.858096
      4          1           0        1.497348    1.528723    0.438797
      5          1           0        0.603894    2.328602    1.474620
      6          1           0       -0.726113    1.796909   -0.154245
      7          1           0       -1.423627   -1.490042    0.417359
      8          1           0       -1.994404    2.526067   -0.787207
      9          1           0        2.292345   -2.341105   -0.235634
     10          1           0        0.752235   -1.920938   -0.282685
     11          1           0        2.306791   -0.386944   -0.289365
     12          1           0        3.097869    0.848743   -0.699620
     13          8           0        0.753810    2.208102    0.519504
     14          8           0        1.557654   -1.783296   -0.818161
     15          8           0       -2.810388   -0.482208    0.046652
     16          8           0       -1.591302    1.620988   -0.663457
     17          8           0       -0.711138   -2.056890    0.730179
     18          8           0        2.754650    0.433732    0.126436
 ---------------------------------------------------------------------

 SCF Done:  E(RHF) =  -456.398097970     A.U. after    2 cycles

 The electronic state is 1-A.
 Alpha  occ. eigenvalues --  -20.59345 -20.58356 -20.58182 -20.57750 -20.56556
 Alpha  occ. eigenvalues --  -20.55915  -1.32375  -1.31793  -1.30827  -1.29599
 Alpha  occ. eigenvalues --   -1.28699  -1.27104  -0.74469  -0.73739  -0.72342
 Alpha  occ. eigenvalues --   -0.72196  -0.71767  -0.69926  -0.63529  -0.62262
 Alpha  occ. eigenvalues --   -0.62172  -0.59230  -0.58882  -0.55952  -0.52910
 Alpha  occ. eigenvalues --   -0.52715  -0.52554  -0.52073  -0.51915  -0.50517
 Alpha virt. eigenvalues --    0.02763   0.04261   0.04955   0.05107   0.06236
 Alpha virt. eigenvalues --    0.06905   0.08353   0.08806   0.09774   0.10018
 Alpha virt. eigenvalues --    0.10973   0.11077   0.16918   0.17963   0.18584

 Mulliken charges:
               1
     1  H    0.157480
     2  H    0.290382
     3  H    0.247850
     4  H    0.292019
     5  H    0.202170
     6  H    0.338953
     7  H    0.228923
     8  H    0.201315
     9  H    0.312301
    10  H    0.248549
    11  H    0.308455
    12  H    0.206573
    13  O   -0.503401
    14  O   -0.557724
    15  O   -0.546025
    16  O   -0.510137
    17  O   -0.405373
    18  O   -0.512310
 Sum of Mulliken charges =  -0.00000

 Dipole moment (field-independent basis, Debye):
    X=              1.1041    Y=              1.1850    Z=              0.9191  Tot=              1.8622

 Test job not archived.
 1\1\GINC-SE036\SP\RHF\Aug-CC-pVDZ\H12O6\OHZDE\08-Apr-2025\0\\#t hf aug
 -cc-pvdz iop(5/13=1,5/36=2,99/5=2) pseudo=read geom=check guess=(read,
 tcheck) scf=(maxcycle=1)\\title\\0,1\H,0,-0.632179,-1.86275,1.6361\H,0
 ,-2.41395,0.383123,-0.189257\H,0,-2.9865,-0.933794,-0.858096\H,0,1.497
 35,1.52872,0.438797\H,0,0.603897,2.3286,1.47462\H,0,-0.726111,1.79691,
 -0.154245\H,0,-1.42363,-1.49004,0.417359\H,0,-1.9944,2.52607,-0.787207
 \H,0,2.29234,-2.34111,-0.235634\H,0,0.752231,-1.92094,-0.282685\H,0,2.
 30679,-0.386949,-0.289365\H,0,3.09787,0.848737,-0.69962\O,0,0.753813,2

 Normal termination of Gaussian 16 at Tue Apr  8 21:06:50 2025.
