 Gaussian 16, Revision C.01,

 ----------------------------------------------------------------------
 #t hf aug-cc-pvdz symm=none int=(grid=ultrafine) guess=(read,tcheck) s
 table=(opt,rrhf)
 ----------------------------------------------------------------------
 -----
 title
 -----
 Symbolic Z-matrix:
 Charge =  0 Multiplicity = 1

 SCF Done:  E(RHF) =  -259.155882275     A.U. after   13 cycles
 Normal termination of Gaussian 16 at Tue Apr  8 21:37:43 2025.
 Gaussian 16:  ES64L-G16RevC.01  3-Jul-2019

 ----------------------------------------------------------------------
 #t hf aug-cc-pvdz iop(5/13=1,5/36=2,99/5=2) pseudo=read geom=check gue
 ss=(read,tcheck) scf=(maxcycle=1)
 ----------------------------------------------------------------------
 -----
 title
 -----
 Structure from the checkpoint file:  "ANI1ccx_430_conf31_mol1.chk"
 Charge =  0 Multiplicity = 1

                         Standard orientation:
 ---------------------------------------------------------------------
 Center     Atomic      Atomic             Coordinates (Angstroms)
 Number     Number       Type             X           Y           Z
 ---------------------------------------------------------------------
      1          6           0        0.498817    0.125199   -0.029655
      2          1           0       -1.947489    0.396392    0.886728
      3          1           0       -2.059569    0.488618   -0.707100
      4          1           0       -0.551395   -1.729590   -0.224859
      5          1           0        1.730140   -1.568631   -0.021188
      6          1           0        2.498461    0.016746   -0.027866
      7          1           0       -0.430907    1.783890    0.018834
      8          7           0       -1.894339   -0.182961    0.035733
      9          7           0       -0.592689   -0.714809   -0.035685
     10          7           0        1.669391   -0.557243    0.067036
     11          7           0        0.498760    1.435210   -0.030887
 ---------------------------------------------------------------------

 SCF Done:  E(RHF) =  -259.234838654     A.U. after    2 cycles

 The electronic state is 1-A.
 Alpha  occ. eigenvalues --  -15.67532 -15.66509 -15.64127 -15.56964 -11.36456
 Alpha  occ. eigenvalues --   -1.29673  -1.20223  -1.09688  -1.03013  -0.81504
 Alpha  occ. eigenvalues --   -0.75253  -0.70612  -0.68582  -0.63873  -0.60727
 Alpha  occ. eigenvalues --   -0.55088  -0.44538  -0.41973  -0.40090  -0.34373
 Alpha virt. eigenvalues --    0.02537   0.03683   0.04566   0.05520   0.07471
 Alpha virt. eigenvalues --    0.07873   0.12090   0.12495   0.14323   0.15292
 Alpha virt. eigenvalues --    0.16875   0.17355   0.17647   0.18072   0.18600

 Mulliken charges:
               1
     1  C    1.061577
     2  H    0.086276
     3  H    0.048503
     4  H   -0.007029
     5  H   -0.032969
     6  H    0.020258
     7  H   -0.060435
     8  N   -0.151084
     9  N   -0.286382
    10  N   -0.302728
    11  N   -0.375988
 Sum of Mulliken charges =  -0.00000

 Dipole moment (field-independent basis, Debye):
    X=             -0.2845    Y=             -2.7881    Z=             -0.4047  Tot=              2.8316

 Test job not archived.
 1\1\GINC-SE331\SP\RHF\Aug-CC-pVDZ\C1H6N4\OHZDE\08-Apr-2025\0\\#t hf au
 g-cc-pvdz iop(5/13=1,5/36=2,99/5=2) pseudo=read geom=check guess=(read
 ,tcheck) scf=(maxcycle=1)\\title\\0,1\C,0,0.498816,0.125199,-0.0296548
 \H,0,-1.94749,0.396391,0.886728\H,0,-2.05957,0.488617,-0.7071\H,0,-0.5
 51395,-1.72959,-0.224859\H,0,1.73014,-1.56863,-0.0211884\H,0,2.49846,0
 .0167477,-0.0278661\H,0,-0.430909,1.78389,0.0188341\N,0,-1.89434,-0.18
 2962,0.035733\N,0,-0.592689,-0.714809,-0.0356848\N,0,1.66939,-0.557242
 ,0.0670355\N,0,0.498758,1.43521,-0.0308866\\Version=ES64L-G16RevC.01\S

 Normal termination of Gaussian 16 at Tue Apr  8 21:37:45 2025.
