 Gaussian 16, Revision C.01,

 ----------------------------------------------------------------------
 #t hf aug-cc-pvdz symm=none int=(grid=ultrafine) guess=(read,tcheck) s
 table=(opt,rrhf)
 ----------------------------------------------------------------------
 -----
 title
 -----
 Symbolic Z-matrix:
 Charge =  0 Multiplicity = 1

 SCF Done:  E(RHF) =  -736.665040222     A.U. after   14 cycles
 Normal termination of Gaussian 16 at Tue Apr  8 19:36:48 2025.
 Gaussian 16:  ES64L-G16RevC.01  3-Jul-2019

 ----------------------------------------------------------------------
 #t hf aug-cc-pvdz iop(5/13=1,5/36=2,99/5=2) pseudo=read geom=check gue
 ss=(read,tcheck) scf=(maxcycle=1)
 ----------------------------------------------------------------------
 -----
 title
 -----
 Structure from the checkpoint file:  "ANI1ccx_1451_conf1_mol1.chk"
 Charge =  0 Multiplicity = 1

                         Standard orientation:
 ---------------------------------------------------------------------
 Center     Atomic      Atomic             Coordinates (Angstroms)
 Number     Number       Type             X           Y           Z
 ---------------------------------------------------------------------
      1          6           0        1.533690    2.456850    0.305126
      2          6           0        0.138037    2.345090   -0.228114
      3          6           0       -0.616250    0.069767    0.111041
      4          6           0       -2.909440    0.813643    0.136777
      5          6           0       -3.670680   -0.449564    0.080159
      6          6           0        0.711387   -1.850630   -0.504039
      7          6           0        2.082130   -1.563140    0.154843
      8          1           0        3.786800   -1.908720    0.487296
      9          1           0        0.466441   -2.937930   -0.443598
     10          1           0        0.906269   -1.526630   -1.591510
     11          1           0       -2.215830   -1.765730   -0.140133
     12          1           0       -4.609840   -0.245407   -0.548512
     13          1           0       -4.001590   -0.644307    1.079640
     14          1           0       -3.461470    1.646220    0.656382
     15          1           0       -2.719090    1.195840   -0.849453
     16          1           0       -1.844940    0.017987    1.667120
     17          1           0        0.866026    0.596089   -1.057180
     18          1           0       -0.084061    3.032310   -1.109580
     19          1           0       -0.641728    2.632460    0.432881
     20          1           0        1.683860    3.518360    0.498321
     21          1           0        1.601500    1.846310    1.179110
     22          1           0        2.917310    1.235440   -0.061083
     23          7           0        0.002841    0.980776   -0.751502
     24          7           0       -1.625850    0.630161    0.884835
     25          7           0       -0.438943   -1.237760    0.116818
     26          8           0        2.549990    1.987300   -0.560753
     27          8           0       -3.105760   -1.580290   -0.494908
     28          8           0        3.056130   -2.448900    0.100927
     29          8           0        2.270980   -0.487686    0.669046
 ---------------------------------------------------------------------

 SCF Done:  E(RHF) =  -736.891503386     A.U. after    2 cycles

 The electronic state is 1-A.
 Alpha  occ. eigenvalues --  -20.65635 -20.58245 -20.56863 -20.54606 -15.64336
 Alpha  occ. eigenvalues --  -15.63872 -15.60658 -11.42193 -11.37485 -11.30694
 Alpha  occ. eigenvalues --  -11.28142 -11.28039 -11.27789 -11.26934  -1.46838
 Alpha  occ. eigenvalues --   -1.35364  -1.32525  -1.31364  -1.27792  -1.17412
 Alpha  occ. eigenvalues --   -1.15609  -1.02087  -0.99310  -0.96853  -0.86519
 Alpha  occ. eigenvalues --   -0.84404  -0.83780  -0.80448  -0.76419  -0.73902
 Alpha  occ. eigenvalues --   -0.71574  -0.70358  -0.70032  -0.68916  -0.65904
 Alpha  occ. eigenvalues --   -0.65104  -0.63262  -0.62504  -0.62144  -0.61069
 Alpha  occ. eigenvalues --   -0.58764  -0.57600  -0.57171  -0.55771  -0.53889
 Alpha  occ. eigenvalues --   -0.52809  -0.51634  -0.50679  -0.49490  -0.47743
 Alpha  occ. eigenvalues --   -0.46173  -0.44687  -0.40999  -0.39829  -0.35863
 Alpha virt. eigenvalues --    0.02875   0.03062   0.03787   0.04204   0.05292
 Alpha virt. eigenvalues --    0.06185   0.06403   0.06526   0.06785   0.07653
 Alpha virt. eigenvalues --    0.08422   0.08754   0.09073   0.09869   0.10187

 Mulliken charges:
               1
     1  C    1.005635
     2  C    0.809258
     3  C    0.535951
     4  C    0.725295
     5  C    0.731295
     6  C    0.252312
     7  C    0.561843
     8  H    0.212856
     9  H   -0.193032
    10  H    0.208214
    11  H    0.223889
    12  H   -0.013843
    13  H   -0.155199
    14  H   -0.088463
    15  H   -0.231720
    16  H    0.013745
    17  H    0.040663
    18  H   -0.117783
    19  H   -0.322226
    20  H   -0.125425
    21  H   -0.188689
    22  H    0.220454
    23  N   -0.411141
    24  N   -0.720248
    25  N   -0.805239
    26  O   -0.594584
    27  O   -0.524260
    28  O   -0.479559
    29  O   -0.570001
 Sum of Mulliken charges =  -0.00000

 Dipole moment (field-independent basis, Debye):
    X=              1.0248    Y=              0.9931    Z=              1.8192  Tot=              2.3121

 Test job not archived.
 1\1\GINC-SE338\SP\RHF\Aug-CC-pVDZ\C7H15N3O4\OHZDE\08-Apr-2025\0\\#t hf
  aug-cc-pvdz iop(5/13=1,5/36=2,99/5=2) pseudo=read geom=check guess=(r
 ead,tcheck) scf=(maxcycle=1)\\title\\0,1\C,0,1.53369,2.45685,0.305126\
 C,0,0.138037,2.34509,-0.228114\C,0,-0.61625,0.0697673,0.111041\C,0,-2.
 90944,0.813643,0.136777\C,0,-3.67068,-0.449564,0.0801591\C,0,0.711387,
 -1.85063,-0.504039\C,0,2.08213,-1.56314,0.154843\H,0,3.7868,-1.90872,0
 .487296\H,0,0.466441,-2.93793,-0.443598\H,0,0.906269,-1.52663,-1.59151
 \H,0,-2.21583,-1.76573,-0.140133\H,0,-4.60984,-0.245407,-0.548512\H,0,

 Normal termination of Gaussian 16 at Tue Apr  8 19:37:15 2025.
