 Gaussian 16, Revision C.01,

 ----------------------------------------------------------------------
 #t hf aug-cc-pvdz symm=none int=(grid=ultrafine) guess=(read,tcheck) s
 table=(opt,rrhf)
 ----------------------------------------------------------------------
 -----
 title
 -----
 Symbolic Z-matrix:
 Charge =  0 Multiplicity = 1

 SCF Done:  E(RHF) =  -228.122020056     A.U. after   11 cycles
 Normal termination of Gaussian 16 at Tue Apr  8 21:12:20 2025.
 Gaussian 16:  ES64L-G16RevC.01  3-Jul-2019

 ----------------------------------------------------------------------
 #t hf aug-cc-pvdz iop(5/13=1,5/36=2,99/5=2) pseudo=read geom=check gue
 ss=(read,tcheck) scf=(maxcycle=1)
 ----------------------------------------------------------------------
 -----
 title
 -----
 Structure from the checkpoint file:  "ANI1ccx_1900_conf26_mol1.chk"
 Charge =  0 Multiplicity = 1

                         Standard orientation:
 ---------------------------------------------------------------------
 Center     Atomic      Atomic             Coordinates (Angstroms)
 Number     Number       Type             X           Y           Z
 ---------------------------------------------------------------------
      1          1           0        1.158276    0.370864   -0.291392
      2          1           0        1.929343   -0.382860    0.782660
      3          1           0       -0.863878    0.741388    0.186672
      4          1           0       -0.294435    2.152156    0.609121
      5          1           0       -0.267823   -1.142254    0.168203
      6          1           0       -1.532700   -1.163745   -0.806058
      7          8           0        1.535715   -0.585247   -0.089756
      8          8           0       -0.285911    1.515596   -0.106178
      9          8           0       -1.265902   -1.002293    0.114784
 ---------------------------------------------------------------------

 SCF Done:  E(RHF) =  -228.197611916     A.U. after    2 cycles

 The electronic state is 1-A.
 Alpha  occ. eigenvalues --  -20.58627 -20.58348 -20.58241  -1.32094  -1.29901
 Alpha  occ. eigenvalues --   -1.29388  -0.74798  -0.72504  -0.69741  -0.62186
 Alpha  occ. eigenvalues --   -0.61121  -0.59009  -0.53453  -0.52617  -0.51827
 Alpha virt. eigenvalues --    0.02943   0.05199   0.05540   0.07137   0.08371
 Alpha virt. eigenvalues --    0.09334   0.16717   0.17921   0.18374   0.20915
 Alpha virt. eigenvalues --    0.21784   0.22482   0.24501   0.25517   0.26589

 Mulliken charges:
               1
     1  H    0.302748
     2  H    0.180844
     3  H    0.258563
     4  H    0.178433
     5  H    0.257900
     6  H    0.185985
     7  O   -0.483761
     8  O   -0.416545
     9  O   -0.464166
 Sum of Mulliken charges =  -0.00000

 Dipole moment (field-independent basis, Debye):
    X=              0.1762    Y=              1.1625    Z=              1.3352  Tot=              1.7791

 Test job not archived.
 1\1\GINC-SE043\SP\RHF\Aug-CC-pVDZ\H6O3\OHZDE\08-Apr-2025\0\\#t hf aug-
 cc-pvdz iop(5/13=1,5/36=2,99/5=2) pseudo=read geom=check guess=(read,t
 check) scf=(maxcycle=1)\\title\\0,1\H,0,1.15828,0.370855,-0.291392\H,0
 ,1.92934,-0.382875,0.78266\H,0,-0.863871,0.741397,0.186672\H,0,-0.2944
 16,2.15216,0.609121\H,0,-0.267833,-1.14225,0.168203\H,0,-1.53271,-1.16
 373,-0.806058\O,0,1.53571,-0.585259,-0.0897564\O,0,-0.285897,1.5156,-0
 .106178\O,0,-1.26591,-1.00228,0.114784\\Version=ES64L-G16RevC.01\State
 =1-A\HF=-228.1976119\RMSD=1.857e-03\Dipole=0.0693317,0.457343,0.525310

 Normal termination of Gaussian 16 at Tue Apr  8 21:12:23 2025.
