 Gaussian 16, Revision C.01,

 ----------------------------------------------------------------------
 #t hf aug-cc-pvdz symm=none int=(grid=ultrafine) guess=(read,tcheck) s
 table=(opt,rrhf)
 ----------------------------------------------------------------------
 -----
 title
 -----
 Symbolic Z-matrix:
 Charge =  0 Multiplicity = 1

 SCF Done:  E(RHF) =  -502.736178471     A.U. after   15 cycles
 Normal termination of Gaussian 16 at Tue Apr  8 22:11:21 2025.
 Gaussian 16:  ES64L-G16RevC.01  3-Jul-2019

 ----------------------------------------------------------------------
 #t hf aug-cc-pvdz iop(5/13=1,5/36=2,99/5=2) pseudo=read geom=check gue
 ss=(read,tcheck) scf=(maxcycle=1)
 ----------------------------------------------------------------------
 -----
 title
 -----
 Structure from the checkpoint file:  "ANI1ccx_948_conf1_mol2.chk"
 Charge =  0 Multiplicity = 1

                         Standard orientation:
 ---------------------------------------------------------------------
 Center     Atomic      Atomic             Coordinates (Angstroms)
 Number     Number       Type             X           Y           Z
 ---------------------------------------------------------------------
      1          6           0        3.318901   -0.230057   -0.008582
      2          6           0        0.978584    0.236649   -0.008066
      3          6           0       -2.005370   -1.478469   -0.017279
      4          6           0       -1.498869    0.543198    0.001189
      5          1           0       -2.445579    2.236201   -0.152456
      6          1           0       -0.650186    2.437540   -0.068454
      7          1           0        1.769710   -1.726910    0.175226
      8          1           0       -2.570060   -2.398329   -0.008667
      9          1           0        3.269481    0.854435   -0.061032
     10          1           0        3.920510   -0.635130   -0.825116
     11          1           0        3.842270   -0.557674    0.907329
     12          7           0       -1.506069    1.880661    0.116410
     13          7           0        1.968400   -0.761563   -0.012122
     14          7           0       -0.358450   -0.214084    0.051723
     15          7           0       -0.699641   -1.551320    0.027776
     16          7           0       -2.545089   -0.217267   -0.083045
     17          8           0        1.261291    1.425870   -0.059450
 ---------------------------------------------------------------------

 SCF Done:  E(RHF) =  -502.886796500     A.U. after    2 cycles

 The electronic state is 1-A.
 Alpha  occ. eigenvalues --  -20.56273 -15.72109 -15.66388 -15.66221 -15.66166
 Alpha  occ. eigenvalues --  -15.61992 -11.43052 -11.38381 -11.32066 -11.27067
 Alpha  occ. eigenvalues --   -1.40921  -1.36552  -1.23211  -1.20061  -1.16975
 Alpha  occ. eigenvalues --   -1.08358  -0.95699  -0.87780  -0.84755  -0.80148
 Alpha  occ. eigenvalues --   -0.77486  -0.69978  -0.68558  -0.68278  -0.65702
 Alpha  occ. eigenvalues --   -0.62447  -0.61731  -0.61027  -0.56229  -0.56029
 Alpha  occ. eigenvalues --   -0.50737  -0.50213  -0.48668  -0.45258  -0.42699
 Alpha  occ. eigenvalues --   -0.40000  -0.34733
 Alpha virt. eigenvalues --    0.03237   0.03417   0.03814   0.05105   0.06050
 Alpha virt. eigenvalues --    0.06529   0.08243   0.08905   0.09929   0.11326
 Alpha virt. eigenvalues --    0.11612   0.12505   0.13444   0.14119   0.14281

 Mulliken charges:
               1
     1  C    0.732216
     2  C    1.018814
     3  C    0.675343
     4  C    0.459851
     5  H    0.084851
     6  H    0.102411
     7  H   -0.088649
     8  H   -0.286348
     9  H   -0.117448
    10  H   -0.167551
    11  H   -0.113679
    12  N   -0.235278
    13  N   -0.321090
    14  N   -0.480314
    15  N   -0.244956
    16  N   -0.496350
    17  O   -0.521822
 Sum of Mulliken charges =  -0.00000

 Dipole moment (field-independent basis, Debye):
    X=              1.0672    Y=             -0.6016    Z=             -0.1856  Tot=              1.2391

 Test job not archived.
 1\1\GINC-SE226\SP\RHF\Aug-CC-pVDZ\C4H7N5O1\OHZDE\08-Apr-2025\0\\#t hf
 aug-cc-pvdz iop(5/13=1,5/36=2,99/5=2) pseudo=read geom=check guess=(re
 ad,tcheck) scf=(maxcycle=1)\\title\\0,1\C,0,3.3189,-0.230057,-0.008582
 39\C,0,0.978583,0.236649,-0.00806602\C,0,-2.00537,-1.47847,-0.0172785\
 C,0,-1.49887,0.543197,0.00118947\H,0,-2.44558,2.2362,-0.152456\H,0,-0.
 650187,2.43754,-0.0684544\H,0,1.76971,-1.72691,0.175226\H,0,-2.57006,-
 2.39833,-0.00866661\H,0,3.26948,0.854435,-0.0610323\H,0,3.92051,-0.635
 13,-0.825116\H,0,3.84227,-0.557674,0.907329\N,0,-1.50607,1.88066,0.116

 Normal termination of Gaussian 16 at Tue Apr  8 22:11:29 2025.
