 Gaussian 16, Revision C.01,

 ----------------------------------------------------------------------
 #t hf aug-cc-pvdz symm=none int=(grid=ultrafine) guess=(read,tcheck) s
 table=(opt,rrhf)
 ----------------------------------------------------------------------
 -----
 title
 -----
 Symbolic Z-matrix:
 Charge =  0 Multiplicity = 1

 SCF Done:  E(RHF) =  -599.027848700     A.U. after   16 cycles
 Normal termination of Gaussian 16 at Tue Apr  8 20:15:21 2025.
 Gaussian 16:  ES64L-G16RevC.01  3-Jul-2019

 ----------------------------------------------------------------------
 #t hf aug-cc-pvdz iop(5/13=1,5/36=2,99/5=2) pseudo=read geom=check gue
 ss=(read,tcheck) scf=(maxcycle=1)
 ----------------------------------------------------------------------
 -----
 title
 -----
 Structure from the checkpoint file:  "ANI1ccx_1666_conf1_mol2.chk"
 Charge =  0 Multiplicity = 1

                         Standard orientation:
 ---------------------------------------------------------------------
 Center     Atomic      Atomic             Coordinates (Angstroms)
 Number     Number       Type             X           Y           Z
 ---------------------------------------------------------------------
      1          6           0        1.068060    1.899670    0.478745
      2          6           0       -0.191960    1.922570   -0.341681
      3          6           0       -1.066770    0.715685   -0.161842
      4          6           0       -2.802890   -1.198099    0.164714
      5          6           0       -1.454640   -1.601860    0.180868
      6          6           0       -0.544393   -0.573108   -0.048055
      7          6           0        0.912230   -0.604477   -0.057035
      8          6           0        1.698880    0.589275    0.119842
      9          1           0       -1.084830   -2.592750    0.520405
     10          1           0       -3.537800   -1.923029    0.352219
     11          1           0        0.075964    2.016730   -1.433650
     12          1           0        0.913672    1.895650    1.601900
     13          1           0        1.733530    2.761390    0.290438
     14          1           0       -0.751707    2.804470   -0.129636
     15          7           0        2.932390    0.208441    0.101398
     16          7           0       -2.359380    0.978829   -0.180035
     17          7           0       -3.219420    0.024005    0.010870
     18          7           0        1.688250   -1.610520   -0.217627
     19          8           0        2.955900   -1.133210   -0.152155
 ---------------------------------------------------------------------

 SCF Done:  E(RHF) =  -599.194365891     A.U. after    2 cycles

 The electronic state is 1-A.
 Alpha  occ. eigenvalues --  -20.70589 -15.72942 -15.72336 -15.68734 -15.68402
 Alpha  occ. eigenvalues --  -11.32042 -11.31835 -11.31530 -11.30671 -11.30511
 Alpha  occ. eigenvalues --  -11.30163 -11.29025 -11.27223  -1.51295  -1.34502
 Alpha  occ. eigenvalues --   -1.21412  -1.20236  -1.14171  -1.11694  -1.06967
 Alpha  occ. eigenvalues --   -0.95601  -0.93950  -0.88437  -0.83761  -0.82364
 Alpha  occ. eigenvalues --   -0.75668  -0.73139  -0.71814  -0.69469  -0.68252
 Alpha  occ. eigenvalues --   -0.65591  -0.62416  -0.61603  -0.60604  -0.58218
 Alpha  occ. eigenvalues --   -0.56155  -0.53858  -0.51739  -0.49468  -0.49218
 Alpha  occ. eigenvalues --   -0.48158  -0.43352  -0.41226  -0.39800  -0.38265
 Alpha virt. eigenvalues --    0.02725   0.02867   0.03414   0.04271   0.05063
 Alpha virt. eigenvalues --    0.05741   0.06178   0.08168   0.09126   0.09505
 Alpha virt. eigenvalues --    0.09929   0.10751   0.11190   0.11469   0.11780

 Mulliken charges:
               1
     1  C    0.586651
     2  C    0.197929
     3  C   -0.220362
     4  C    0.831215
     5  C    0.413755
     6  C    0.611907
     7  C   -0.166665
     8  C    0.583966
     9  H   -0.369018
    10  H   -0.352388
    11  H    0.152094
    12  H    0.135492
    13  H   -0.010414
    14  H   -0.075128
    15  N   -0.365063
    16  N   -0.489368
    17  N   -0.440907
    18  N   -0.425728
    19  O   -0.597970
 Sum of Mulliken charges =  -0.00000

 Dipole moment (field-independent basis, Debye):
    X=             -0.7324    Y=              0.5400    Z=              0.9497  Tot=              1.3152

 Test job not archived.
 1\1\GINC-SE457\SP\RHF\Aug-CC-pVDZ\C8H6N4O1\OHZDE\08-Apr-2025\0\\#t hf
 aug-cc-pvdz iop(5/13=1,5/36=2,99/5=2) pseudo=read geom=check guess=(re
 ad,tcheck) scf=(maxcycle=1)\\title\\0,1\C,0,1.06806,1.89967,0.478745\C
 ,0,-0.19196,1.92257,-0.341681\C,0,-1.06677,0.715685,-0.161842\C,0,-2.8
 0289,-1.1981,0.164714\C,0,-1.45464,-1.60186,0.180868\C,0,-0.544393,-0.
 573108,-0.0480548\C,0,0.91223,-0.604477,-0.0570353\C,0,1.69888,0.58927
 5,0.119842\H,0,-1.08483,-2.59275,0.520405\H,0,-3.5378,-1.92303,0.35221
 9\H,0,0.0759643,2.01673,-1.43365\H,0,0.913672,1.89565,1.6019\H,0,1.733

 Normal termination of Gaussian 16 at Tue Apr  8 20:15:35 2025.
