 Gaussian 16, Revision C.01,

 ----------------------------------------------------------------------
 #t hf aug-cc-pvdz symm=none int=(grid=ultrafine) guess=(read,tcheck) s
 table=(opt,rrhf)
 ----------------------------------------------------------------------
 -----
 title
 -----
 Symbolic Z-matrix:
 Charge =  0 Multiplicity = 1

 SCF Done:  E(RHF) =  -601.477144433     A.U. after   16 cycles
 Normal termination of Gaussian 16 at Tue Apr  8 19:46:00 2025.
 Gaussian 16:  ES64L-G16RevC.01  3-Jul-2019

 ----------------------------------------------------------------------
 #t hf aug-cc-pvdz iop(5/13=1,5/36=2,99/5=2) pseudo=read geom=check gue
 ss=(read,tcheck) scf=(maxcycle=1)
 ----------------------------------------------------------------------
 -----
 title
 -----
 Structure from the checkpoint file:  "ANI1ccx_1546_conf2_mol2.chk"
 Charge =  0 Multiplicity = 1

                         Standard orientation:
 ---------------------------------------------------------------------
 Center     Atomic      Atomic             Coordinates (Angstroms)
 Number     Number       Type             X           Y           Z
 ---------------------------------------------------------------------
      1          6           0       -2.817711   -0.000897    0.645004
      2          6           0       -2.458859   -1.101415   -0.393242
      3          6           0        0.105752   -1.147260   -0.131663
      4          6           0        2.304642   -1.677635    0.208466
      5          6           0        2.744940   -0.382372    0.327193
      6          6           0        1.801388    0.558689    0.057978
      7          6           0        0.603727    2.363221   -0.259033
      8          6           0        0.482631    0.209290   -0.141431
      9          1           0        0.318485    3.399451   -0.406767
     10          1           0        2.654944    2.460945    0.063200
     11          1           0        3.755639   -0.086347    0.521699
     12          1           0        2.997264   -2.525044    0.306262
     13          1           0       -1.038995   -2.698302   -0.316255
     14          1           0       -3.109237   -1.913237   -0.190468
     15          1           0       -2.038371   -0.103280    1.475280
     16          1           0       -3.843301   -0.193169    1.031170
     17          1           0       -1.848724    1.506726    0.104481
     18          1           0       -2.670300   -0.667886   -1.401930
     19          7           0       -0.269583    1.371999   -0.270615
     20          7           0       -1.107328   -1.681722   -0.317093
     21          7           0        1.062793   -2.047418   -0.033988
     22          7           0        1.835095    1.955174   -0.058288
     23          8           0       -2.802914    1.338024    0.211698
 ---------------------------------------------------------------------

 SCF Done:  E(RHF) =  -601.655307395     A.U. after    2 cycles

 The electronic state is 1-A.
 Alpha  occ. eigenvalues --  -20.51956 -15.70525 -15.63427 -15.63263 -15.60513
 Alpha  occ. eigenvalues --  -11.34519 -11.33148 -11.30081 -11.28319 -11.27526
 Alpha  occ. eigenvalues --  -11.26900 -11.26731 -11.23387  -1.35009  -1.28703
 Alpha  occ. eigenvalues --   -1.26853  -1.18026  -1.16473  -1.07855  -1.02121
 Alpha  occ. eigenvalues --   -0.96809  -0.88689  -0.87164  -0.85451  -0.82744
 Alpha  occ. eigenvalues --   -0.75510  -0.73390  -0.69371  -0.68054  -0.66350
 Alpha  occ. eigenvalues --   -0.65507  -0.64308  -0.62192  -0.60249  -0.59450
 Alpha  occ. eigenvalues --   -0.57390  -0.55780  -0.54026  -0.52823  -0.49875
 Alpha  occ. eigenvalues --   -0.45993  -0.43818  -0.42246  -0.41507  -0.40632
 Alpha  occ. eigenvalues --   -0.36368  -0.28181
 Alpha virt. eigenvalues --    0.01772   0.03233   0.03972   0.05000   0.05363
 Alpha virt. eigenvalues --    0.05869   0.07014   0.07233   0.07966   0.08592
 Alpha virt. eigenvalues --    0.09920   0.10277   0.11242   0.12043   0.12347

 Mulliken charges:
               1
     1  C    0.634412
     2  C    0.568141
     3  C   -0.058627
     4  C    0.222038
     5  C    2.123238
     6  C   -1.094101
     7  C    0.770879
     8  C    1.094082
     9  H   -0.286365
    10  H   -0.151324
    11  H   -0.497986
    12  H   -0.401278
    13  H   -0.050349
    14  H   -0.323930
    15  H   -0.045228
    16  H   -0.195397
    17  H    0.265357
    18  H   -0.042535
    19  N   -0.913108
    20  N   -0.294689
    21  N   -0.300023
    22  N   -0.472393
    23  O   -0.550813
 Sum of Mulliken charges =  -0.00000

 Dipole moment (field-independent basis, Debye):
    X=              4.1563    Y=              1.6638    Z=              0.2117  Tot=              4.4820

 Test job not archived.
 1\1\GINC-SE079\SP\RHF\Aug-CC-pVDZ\C8H10N4O1\OHZDE\08-Apr-2025\0\\#t hf
  aug-cc-pvdz iop(5/13=1,5/36=2,99/5=2) pseudo=read geom=check guess=(r
 ead,tcheck) scf=(maxcycle=1)\\title\\0,1\C,0,-2.81771,-0.00089089,0.64
 5004\C,0,-2.45886,-1.10141,-0.393242\C,0,0.105751,-1.14726,-0.131663\C
 ,0,2.30464,-1.67764,0.208466\C,0,2.74494,-0.382378,0.327193\C,0,1.8013
 9,0.558685,0.0579784\C,0,0.603733,2.36322,-0.259033\C,0,0.482633,0.209
 289,-0.141431\H,0,0.318493,3.39945,-0.406767\H,0,2.65495,2.46094,0.063
 2005\H,0,3.75564,-0.0863548,0.521699\H,0,2.99726,-2.52505,0.306262\H,0

 Normal termination of Gaussian 16 at Tue Apr  8 19:46:20 2025.
