 Gaussian 16, Revision C.01,

 ----------------------------------------------------------------------
 #t hf aug-cc-pvdz symm=none int=(grid=ultrafine) guess=(read,tcheck) s
 table=(opt,rrhf)
 ----------------------------------------------------------------------
 -----
 title
 -----
 Symbolic Z-matrix:
 Charge =  0 Multiplicity = 1

 SCF Done:  E(RHF) =  -489.157625869     A.U. after   13 cycles
 Normal termination of Gaussian 16 at Tue Apr  8 21:48:43 2025.
 Gaussian 16:  ES64L-G16RevC.01  3-Jul-2019

 ----------------------------------------------------------------------
 #t hf aug-cc-pvdz iop(5/13=1,5/36=2,99/5=2) pseudo=read geom=check gue
 ss=(read,tcheck) scf=(maxcycle=1)
 ----------------------------------------------------------------------
 -----
 title
 -----
 Structure from the checkpoint file:  "ANI1ccx_667_conf2_mol1.chk"
 Charge =  0 Multiplicity = 1

                         Standard orientation:
 ---------------------------------------------------------------------
 Center     Atomic      Atomic             Coordinates (Angstroms)
 Number     Number       Type             X           Y           Z
 ---------------------------------------------------------------------
      1          6           0        1.194830   -0.371600   -0.031662
      2          6           0        0.006664    1.517231    0.308863
      3          6           0       -1.215070   -0.374187   -0.043262
      4          1           0       -0.073115    1.312601    1.361980
      5          1           0       -0.053070    2.573311   -0.061159
      6          8           0        2.185250   -1.065679   -0.116874
      7          8           0        1.184260    0.966403   -0.225171
      8          8           0       -1.166470    0.962382   -0.273702
      9          8           0       -2.171050   -1.066389   -0.094187
     10          8           0       -0.006035   -0.861039    0.371878
 ---------------------------------------------------------------------

 SCF Done:  E(RHF) =  -489.317203872     A.U. after    2 cycles

 The electronic state is 1-A.
 Alpha  occ. eigenvalues --  -20.69951 -20.69163 -20.68521 -20.61559 -20.60968
 Alpha  occ. eigenvalues --  -11.50909 -11.50627 -11.42869  -1.56470  -1.47218
 Alpha  occ. eigenvalues --   -1.44156  -1.39557  -1.37619  -1.04133  -0.99348
 Alpha  occ. eigenvalues --   -0.87359  -0.86275  -0.80980  -0.75944  -0.72232
 Alpha  occ. eigenvalues --   -0.70651  -0.70189  -0.67594  -0.63974  -0.63622
 Alpha  occ. eigenvalues --   -0.58712  -0.55967  -0.55297  -0.53396  -0.52262
 Alpha virt. eigenvalues --    0.02412   0.03953   0.06478   0.06607   0.09547
 Alpha virt. eigenvalues --    0.10310   0.10535   0.10972   0.11182   0.11957
 Alpha virt. eigenvalues --    0.13296   0.14231   0.14425   0.14562   0.16885

 Mulliken charges:
               1
     1  C    0.756665
     2  C    1.013776
     3  C    0.728608
     4  H   -0.076089
     5  H   -0.137222
     6  O   -0.385034
     7  O   -0.508620
     8  O   -0.558150
     9  O   -0.324832
    10  O   -0.509102
 Sum of Mulliken charges =  -0.00000

 Dipole moment (field-independent basis, Debye):
    X=             -0.3054    Y=              4.3793    Z=              1.3027  Tot=              4.5791

 Test job not archived.
 1\1\GINC-SE109\SP\RHF\Aug-CC-pVDZ\C3H2O5\OHZDE\08-Apr-2025\0\\#t hf au
 g-cc-pvdz iop(5/13=1,5/36=2,99/5=2) pseudo=read geom=check guess=(read
 ,tcheck) scf=(maxcycle=1)\\title\\0,1\C,0,1.19483,-0.371601,-0.0316625
 \C,0,0.00666333,1.51723,0.308863\C,0,-1.21507,-0.374188,-0.0432622\H,0
 ,-0.0731158,1.3126,1.36198\H,0,-0.0530708,2.57331,-0.0611593\O,0,2.185
 25,-1.06568,-0.116874\O,0,1.18426,0.966402,-0.225171\O,0,-1.16647,0.96
 2381,-0.273702\O,0,-2.17105,-1.06639,-0.0941875\O,0,-0.00603515,-0.861
 04,0.371878\\Version=ES64L-G16RevC.01\State=1-A\HF=-489.3172039\RMSD=2

 Normal termination of Gaussian 16 at Tue Apr  8 21:48:48 2025.
