 Gaussian 16, Revision C.01,

 ----------------------------------------------------------------------
 #t hf aug-cc-pvdz symm=none int=(grid=ultrafine) guess=(read,tcheck) s
 table=(opt,rrhf)
 ----------------------------------------------------------------------
 -----
 title
 -----
 Symbolic Z-matrix:
 Charge =  0 Multiplicity = 1

 SCF Done:  E(RHF) =  -280.722187077     A.U. after   16 cycles
 Normal termination of Gaussian 16 at Tue Apr  8 21:10:17 2025.
 Gaussian 16:  ES64L-G16RevC.01  3-Jul-2019

 ----------------------------------------------------------------------
 #t hf aug-cc-pvdz iop(5/13=1,5/36=2,99/5=2) pseudo=read geom=check gue
 ss=(read,tcheck) scf=(maxcycle=1)
 ----------------------------------------------------------------------
 -----
 title
 -----
 Structure from the checkpoint file:  "ANI1ccx_1870_conf3_mol1.chk"
 Charge =  0 Multiplicity = 1

                         Standard orientation:
 ---------------------------------------------------------------------
 Center     Atomic      Atomic             Coordinates (Angstroms)
 Number     Number       Type             X           Y           Z
 ---------------------------------------------------------------------
      1          1           0       -1.327210   -1.639421   -0.362935
      2          1           0        2.452379    0.187559    0.835397
      3          1           0        2.017519   -0.167138   -0.553063
      4          7           0       -0.815725    0.123974   -0.406543
      5          8           0       -1.496680   -0.894996    0.233861
      6          8           0       -0.959996    1.146489    0.129349
      7          8           0        2.777599   -0.157595    0.002590
 ---------------------------------------------------------------------

 SCF Done:  E(RHF) =  -280.813149584     A.U. after    2 cycles

 The electronic state is 1-A.
 Alpha  occ. eigenvalues --  -20.68447 -20.67203 -20.57942 -15.87054  -1.57909
 Alpha  occ. eigenvalues --   -1.39578  -1.32043  -0.95094  -0.81949  -0.76043
 Alpha  occ. eigenvalues --   -0.73767  -0.71845  -0.65367  -0.60411  -0.56139
 Alpha  occ. eigenvalues --   -0.53043  -0.48348
 Alpha virt. eigenvalues --    0.02906   0.05003   0.06262   0.07369   0.10908
 Alpha virt. eigenvalues --    0.13377   0.15947   0.17009   0.18343   0.19194
 Alpha virt. eigenvalues --    0.20397   0.21012   0.23252   0.23861   0.25403

 Mulliken charges:
               1
     1  H    0.238032
     2  H    0.132934
     3  H    0.110814
     4  N    0.527291
     5  O   -0.445849
     6  O   -0.323572
     7  O   -0.239649
 Sum of Mulliken charges =  -0.00000

 Dipole moment (field-independent basis, Debye):
    X=             -1.7555    Y=             -1.6298    Z=             -0.8543  Tot=              2.5432

 Test job not archived.
 1\1\GINC-SE184\SP\RHF\Aug-CC-pVDZ\H3N1O3\OHZDE\08-Apr-2025\0\\#t hf au
 g-cc-pvdz iop(5/13=1,5/36=2,99/5=2) pseudo=read geom=check guess=(read
 ,tcheck) scf=(maxcycle=1)\\title\\0,1\H,0,-1.32721,-1.63942,-0.362935\
 H,0,2.45238,0.187558,0.835397\H,0,2.01752,-0.167139,-0.553063\N,0,-0.8
 15724,0.123974,-0.406543\O,0,-1.49668,-0.894995,0.233861\O,0,-0.959995
 ,1.14649,0.129349\O,0,2.7776,-0.157597,0.00258983\\Version=ES64L-G16Re
 vC.01\State=1-A\HF=-280.8131496\RMSD=2.764e-03\Dipole=-0.690651,-0.641
 2155,-0.3360926\Quadrupole=-6.0037058,2.9194585,3.0842474,2.9119252,3.

 Normal termination of Gaussian 16 at Tue Apr  8 21:10:19 2025.
