 Gaussian 16, Revision C.01,

 ----------------------------------------------------------------------
 #t hf aug-cc-pvdz symm=none int=(grid=ultrafine) guess=(read,tcheck) s
 table=(opt,rrhf)
 ----------------------------------------------------------------------
 -----
 title
 -----
 Symbolic Z-matrix:
 Charge =  0 Multiplicity = 1

 SCF Done:  E(RHF) =  -981.473070943     A.U. after   14 cycles
 Normal termination of Gaussian 16 at Tue Apr  8 22:17:09 2025.
 Gaussian 16:  ES64L-G16RevC.01  3-Jul-2019

 ----------------------------------------------------------------------
 #t hf aug-cc-pvdz iop(5/13=1,5/36=2,99/5=2) pseudo=read geom=check gue
 ss=(read,tcheck) scf=(maxcycle=1)
 ----------------------------------------------------------------------
 -----
 title
 -----
 Structure from the checkpoint file:  "ANI1ccx_69_conf1_mol1.chk"
 Charge =  0 Multiplicity = 1

                         Standard orientation:
 ---------------------------------------------------------------------
 Center     Atomic      Atomic             Coordinates (Angstroms)
 Number     Number       Type             X           Y           Z
 ---------------------------------------------------------------------
      1          6           0        1.969810    0.158364    0.972403
      2          6           0       -2.809200   -1.302909    0.114843
      3          6           0       -1.996840   -0.707594   -1.064240
      4          6           0       -2.334050    1.707391   -0.172333
      5          6           0       -1.328790    0.667636   -0.774821
      6          6           0       -4.271980   -1.013319    0.066014
      7          6           0        3.876650   -1.172020   -0.225534
      8          6           0        3.033840   -0.957771    1.037740
      9          6           0        0.934417   -0.058966   -0.201940
     10          6           0        4.940430   -0.067025   -0.322362
     11          1           0       -1.003980    1.014630   -1.748170
     12          1           0       -3.881290    1.007371   -1.048410
     13          1           0       -6.027290   -1.540239    0.935546
     14          1           0       -4.654530   -2.373869    1.554890
     15          1           0       -2.770350   -2.404069   -0.036759
     16          1           0       -2.305320   -1.117749    1.032510
     17          1           0       -1.183680   -1.364140   -1.380860
     18          1           0       -2.611570   -0.651560   -1.961570
     19          1           0       -0.305308    0.991299    1.020820
     20          1           0        6.358590    0.654726   -1.574620
     21          1           0        5.355610   -0.543465   -2.350840
     22          1           0        3.252310   -1.093860   -1.144490
     23          1           0        4.369470   -2.183480   -0.185848
     24          1           0        3.691420   -0.720665    1.811910
     25          1           0        2.567830   -1.879640    1.367590
     26          1           0        2.503340    1.069500    0.708695
     27          1           0        1.857460    0.946014    2.856530
     28          1           0        1.264390   -0.524158    2.732590
     29          7           0       -5.046310   -1.599579    1.037570
     30          7           0       -0.212348    0.516197    0.133129
     31          7           0        1.269700    0.388000    2.251270
     32          7           0        5.597670   -0.014169   -1.550480
     33          8           0       -4.730750   -0.335042   -0.831758
     34          8           0        1.179890   -0.562762   -1.316530
     35          8           0        5.236370    0.678599    0.617506
     36          8           0       -1.911050    2.373380    0.763402
     37          8           0       -3.502440    1.865511   -0.766190
 ---------------------------------------------------------------------

 SCF Done:  E(RHF) =  -981.770775769     A.U. after    2 cycles

 The electronic state is 1-A.
 Alpha  occ. eigenvalues --  -20.60193 -20.57825 -20.55555 -20.53996 -20.53451
 Alpha  occ. eigenvalues --  -15.67847 -15.64559 -15.64178 -15.62964 -11.40477
 Alpha  occ. eigenvalues --  -11.39691 -11.37048 -11.36289 -11.29822 -11.28599
 Alpha  occ. eigenvalues --  -11.27364 -11.25373 -11.24867 -11.23396  -1.41351
 Alpha  occ. eigenvalues --   -1.39446  -1.33663  -1.33458  -1.31901  -1.21334
 Alpha  occ. eigenvalues --   -1.21246  -1.17042  -1.16715  -1.08291  -1.05020
 Alpha  occ. eigenvalues --   -1.00340  -0.93861  -0.89934  -0.86694  -0.83674
 Alpha  occ. eigenvalues --   -0.81373  -0.78304  -0.77908  -0.75326  -0.74537
 Alpha  occ. eigenvalues --   -0.72443  -0.71643  -0.69794  -0.69112  -0.67783
 Alpha  occ. eigenvalues --   -0.66942  -0.66214  -0.65435  -0.64407  -0.63268
 Alpha  occ. eigenvalues --   -0.62111  -0.61455  -0.60602  -0.58709  -0.58042
 Alpha  occ. eigenvalues --   -0.56335  -0.55735  -0.55087  -0.53903  -0.52840
 Alpha  occ. eigenvalues --   -0.52159  -0.51914  -0.51184  -0.48862  -0.48532
 Alpha  occ. eigenvalues --   -0.48377  -0.45618  -0.44933  -0.44333  -0.43553
 Alpha  occ. eigenvalues --   -0.41706  -0.40307  -0.39224
 Alpha virt. eigenvalues --    0.01506   0.02898   0.03251   0.03739   0.04512
 Alpha virt. eigenvalues --    0.04607   0.05392   0.05979   0.06140   0.06579
 Alpha virt. eigenvalues --    0.07054   0.07421   0.08544   0.08909   0.08931

 Mulliken charges:
               1
     1  C    0.654348
     2  C    0.331051
     3  C    0.772917
     4  C    0.826708
     5  C    0.227833
     6  C    0.476357
     7  C    0.314966
     8  C    0.762441
     9  C   -0.260622
    10  C    0.471868
    11  H   -0.221373
    12  H    0.354624
    13  H   -0.045042
    14  H    0.007434
    15  H    0.062690
    16  H   -0.232573
    17  H   -0.237547
    18  H   -0.151146
    19  H    0.102103
    20  H   -0.013267
    21  H   -0.062191
    22  H   -0.097637
    23  H    0.045386
    24  H   -0.182850
    25  H   -0.165617
    26  H   -0.093136
    27  H    0.090365
    28  H    0.115575
    29  N   -0.139984
    30  N   -0.124399
    31  N   -0.600186
    32  N   -0.127371
    33  O   -0.599399
    34  O   -0.622633
    35  O   -0.578961
    36  O   -0.561599
    37  O   -0.499133
 Sum of Mulliken charges =  -0.00000

 Dipole moment (field-independent basis, Debye):
    X=             -1.1392    Y=             -7.9841    Z=              0.8005  Tot=              8.1046

 Test job not archived.
 1\1\GINC-SE461\SP\RHF\Aug-CC-pVDZ\C10H18N4O5\OHZDE\08-Apr-2025\0\\#t h
 f aug-cc-pvdz iop(5/13=1,5/36=2,99/5=2) pseudo=read geom=check guess=(
 read,tcheck) scf=(maxcycle=1)\\title\\0,1\C,0,1.96981,0.158364,0.97240
 3\C,0,-2.8092,-1.30291,0.114843\C,0,-1.99684,-0.707594,-1.06424\C,0,-2
 .33405,1.70739,-0.172333\C,0,-1.32879,0.667636,-0.774821\C,0,-4.27198,
 -1.01332,0.0660137\C,0,3.87665,-1.17202,-0.225534\C,0,3.03384,-0.95777
 1,1.03774\C,0,0.934417,-0.0589658,-0.20194\C,0,4.94043,-0.0670249,-0.3
 22362\H,0,-1.00398,1.01463,-1.74817\H,0,-3.88129,1.00737,-1.04841\H,0,

 Normal termination of Gaussian 16 at Tue Apr  8 22:18:11 2025.
