 Gaussian 16, Revision C.01,

 ----------------------------------------------------------------------
 #t hf aug-cc-pvdz symm=none int=(grid=ultrafine) guess=(read,tcheck) s
 table=(opt,rrhf)
 ----------------------------------------------------------------------
 -----
 title
 -----
 Symbolic Z-matrix:
 Charge =  0 Multiplicity = 1

 SCF Done:  E(RHF) =  -962.696310128     A.U. after   16 cycles
 Normal termination of Gaussian 16 at Tue Apr  8 22:39:20 2025.
 Gaussian 16:  ES64L-G16RevC.01  3-Jul-2019

 ----------------------------------------------------------------------
 #t hf aug-cc-pvdz iop(5/13=1,5/36=2,99/5=2) pseudo=read geom=check gue
 ss=(read,tcheck) scf=(maxcycle=1)
 ----------------------------------------------------------------------
 -----
 title
 -----
 Structure from the checkpoint file:  "ANI1ccx_98_conf10_mol1.chk"
 Charge =  0 Multiplicity = 1

                         Standard orientation:
 ---------------------------------------------------------------------
 Center     Atomic      Atomic             Coordinates (Angstroms)
 Number     Number       Type             X           Y           Z
 ---------------------------------------------------------------------
      1          6           0        2.431800   -1.110780   -0.450503
      2          6           0       -2.787030   -1.478439   -0.503688
      3          6           0       -1.765560   -0.478660   -1.072330
      4          6           0       -0.777392    0.137797    0.072325
      5          6           0        0.730671    2.002430    0.728936
      6          6           0       -4.883790   -0.240481    0.020539
      7          6           0        2.397680   -1.953810    1.973390
      8          6           0        2.751980   -0.836294    0.978416
      9          6           0        2.245150    0.235702   -1.264800
     10          6           0        0.061577    1.284910   -0.396180
     11          1           0       -1.235980   -1.021419   -1.883100
     12          1           0        1.718311    3.508590    1.048450
     13          1           0       -6.500480    0.588987    0.922255
     14          1           0       -5.920710   -0.705344    1.712850
     15          1           0       -6.065110    0.411981   -1.305530
     16          1           0       -3.515490   -0.775052    1.357880
     17          1           0       -3.392350   -1.922489   -1.348670
     18          1           0       -2.294510   -2.392699    0.030673
     19          1           0       -2.405380    0.198627   -1.571240
     20          1           0       -0.165806   -0.711201    0.412284
     21          1           0       -0.560064    2.115591   -0.796029
     22          1           0        4.258850   -1.290530   -1.387230
     23          1           0        1.275480    1.539990   -2.205370
     24          1           0        1.309870   -2.186060    1.941120
     25          1           0        2.603010   -1.606000    3.021160
     26          1           0        3.002620   -2.868510    1.888340
     27          1           0        4.533400   -1.293880    0.506052
     28          1           0        2.101780    0.073610    1.359630
     29          1           0        1.502420   -1.710740   -0.545525
     30          1           0        3.109920   -2.298160   -1.939930
     31          1           0       -1.410580    0.451731    0.917137
     32          7           0        3.513730   -1.894980   -1.057270
     33          7           0        1.063430    0.856768   -1.446440
     34          7           0       -3.851070   -1.006659    0.413021
     35          7           0       -5.148580    0.025972   -1.236450
     36          7           0       -5.618470    0.110590    1.195920
     37          8           0        4.136460   -0.562035    1.019960
     38          8           0        0.723711    1.682950    1.931330
     39          8           0        3.282980    0.778914   -1.695350
     40          8           0        1.345221    3.084780    0.277397
 ---------------------------------------------------------------------

 SCF Done:  E(RHF) =  -962.983325322     A.U. after    2 cycles

 The electronic state is 1-A.
 Alpha  occ. eigenvalues --  -20.64931 -20.58462 -20.55682 -20.54945 -15.66539
 Alpha  occ. eigenvalues --  -15.65378 -15.65006 -15.62569 -15.58976 -11.42337
 Alpha  occ. eigenvalues --  -11.37320 -11.36880 -11.33336 -11.29615 -11.29172
 Alpha  occ. eigenvalues --  -11.29141 -11.26813 -11.25073 -11.22948  -1.45541
 Alpha  occ. eigenvalues --   -1.35032  -1.33423  -1.32021  -1.27751  -1.21188
 Alpha  occ. eigenvalues --   -1.16262  -1.15428  -1.10811  -1.07912  -1.02167
 Alpha  occ. eigenvalues --   -1.01523  -0.93979  -0.93095  -0.86171  -0.83961
 Alpha  occ. eigenvalues --   -0.80684  -0.78147  -0.76829  -0.74420  -0.73731
 Alpha  occ. eigenvalues --   -0.72386  -0.71666  -0.71158  -0.68791  -0.67802
 Alpha  occ. eigenvalues --   -0.66082  -0.65170  -0.63811  -0.63532  -0.62455
 Alpha  occ. eigenvalues --   -0.61588  -0.60906  -0.59821  -0.58558  -0.57644
 Alpha  occ. eigenvalues --   -0.56840  -0.56173  -0.54697  -0.54154  -0.52767
 Alpha  occ. eigenvalues --   -0.52320  -0.51720  -0.51030  -0.50266  -0.49869
 Alpha  occ. eigenvalues --   -0.47870  -0.46870  -0.46272  -0.44747  -0.43310
 Alpha  occ. eigenvalues --   -0.41811  -0.41599  -0.39830  -0.35961
 Alpha virt. eigenvalues --    0.02297   0.02721   0.03014   0.03515   0.04500
 Alpha virt. eigenvalues --    0.04877   0.05104   0.05641   0.06337   0.06531
 Alpha virt. eigenvalues --    0.06860   0.07428   0.08014   0.08501   0.08726

 Mulliken charges:
               1
     1  C    0.729736
     2  C    0.446795
     3  C    0.867539
     4  C    0.670813
     5  C    0.741514
     6  C    0.756826
     7  C    0.402846
     8  C    0.253430
     9  C    0.617242
    10  C   -0.001668
    11  H   -0.103384
    12  H    0.210981
    13  H    0.052185
    14  H    0.030980
    15  H   -0.063579
    16  H    0.013428
    17  H   -0.055887
    18  H   -0.089493
    19  H   -0.406955
    20  H   -0.258395
    21  H   -0.002063
    22  H    0.096588
    23  H    0.049557
    24  H   -0.036560
    25  H    0.064551
    26  H   -0.082927
    27  H    0.226940
    28  H   -0.160002
    29  H   -0.286795
    30  H   -0.018221
    31  H   -0.248283
    32  N   -0.468958
    33  N   -0.497421
    34  N   -0.337288
    35  N   -0.332773
    36  N   -0.329163
    37  O   -0.635095
    38  O   -0.599730
    39  O   -0.655215
    40  O   -0.562096
 Sum of Mulliken charges =   0.00000

 Dipole moment (field-independent basis, Debye):
    X=             -5.5152    Y=             -0.8350    Z=              0.3489  Tot=              5.5889

 Test job not archived.
 1\1\GINC-SE051\SP\RHF\Aug-CC-pVDZ\C10H21N5O4\OHZDE\08-Apr-2025\0\\#t h
 f aug-cc-pvdz iop(5/13=1,5/36=2,99/5=2) pseudo=read geom=check guess=(
 read,tcheck) scf=(maxcycle=1)\\title\\0,1\C,0,2.4318,-1.11078,-0.45050
 3\C,0,-2.78703,-1.47844,-0.503688\C,0,-1.76556,-0.478661,-1.07233\C,0,
 -0.777392,0.137796,0.0723254\C,0,0.730671,2.00243,0.728936\C,0,-4.8837
 9,-0.240482,0.0205389\C,0,2.39768,-1.95381,1.97339\C,0,2.75198,-0.8362
 94,0.978416\C,0,2.24515,0.235702,-1.2648\C,0,0.0615767,1.28491,-0.3961
 8\H,0,-1.23598,-1.02142,-1.8831\H,0,1.71831,3.50859,1.04845\H,0,-6.500

 Normal termination of Gaussian 16 at Tue Apr  8 22:40:38 2025.
