 Gaussian 16, Revision C.01,

 ----------------------------------------------------------------------
 #t hf aug-cc-pvdz symm=none int=(grid=ultrafine) guess=(read,tcheck) s
 table=(opt,rrhf)
 ----------------------------------------------------------------------
 -----
 title
 -----
 Symbolic Z-matrix:
 Charge =  0 Multiplicity = 1

 SCF Done:  E(RHF) =  -541.252672830     A.U. after   15 cycles
 Normal termination of Gaussian 16 at Tue Apr  8 21:56:21 2025.
 Gaussian 16:  ES64L-G16RevC.01  3-Jul-2019

 ----------------------------------------------------------------------
 #t hf aug-cc-pvdz iop(5/13=1,5/36=2,99/5=2) pseudo=read geom=check gue
 ss=(read,tcheck) scf=(maxcycle=1)
 ----------------------------------------------------------------------
 -----
 title
 -----
 Structure from the checkpoint file:  "ANI1ccx_869_conf7_mol1.chk"
 Charge =  0 Multiplicity = 1

                         Standard orientation:
 ---------------------------------------------------------------------
 Center     Atomic      Atomic             Coordinates (Angstroms)
 Number     Number       Type             X           Y           Z
 ---------------------------------------------------------------------
      1          6           0       -1.270260    0.070718    0.005948
      2          6           0       -0.423846    1.306781   -0.045977
      3          6           0        1.709040   -0.086743   -0.016281
      4          6           0       -0.488227   -1.219229   -0.016863
      5          1           0       -2.898460   -0.831388    0.106119
      6          1           0        1.468361    1.810219    0.124937
      7          1           0        1.273079   -2.119470   -0.089011
      8          7           0       -2.494450    0.165082    0.108274
      9          7           0        0.915210    1.030420   -0.060017
     10          7           0        0.885602   -1.220600   -0.001483
     11          8           0       -0.835188    2.446141   -0.034309
     12          8           0        2.941750   -0.061945    0.080316
     13          8           0       -1.125031   -2.273299   -0.049810
 ---------------------------------------------------------------------

 SCF Done:  E(RHF) =  -541.414302690     A.U. after    2 cycles

 The electronic state is 1-A.
 Alpha  occ. eigenvalues --  -20.60853 -20.60614 -20.59923 -15.73172 -15.71666
 Alpha  occ. eigenvalues --  -15.70102 -11.47721 -11.44025 -11.42751 -11.35456
 Alpha  occ. eigenvalues --   -1.43499  -1.40775  -1.40171  -1.29818  -1.26181
 Alpha  occ. eigenvalues --   -1.24216  -1.02310  -0.94548  -0.92145  -0.83449
 Alpha  occ. eigenvalues --   -0.79861  -0.73135  -0.71929  -0.70777  -0.70328
 Alpha  occ. eigenvalues --   -0.69259  -0.65837  -0.62823  -0.61305  -0.54717
 Alpha  occ. eigenvalues --   -0.53507  -0.51572  -0.50239  -0.48071  -0.47379
 Alpha  occ. eigenvalues --   -0.47006
 Alpha virt. eigenvalues --    0.00379   0.03052   0.04141   0.04504   0.05642
 Alpha virt. eigenvalues --    0.08222   0.09038   0.09179   0.11690   0.12179
 Alpha virt. eigenvalues --    0.12577   0.12733   0.13216   0.13603   0.13660

 Mulliken charges:
               1
     1  C    0.345585
     2  C    0.511863
     3  C    0.777894
     4  C    0.870169
     5  H    0.171424
     6  H   -0.051804
     7  H   -0.072341
     8  N   -0.443355
     9  N   -0.284449
    10  N   -0.406329
    11  O   -0.438121
    12  O   -0.448099
    13  O   -0.532437
 Sum of Mulliken charges =  -0.00000

 Dipole moment (field-independent basis, Debye):
    X=              0.5319    Y=             -1.8605    Z=             -0.0841  Tot=              1.9368

 Test job not archived.
 1\1\GINC-SE163\SP\RHF\Aug-CC-pVDZ\C4H3N3O3\OHZDE\08-Apr-2025\0\\#t hf
 aug-cc-pvdz iop(5/13=1,5/36=2,99/5=2) pseudo=read geom=check guess=(re
 ad,tcheck) scf=(maxcycle=1)\\title\\0,1\C,0,-1.27026,0.0707168,0.00594
 765\C,0,-0.423847,1.30678,-0.045977\C,0,1.70904,-0.0867427,-0.0162812\
 C,0,-0.488226,-1.21923,-0.0168631\H,0,-2.89846,-0.83139,0.106119\H,0,1
 .46836,1.81022,0.124937\H,0,1.27308,-2.11947,-0.0890113\N,0,-2.49445,0
 .16508,0.108274\N,0,0.915209,1.03042,-0.0600167\N,0,0.885603,-1.2206,-
 0.00148256\O,0,-0.83519,2.44614,-0.0343093\O,0,2.94175,-0.0619437,0.08

 Normal termination of Gaussian 16 at Tue Apr  8 21:56:27 2025.
