 Gaussian 16, Revision C.01,

 ----------------------------------------------------------------------
 #t hf aug-cc-pvdz symm=none int=(grid=ultrafine) guess=(read,tcheck) s
 table=(opt,rrhf)
 ----------------------------------------------------------------------
 -----
 title
 -----
 Symbolic Z-matrix:
 Charge =  0 Multiplicity = 1

 SCF Done:  E(RHF) =  -541.431244830     A.U. after   16 cycles
 Normal termination of Gaussian 16 at Tue Apr  8 19:38:08 2025.
 Gaussian 16:  ES64L-G16RevC.01  3-Jul-2019

 ----------------------------------------------------------------------
 #t hf aug-cc-pvdz iop(5/13=1,5/36=2,99/5=2) pseudo=read geom=check gue
 ss=(read,tcheck) scf=(maxcycle=1)
 ----------------------------------------------------------------------
 -----
 title
 -----
 Structure from the checkpoint file:  "ANI1ccx_1513_conf2_mol2.chk"
 Charge =  0 Multiplicity = 1

                         Standard orientation:
 ---------------------------------------------------------------------
 Center     Atomic      Atomic             Coordinates (Angstroms)
 Number     Number       Type             X           Y           Z
 ---------------------------------------------------------------------
      1          6           0        1.404551    0.077854   -0.013396
      2          6           0        3.797121   -0.227673   -0.006372
      3          6           0       -1.054899   -0.263030    0.039909
      4          6           0       -1.453459    1.062770    0.009705
      5          6           0       -2.813649    1.348050    0.004567
      6          6           0       -3.743129    0.252415    0.036923
      7          6           0       -2.028719   -1.284710   -0.043121
      8          1           0       -1.731700   -2.334070    0.017562
      9          1           0       -4.823869    0.461120   -0.002682
     10          1           0       -3.177639    2.377420   -0.023187
     11          1           0        0.347673   -1.699830   -0.035015
     12          1           0        2.507461   -1.745360    0.083773
     13          1           0        2.461861    1.647280   -0.010568
     14          1           0       -0.695177    1.837670   -0.034493
     15          7           0        0.255292   -0.699085    0.009871
     16          7           0        1.481971    1.340570   -0.038642
     17          7           0        2.563901   -0.756918   -0.019537
     18          7           0        4.838461    0.264902    0.035573
     19          7           0       -3.358979   -1.054940   -0.010792
 ---------------------------------------------------------------------

 SCF Done:  E(RHF) =  -541.586967083     A.U. after    2 cycles

 The electronic state is 1-A.
 Alpha  occ. eigenvalues --  -15.72972 -15.69892 -15.65868 -15.65162 -15.62238
 Alpha  occ. eigenvalues --  -11.41854 -11.34582 -11.31585 -11.29880 -11.29456
 Alpha  occ. eigenvalues --  -11.26807 -11.26449  -1.34035  -1.26722  -1.22350
 Alpha  occ. eigenvalues --   -1.19554  -1.16967  -1.07872  -1.02743  -0.91698
 Alpha  occ. eigenvalues --   -0.88152  -0.83171  -0.81732  -0.79080  -0.72770
 Alpha  occ. eigenvalues --   -0.70120  -0.68779  -0.65671  -0.64679  -0.61714
 Alpha  occ. eigenvalues --   -0.58558  -0.58323  -0.56993  -0.54854  -0.52752
 Alpha  occ. eigenvalues --   -0.49405  -0.46436  -0.45630  -0.42476  -0.40563
 Alpha  occ. eigenvalues --   -0.38449  -0.31990
 Alpha virt. eigenvalues --    0.01031   0.03331   0.04296   0.04898   0.05796
 Alpha virt. eigenvalues --    0.06031   0.07412   0.08173   0.08404   0.09441
 Alpha virt. eigenvalues --    0.09651   0.10336   0.10919   0.11156   0.12485

 Mulliken charges:
               1
     1  C    0.981021
     2  C   -0.760590
     3  C    0.354427
     4  C    0.554792
     5  C    0.562835
     6  C    0.579019
     7  C    0.822241
     8  H   -0.459155
     9  H   -0.312603
    10  H   -0.392459
    11  H   -0.079324
    12  H   -0.032836
    13  H    0.001242
    14  H   -0.572462
    15  N   -0.319102
    16  N   -0.219868
    17  N   -0.137013
    18  N   -0.014646
    19  N   -0.555519
 Sum of Mulliken charges =  -0.00000

 Dipole moment (field-independent basis, Debye):
    X=             -0.9722    Y=             -2.6873    Z=              0.0791  Tot=              2.8588

 Test job not archived.
 1\1\GINC-SE455\SP\RHF\Aug-CC-pVDZ\C7H7N5\OHZDE\08-Apr-2025\0\\#t hf au
 g-cc-pvdz iop(5/13=1,5/36=2,99/5=2) pseudo=read geom=check guess=(read
 ,tcheck) scf=(maxcycle=1)\\title\\0,1\C,0,1.40455,0.0778544,-0.0133963
 \C,0,3.79712,-0.227673,-0.00637211\C,0,-1.0549,-0.26303,0.0399095\C,0,
 -1.45346,1.06277,0.00970542\C,0,-2.81365,1.34805,0.0045669\C,0,-3.7431
 3,0.252415,0.0369232\C,0,-2.02872,-1.28471,-0.0431206\H,0,-1.7317,-2.3
 3407,0.0175623\H,0,-4.82387,0.46112,-0.00268163\H,0,-3.17764,2.37742,-
 0.0231874\H,0,0.347672,-1.69983,-0.0350151\H,0,2.50746,-1.74536,0.0837

 Normal termination of Gaussian 16 at Tue Apr  8 19:38:21 2025.
