 Gaussian 16, Revision C.01,

 ----------------------------------------------------------------------
 #t hf aug-cc-pvdz symm=none int=(grid=ultrafine) guess=(read,tcheck) s
 table=(opt,rrhf)
 ----------------------------------------------------------------------
 -----
 title
 -----
 Symbolic Z-matrix:
 Charge =  0 Multiplicity = 1

 SCF Done:  E(RHF) =  -408.764775626     A.U. after   13 cycles
 Normal termination of Gaussian 16 at Tue Apr  8 21:38:52 2025.
 Gaussian 16:  ES64L-G16RevC.01  3-Jul-2019

 ----------------------------------------------------------------------
 #t hf aug-cc-pvdz iop(5/13=1,5/36=2,99/5=2) pseudo=read geom=check gue
 ss=(read,tcheck) scf=(maxcycle=1)
 ----------------------------------------------------------------------
 -----
 title
 -----
 Structure from the checkpoint file:  "ANI1ccx_432_conf5_mol1.chk"
 Charge =  0 Multiplicity = 1

                         Standard orientation:
 ---------------------------------------------------------------------
 Center     Atomic      Atomic             Coordinates (Angstroms)
 Number     Number       Type             X           Y           Z
 ---------------------------------------------------------------------
      1          6           0       -0.020776   -0.120005    0.097599
      2          1           0        1.128346    2.668197   -0.675206
      3          1           0        0.917537    2.392676    0.959049
      4          1           0        1.896238    0.446933    0.156496
      5          1           0       -1.457787    1.324723   -0.154749
      6          1           0       -2.435704   -1.073512    0.403112
      7          1           0        1.692534   -2.510400    0.311211
      8          7           0        0.678058    2.124045    0.022739
      9          7           0        0.999400    0.750276   -0.221634
     10          7           0       -1.309092    0.387887    0.283529
     11          7           0        0.217513   -1.390058    0.131236
     12          8           0       -2.282747   -0.400944   -0.276675
     13          8           0        1.568039   -1.553260   -0.110399
 ---------------------------------------------------------------------

 SCF Done:  E(RHF) =  -408.887187011     A.U. after    2 cycles

 The electronic state is 1-A.
 Alpha  occ. eigenvalues --  -20.60996 -20.60649 -15.69023 -15.67678 -15.66375
 Alpha  occ. eigenvalues --  -15.64211 -11.34800  -1.40019  -1.37003  -1.27671
 Alpha  occ. eigenvalues --   -1.14767  -1.05575  -1.01691  -0.80798  -0.74551
 Alpha  occ. eigenvalues --   -0.72538  -0.71380  -0.69145  -0.64952  -0.63910
 Alpha  occ. eigenvalues --   -0.62370  -0.59949  -0.54800  -0.48584  -0.45361
 Alpha  occ. eigenvalues --   -0.42510  -0.41442  -0.33198
 Alpha virt. eigenvalues --    0.02742   0.03712   0.04392   0.04844   0.07013
 Alpha virt. eigenvalues --    0.07728   0.11483   0.12907   0.13954   0.15130
 Alpha virt. eigenvalues --    0.15793   0.16244   0.16879   0.17901   0.19297

 Mulliken charges:
               1
     1  C    1.204137
     2  H    0.084994
     3  H    0.051987
     4  H    0.091853
     5  H    0.147709
     6  H    0.201414
     7  H    0.303932
     8  N   -0.212373
     9  N   -0.212918
    10  N   -0.242950
    11  N   -0.262184
    12  O   -0.462397
    13  O   -0.693204
 Sum of Mulliken charges =  -0.00000

 Dipole moment (field-independent basis, Debye):
    X=              1.9670    Y=              2.1370    Z=              2.0314  Tot=              3.5444

 Test job not archived.
 1\1\GINC-SE179\SP\RHF\Aug-CC-pVDZ\C1H6N4O2\OHZDE\08-Apr-2025\0\\#t hf
 aug-cc-pvdz iop(5/13=1,5/36=2,99/5=2) pseudo=read geom=check guess=(re
 ad,tcheck) scf=(maxcycle=1)\\title\\0,1\C,0,-0.0207771,-0.120006,0.097
 5987\H,0,1.12836,2.66819,-0.675206\H,0,0.91755,2.39267,0.959049\H,0,1.
 89624,0.446922,0.156496\H,0,-1.45778,1.32473,-0.154749\H,0,-2.43571,-1
 .0735,0.403112\H,0,1.69252,-2.51041,0.311211\N,0,0.678069,2.12404,0.02
 27389\N,0,0.999404,0.75027,-0.221634\N,0,-1.30909,0.387893,0.283529\N,
 0,0.217505,-1.39006,0.131236\O,0,-2.28275,-0.400933,-0.276675\O,0,1.56

 Normal termination of Gaussian 16 at Tue Apr  8 21:38:56 2025.
