 Gaussian 16, Revision C.01,

 ----------------------------------------------------------------------
 #t hf aug-cc-pvdz symm=none int=(grid=ultrafine) guess=(read,tcheck) s
 table=(opt,rrhf)
 ----------------------------------------------------------------------
 -----
 title
 -----
 Symbolic Z-matrix:
 Charge =  0 Multiplicity = 1

 SCF Done:  E(RHF) =  -813.577337599     A.U. after   15 cycles
 Normal termination of Gaussian 16 at Tue Apr  8 21:02:35 2025.
 Gaussian 16:  ES64L-G16RevC.01  3-Jul-2019

 ----------------------------------------------------------------------
 #t hf aug-cc-pvdz iop(5/13=1,5/36=2,99/5=2) pseudo=read geom=check gue
 ss=(read,tcheck) scf=(maxcycle=1)
 ----------------------------------------------------------------------
 -----
 title
 -----
 Structure from the checkpoint file:  "ANI1ccx_1770_conf10_mol1.chk"
 Charge =  0 Multiplicity = 1

                         Standard orientation:
 ---------------------------------------------------------------------
 Center     Atomic      Atomic             Coordinates (Angstroms)
 Number     Number       Type             X           Y           Z
 ---------------------------------------------------------------------
      1          6           0       -1.340099   -0.815982    0.029880
      2          6           0        1.634610   -0.262042   -0.785728
      3          6           0        1.223738    2.081271   -0.167436
      4          6           0        1.446349    0.709624    0.320041
      5          6           0        2.087462   -1.611538   -0.346043
      6          6           0       -3.198281    0.823862   -0.477057
      7          6           0       -1.953580    0.141182   -0.966889
      8          6           0       -0.794571   -0.117338    1.335860
      9          6           0       -2.236289   -0.708725   -2.193440
     10          1           0        0.836493    0.369616    2.304860
     11          1           0        0.551090    3.709350    0.306624
     12          1           0        4.069971   -1.128816   -0.615257
     13          1           0        3.746062   -2.416637    0.482456
     14          1           0        0.610551   -0.412452   -1.096710
     15          1           0        2.139330    0.178011   -1.611530
     16          1           0        2.463549    0.755294    0.719870
     17          1           0       -1.321459   -1.337601   -2.518140
     18          1           0       -2.606100   -0.118919   -3.034540
     19          1           0       -3.449582    1.698387   -1.117440
     20          1           0       -4.053510    0.120758   -0.540530
     21          1           0       -3.049741    1.204167    0.570777
     22          1           0       -1.138101    0.972625   -1.087160
     23          1           0       -0.469993   -1.324451   -0.388645
     24          1           0       -1.445997   -2.586732    0.746057
     25          1           0       -2.687808   -1.723993    1.295690
     26          1           0       -3.098679   -1.307273   -1.947830
     27          7           0       -2.199848   -1.870642    0.449534
     28          7           0        0.527500    0.349866    1.363130
     29          7           0        3.420702   -1.896707   -0.362327
     30          8           0        1.281972   -2.322019    0.295295
     31          8           0       -1.559130    0.081302    2.284420
     32          8           0        1.996148    2.684922   -0.944729
     33          8           0        0.212186    2.784440    0.475515
 ---------------------------------------------------------------------

 SCF Done:  E(RHF) =  -813.822134781     A.U. after    2 cycles

 The electronic state is 1-A.
 Alpha  occ. eigenvalues --  -20.64848 -20.59389 -20.56751 -20.54557 -15.68582
 Alpha  occ. eigenvalues --  -15.65405 -15.59502 -11.43501 -11.40135 -11.36836
 Alpha  occ. eigenvalues --  -11.34185 -11.27567 -11.26325 -11.24425 -11.22270
 Alpha  occ. eigenvalues --  -11.21894  -1.42976  -1.36485  -1.34302  -1.32763
 Alpha  occ. eigenvalues --   -1.22870  -1.20369  -1.16735  -1.09422  -1.05799
 Alpha  occ. eigenvalues --   -0.98737  -0.92123  -0.91744  -0.84443  -0.82668
 Alpha  occ. eigenvalues --   -0.79129  -0.76708  -0.75619  -0.73664  -0.73458
 Alpha  occ. eigenvalues --   -0.70429  -0.69893  -0.68373  -0.66651  -0.66243
 Alpha  occ. eigenvalues --   -0.64063  -0.62918  -0.61328  -0.60864  -0.60197
 Alpha  occ. eigenvalues --   -0.59649  -0.57517  -0.55971  -0.54645  -0.53223
 Alpha  occ. eigenvalues --   -0.52127  -0.51623  -0.50989  -0.50111  -0.48938
 Alpha  occ. eigenvalues --   -0.47959  -0.46848  -0.45485  -0.44701  -0.43872
 Alpha  occ. eigenvalues --   -0.41276  -0.37336
 Alpha virt. eigenvalues --    0.01429   0.03225   0.03411   0.04252   0.04986
 Alpha virt. eigenvalues --    0.05310   0.05712   0.06298   0.07198   0.07445
 Alpha virt. eigenvalues --    0.07747   0.08501   0.08855   0.09435   0.09512

 Mulliken charges:
               1
     1  C    1.114157
     2  C    1.391541
     3  C    1.074767
     4  C   -0.576586
     5  C    0.574421
     6  C    0.823520
     7  C   -1.686129
     8  C    0.514821
     9  C    1.013590
    10  H   -0.132369
    11  H    0.236837
    12  H    0.063732
    13  H    0.074428
    14  H   -0.270874
    15  H   -0.301310
    16  H    0.106877
    17  H    0.140474
    18  H   -0.158348
    19  H   -0.016099
    20  H    0.041192
    21  H    0.091342
    22  H   -0.027764
    23  H   -0.612231
    24  H    0.160468
    25  H   -0.020108
    26  H   -0.011915
    27  N   -0.555076
    28  N   -0.231485
    29  N   -0.365855
    30  O   -0.626856
    31  O   -0.634155
    32  O   -0.604619
    33  O   -0.590390
 Sum of Mulliken charges =  -0.00000

 Dipole moment (field-independent basis, Debye):
    X=              6.0778    Y=              1.0665    Z=             -0.8315  Tot=              6.2264

 Test job not archived.
 1\1\GINC-SE048\SP\RHF\Aug-CC-pVDZ\C9H17N3O4\OHZDE\08-Apr-2025\0\\#t hf
  aug-cc-pvdz iop(5/13=1,5/36=2,99/5=2) pseudo=read geom=check guess=(r
 ead,tcheck) scf=(maxcycle=1)\\title\\0,1\C,0,-1.3401,-0.815981,0.02988
 07\C,0,1.63461,-0.262043,-0.785728\C,0,1.22374,2.08127,-0.167436\C,0,1
 .44635,0.709623,0.320041\C,0,2.08746,-1.61154,-0.346043\C,0,-3.19828,0
 .823865,-0.477057\C,0,-1.95358,0.141184,-0.966889\C,0,-0.794571,-0.117
 337,1.33586\C,0,-2.23629,-0.708723,-2.19344\H,0,0.836493,0.369615,2.30
 486\H,0,0.551093,3.70935,0.306624\H,0,4.06997,-1.12882,-0.615257\H,0,3

 Normal termination of Gaussian 16 at Tue Apr  8 21:03:25 2025.
