 Gaussian 16, Revision C.01,

 ----------------------------------------------------------------------
 #t hf aug-cc-pvdz symm=none int=(grid=ultrafine) guess=(read,tcheck) s
 table=(opt,rrhf)
 ----------------------------------------------------------------------
 -----
 title
 -----
 Symbolic Z-matrix:
 Charge =  0 Multiplicity = 1

 SCF Done:  E(RHF) =  -499.469338823     A.U. after   15 cycles
 Normal termination of Gaussian 16 at Tue Apr  8 21:44:07 2025.
 Gaussian 16:  ES64L-G16RevC.01  3-Jul-2019

 ----------------------------------------------------------------------
 #t hf aug-cc-pvdz iop(5/13=1,5/36=2,99/5=2) pseudo=read geom=check gue
 ss=(read,tcheck) scf=(maxcycle=1)
 ----------------------------------------------------------------------
 -----
 title
 -----
 Structure from the checkpoint file:  "ANI1ccx_508_conf1_mol2.chk"
 Charge =  0 Multiplicity = 1

                         Standard orientation:
 ---------------------------------------------------------------------
 Center     Atomic      Atomic             Coordinates (Angstroms)
 Number     Number       Type             X           Y           Z
 ---------------------------------------------------------------------
      1          6           0        0.926882    0.632629   -0.024403
      2          6           0       -1.499789   -0.244966    0.011473
      3          1           0        0.999429    2.414381    0.866876
      4          1           0        1.023621    2.455321   -0.818523
      5          1           0       -1.118019    1.641950    0.022789
      6          7           0        0.634952    2.016651    0.004819
      7          7           0        2.084981    0.048533    0.001025
      8          7           0        1.831541   -1.308679   -0.013951
      9          7           0        0.589985   -1.541019    0.015277
     10          7           0       -0.058031   -0.340598    0.016122
     11          8           0       -1.925149    1.065820   -0.010538
     12          8           0       -2.206299   -1.186050   -0.009039
 ---------------------------------------------------------------------

 SCF Done:  E(RHF) =  -499.615390482     A.U. after    2 cycles

 The electronic state is 1-A.
 Alpha  occ. eigenvalues --  -20.64646 -20.60088 -15.77244 -15.75635 -15.74346
 Alpha  occ. eigenvalues --  -15.71599 -15.69762 -11.47716 -11.41849  -1.48725
 Alpha  occ. eigenvalues --   -1.44799  -1.37291  -1.27791  -1.24093  -1.16359
 Alpha  occ. eigenvalues --   -0.95517  -0.90606  -0.85690  -0.81948  -0.77399
 Alpha  occ. eigenvalues --   -0.72880  -0.71087  -0.70999  -0.66154  -0.65157
 Alpha  occ. eigenvalues --   -0.59804  -0.54093  -0.54024  -0.52976  -0.49454
 Alpha  occ. eigenvalues --   -0.47164  -0.46778  -0.44490
 Alpha virt. eigenvalues --    0.01116   0.03098   0.04713   0.07369   0.08137
 Alpha virt. eigenvalues --    0.08922   0.09425   0.09660   0.11068   0.13033
 Alpha virt. eigenvalues --    0.13193   0.14210   0.14489   0.15549   0.15799

 Mulliken charges:
               1
     1  C    0.998243
     2  C    0.854406
     3  H    0.196167
     4  H    0.193139
     5  H    0.308941
     6  N   -0.732643
     7  N   -0.334859
     8  N   -0.309129
     9  N   -0.054018
    10  N   -0.399483
    11  O   -0.426642
    12  O   -0.294122
 Sum of Mulliken charges =  -0.00000

 Dipole moment (field-independent basis, Debye):
    X=              1.9743    Y=              6.1364    Z=              0.1262  Tot=              6.4474

 Test job not archived.
 1\1\GINC-SE226\SP\RHF\Aug-CC-pVDZ\C2H3N5O2\OHZDE\08-Apr-2025\0\\#t hf
 aug-cc-pvdz iop(5/13=1,5/36=2,99/5=2) pseudo=read geom=check guess=(re
 ad,tcheck) scf=(maxcycle=1)\\title\\0,1\C,0,0.926881,0.632628,-0.02440
 28\C,0,-1.49979,-0.244966,0.0114733\H,0,0.999428,2.41438,0.866876\H,0,
 1.02362,2.45532,-0.818523\H,0,-1.11802,1.64195,0.0227887\N,0,0.634951,
 2.01665,0.00481904\N,0,2.08498,0.048532,0.0010253\N,0,1.83154,-1.30868
 ,-0.0139508\N,0,0.589984,-1.54102,0.0152774\N,0,-0.0580316,-0.340599,0
 .016122\O,0,-1.92515,1.06582,-0.0105384\O,0,-2.2063,-1.18605,-0.009038

 Normal termination of Gaussian 16 at Tue Apr  8 21:44:13 2025.
