 Gaussian 16, Revision C.01,

 ----------------------------------------------------------------------
 #t hf aug-cc-pvdz symm=none int=(grid=ultrafine) guess=(read,tcheck) s
 table=(opt,rrhf)
 ----------------------------------------------------------------------
 -----
 title
 -----
 Symbolic Z-matrix:
 Charge =  0 Multiplicity = 1

 SCF Done:  E(RHF) =  -911.542346939     A.U. after   14 cycles
 Normal termination of Gaussian 16 at Tue Apr  8 21:38:53 2025.
 Gaussian 16:  ES64L-G16RevC.01  3-Jul-2019

 ----------------------------------------------------------------------
 #t hf aug-cc-pvdz iop(5/13=1,5/36=2,99/5=2) pseudo=read geom=check gue
 ss=(read,tcheck) scf=(maxcycle=1)
 ----------------------------------------------------------------------
 -----
 title
 -----
 Structure from the checkpoint file:  "ANI1ccx_191_conf11_mol1.chk"
 Charge =  0 Multiplicity = 1

                         Standard orientation:
 ---------------------------------------------------------------------
 Center     Atomic      Atomic             Coordinates (Angstroms)
 Number     Number       Type             X           Y           Z
 ---------------------------------------------------------------------
      1          6           0       -1.167111    2.107600    0.534583
      2          6           0        1.727921   -2.253489   -0.556470
      3          6           0        1.615991   -1.838549    1.962040
      4          6           0        2.205251   -1.405469    0.601604
      5          6           0        3.112050    0.332269   -0.688815
      6          6           0        0.230532   -2.041619   -0.886301
      7          6           0       -3.592850   -0.850359   -0.424685
      8          6           0       -2.908770    0.199512    0.480801
      9          6           0       -2.119370    1.221920   -0.382301
     10          6           0        0.015704    1.219540    1.037260
     11          6           0        2.081680    0.104295    0.391016
     12          1           0        1.675331   -2.940199    1.999850
     13          1           0        3.140790    1.166062   -2.443400
     14          1           0       -0.360233   -1.765840    0.022029
     15          1           0        0.132935   -1.156769   -1.557710
     16          1           0       -0.235787   -2.870880   -1.472400
     17          1           0        2.282811   -1.996379   -1.432160
     18          1           0        1.827371   -3.349759   -0.405026
     19          1           0        2.163501   -1.442329    2.818720
     20          1           0        0.552849   -1.630759    2.112900
     21          1           0        3.286481   -1.615118    0.781423
     22          1           0       -4.876189   -2.145861   -0.394466
     23          1           0        0.877961    1.329611   -0.726702
     24          1           0       -3.670990    0.727170    1.107820
     25          1           0       -2.181850   -0.198117    1.189200
     26          1           0       -2.906961    1.848789   -0.837476
     27          1           0       -1.444440    0.859521   -1.182780
     28          1           0       -1.690951    2.558920    1.376680
     29          1           0       -0.634596    2.970350   -1.335650
     30          1           0       -0.141017    3.886040    0.013068
     31          1           0        2.384110    0.551646    1.311220
     32          7           0       -0.824054    3.215310   -0.363521
     33          7           0        0.856174    0.772575    0.087157
     34          8           0        4.295700    0.069816   -0.657260
     35          8           0        0.179094    1.011881    2.229760
     36          8           0       -3.509470   -0.909217   -1.616930
     37          8           0       -4.439669   -1.615891    0.300472
     38          8           0        2.522830    1.009011   -1.683910
 ---------------------------------------------------------------------

 SCF Done:  E(RHF) =  -911.820672967     A.U. after    2 cycles

 The electronic state is 1-A.
 Alpha  occ. eigenvalues --  -20.65429 -20.63286 -20.58079 -20.57707 -20.54660
 Alpha  occ. eigenvalues --  -15.65248 -15.62924 -11.41952 -11.40930 -11.36717
 Alpha  occ. eigenvalues --  -11.29878 -11.29665 -11.26974 -11.25869 -11.25001
 Alpha  occ. eigenvalues --  -11.23568 -11.23090 -11.21930  -1.44974  -1.43709
 Alpha  occ. eigenvalues --   -1.35986  -1.34511  -1.33992  -1.23246  -1.17124
 Alpha  occ. eigenvalues --   -1.09805  -1.05964  -1.01687  -0.97014  -0.95056
 Alpha  occ. eigenvalues --   -0.88179  -0.88054  -0.85716  -0.81650  -0.80513
 Alpha  occ. eigenvalues --   -0.77873  -0.74405  -0.72974  -0.72467  -0.70980
 Alpha  occ. eigenvalues --   -0.69784  -0.68851  -0.67955  -0.66760  -0.66097
 Alpha  occ. eigenvalues --   -0.64807  -0.62421  -0.62274  -0.61959  -0.61404
 Alpha  occ. eigenvalues --   -0.59775  -0.58441  -0.57730  -0.55146  -0.53971
 Alpha  occ. eigenvalues --   -0.53525  -0.52770  -0.52102  -0.51718  -0.51352
 Alpha  occ. eigenvalues --   -0.51038  -0.49778  -0.48541  -0.48046  -0.47229
 Alpha  occ. eigenvalues --   -0.46511  -0.46118  -0.45771  -0.40186  -0.38728
 Alpha virt. eigenvalues --    0.02106   0.03295   0.03585   0.04084   0.04911
 Alpha virt. eigenvalues --    0.05055   0.05356   0.06102   0.06437   0.07177
 Alpha virt. eigenvalues --    0.07226   0.07752   0.08353   0.08455   0.08712

 Mulliken charges:
               1
     1  C    1.027222
     2  C    0.428217
     3  C    0.955035
     4  C   -0.908685
     5  C    0.801763
     6  C    0.539584
     7  C    0.677511
     8  C    0.205042
     9  C    0.472848
    10  C    0.307309
    11  C    0.837522
    12  H   -0.004605
    13  H    0.261286
    14  H   -0.168549
    15  H   -0.097899
    16  H   -0.174279
    17  H   -0.115792
    18  H   -0.154166
    19  H   -0.082529
    20  H   -0.184054
    21  H   -0.036236
    22  H    0.201138
    23  H   -0.001659
    24  H    0.055122
    25  H   -0.186789
    26  H   -0.228929
    27  H   -0.243340
    28  H   -0.349527
    29  H    0.053210
    30  H   -0.013348
    31  H   -0.361562
    32  N   -0.362782
    33  N   -0.307335
    34  O   -0.520440
    35  O   -0.610831
    36  O   -0.461988
    37  O   -0.529322
    38  O   -0.718161
 Sum of Mulliken charges =  -0.00000

 Dipole moment (field-independent basis, Debye):
    X=             -0.8026    Y=              1.0533    Z=             -2.7129  Tot=              3.0188

 Test job not archived.
 1\1\GINC-SE096\SP\RHF\Aug-CC-pVDZ\C11H20N2O5\OHZDE\08-Apr-2025\0\\#t h
 f aug-cc-pvdz iop(5/13=1,5/36=2,99/5=2) pseudo=read geom=check guess=(
 read,tcheck) scf=(maxcycle=1)\\title\\0,1\C,0,-1.16711,2.1076,0.534583
 \C,0,1.72792,-2.25349,-0.55647\C,0,1.61599,-1.83855,1.96204\C,0,2.2052
 5,-1.40547,0.601604\C,0,3.11205,0.332267,-0.688815\C,0,0.230531,-2.041
 62,-0.886301\C,0,-3.59285,-0.850358,-0.424685\C,0,-2.90877,0.199513,0.
 480801\C,0,-2.11937,1.22192,-0.382301\C,0,0.0157041,1.21954,1.03726\C,
 0,2.08168,0.104294,0.391016\H,0,1.67533,-2.9402,1.99985\H,0,3.14079,1.

 Normal termination of Gaussian 16 at Tue Apr  8 21:40:07 2025.
