 Gaussian 16, Revision C.01,

 ----------------------------------------------------------------------
 #t hf aug-cc-pvdz symm=none int=(grid=ultrafine) guess=(read,tcheck) s
 table=(opt,rrhf)
 ----------------------------------------------------------------------
 -----
 title
 -----
 Symbolic Z-matrix:
 Charge =  0 Multiplicity = 1

 SCF Done:  E(RHF) =  -380.215308408     A.U. after   11 cycles
 Normal termination of Gaussian 16 at Tue Apr  8 21:04:27 2025.
 Gaussian 16:  ES64L-G16RevC.01  3-Jul-2019

 ----------------------------------------------------------------------
 #t hf aug-cc-pvdz iop(5/13=1,5/36=2,99/5=2) pseudo=read geom=check gue
 ss=(read,tcheck) scf=(maxcycle=1)
 ----------------------------------------------------------------------
 -----
 title
 -----
 Structure from the checkpoint file:  "ANI1ccx_1843_conf91_mol1.chk"
 Charge =  0 Multiplicity = 1

                         Standard orientation:
 ---------------------------------------------------------------------
 Center     Atomic      Atomic             Coordinates (Angstroms)
 Number     Number       Type             X           Y           Z
 ---------------------------------------------------------------------
      1          1           0        0.961626    1.326271    0.014589
      2          1           0        0.144878    2.713610   -0.261326
      3          1           0        1.797092   -0.701566   -0.246620
      4          1           0        2.775402    0.161804    0.695484
      5          1           0        0.233177   -2.697749   -0.302182
      6          1           0       -0.171290   -1.390080    0.557620
      7          1           0       -1.785958   -0.155148    0.632708
      8          1           0       -0.749337    0.528072    1.516309
      9          1           0       -0.928849   -0.559997   -1.323531
     10          1           0       -1.182359    0.891070   -0.879439
     11          8           0        0.063466    1.782110    0.122751
     12          8           0        2.269702    0.145507   -0.148552
     13          8           0        0.396930   -1.703549   -0.216700
     14          8           0       -1.235718   -0.336586    1.431559
     15          8           0       -1.631178    0.097982   -1.239511
 ---------------------------------------------------------------------

 SCF Done:  E(RHF) =  -380.339709391     A.U. after    2 cycles

 The electronic state is 1-A.
 Alpha  occ. eigenvalues --  -20.59549 -20.59441 -20.58480 -20.57159 -20.55035
 Alpha  occ. eigenvalues --   -1.32776  -1.31006  -1.30837  -1.29028  -1.28140
 Alpha  occ. eigenvalues --   -0.75734  -0.73857  -0.73467  -0.71350  -0.70671
 Alpha  occ. eigenvalues --   -0.64351  -0.61996  -0.60242  -0.59707  -0.56918
 Alpha  occ. eigenvalues --   -0.54038  -0.53400  -0.52842  -0.52034  -0.49681
 Alpha virt. eigenvalues --    0.02727   0.04149   0.04864   0.06797   0.07468
 Alpha virt. eigenvalues --    0.07776   0.08211   0.08963   0.09511   0.10703
 Alpha virt. eigenvalues --    0.16123   0.17900   0.19027   0.20672   0.21463

 Mulliken charges:
               1
     1  H    0.327176
     2  H    0.252882
     3  H    0.259568
     4  H    0.210839
     5  H    0.266921
     6  H    0.323275
     7  H    0.270287
     8  H    0.245052
     9  H    0.209780
    10  H    0.258018
    11  O   -0.606223
    12  O   -0.438739
    13  O   -0.652674
    14  O   -0.512383
    15  O   -0.413778
 Sum of Mulliken charges =  -0.00000

 Dipole moment (field-independent basis, Debye):
    X=              2.7100    Y=              0.1190    Z=              1.0158  Tot=              2.8966

 Test job not archived.
 1\1\GINC-SE249\SP\RHF\Aug-CC-pVDZ\H10O5\OHZDE\08-Apr-2025\0\\#t hf aug
 -cc-pvdz iop(5/13=1,5/36=2,99/5=2) pseudo=read geom=check guess=(read,
 tcheck) scf=(maxcycle=1)\\title\\0,1\H,0,0.961625,1.32627,0.0145896\H,
 0,0.144878,2.71361,-0.261325\H,0,1.79709,-0.701568,-0.246619\H,0,2.775
 4,0.161801,0.695485\H,0,0.233173,-2.69775,-0.302181\H,0,-0.171293,-1.3
 9008,0.557621\H,0,-1.78596,-0.155147,0.632709\H,0,-0.749338,0.528072,1
 .51631\H,0,-0.928851,-0.559997,-1.32353\H,0,-1.18236,0.891071,-0.87943
 8\O,0,0.0634656,1.78211,0.122752\O,0,2.2697,0.145505,-0.148551\O,0,0.3

 Normal termination of Gaussian 16 at Tue Apr  8 21:04:31 2025.
