 Gaussian 16, Revision C.01,

 ----------------------------------------------------------------------
 #t hf aug-cc-pvdz symm=none int=(grid=ultrafine) guess=(read,tcheck) s
 table=(opt,rrhf)
 ----------------------------------------------------------------------
 -----
 title
 -----
 Symbolic Z-matrix:
 Charge =  0 Multiplicity = 1

 SCF Done:  E(RHF) =  -637.356264141     A.U. after   15 cycles
 Normal termination of Gaussian 16 at Tue Apr  8 19:43:04 2025.
 Gaussian 16:  ES64L-G16RevC.01  3-Jul-2019

 ----------------------------------------------------------------------
 #t hf aug-cc-pvdz iop(5/13=1,5/36=2,99/5=2) pseudo=read geom=check gue
 ss=(read,tcheck) scf=(maxcycle=1)
 ----------------------------------------------------------------------
 -----
 title
 -----
 Structure from the checkpoint file:  "ANI1ccx_1522_conf2_mol2.chk"
 Charge =  0 Multiplicity = 1

                         Standard orientation:
 ---------------------------------------------------------------------
 Center     Atomic      Atomic             Coordinates (Angstroms)
 Number     Number       Type             X           Y           Z
 ---------------------------------------------------------------------
      1          6           0        1.606342    0.678867    0.018169
      2          6           0        2.392468   -1.480734   -0.192921
      3          6           0        0.135599   -1.171370    0.006718
      4          6           0       -2.117421   -1.174056    0.650146
      5          6           0       -2.780319   -0.234847   -0.361144
      6          6           0       -0.797055    1.246951   -0.037024
      7          6           0        0.250108    0.221722   -0.042395
      8          1           0       -2.630046    1.874215   -0.526100
      9          1           0       -2.761900   -0.738168   -1.342100
     10          1           0       -3.815139   -0.041250   -0.126107
     11          1           0       -2.796523   -1.984345    0.813955
     12          1           0       -1.836870   -0.706865    1.582060
     13          1           0        3.183407   -2.177416   -0.421976
     14          1           0        2.971015    2.118135    0.202154
     15          1           0        1.298486    2.647248    0.384796
     16          7           0        1.981194    1.957127    0.146339
     17          7           0        2.680291   -0.206722   -0.094873
     18          7           0        1.196147   -1.986492   -0.080428
     19          7           0       -2.077577    1.049474   -0.464547
     20          8           0       -0.988210   -1.878278    0.096533
     21          8           0       -0.538184    2.477721    0.233291
 ---------------------------------------------------------------------

 SCF Done:  E(RHF) =  -637.543667422     A.U. after    2 cycles

 The electronic state is 1-A.
 Alpha  occ. eigenvalues --  -20.63352 -20.53793 -15.66168 -15.64251 -15.61583
 Alpha  occ. eigenvalues --  -15.60665 -11.39134 -11.38692 -11.36748 -11.32743
 Alpha  occ. eigenvalues --  -11.32637 -11.30796 -11.26756  -1.42108  -1.33411
 Alpha  occ. eigenvalues --   -1.28479  -1.21666  -1.20759  -1.12493  -1.07479
 Alpha  occ. eigenvalues --   -1.03644  -0.94660  -0.88966  -0.86005  -0.82661
 Alpha  occ. eigenvalues --   -0.77165  -0.76451  -0.72194  -0.71471  -0.67664
 Alpha  occ. eigenvalues --   -0.66381  -0.66099  -0.64281  -0.63248  -0.60875
 Alpha  occ. eigenvalues --   -0.59787  -0.58423  -0.55454  -0.54398  -0.52892
 Alpha  occ. eigenvalues --   -0.48488  -0.47144  -0.44435  -0.40602  -0.40452
 Alpha  occ. eigenvalues --   -0.38817  -0.34248
 Alpha virt. eigenvalues --    0.02318   0.04000   0.04011   0.04195   0.05263
 Alpha virt. eigenvalues --    0.05597   0.06857   0.07574   0.08138   0.08911
 Alpha virt. eigenvalues --    0.10368   0.10720   0.11327   0.12172   0.12385

 Mulliken charges:
               1
     1  C    0.222706
     2  C    0.519829
     3  C    0.501096
     4  C    0.733289
     5  C    0.799120
     6  C    0.135770
     7  C    1.222991
     8  H   -0.119861
     9  H   -0.124024
    10  H   -0.190074
    11  H   -0.289839
    12  H   -0.096256
    13  H   -0.383230
    14  H   -0.031006
    15  H    0.077648
    16  N   -0.105107
    17  N   -0.572226
    18  N   -0.579636
    19  N   -0.329560
    20  O   -0.633362
    21  O   -0.758268
 Sum of Mulliken charges =  -0.00000

 Dipole moment (field-independent basis, Debye):
    X=             -3.6760    Y=              0.0499    Z=              0.4320  Tot=              3.7017

 Test job not archived.
 1\1\GINC-SE458\SP\RHF\Aug-CC-pVDZ\C7H8N4O2\OHZDE\08-Apr-2025\0\\#t hf
 aug-cc-pvdz iop(5/13=1,5/36=2,99/5=2) pseudo=read geom=check guess=(re
 ad,tcheck) scf=(maxcycle=1)\\title\\0,1\C,0,1.60634,0.67887,0.0181693\
 C,0,2.39247,-1.48073,-0.192921\C,0,0.1356,-1.17137,0.00671786\C,0,-2.1
 1742,-1.17406,0.650146\C,0,-2.78032,-0.234852,-0.361144\C,0,-0.797058,
 1.24695,-0.0370242\C,0,0.250107,0.221722,-0.0423951\H,0,-2.63005,1.874
 21,-0.5261\H,0,-2.7619,-0.738173,-1.3421\H,0,-3.81514,-0.0412569,-0.12
 6107\H,0,-2.79652,-1.98435,0.813955\H,0,-1.83687,-0.706868,1.58206\H,0

 Normal termination of Gaussian 16 at Tue Apr  8 19:43:20 2025.
