 Gaussian 16, Revision C.01,

 ----------------------------------------------------------------------
 #t hf aug-cc-pvdz symm=none int=(grid=ultrafine) guess=(read,tcheck) s
 table=(opt,rrhf)
 ----------------------------------------------------------------------
 -----
 title
 -----
 Symbolic Z-matrix:
 Charge =  0 Multiplicity = 1

 SCF Done:  E(RHF) =  -256.788963846     A.U. after   15 cycles
 Normal termination of Gaussian 16 at Tue Apr  8 21:24:28 2025.
 Gaussian 16:  ES64L-G16RevC.01  3-Jul-2019

 ----------------------------------------------------------------------
 #t hf aug-cc-pvdz iop(5/13=1,5/36=2,99/5=2) pseudo=read geom=check gue
 ss=(read,tcheck) scf=(maxcycle=1)
 ----------------------------------------------------------------------
 -----
 title
 -----
 Structure from the checkpoint file:  "ANI1ccx_377_conf58_mol1.chk"
 Charge =  0 Multiplicity = 1

                         Standard orientation:
 ---------------------------------------------------------------------
 Center     Atomic      Atomic             Coordinates (Angstroms)
 Number     Number       Type             X           Y           Z
 ---------------------------------------------------------------------
      1          6           0        1.075710   -0.306590    0.003554
      2          1           0        2.028392   -0.702349    0.085866
      3          1           0       -1.949558   -0.579636    0.065062
      4          7           0        0.646945    0.985560    0.002797
      5          7           0       -0.638126    0.948714   -0.016706
      6          7           0       -1.000599   -0.358432    0.020661
      7          7           0        0.058480   -1.129910   -0.031360
 ---------------------------------------------------------------------

 SCF Done:  E(RHF) =  -256.860558498     A.U. after    2 cycles

 The electronic state is 1-A.
 Alpha  occ. eigenvalues --  -15.76766 -15.74190 -15.70116 -15.68883 -11.31640
 Alpha  occ. eigenvalues --   -1.46386  -1.23760  -1.16135  -0.91529  -0.88194
 Alpha  occ. eigenvalues --   -0.78895  -0.68244  -0.67590  -0.57455  -0.49332
 Alpha  occ. eigenvalues --   -0.46530  -0.45284  -0.40917
 Alpha virt. eigenvalues --    0.02916   0.03819   0.08378   0.08499   0.11219
 Alpha virt. eigenvalues --    0.11676   0.12354   0.15137   0.16442   0.16871
 Alpha virt. eigenvalues --    0.17734   0.18856   0.19823   0.20249   0.21776

 Mulliken charges:
               1
     1  C    0.994596
     2  H   -0.264678
     3  H    0.014498
     4  N   -0.349735
     5  N   -0.181767
     6  N    0.137217
     7  N   -0.350130
 Sum of Mulliken charges =  -0.00000

 Dipole moment (field-independent basis, Debye):
    X=             -1.1855    Y=             -1.8674    Z=              0.2033  Tot=              2.2212

 Test job not archived.
 1\1\GINC-SE368\SP\RHF\Aug-CC-pVDZ\C1H2N4\OHZDE\08-Apr-2025\0\\#t hf au
 g-cc-pvdz iop(5/13=1,5/36=2,99/5=2) pseudo=read geom=check guess=(read
 ,tcheck) scf=(maxcycle=1)\\title\\0,1\C,0,1.07571,-0.306595,0.00355382
 \H,0,2.02839,-0.702359,0.0858662\H,0,-1.94956,-0.579626,0.0650624\N,0,
 0.646951,0.985557,0.00279731\N,0,-0.63812,0.948717,-0.0167056\N,0,-1.0
 006,-0.358427,0.0206613\N,0,0.0584759,-1.12991,-0.0313604\\Version=ES6
 4L-G16RevC.01\State=1-A\HF=-256.8605585\RMSD=3.283e-03\Dipole=-0.46641
 13,-0.734687,0.0799708\Quadrupole=5.605819,-5.0169017,-0.5889174,0.304

 Normal termination of Gaussian 16 at Tue Apr  8 21:24:30 2025.
