 Gaussian 16, Revision C.01,

 ----------------------------------------------------------------------
 #t hf aug-cc-pvdz symm=none int=(grid=ultrafine) guess=(read,tcheck) s
 table=(opt,rrhf)
 ----------------------------------------------------------------------
 -----
 title
 -----
 Symbolic Z-matrix:
 Charge =  0 Multiplicity = 1

 SCF Done:  E(RHF) =  -374.212334115     A.U. after   13 cycles
 Normal termination of Gaussian 16 at Tue Apr  8 21:40:05 2025.
 Gaussian 16:  ES64L-G16RevC.01  3-Jul-2019

 ----------------------------------------------------------------------
 #t hf aug-cc-pvdz iop(5/13=1,5/36=2,99/5=2) pseudo=read geom=check gue
 ss=(read,tcheck) scf=(maxcycle=1)
 ----------------------------------------------------------------------
 -----
 title
 -----
 Structure from the checkpoint file:  "ANI1ccx_461_conf1_mol1.chk"
 Charge =  0 Multiplicity = 1

                         Standard orientation:
 ---------------------------------------------------------------------
 Center     Atomic      Atomic             Coordinates (Angstroms)
 Number     Number       Type             X           Y           Z
 ---------------------------------------------------------------------
      1          6           0        1.529730   -0.029406    0.806289
      2          6           0       -0.896440    0.144585    0.223779
      3          1           0        3.871290    0.206795   -1.632730
      4          1           0        3.784170   -0.854457   -0.549118
      5          1           0       -2.966550    0.862594   -0.851447
      6          1           0       -1.785800   -1.657991   -0.338069
      7          1           0       -3.977900   -0.141384   -0.078285
      8          1           0        0.058270   -1.399990    1.071480
      9          1           0        1.454460    0.385850    1.836680
     10          1           0        2.291140   -0.845511    0.882850
     11          1           0        1.903570    0.790970    0.181928
     12          1           0       -0.137029    1.899620    0.340972
     13          7           0       -3.173450   -0.122353   -0.698638
     14          7           0        0.271856   -0.682062    0.403705
     15          7           0       -1.003770    1.417460    0.189205
     16          7           0       -1.970420   -0.673152   -0.108710
     17          8           0        4.104390    0.060398   -0.692949
 ---------------------------------------------------------------------

 SCF Done:  E(RHF) =  -374.328668320     A.U. after    2 cycles

 The electronic state is 1-A.
 Alpha  occ. eigenvalues --  -20.59081 -15.66090 -15.64749 -15.64392 -15.58353
 Alpha  occ. eigenvalues --  -11.36236 -11.27831  -1.31446  -1.27549  -1.19121
 Alpha  occ. eigenvalues --   -1.12231  -1.03016  -0.91526  -0.79189  -0.72764
 Alpha  occ. eigenvalues --   -0.72494  -0.67421  -0.65952  -0.61958  -0.61177
 Alpha  occ. eigenvalues --   -0.60932  -0.58099  -0.55455  -0.53322  -0.51481
 Alpha  occ. eigenvalues --   -0.45203  -0.42407  -0.38149  -0.33908
 Alpha virt. eigenvalues --    0.02450   0.03442   0.04326   0.04414   0.06122
 Alpha virt. eigenvalues --    0.06709   0.07506   0.08103   0.08633   0.10514
 Alpha virt. eigenvalues --    0.11536   0.13671   0.15071   0.15447   0.15784

 Mulliken charges:
               1
     1  C    0.787944
     2  C    0.881873
     3  H    0.176675
     4  H    0.181994
     5  H    0.026355
     6  H   -0.014289
     7  H    0.079049
     8  H    0.009932
     9  H   -0.073241
    10  H   -0.226152
    11  H   -0.206563
    12  H   -0.016717
    13  N   -0.061850
    14  N   -0.490777
    15  N   -0.337863
    16  N   -0.360405
    17  O   -0.355966
 Sum of Mulliken charges =   0.00000

 Dipole moment (field-independent basis, Debye):
    X=              0.9449    Y=             -2.8133    Z=              0.5556  Tot=              3.0193

 Test job not archived.
 1\1\GINC-SE083\SP\RHF\Aug-CC-pVDZ\C2H10N4O1\OHZDE\08-Apr-2025\0\\#t hf
  aug-cc-pvdz iop(5/13=1,5/36=2,99/5=2) pseudo=read geom=check guess=(r
 ead,tcheck) scf=(maxcycle=1)\\title\\0,1\C,0,1.52973,-0.0294062,0.8062
 89\C,0,-0.89644,0.144585,0.223779\H,0,3.87129,0.206795,-1.63273\H,0,3.
 78417,-0.854457,-0.549118\H,0,-2.96655,0.862595,-0.851447\H,0,-1.7858,
 -1.65799,-0.338069\H,0,-3.9779,-0.141383,-0.0782848\H,0,0.0582699,-1.3
 9999,1.07148\H,0,1.45446,0.38585,1.83668\H,0,2.29114,-0.845511,0.88285
 \H,0,1.90357,0.79097,0.181928\H,0,-0.137029,1.89962,0.340972\N,0,-3.17

 Normal termination of Gaussian 16 at Tue Apr  8 21:40:11 2025.
