 Gaussian 16, Revision C.01,

 ----------------------------------------------------------------------
 #t hf aug-cc-pvdz symm=none int=(grid=ultrafine) guess=(read,tcheck) s
 table=(opt,rrhf)
 ----------------------------------------------------------------------
 -----
 title
 -----
 Symbolic Z-matrix:
 Charge =  0 Multiplicity = 1

 SCF Done:  E(RHF) =  -356.582236422     A.U. after   15 cycles
 Normal termination of Gaussian 16 at Tue Apr  8 21:42:47 2025.
 Gaussian 16:  ES64L-G16RevC.01  3-Jul-2019

 ----------------------------------------------------------------------
 #t hf aug-cc-pvdz iop(5/13=1,5/36=2,99/5=2) pseudo=read geom=check gue
 ss=(read,tcheck) scf=(maxcycle=1)
 ----------------------------------------------------------------------
 -----
 title
 -----
 Structure from the checkpoint file:  "ANI1ccx_498_conf2_mol1.chk"
 Charge =  0 Multiplicity = 1

                         Standard orientation:
 ---------------------------------------------------------------------
 Center     Atomic      Atomic             Coordinates (Angstroms)
 Number     Number       Type             X           Y           Z
 ---------------------------------------------------------------------
      1          6           0        0.734059   -0.124138   -0.106389
      2          6           0       -0.716507    0.058061   -0.053722
      3          1           0        2.344378    0.781212    0.769426
      4          1           0        0.816208    1.796211    0.572755
      5          1           0       -2.232881   -0.392747    0.944683
      6          7           0        1.407528    0.913818    0.491189
      7          8           0        1.217059   -1.153059   -0.532850
      8          8           0       -1.305471   -0.631626    0.807007
      9          8           0       -1.272302    0.761567   -0.869722
 ---------------------------------------------------------------------

 SCF Done:  E(RHF) =  -356.698174998     A.U. after    2 cycles

 The electronic state is 1-A.
 Alpha  occ. eigenvalues --  -20.66304 -20.57935 -20.56956 -15.67935 -11.41885
 Alpha  occ. eigenvalues --  -11.39532  -1.49593  -1.37716  -1.35310  -1.20307
 Alpha  occ. eigenvalues --   -0.99292  -0.86302  -0.76300  -0.75251  -0.73535
 Alpha  occ. eigenvalues --   -0.69361  -0.66679  -0.62652  -0.59601  -0.52821
 Alpha  occ. eigenvalues --   -0.51795  -0.46012  -0.44107
 Alpha virt. eigenvalues --    0.02475   0.03370   0.05180   0.09189   0.10319
 Alpha virt. eigenvalues --    0.10748   0.11479   0.12781   0.12966   0.14132
 Alpha virt. eigenvalues --    0.14869   0.15665   0.17088   0.18443   0.19212

 Mulliken charges:
               1
     1  C    0.659788
     2  C    0.513606
     3  H   -0.047907
     4  H    0.148920
     5  H    0.192842
     6  N   -0.239007
     7  O   -0.456167
     8  O   -0.320472
     9  O   -0.451602
 Sum of Mulliken charges =  -0.00000

 Dipole moment (field-independent basis, Debye):
    X=             -0.5732    Y=              2.6087    Z=              3.8914  Tot=              4.7199

 Test job not archived.
 1\1\GINC-SE179\SP\RHF\Aug-CC-pVDZ\C2H3N1O3\OHZDE\08-Apr-2025\0\\#t hf
 aug-cc-pvdz iop(5/13=1,5/36=2,99/5=2) pseudo=read geom=check guess=(re
 ad,tcheck) scf=(maxcycle=1)\\title\\0,1\C,0,0.73406,-0.124139,-0.10638
 9\C,0,-0.716506,0.0580612,-0.053722\H,0,2.34438,0.78121,0.769426\H,0,0
 .81621,1.79621,0.572755\H,0,-2.23288,-0.392746,0.944683\N,0,1.40753,0.
 913817,0.491189\O,0,1.21706,-1.15306,-0.53285\O,0,-1.30547,-0.631626,0
 .807007\O,0,-1.2723,0.761567,-0.869722\\Version=ES64L-G16RevC.01\State
 =1-A\HF=-356.698175\RMSD=3.537e-03\Dipole=-0.2255165,1.0263299,1.53101

 Normal termination of Gaussian 16 at Tue Apr  8 21:42:51 2025.
