 Gaussian 16, Revision C.01,

 ----------------------------------------------------------------------
 #t hf aug-cc-pvdz symm=none int=(grid=ultrafine) guess=(read,tcheck) s
 table=(opt,rrhf)
 ----------------------------------------------------------------------
 -----
 title
 -----
 Symbolic Z-matrix:
 Charge =  0 Multiplicity = 1

 SCF Done:  E(RHF) =  -452.148414101     A.U. after   16 cycles
 Normal termination of Gaussian 16 at Tue Apr  8 21:55:02 2025.
 Gaussian 16:  ES64L-G16RevC.01  3-Jul-2019

 ----------------------------------------------------------------------
 #t hf aug-cc-pvdz iop(5/13=1,5/36=2,99/5=2) pseudo=read geom=check gue
 ss=(read,tcheck) scf=(maxcycle=1)
 ----------------------------------------------------------------------
 -----
 title
 -----
 Structure from the checkpoint file:  "ANI1ccx_859_conf1_mol2.chk"
 Charge =  0 Multiplicity = 1

                         Standard orientation:
 ---------------------------------------------------------------------
 Center     Atomic      Atomic             Coordinates (Angstroms)
 Number     Number       Type             X           Y           Z
 ---------------------------------------------------------------------
      1          6           0       -1.390280   -0.001117    0.024748
      2          6           0       -0.541223    1.269890    0.099043
      3          6           0        0.847451    0.763004   -0.067185
      4          6           0        0.746294   -0.762814   -0.011127
      5          1           0       -0.705509    1.849480    1.021940
      6          1           0       -0.924143    1.988720   -0.724724
      7          8           0       -2.575680   -0.117893   -0.080957
      8          8           0        1.922591    1.274778   -0.047035
      9          8           0        1.650879   -1.508042    0.015483
     10          8           0       -0.540765   -1.080340    0.041248
 ---------------------------------------------------------------------

 SCF Done:  E(RHF) =  -452.290499653     A.U. after    2 cycles

 The electronic state is 1-A.
 Alpha  occ. eigenvalues --  -20.69412 -20.63766 -20.62301 -20.61685 -11.46190
 Alpha  occ. eigenvalues --  -11.43930 -11.40625 -11.33098  -1.52420  -1.43955
 Alpha  occ. eigenvalues --   -1.42142  -1.39273  -1.12235  -0.99103  -0.90902
 Alpha  occ. eigenvalues --   -0.82199  -0.75940  -0.75707  -0.73372  -0.71172
 Alpha  occ. eigenvalues --   -0.69397  -0.66126  -0.64156  -0.62657  -0.58505
 Alpha  occ. eigenvalues --   -0.55555  -0.53590  -0.51626  -0.47582
 Alpha virt. eigenvalues --    0.01927   0.02417   0.04074   0.06482   0.07225
 Alpha virt. eigenvalues --    0.08673   0.08968   0.10373   0.10672   0.11188
 Alpha virt. eigenvalues --    0.11777   0.12987   0.14047   0.14431   0.14813

 Mulliken charges:
               1
     1  C    0.665420
     2  C   -0.199244
     3  C    0.298507
     4  C    0.519738
     5  H    0.096216
     6  H    0.240072
     7  O   -0.403291
     8  O   -0.400994
     9  O   -0.317564
    10  O   -0.498860
 Sum of Mulliken charges =  -0.00000

 Dipole moment (field-independent basis, Debye):
    X=             -1.6302    Y=              3.2827    Z=              0.2543  Tot=              3.6741

 Test job not archived.
 1\1\GINC-SE044\SP\RHF\Aug-CC-pVDZ\C4H2O4\OHZDE\08-Apr-2025\0\\#t hf au
 g-cc-pvdz iop(5/13=1,5/36=2,99/5=2) pseudo=read geom=check guess=(read
 ,tcheck) scf=(maxcycle=1)\\title\\0,1\C,0,-1.39028,-0.0011167,0.024747
 7\C,0,-0.541224,1.26989,0.0990429\C,0,0.84745,0.763005,-0.0671846\C,0,
 0.746294,-0.762813,-0.0111269\H,0,-0.70551,1.84948,1.02194\H,0,-0.9241
 44,1.98872,-0.724724\O,0,-2.57568,-0.117894,-0.0809566\O,0,1.92259,1.2
 7478,-0.0470355\O,0,1.65088,-1.50804,0.0154825\O,0,-0.540765,-1.08034,
 0.0412482\\Version=ES64L-G16RevC.01\State=1-A\HF=-452.2904997\RMSD=4.8

 Normal termination of Gaussian 16 at Tue Apr  8 21:55:06 2025.
