 Gaussian 16, Revision C.01,

 ----------------------------------------------------------------------
 #t hf aug-cc-pvdz symm=none int=(grid=ultrafine) guess=(read,tcheck) s
 table=(opt,rrhf)
 ----------------------------------------------------------------------
 -----
 title
 -----
 Symbolic Z-matrix:
 Charge =  0 Multiplicity = 1

 SCF Done:  E(RHF) =  -348.527947029     A.U. after   16 cycles
 Normal termination of Gaussian 16 at Tue Apr  8 21:40:46 2025.
 Gaussian 16:  ES64L-G16RevC.01  3-Jul-2019

 ----------------------------------------------------------------------
 #t hf aug-cc-pvdz iop(5/13=1,5/36=2,99/5=2) pseudo=read geom=check gue
 ss=(read,tcheck) scf=(maxcycle=1)
 ----------------------------------------------------------------------
 -----
 title
 -----
 Structure from the checkpoint file:  "ANI1ccx_476_conf2_mol2.chk"
 Charge =  0 Multiplicity = 1

                         Standard orientation:
 ---------------------------------------------------------------------
 Center     Atomic      Atomic             Coordinates (Angstroms)
 Number     Number       Type             X           Y           Z
 ---------------------------------------------------------------------
      1          6           0        1.720031    0.023347   -0.038486
      2          6           0        0.294802    0.034842   -0.059429
      3          1           0       -2.444448   -1.149921    0.126492
      4          7           0        2.860541   -0.033910    0.057692
      5          7           0       -0.493850    1.138199   -0.007956
      6          7           0       -1.707939    0.714209    0.025647
      7          7           0       -1.618669   -0.601299    0.010998
      8          7           0       -0.417877   -1.102801   -0.020522
 ---------------------------------------------------------------------

 SCF Done:  E(RHF) =  -348.623278363     A.U. after    2 cycles

 The electronic state is 1-A.
 Alpha  occ. eigenvalues --  -15.81070 -15.77484 -15.74975 -15.72395 -15.67375
 Alpha  occ. eigenvalues --  -11.38246 -11.31871  -1.51545  -1.28269  -1.23567
 Alpha  occ. eigenvalues --   -1.19496  -0.97260  -0.94255  -0.83757  -0.74906
 Alpha  occ. eigenvalues --   -0.72898  -0.62041  -0.57664  -0.54429  -0.54012
 Alpha  occ. eigenvalues --   -0.51428  -0.49225  -0.48581  -0.42356
 Alpha virt. eigenvalues --    0.01774   0.06785   0.07269   0.07942   0.08503
 Alpha virt. eigenvalues --    0.10065   0.10815   0.11069   0.12759   0.13238
 Alpha virt. eigenvalues --    0.14142   0.15148   0.16171   0.17250   0.17988

 Mulliken charges:
               1
     1  C   -0.772263
     2  C    1.633642
     3  H    0.023508
     4  N   -0.023861
     5  N   -0.444881
     6  N   -0.120729
     7  N    0.275595
     8  N   -0.571011
 Sum of Mulliken charges =  -0.00000

 Dipole moment (field-independent basis, Debye):
    X=             -4.5920    Y=             -2.1044    Z=              0.0254  Tot=              5.0513

 Test job not archived.
 1\1\GINC-SE364\SP\RHF\Aug-CC-pVDZ\C2H1N5\OHZDE\08-Apr-2025\0\\#t hf au
 g-cc-pvdz iop(5/13=1,5/36=2,99/5=2) pseudo=read geom=check guess=(read
 ,tcheck) scf=(maxcycle=1)\\title\\0,1\C,0,1.72003,0.0233471,-0.0384863
 \C,0,0.294801,0.034843,-0.0594293\H,0,-2.44445,-1.14992,0.126492\N,0,2
 .86054,-0.0339096,0.0576916\N,0,-0.493851,1.1382,-0.00795643\N,0,-1.70
 794,0.71421,0.025647\N,0,-1.61867,-0.601298,0.0109976\N,0,-0.417879,-1
 .1028,-0.0205223\\Version=ES64L-G16RevC.01\State=1-A\HF=-348.6232784\R
 MSD=5.709e-03\Dipole=-1.8066367,-0.8279423,0.0100006\Quadrupole=-1.213

 Normal termination of Gaussian 16 at Tue Apr  8 21:40:49 2025.
