 Gaussian 16, Revision C.01,

 ----------------------------------------------------------------------
 #t hf aug-cc-pvdz symm=none int=(grid=ultrafine) guess=(read,tcheck) s
 table=(opt,rrhf)
 ----------------------------------------------------------------------
 -----
 title
 -----
 Symbolic Z-matrix:
 Charge =  0 Multiplicity = 1

 SCF Done:  E(RHF) =  -451.834752125     A.U. after   13 cycles
 Normal termination of Gaussian 16 at Tue Apr  8 21:52:15 2025.
 Gaussian 16:  ES64L-G16RevC.01  3-Jul-2019

 ----------------------------------------------------------------------
 #t hf aug-cc-pvdz iop(5/13=1,5/36=2,99/5=2) pseudo=read geom=check gue
 ss=(read,tcheck) scf=(maxcycle=1)
 ----------------------------------------------------------------------
 -----
 title
 -----
 Structure from the checkpoint file:  "ANI1ccx_764_conf11_mol2.chk"
 Charge =  0 Multiplicity = 1

                         Standard orientation:
 ---------------------------------------------------------------------
 Center     Atomic      Atomic             Coordinates (Angstroms)
 Number     Number       Type             X           Y           Z
 ---------------------------------------------------------------------
      1          6           0       -2.249851    0.005743    0.314303
      2          6           0        0.110690    0.728257    0.067479
      3          6           0        1.857649   -0.779873    0.525697
      4          1           0       -2.380221   -0.987217   -1.340290
      5          1           0       -2.029761   -0.307204    1.352840
      6          1           0       -3.177051    0.594834    0.228499
      7          1           0       -1.484602    1.898609   -0.279502
      8          1           0       -0.161126   -1.267700    0.089030
      9          1           0        2.246199   -0.172911    1.387420
     10          1           0        2.033700   -1.831549    0.795452
     11          1           0        2.426289    0.406749   -0.826330
     12          7           0       -1.226991    0.924390   -0.121331
     13          7           0        0.437748   -0.539632    0.451671
     14          8           0       -2.270301   -1.201821   -0.410456
     15          8           0        0.918174    1.670160   -0.054575
     16          8           0        2.569669   -0.562299   -0.680515
 ---------------------------------------------------------------------

 SCF Done:  E(RHF) =  -451.976417699     A.U. after    2 cycles

 The electronic state is 1-A.
 Alpha  occ. eigenvalues --  -20.61069 -20.56830 -20.54057 -15.66179 -15.65301
 Alpha  occ. eigenvalues --  -11.40251 -11.35924 -11.32707  -1.37867  -1.36078
 Alpha  occ. eigenvalues --   -1.31592  -1.22347  -1.17927  -0.95966  -0.91858
 Alpha  occ. eigenvalues --   -0.81035  -0.78542  -0.73598  -0.70823  -0.68198
 Alpha  occ. eigenvalues --   -0.67232  -0.64791  -0.63203  -0.61912  -0.58677
 Alpha  occ. eigenvalues --   -0.55790  -0.53375  -0.52013  -0.47506  -0.46428
 Alpha  occ. eigenvalues --   -0.42953  -0.42073
 Alpha virt. eigenvalues --    0.02392   0.03811   0.03900   0.04947   0.06189
 Alpha virt. eigenvalues --    0.06686   0.07710   0.09536   0.10682   0.11092
 Alpha virt. eigenvalues --    0.12128   0.13116   0.13367   0.14457   0.15243

 Mulliken charges:
               1
     1  C    1.138100
     2  C    0.652759
     3  C    0.981354
     4  H    0.155329
     5  H   -0.119703
     6  H   -0.201634
     7  H   -0.056059
     8  H   -0.001895
     9  H   -0.080293
    10  H   -0.254878
    11  H    0.211191
    12  N   -0.422157
    13  N   -0.313066
    14  O   -0.537000
    15  O   -0.578233
    16  O   -0.573814
 Sum of Mulliken charges =  -0.00000

 Dipole moment (field-independent basis, Debye):
    X=             -4.6751    Y=             -0.4067    Z=              0.4741  Tot=              4.7166

 Test job not archived.
 1\1\GINC-SE097\SP\RHF\Aug-CC-pVDZ\C3H8N2O3\OHZDE\08-Apr-2025\0\\#t hf
 aug-cc-pvdz iop(5/13=1,5/36=2,99/5=2) pseudo=read geom=check guess=(re
 ad,tcheck) scf=(maxcycle=1)\\title\\0,1\C,0,-2.24985,0.00574422,0.3143
 03\C,0,0.110691,0.728257,0.0674792\C,0,1.85765,-0.779874,0.525697\H,0,
 -2.38022,-0.987216,-1.34029\H,0,-2.02976,-0.307203,1.35284\H,0,-3.1770
 5,0.594835,0.228499\H,0,-1.4846,1.89861,-0.279502\H,0,-0.161126,-1.267
 7,0.0890303\H,0,2.2462,-0.172912,1.38742\H,0,2.0337,-1.83155,0.795452\
 H,0,2.42629,0.406748,-0.82633\N,0,-1.22699,0.924391,-0.121331\N,0,0.43

 Normal termination of Gaussian 16 at Tue Apr  8 21:52:22 2025.
