 Gaussian 16, Revision C.01,

 ----------------------------------------------------------------------
 #t hf aug-cc-pvdz symm=none int=(grid=ultrafine) guess=(read,tcheck) s
 table=(opt,rrhf)
 ----------------------------------------------------------------------
 -----
 title
 -----
 Symbolic Z-matrix:
 Charge =  0 Multiplicity = 1

 SCF Done:  E(RHF) =  -456.232005343     A.U. after   11 cycles
 Normal termination of Gaussian 16 at Tue Apr  8 21:06:41 2025.
 Gaussian 16:  ES64L-G16RevC.01  3-Jul-2019

 ----------------------------------------------------------------------
 #t hf aug-cc-pvdz iop(5/13=1,5/36=2,99/5=2) pseudo=read geom=check gue
 ss=(read,tcheck) scf=(maxcycle=1)
 ----------------------------------------------------------------------
 -----
 title
 -----
 Structure from the checkpoint file:  "ANI1ccx_1844_conf336_mol1.chk"
 Charge =  0 Multiplicity = 1

                         Standard orientation:
 ---------------------------------------------------------------------
 Center     Atomic      Atomic             Coordinates (Angstroms)
 Number     Number       Type             X           Y           Z
 ---------------------------------------------------------------------
      1          1           0       -2.302019   -0.449503    0.002476
      2          1           0       -0.704454   -1.986346   -0.010797
      3          1           0        0.142241   -3.211754   -0.588155
      4          1           0        2.731319   -1.510037    0.651385
      5          1           0        1.485105   -1.725852   -0.119979
      6          1           0       -0.487962    3.329269    0.543785
      7          1           0       -2.679097   -1.821555    0.792520
      8          1           0        0.893659    2.394921    0.054858
      9          1           0        2.733634    1.653333   -0.592509
     10          1           0        2.263657    0.305352   -0.002748
     11          1           0       -1.405197    1.561528   -0.165649
     12          1           0       -2.983727    1.560451   -0.588954
     13          8           0        2.336165   -1.226759   -0.196150
     14          8           0        2.293358    1.329692    0.221345
     15          8           0        0.152633   -2.448874    0.105737
     16          8           0       -0.135734    2.644352   -0.138855
     17          8           0       -2.285270   -1.454834   -0.055644
     18          8           0       -2.322046    1.143947    0.066537
 ---------------------------------------------------------------------

 SCF Done:  E(RHF) =  -456.382416699     A.U. after    2 cycles

 The electronic state is 1-A.
 Alpha  occ. eigenvalues --  -20.58083 -20.58069 -20.58031 -20.56768 -20.56623
 Alpha  occ. eigenvalues --  -20.55850  -1.32245  -1.30263  -1.29493  -1.27676
 Alpha  occ. eigenvalues --   -1.27386  -1.26103  -0.74512  -0.72420  -0.71817
 Alpha  occ. eigenvalues --   -0.71455  -0.70220  -0.69056  -0.64033  -0.62182
 Alpha  occ. eigenvalues --   -0.60959  -0.57540  -0.57252  -0.55120  -0.52680
 Alpha  occ. eigenvalues --   -0.52483  -0.51334  -0.51129  -0.50629  -0.50091
 Alpha virt. eigenvalues --    0.03126   0.04233   0.04800   0.06131   0.06250
 Alpha virt. eigenvalues --    0.06519   0.09244   0.09319   0.09550   0.09804
 Alpha virt. eigenvalues --    0.11789   0.11891   0.15480   0.18303   0.19543

 Mulliken charges:
               1
     1  H    0.316590
     2  H    0.279057
     3  H    0.239612
     4  H    0.183481
     5  H    0.302496
     6  H    0.230011
     7  H    0.201352
     8  H    0.361457
     9  H    0.170530
    10  H    0.388934
    11  H    0.336534
    12  H    0.216841
    13  O   -0.512958
    14  O   -0.538893
    15  O   -0.496464
    16  O   -0.602713
    17  O   -0.525548
    18  O   -0.550319
 Sum of Mulliken charges =  -0.00000

 Dipole moment (field-independent basis, Debye):
    X=             -0.9857    Y=             -0.0553    Z=             -0.0053  Tot=              0.9873

 Test job not archived.
 1\1\GINC-SE393\SP\RHF\Aug-CC-pVDZ\H12O6\OHZDE\08-Apr-2025\0\\#t hf aug
 -cc-pvdz iop(5/13=1,5/36=2,99/5=2) pseudo=read geom=check guess=(read,
 tcheck) scf=(maxcycle=1)\\title\\0,1\H,0,-2.30201,-0.44955,0.00247547\
 H,0,-0.704413,-1.98636,-0.0107966\H,0,0.142307,-3.21175,-0.588155\H,0,
 2.73135,-1.50998,0.651385\H,0,1.48514,-1.72582,-0.119979\H,0,-0.488031
 ,3.32926,0.543785\H,0,-2.67906,-1.82161,0.79252\H,0,0.893609,2.39494,0
 .0548581\H,0,2.7336,1.65339,-0.592509\H,0,2.26365,0.3054,-0.00274779\H
 ,0,-1.40523,1.5615,-0.165649\H,0,-2.98376,1.56039,-0.588954\O,0,2.3361

 Normal termination of Gaussian 16 at Tue Apr  8 21:06:46 2025.
