 Gaussian 16, Revision C.01,

 ----------------------------------------------------------------------
 #t hf aug-cc-pvdz symm=none int=(grid=ultrafine) guess=(read,tcheck) s
 table=(opt,rrhf)
 ----------------------------------------------------------------------
 -----
 title
 -----
 Symbolic Z-matrix:
 Charge =  0 Multiplicity = 1

 SCF Done:  E(RHF) =  -489.404618330     A.U. after   16 cycles
 Normal termination of Gaussian 16 at Tue Apr  8 19:21:03 2025.
 Gaussian 16:  ES64L-G16RevC.01  3-Jul-2019

 ----------------------------------------------------------------------
 #t hf aug-cc-pvdz iop(5/13=1,5/36=2,99/5=2) pseudo=read geom=check gue
 ss=(read,tcheck) scf=(maxcycle=1)
 ----------------------------------------------------------------------
 -----
 title
 -----
 Structure from the checkpoint file:  "ANI1ccx_1315_conf1_mol1.chk"
 Charge =  0 Multiplicity = 1

                         Standard orientation:
 ---------------------------------------------------------------------
 Center     Atomic      Atomic             Coordinates (Angstroms)
 Number     Number       Type             X           Y           Z
 ---------------------------------------------------------------------
      1          6           0        2.042691   -0.052188    0.011387
      2          6           0        1.419320    1.183070    0.086773
      3          6           0        0.047091    1.274820    0.054994
      4          6           0       -0.685906    0.091045   -0.070738
      5          6           0        1.207831   -1.187630   -0.009479
      6          6           0       -2.177750    0.089593   -0.012085
      7          1           0        3.922121   -0.955086    0.159881
      8          1           0        3.926060    0.755728    0.217518
      9          1           0        2.097920    2.023451    0.006621
     10          1           0       -0.361019    2.263340    0.117603
     11          1           0        1.708331   -2.177230   -0.100950
     12          1           0       -1.889129   -1.742091    0.187921
     13          7           0        3.416641   -0.094891   -0.072347
     14          7           0       -0.111720   -1.110030   -0.096571
     15          8           0       -2.684299   -1.144101    0.126275
     16          8           0       -2.773000    1.128359   -0.097684
 ---------------------------------------------------------------------

 SCF Done:  E(RHF) =  -489.551790808     A.U. after    2 cycles

 The electronic state is 1-A.
 Alpha  occ. eigenvalues --  -20.61098 -20.55159 -15.66998 -15.66739 -11.39084
 Alpha  occ. eigenvalues --  -11.32352 -11.30484 -11.29673 -11.27679 -11.27253
 Alpha  occ. eigenvalues --   -1.40941  -1.32676  -1.27043  -1.21337  -1.08920
 Alpha  occ. eigenvalues --   -1.03947  -0.90071  -0.89293  -0.82101  -0.78056
 Alpha  occ. eigenvalues --   -0.73937  -0.72529  -0.67147  -0.65334  -0.64744
 Alpha  occ. eigenvalues --   -0.64040  -0.62558  -0.58648  -0.57504  -0.56775
 Alpha  occ. eigenvalues --   -0.50643  -0.48903  -0.47258  -0.44547  -0.40074
 Alpha  occ. eigenvalues --   -0.32843
 Alpha virt. eigenvalues --    0.01774   0.02883   0.04118   0.05842   0.06210
 Alpha virt. eigenvalues --    0.06903   0.07508   0.08537   0.09108   0.09872
 Alpha virt. eigenvalues --    0.10688   0.12101   0.12163   0.12189   0.13142

 Mulliken charges:
               1
     1  C    0.496146
     2  C    0.117865
     3  C    0.873189
     4  C    0.459353
     5  C    0.614464
     6  C    0.443183
     7  H   -0.014755
     8  H    0.009182
     9  H   -0.555634
    10  H   -0.476716
    11  H   -0.335492
    12  H    0.261661
    13  N   -0.409340
    14  N   -0.545617
    15  O   -0.496029
    16  O   -0.441461
 Sum of Mulliken charges =   0.00000

 Dipole moment (field-independent basis, Debye):
    X=              8.0597    Y=             -0.8129    Z=              1.0098  Tot=              8.1633

 Test job not archived.
 1\1\GINC-SE048\SP\RHF\Aug-CC-pVDZ\C6H6N2O2\OHZDE\08-Apr-2025\0\\#t hf
 aug-cc-pvdz iop(5/13=1,5/36=2,99/5=2) pseudo=read geom=check guess=(re
 ad,tcheck) scf=(maxcycle=1)\\title\\0,1\C,0,2.04269,-0.0521886,0.01138
 67\C,0,1.41932,1.18307,0.0867732\C,0,0.0470909,1.27482,0.0549939\C,0,-
 0.685906,0.0910455,-0.0707378\C,0,1.20783,-1.18763,-0.00947941\C,0,-2.
 17775,0.089594,-0.0120853\H,0,3.92212,-0.955087,0.159881\H,0,3.92606,0
 .755727,0.217518\H,0,2.09792,2.02345,0.00662092\H,0,-0.361019,2.26334,
 0.117603\H,0,1.70833,-2.17723,-0.10095\H,0,-1.88913,-1.74209,0.187921\

 Normal termination of Gaussian 16 at Tue Apr  8 19:21:11 2025.
