 Gaussian 16, Revision C.01,

 ----------------------------------------------------------------------
 #t hf aug-cc-pvdz symm=none int=(grid=ultrafine) guess=(read,tcheck) s
 table=(opt,rrhf)
 ----------------------------------------------------------------------
 -----
 title
 -----
 Symbolic Z-matrix:
 Charge =  0 Multiplicity = 1

 SCF Done:  E(RHF) =  -689.302737940     A.U. after   15 cycles
 Normal termination of Gaussian 16 at Tue Apr  8 21:52:58 2025.
 Gaussian 16:  ES64L-G16RevC.01  3-Jul-2019

 ----------------------------------------------------------------------
 #t hf aug-cc-pvdz iop(5/13=1,5/36=2,99/5=2) pseudo=read geom=check gue
 ss=(read,tcheck) scf=(maxcycle=1)
 ----------------------------------------------------------------------
 -----
 title
 -----
 Structure from the checkpoint file:  "ANI1ccx_756_conf7_mol1.chk"
 Charge =  0 Multiplicity = 1

                         Standard orientation:
 ---------------------------------------------------------------------
 Center     Atomic      Atomic             Coordinates (Angstroms)
 Number     Number       Type             X           Y           Z
 ---------------------------------------------------------------------
      1          6           0       -2.714811   -0.165223   -0.189138
      2          6           0        0.180157    1.572510    0.561286
      3          6           0        1.877559    0.177695    0.001150
      4          1           0        3.969899    0.884963    0.498860
      5          1           0       -0.211940    2.446069    1.102330
      6          1           0       -0.228698    0.259385   -0.965391
      7          1           0        3.241050   -1.606389   -0.607632
      8          1           0       -2.643130   -2.051602    0.376313
      9          1           0       -0.167888   -1.292981    0.556620
     10          1           0       -2.446412    1.629558   -1.102370
     11          7           0       -2.034170   -1.261122    0.256145
     12          7           0       -2.035961    1.089498   -0.313422
     13          7           0       -0.670053    1.000099   -0.393750
     14          7           0        1.414729    1.248640    0.726056
     15          7           0        3.203859    0.289467   -0.227332
     16          8           0        1.293430   -0.854907   -0.405221
     17          8           0       -1.009940   -1.273911    1.165100
     18          8           0       -3.834891   -0.209729   -0.597375
     19          8           0        3.961510   -0.954576   -0.466556
 ---------------------------------------------------------------------

 SCF Done:  E(RHF) =  -689.511376841     A.U. after    2 cycles

 The electronic state is 1-A.
 Alpha  occ. eigenvalues --  -20.63643 -20.63104 -20.58897 -20.55476 -15.73696
 Alpha  occ. eigenvalues --  -15.71279 -15.70962 -15.70921 -15.65323 -11.43525
 Alpha  occ. eigenvalues --  -11.41313 -11.39734  -1.42214  -1.41461  -1.37748
 Alpha  occ. eigenvalues --   -1.35086  -1.31987  -1.24861  -1.14726  -1.12314
 Alpha  occ. eigenvalues --   -1.06968  -0.91784  -0.86351  -0.82965  -0.78239
 Alpha  occ. eigenvalues --   -0.77277  -0.74927  -0.72595  -0.70018  -0.69842
 Alpha  occ. eigenvalues --   -0.67724  -0.66525  -0.64903  -0.61875  -0.61430
 Alpha  occ. eigenvalues --   -0.60952  -0.57999  -0.56872  -0.53882  -0.52615
 Alpha  occ. eigenvalues --   -0.48669  -0.48049  -0.44530  -0.43234  -0.42025
 Alpha  occ. eigenvalues --   -0.40149
 Alpha virt. eigenvalues --    0.02708   0.03471   0.03510   0.04473   0.05631
 Alpha virt. eigenvalues --    0.06622   0.06909   0.08429   0.09437   0.10401
 Alpha virt. eigenvalues --    0.11802   0.12374   0.12774   0.13465   0.14084

 Mulliken charges:
               1
     1  C    0.833260
     2  C    0.781440
     3  C    0.953900
     4  H    0.324405
     5  H   -0.309517
     6  H    0.003639
     7  H    0.189590
     8  H    0.032430
     9  H    0.405996
    10  H    0.079708
    11  N    0.139360
    12  N   -0.417997
    13  N    0.029305
    14  N   -0.377250
    15  N   -0.349144
    16  O   -0.752939
    17  O   -0.646989
    18  O   -0.449037
    19  O   -0.470161
 Sum of Mulliken charges =  -0.00000

 Dipole moment (field-independent basis, Debye):
    X=              1.9273    Y=              2.1646    Z=              0.2338  Tot=              2.9076

 Test job not archived.
 1\1\GINC-SE398\SP\RHF\Aug-CC-pVDZ\C3H7N5O4\OHZDE\08-Apr-2025\0\\#t hf
 aug-cc-pvdz iop(5/13=1,5/36=2,99/5=2) pseudo=read geom=check guess=(re
 ad,tcheck) scf=(maxcycle=1)\\title\\0,1\C,0,-2.71481,-0.165221,-0.1891
 38\C,0,0.180159,1.57251,0.561286\C,0,1.87756,0.177695,0.00114999\H,0,3
 .9699,0.884962,0.49886\H,0,-0.211938,2.44607,1.10233\H,0,-0.228697,0.2
 59386,-0.965391\H,0,3.24105,-1.60639,-0.607632\H,0,-2.64313,-2.0516,0.
 376313\H,0,-0.167888,-1.29298,0.55662\H,0,-2.44641,1.62956,-1.10237\N,
 0,-2.03417,-1.26112,0.256145\N,0,-2.03596,1.0895,-0.313422\N,0,-0.6700

 Normal termination of Gaussian 16 at Tue Apr  8 21:53:09 2025.
