 Gaussian 16, Revision C.01,

 ----------------------------------------------------------------------
 #t hf aug-cc-pvdz symm=none int=(grid=ultrafine) guess=(read,tcheck) s
 table=(opt,rrhf)
 ----------------------------------------------------------------------
 -----
 title
 -----
 Symbolic Z-matrix:
 Charge =  0 Multiplicity = 1

 SCF Done:  E(RHF) =  -414.357911992     A.U. after   15 cycles
 Normal termination of Gaussian 16 at Tue Apr  8 21:35:41 2025.
 Gaussian 16:  ES64L-G16RevC.01  3-Jul-2019

 ----------------------------------------------------------------------
 #t hf aug-cc-pvdz iop(5/13=1,5/36=2,99/5=2) pseudo=read geom=check gue
 ss=(read,tcheck) scf=(maxcycle=1)
 ----------------------------------------------------------------------
 -----
 title
 -----
 Structure from the checkpoint file:  "ANI1ccx_410_conf7_mol1.chk"
 Charge =  0 Multiplicity = 1

                         Standard orientation:
 ---------------------------------------------------------------------
 Center     Atomic      Atomic             Coordinates (Angstroms)
 Number     Number       Type             X           Y           Z
 ---------------------------------------------------------------------
      1          6           0        2.573350   -0.167240   -0.023941
      2          1           0        1.132260   -1.421200    0.029047
      3          1           0        3.234010   -1.059590   -0.058340
      4          1           0       -3.098420    1.042180    0.838601
      5          1           0       -0.564750   -0.400057   -0.564210
      6          8           0        1.276830   -0.469424   -0.032479
      7          8           0        2.955500    0.948854    0.015948
      8          8           0       -2.860670    0.896601   -0.114300
      9          8           0       -2.354640   -0.478255   -0.106294
     10          8           0       -1.034920   -0.542514    0.224444
 ---------------------------------------------------------------------

 SCF Done:  E(RHF) =  -414.495998607     A.U. after    2 cycles

 The electronic state is 1-A.
 Alpha  occ. eigenvalues --  -20.70715 -20.65694 -20.65182 -20.65157 -20.58504
 Alpha  occ. eigenvalues --  -11.41702  -1.50613  -1.45583  -1.36639  -1.33653
 Alpha  occ. eigenvalues --   -1.12965  -0.89920  -0.82060  -0.80642  -0.71928
 Alpha  occ. eigenvalues --   -0.71160  -0.69306  -0.67653  -0.66427  -0.62715
 Alpha  occ. eigenvalues --   -0.54652  -0.52929  -0.51789  -0.51374  -0.49449
 Alpha virt. eigenvalues --    0.02218   0.04605   0.05348   0.06646   0.08323
 Alpha virt. eigenvalues --    0.10612   0.11472   0.13754   0.14395   0.15224
 Alpha virt. eigenvalues --    0.16532   0.18775   0.19862   0.20687   0.21406

 Mulliken charges:
               1
     1  C    0.673432
     2  H    0.219437
     3  H   -0.206921
     4  H    0.251849
     5  H    0.238574
     6  O   -0.395530
     7  O   -0.364079
     8  O   -0.209626
     9  O   -0.150674
    10  O   -0.056462
 Sum of Mulliken charges =  -0.00000

 Dipole moment (field-independent basis, Debye):
    X=              0.6899    Y=             -3.6820    Z=              0.4483  Tot=              3.7728

 Test job not archived.
 1\1\GINC-SE457\SP\RHF\Aug-CC-pVDZ\C1H4O5\OHZDE\08-Apr-2025\0\\#t hf au
 g-cc-pvdz iop(5/13=1,5/36=2,99/5=2) pseudo=read geom=check guess=(read
 ,tcheck) scf=(maxcycle=1)\\title\\0,1\C,0,2.57335,-0.16724,-0.0239413\
 H,0,1.13226,-1.4212,0.0290468\H,0,3.23401,-1.05959,-0.0583396\H,0,-3.0
 9842,1.04218,0.838601\H,0,-0.56475,-0.400057,-0.56421\O,0,1.27683,-0.4
 69424,-0.0324788\O,0,2.9555,0.948854,0.0159477\O,0,-2.86067,0.896601,-
 0.1143\O,0,-2.35464,-0.478255,-0.106294\O,0,-1.03492,-0.542514,0.22444
 4\\Version=ES64L-G16RevC.01\State=1-A\HF=-414.4959986\RMSD=2.385e-03\D

 Normal termination of Gaussian 16 at Tue Apr  8 21:35:44 2025.
