 Gaussian 16, Revision C.01,

 ----------------------------------------------------------------------
 #t hf aug-cc-pvdz symm=none int=(grid=ultrafine) guess=(read,tcheck) s
 table=(opt,rrhf)
 ----------------------------------------------------------------------
 -----
 title
 -----
 Symbolic Z-matrix:
 Charge =  0 Multiplicity = 1

 SCF Done:  E(RHF) =  -448.368008881     A.U. after   15 cycles
 Normal termination of Gaussian 16 at Tue Apr  8 21:47:57 2025.
 Gaussian 16:  ES64L-G16RevC.01  3-Jul-2019

 ----------------------------------------------------------------------
 #t hf aug-cc-pvdz iop(5/13=1,5/36=2,99/5=2) pseudo=read geom=check gue
 ss=(read,tcheck) scf=(maxcycle=1)
 ----------------------------------------------------------------------
 -----
 title
 -----
 Structure from the checkpoint file:  "ANI1ccx_656_conf2_mol2.chk"
 Charge =  0 Multiplicity = 1

                         Standard orientation:
 ---------------------------------------------------------------------
 Center     Atomic      Atomic             Coordinates (Angstroms)
 Number     Number       Type             X           Y           Z
 ---------------------------------------------------------------------
      1          6           0        1.357650    0.013755   -0.026732
      2          6           0       -0.796962    0.768144    0.039257
      3          6           0       -0.823128   -0.791529   -0.002663
      4          1           0        0.883949    2.078922    0.165932
      5          1           0        0.859097   -2.062288    0.058653
      6          7           0        0.546039    1.116441    0.018405
      7          7           0        0.538634   -1.136549   -0.047961
      8          8           0        2.531610   -0.025503    0.005583
      9          8           0       -1.718203    1.547016   -0.046038
     10          8           0       -1.783546   -1.498774    0.030847
 ---------------------------------------------------------------------

 SCF Done:  E(RHF) =  -448.506150469     A.U. after    2 cycles

 The electronic state is 1-A.
 Alpha  occ. eigenvalues --  -20.61428 -20.61140 -20.59597 -15.72409 -15.71580
 Alpha  occ. eigenvalues --  -11.45511 -11.43387 -11.43202  -1.45263  -1.42439
 Alpha  occ. eigenvalues --   -1.40194  -1.31339  -1.22011  -0.97474  -0.91424
 Alpha  occ. eigenvalues --   -0.85869  -0.77305  -0.74521  -0.71738  -0.71234
 Alpha  occ. eigenvalues --   -0.70942  -0.68924  -0.61767  -0.60092  -0.57750
 Alpha  occ. eigenvalues --   -0.51167  -0.48281  -0.47519  -0.46983
 Alpha virt. eigenvalues --    0.03012   0.03318   0.03729   0.06599   0.07228
 Alpha virt. eigenvalues --    0.09403   0.09559   0.11331   0.11644   0.12835
 Alpha virt. eigenvalues --    0.13134   0.13618   0.13984   0.15941   0.17555

 Mulliken charges:
               1
     1  C    0.808812
     2  C    0.609546
     3  C    0.583909
     4  H    0.005507
     5  H   -0.095066
     6  N   -0.394106
     7  N   -0.367876
     8  O   -0.344171
     9  O   -0.425719
    10  O   -0.380837
 Sum of Mulliken charges =  -0.00000

 Dipole moment (field-independent basis, Debye):
    X=              2.5305    Y=              0.0547    Z=              0.4577  Tot=              2.5721

 Test job not archived.
 1\1\GINC-SE404\SP\RHF\Aug-CC-pVDZ\C3H2N2O3\OHZDE\08-Apr-2025\0\\#t hf
 aug-cc-pvdz iop(5/13=1,5/36=2,99/5=2) pseudo=read geom=check guess=(re
 ad,tcheck) scf=(maxcycle=1)\\title\\0,1\C,0,1.35765,0.0137522,-0.02673
 23\C,0,-0.79696,0.768146,0.0392566\C,0,-0.82313,-0.791527,-0.00266265\
 H,0,0.883954,2.07892,0.165932\H,0,0.859092,-2.06229,0.0586531\N,0,0.54
 6041,1.11644,0.0184045\N,0,0.538631,-1.13655,-0.0479612\O,0,2.53161,-0
 .0255089,0.00558307\O,0,-1.7182,1.54702,-0.0460376\O,0,-1.78355,-1.498
 77,0.0308472\\Version=ES64L-G16RevC.01\State=1-A\HF=-448.5061505\RMSD=

 Normal termination of Gaussian 16 at Tue Apr  8 21:48:01 2025.
