 Gaussian 16, Revision C.01,

 ----------------------------------------------------------------------
 #t hf aug-cc-pvdz symm=none int=(grid=ultrafine) guess=(read,tcheck) s
 table=(opt,rrhf)
 ----------------------------------------------------------------------
 -----
 title
 -----
 Symbolic Z-matrix:
 Charge =  0 Multiplicity = 1

 SCF Done:  E(RHF) =  -456.232798542     A.U. after   11 cycles
 Normal termination of Gaussian 16 at Tue Apr  8 21:06:39 2025.
 Gaussian 16:  ES64L-G16RevC.01  3-Jul-2019

 ----------------------------------------------------------------------
 #t hf aug-cc-pvdz iop(5/13=1,5/36=2,99/5=2) pseudo=read geom=check gue
 ss=(read,tcheck) scf=(maxcycle=1)
 ----------------------------------------------------------------------
 -----
 title
 -----
 Structure from the checkpoint file:  "ANI1ccx_1844_conf324_mol1.chk"
 Charge =  0 Multiplicity = 1

                         Standard orientation:
 ---------------------------------------------------------------------
 Center     Atomic      Atomic             Coordinates (Angstroms)
 Number     Number       Type             X           Y           Z
 ---------------------------------------------------------------------
      1          1           0        2.565570    0.240135   -0.508779
      2          1           0       -2.063430   -1.399440   -1.284880
      3          1           0       -2.633890   -0.227638   -0.205276
      4          1           0        1.943170   -1.643011   -1.459600
      5          1           0        1.343880   -1.436071    0.018765
      6          1           0       -0.080905   -1.488411    1.904760
      7          1           0        3.197581    1.431958    0.165996
      8          1           0       -1.055080   -1.247561    0.614046
      9          1           0        0.051173    0.494606    1.079780
     10          1           0        0.850327    1.528909    0.315665
     11          1           0       -1.308459    1.416349   -0.238876
     12          1           0       -2.886179    1.758380   -0.101998
     13          8           0        2.211610   -1.441801   -0.457236
     14          8           0        0.043574    1.454099    0.905024
     15          8           0       -2.406730   -1.258430   -0.308087
     16          8           0       -0.092484   -1.162551    0.951351
     17          8           0        2.473770    1.186928   -0.458905
     18          8           0       -2.220209    1.293230   -0.669596
 ---------------------------------------------------------------------

 SCF Done:  E(RHF) =  -456.381515057     A.U. after    2 cycles

 The electronic state is 1-A.
 Alpha  occ. eigenvalues --  -20.60242 -20.58784 -20.58739 -20.58441 -20.56614
 Alpha  occ. eigenvalues --  -20.54598  -1.33046  -1.31107  -1.30863  -1.28844
 Alpha  occ. eigenvalues --   -1.28007  -1.26886  -0.74978  -0.72869  -0.72598
 Alpha  occ. eigenvalues --   -0.72094  -0.71090  -0.70399  -0.64620  -0.62159
 Alpha  occ. eigenvalues --   -0.61178  -0.60124  -0.58852  -0.56978  -0.53657
 Alpha  occ. eigenvalues --   -0.52521  -0.52409  -0.51331  -0.51255  -0.49616
 Alpha virt. eigenvalues --    0.02600   0.04357   0.04576   0.05207   0.06555
 Alpha virt. eigenvalues --    0.07686   0.08144   0.08272   0.08532   0.09989
 Alpha virt. eigenvalues --    0.10628   0.12400   0.15420   0.18367   0.18933

 Mulliken charges:
               1
     1  H    0.190889
     2  H    0.266950
     3  H    0.361610
     4  H    0.279876
     5  H    0.291367
     6  H    0.288566
     7  H    0.216569
     8  H    0.400248
     9  H    0.274938
    10  H    0.301828
    11  H    0.296239
    12  H    0.235662
    13  O   -0.533546
    14  O   -0.530505
    15  O   -0.650835
    16  O   -0.797441
    17  O   -0.390644
    18  O   -0.501772
 Sum of Mulliken charges =  -0.00000

 Dipole moment (field-independent basis, Debye):
    X=             -0.4878    Y=             -1.5905    Z=              0.6524  Tot=              1.7870

 Test job not archived.
 1\1\GINC-SE338\SP\RHF\Aug-CC-pVDZ\H12O6\OHZDE\08-Apr-2025\0\\#t hf aug
 -cc-pvdz iop(5/13=1,5/36=2,99/5=2) pseudo=read geom=check guess=(read,
 tcheck) scf=(maxcycle=1)\\title\\0,1\H,0,2.56557,0.240137,-0.508779\H,
 0,-2.06343,-1.39944,-1.28488\H,0,-2.63389,-0.227638,-0.205276\H,0,1.94
 317,-1.64301,-1.4596\H,0,1.34388,-1.43607,0.0187651\H,0,-0.0809049,-1.
 48841,1.90476\H,0,3.19758,1.43196,0.165996\H,0,-1.05508,-1.24756,0.614
 046\H,0,0.0511729,0.494607,1.07978\H,0,0.850326,1.52891,0.315665\H,0,-
 1.30846,1.41635,-0.238876\H,0,-2.88618,1.75838,-0.101998\O,0,2.21161,-

 Normal termination of Gaussian 16 at Tue Apr  8 21:06:43 2025.
