 Gaussian 16, Revision C.01,

 ----------------------------------------------------------------------
 #t hf aug-cc-pvdz symm=none int=(grid=ultrafine) guess=(read,tcheck) s
 table=(opt,rrhf)
 ----------------------------------------------------------------------
 -----
 title
 -----
 Symbolic Z-matrix:
 Charge =  0 Multiplicity = 1

 SCF Done:  E(RHF) =  -603.083898763     A.U. after   14 cycles
 Normal termination of Gaussian 16 at Tue Apr  8 22:00:20 2025.
 Gaussian 16:  ES64L-G16RevC.01  3-Jul-2019

 ----------------------------------------------------------------------
 #t hf aug-cc-pvdz iop(5/13=1,5/36=2,99/5=2) pseudo=read geom=check gue
 ss=(read,tcheck) scf=(maxcycle=1)
 ----------------------------------------------------------------------
 -----
 title
 -----
 Structure from the checkpoint file:  "ANI1ccx_894_conf2_mol2.chk"
 Charge =  0 Multiplicity = 1

                         Standard orientation:
 ---------------------------------------------------------------------
 Center     Atomic      Atomic             Coordinates (Angstroms)
 Number     Number       Type             X           Y           Z
 ---------------------------------------------------------------------
      1          6           0       -1.859869   -0.232567   -0.031115
      2          6           0       -0.535947    0.407708    0.073957
      3          6           0        0.555196   -0.401582    0.111332
      4          6           0        1.886501    0.237280    0.000468
      5          1           0       -2.587758    1.576772   -0.013799
      6          1           0        0.398565    2.028980    0.032344
      7          1           0       -0.421873   -1.982459    0.144463
      8          1           0        2.437650   -1.510341   -0.047989
      9          8           0       -2.899959    0.625341   -0.038080
     10          8           0       -2.041020   -1.444908   -0.070743
     11          8           0       -0.541992    1.737531    0.009011
     12          8           0        0.527894   -1.740760    0.087082
     13          8           0        2.864791   -0.638371   -0.122009
     14          8           0        2.077552    1.438919    0.004380
 ---------------------------------------------------------------------

 SCF Done:  E(RHF) =  -603.273516214     A.U. after    2 cycles

 The electronic state is 1-A.
 Alpha  occ. eigenvalues --  -20.65694 -20.65612 -20.64462 -20.64424 -20.60582
 Alpha  occ. eigenvalues --  -20.60133 -11.44760 -11.44274 -11.36685 -11.36531
 Alpha  occ. eigenvalues --   -1.47480  -1.45616  -1.41947  -1.41413  -1.36942
 Alpha  occ. eigenvalues --   -1.35729  -1.09240  -0.98696  -0.88811  -0.87894
 Alpha  occ. eigenvalues --   -0.83869  -0.80181  -0.77061  -0.71633  -0.71461
 Alpha  occ. eigenvalues --   -0.71120  -0.68091  -0.67856  -0.64959  -0.63715
 Alpha  occ. eigenvalues --   -0.63599  -0.62601  -0.61696  -0.53951  -0.53721
 Alpha  occ. eigenvalues --   -0.53679  -0.49626  -0.38399
 Alpha virt. eigenvalues --    0.02511   0.03069   0.03982   0.05784   0.06580
 Alpha virt. eigenvalues --    0.08210   0.09391   0.10282   0.10723   0.10832
 Alpha virt. eigenvalues --    0.11596   0.12947   0.13795   0.14693   0.15223

 Mulliken charges:
               1
     1  C    0.501128
     2  C    0.638735
     3  C    0.641958
     4  C    0.435067
     5  H    0.244010
     6  H    0.252795
     7  H    0.251645
     8  H    0.220842
     9  O   -0.514005
    10  O   -0.517030
    11  O   -0.607181
    12  O   -0.617992
    13  O   -0.440748
    14  O   -0.489224
 Sum of Mulliken charges =   0.00000

 Dipole moment (field-independent basis, Debye):
    X=             -0.1614    Y=              0.2891    Z=              0.4326  Tot=              0.5448

 Test job not archived.
 1\1\GINC-SE454\SP\RHF\Aug-CC-pVDZ\C4H4O6\OHZDE\08-Apr-2025\0\\#t hf au
 g-cc-pvdz iop(5/13=1,5/36=2,99/5=2) pseudo=read geom=check guess=(read
 ,tcheck) scf=(maxcycle=1)\\title\\0,1\C,0,-1.85987,-0.232569,-0.031114
 7\C,0,-0.535948,0.407707,0.0739575\C,0,0.555195,-0.401582,0.111332\C,0
 ,1.8865,0.237281,0.00046809\H,0,-2.58776,1.57677,-0.0137987\H,0,0.3985
 63,2.02898,0.0323436\H,0,-0.421873,-1.98246,0.144463\H,0,2.43765,-1.51
 034,-0.0479889\O,0,-2.89996,0.625339,-0.0380797\O,0,-2.04102,-1.44491,
 -0.0707433\O,0,-0.541994,1.73753,0.00901108\O,0,0.527894,-1.74076,0.08

 Normal termination of Gaussian 16 at Tue Apr  8 22:00:26 2025.
