 Gaussian 16, Revision C.01,

 ----------------------------------------------------------------------
 #t hf aug-cc-pvdz symm=none int=(grid=ultrafine) guess=(read,tcheck) s
 table=(opt,rrhf)
 ----------------------------------------------------------------------
 -----
 title
 -----
 Symbolic Z-matrix:
 Charge =  0 Multiplicity = 1

 SCF Done:  E(RHF) =  -617.813549374     A.U. after   14 cycles
 Normal termination of Gaussian 16 at Tue Apr  8 19:17:48 2025.
 Gaussian 16:  ES64L-G16RevC.01  3-Jul-2019

 ----------------------------------------------------------------------
 #t hf aug-cc-pvdz iop(5/13=1,5/36=2,99/5=2) pseudo=read geom=check gue
 ss=(read,tcheck) scf=(maxcycle=1)
 ----------------------------------------------------------------------
 -----
 title
 -----
 Structure from the checkpoint file:  "ANI1ccx_1023_conf3_mol1.chk"
 Charge =  0 Multiplicity = 1

                         Standard orientation:
 ---------------------------------------------------------------------
 Center     Atomic      Atomic             Coordinates (Angstroms)
 Number     Number       Type             X           Y           Z
 ---------------------------------------------------------------------
      1          6           0       -0.621960    1.469099    0.358363
      2          6           0       -2.050259   -0.395458   -0.063267
      3          6           0        0.142188   -1.508670    0.411287
      4          6           0        0.961909   -0.927551   -0.783401
      5          6           0        2.197941   -0.310754   -0.363627
      6          1           0        3.750781   -0.623611    0.621869
      7          1           0        0.303909   -0.216264   -1.278340
      8          1           0        1.110682   -1.702819   -1.544390
      9          1           0        0.428498   -2.542540    0.644910
     10          1           0       -1.831617   -2.240022    0.601963
     11          1           0        0.452391   -0.952713    1.313990
     12          1           0       -3.535178   -1.523284   -0.874146
     13          1           0        0.602414    1.894430    1.753520
     14          1           0       -0.617105    2.374339   -1.402800
     15          1           0        0.915399    2.410101   -0.558668
     16          1           0       -3.950900    0.081642   -0.433141
     17          7           0       -0.104459    2.416879   -0.502434
     18          7           0       -0.098561    1.206949    1.509540
     19          7           0       -1.757221    0.873779   -0.140952
     20          7           0       -3.364419   -0.734828   -0.259645
     21          7           0       -1.295048   -1.490922    0.137538
     22          8           0        3.020472   -1.183947    0.307882
     23          8           0        2.595749    0.831165   -0.484035
 ---------------------------------------------------------------------

 SCF Done:  E(RHF) =  -618.001204783     A.U. after    2 cycles

 The electronic state is 1-A.
 Alpha  occ. eigenvalues --  -20.62441 -20.57427 -15.66869 -15.64847 -15.61406
 Alpha  occ. eigenvalues --  -15.59484 -15.55808 -11.41126 -11.38569 -11.33621
 Alpha  occ. eigenvalues --  -11.29296 -11.26579  -1.42862  -1.32246  -1.30265
 Alpha  occ. eigenvalues --   -1.23043  -1.17417  -1.10902  -1.07653  -1.06781
 Alpha  occ. eigenvalues --   -0.93139  -0.85907  -0.82712  -0.75988  -0.74001
 Alpha  occ. eigenvalues --   -0.72555  -0.71299  -0.69503  -0.67339  -0.66821
 Alpha  occ. eigenvalues --   -0.65825  -0.63222  -0.61386  -0.60197  -0.59515
 Alpha  occ. eigenvalues --   -0.57367  -0.55167  -0.52546  -0.51836  -0.50195
 Alpha  occ. eigenvalues --   -0.48227  -0.42065  -0.41745  -0.39257  -0.36650
 Alpha  occ. eigenvalues --   -0.33551
 Alpha virt. eigenvalues --    0.02019   0.03158   0.03555   0.04572   0.05568
 Alpha virt. eigenvalues --    0.06361   0.06682   0.07231   0.07779   0.08688
 Alpha virt. eigenvalues --    0.09746   0.10864   0.11757   0.12251   0.13048

 Mulliken charges:
               1
     1  C    0.674860
     2  C    0.551976
     3  C    1.109108
     4  C    0.319352
     5  C    0.778571
     6  H    0.193657
     7  H   -0.217131
     8  H   -0.016080
     9  H   -0.222621
    10  H   -0.015360
    11  H   -0.107401
    12  H   -0.037524
    13  H   -0.036164
    14  H    0.081959
    15  H    0.056835
    16  H    0.049819
    17  N   -0.333643
    18  N   -0.392942
    19  N   -0.578681
    20  N   -0.267128
    21  N   -0.457062
    22  O   -0.582851
    23  O   -0.551551
 Sum of Mulliken charges =  -0.00000

 Dipole moment (field-independent basis, Debye):
    X=             -0.9645    Y=             -4.5560    Z=             -2.5940  Tot=              5.3307

 Test job not archived.
 1\1\GINC-SE089\SP\RHF\Aug-CC-pVDZ\C5H11N5O2\OHZDE\08-Apr-2025\0\\#t hf
  aug-cc-pvdz iop(5/13=1,5/36=2,99/5=2) pseudo=read geom=check guess=(r
 ead,tcheck) scf=(maxcycle=1)\\title\\0,1\C,0,-0.621959,1.4691,0.358363
 \C,0,-2.05026,-0.395455,-0.0632667\C,0,0.142186,-1.50867,0.411287\C,0,
 0.961908,-0.927552,-0.783401\C,0,2.19794,-0.310756,-0.363627\H,0,3.750
 78,-0.623615,0.621869\H,0,0.303908,-0.216264,-1.27834\H,0,1.11068,-1.7
 0282,-1.54439\H,0,0.428495,-2.54254,0.64491\H,0,-1.83162,-2.24002,0.60
 1963\H,0,0.45239,-0.952713,1.31399\H,0,-3.53518,-1.52328,-0.874146\H,0

 Normal termination of Gaussian 16 at Tue Apr  8 19:18:06 2025.
