 Gaussian 16, Revision C.01,

 ----------------------------------------------------------------------
 #t hf aug-cc-pvdz symm=none int=(grid=ultrafine) guess=(read,tcheck) s
 table=(opt,rrhf)
 ----------------------------------------------------------------------
 -----
 title
 -----
 Symbolic Z-matrix:
 Charge =  0 Multiplicity = 1

 SCF Done:  E(RHF) =  -482.293569539     A.U. after   18 cycles
 Normal termination of Gaussian 16 at Tue Apr  8 21:48:04 2025.
 Gaussian 16:  ES64L-G16RevC.01  3-Jul-2019

 ----------------------------------------------------------------------
 #t hf aug-cc-pvdz iop(5/13=1,5/36=2,99/5=2) pseudo=read geom=check gue
 ss=(read,tcheck) scf=(maxcycle=1)
 ----------------------------------------------------------------------
 -----
 title
 -----
 Structure from the checkpoint file:  "ANI1ccx_660_conf1_mol2.chk"
 Charge =  0 Multiplicity = 1

                         Standard orientation:
 ---------------------------------------------------------------------
 Center     Atomic      Atomic             Coordinates (Angstroms)
 Number     Number       Type             X           Y           Z
 ---------------------------------------------------------------------
      1          6           0       -1.428180   -0.429757    0.008699
      2          6           0        0.659563   -0.293566    0.114624
      3          6           0        0.216866    1.105291    0.019919
      4          1           0       -3.262081   -0.146601   -0.193991
      5          1           0       -1.853684    1.672318    0.068721
      6          7           0       -0.410331   -1.214430    0.102179
      7          7           0        1.911200   -0.688032   -0.009653
      8          7           0        2.992171   -1.011484   -0.091930
      9          7           0       -1.180042    0.907748   -0.020630
     10          8           0       -2.663080   -0.887199   -0.062952
     11          8           0        0.817490    2.165432   -0.011292
 ---------------------------------------------------------------------

 SCF Done:  E(RHF) =  -482.438949370     A.U. after    2 cycles

 The electronic state is 1-A.
 Alpha  occ. eigenvalues --  -20.66027 -20.56589 -15.83597 -15.77514 -15.71002
 Alpha  occ. eigenvalues --  -15.63883 -11.41977 -11.40649 -11.33509  -1.45575
 Alpha  occ. eigenvalues --   -1.44835  -1.37624  -1.30811  -1.19304  -1.10858
 Alpha  occ. eigenvalues --   -0.94020  -0.87493  -0.83773  -0.74196  -0.71974
 Alpha  occ. eigenvalues --   -0.71089  -0.68682  -0.67951  -0.67360  -0.64554
 Alpha  occ. eigenvalues --   -0.60844  -0.60187  -0.51484  -0.51080  -0.45297
 Alpha  occ. eigenvalues --   -0.44662  -0.31066
 Alpha virt. eigenvalues --    0.01191   0.04662   0.06582   0.07348   0.07541
 Alpha virt. eigenvalues --    0.08343   0.09430   0.09608   0.10711   0.11077
 Alpha virt. eigenvalues --    0.12370   0.13209   0.13396   0.14060   0.15388

 Mulliken charges:
               1
     1  C    0.789481
     2  C    0.756590
     3  C    0.618736
     4  H    0.125380
     5  H   -0.028301
     6  N   -0.605304
     7  N    0.016343
     8  N   -0.310403
     9  N   -0.414242
    10  O   -0.432352
    11  O   -0.515929
 Sum of Mulliken charges =  -0.00000

 Dipole moment (field-independent basis, Debye):
    X=             -3.9198    Y=              0.7362    Z=             -0.2013  Tot=              3.9934

 Test job not archived.
 1\1\GINC-SE340\SP\RHF\Aug-CC-pVDZ\C3H2N4O2\OHZDE\08-Apr-2025\0\\#t hf
 aug-cc-pvdz iop(5/13=1,5/36=2,99/5=2) pseudo=read geom=check guess=(re
 ad,tcheck) scf=(maxcycle=1)\\title\\0,1\C,0,-1.42818,-0.429755,0.00869
 914\C,0,0.659564,-0.293568,0.114624\C,0,0.216869,1.10529,0.0199193\H,0
 ,-3.26208,-0.146596,-0.193991\H,0,-1.85368,1.67232,0.0687209\N,0,-0.41
 0332,-1.21443,0.102179\N,0,1.9112,-0.688036,-0.00965307\N,0,2.99217,-1
 .01149,-0.0919304\N,0,-1.18004,0.907749,-0.0206296\O,0,-2.66308,-0.887
 195,-0.0629516\O,0,0.817495,2.16543,-0.0112919\\Version=ES64L-G16RevC.

 Normal termination of Gaussian 16 at Tue Apr  8 21:48:09 2025.
