 Gaussian 16, Revision C.01,

 ----------------------------------------------------------------------
 #t hf aug-cc-pvdz symm=none int=(grid=ultrafine) guess=(read,tcheck) s
 table=(opt,rrhf)
 ----------------------------------------------------------------------
 -----
 title
 -----
 Symbolic Z-matrix:
 Charge =  0 Multiplicity = 1

 SCF Done:  E(RHF) =  -445.616804798     A.U. after   16 cycles
 Normal termination of Gaussian 16 at Tue Apr  8 21:44:48 2025.
 Gaussian 16:  ES64L-G16RevC.01  3-Jul-2019

 ----------------------------------------------------------------------
 #t hf aug-cc-pvdz iop(5/13=1,5/36=2,99/5=2) pseudo=read geom=check gue
 ss=(read,tcheck) scf=(maxcycle=1)
 ----------------------------------------------------------------------
 -----
 title
 -----
 Structure from the checkpoint file:  "ANI1ccx_521_conf7_mol1.chk"
 Charge =  0 Multiplicity = 1

                         Standard orientation:
 ---------------------------------------------------------------------
 Center     Atomic      Atomic             Coordinates (Angstroms)
 Number     Number       Type             X           Y           Z
 ---------------------------------------------------------------------
      1          6           0       -1.312252    0.358053    0.027882
      2          6           0        1.345449   -0.369577   -0.060072
      3          1           0       -2.892481   -0.371403   -1.066349
      4          1           0       -2.432601   -1.382272    0.247239
      5          1           0        2.666268    0.796086   -1.088319
      6          1           0        2.553608    1.090561    0.649386
      7          7           0       -2.201741   -0.620774   -0.373532
      8          7           0       -0.596358   -0.085483    1.205781
      9          7           0        0.622267   -0.330637    1.204641
     10          7           0        2.202068    0.710816   -0.193815
     11          8           0       -1.124342    1.434079   -0.505796
     12          8           0        1.089639   -1.156740   -0.925494
 ---------------------------------------------------------------------

 SCF Done:  E(RHF) =  -445.752883545     A.U. after    2 cycles

 The electronic state is 1-A.
 Alpha  occ. eigenvalues --  -20.57656 -20.57370 -15.74285 -15.74086 -15.67198
 Alpha  occ. eigenvalues --  -15.67029 -11.42623 -11.42249  -1.41873  -1.38588
 Alpha  occ. eigenvalues --   -1.32984  -1.20794  -1.19531  -1.01437  -0.89580
 Alpha  occ. eigenvalues --   -0.78971  -0.77282  -0.72823  -0.71600  -0.68376
 Alpha  occ. eigenvalues --   -0.67265  -0.66411  -0.59883  -0.56212  -0.55817
 Alpha  occ. eigenvalues --   -0.51053  -0.50254  -0.45033  -0.43972  -0.40165
 Alpha virt. eigenvalues --    0.03015   0.03206   0.05060   0.05634   0.06748
 Alpha virt. eigenvalues --    0.07998   0.10225   0.11767   0.12287   0.12601
 Alpha virt. eigenvalues --    0.13384   0.14314   0.15498   0.15944   0.16221

 Mulliken charges:
               1
     1  C    0.884471
     2  C    0.820111
     3  H    0.006393
     4  H   -0.000400
     5  H    0.014087
     6  H   -0.013811
     7  N   -0.156329
     8  N   -0.328415
     9  N   -0.362864
    10  N   -0.102228
    11  O   -0.404652
    12  O   -0.356362
 Sum of Mulliken charges =  -0.00000

 Dipole moment (field-independent basis, Debye):
    X=              0.1196    Y=             -0.4323    Z=              0.8619  Tot=              0.9717

 Test job not archived.
 1\1\GINC-SE016\SP\RHF\Aug-CC-pVDZ\C2H4N4O2\OHZDE\08-Apr-2025\0\\#t hf
 aug-cc-pvdz iop(5/13=1,5/36=2,99/5=2) pseudo=read geom=check guess=(re
 ad,tcheck) scf=(maxcycle=1)\\title\\0,1\C,0,-1.31225,0.358054,0.027881
 5\C,0,1.34545,-0.369578,-0.0600725\H,0,-2.89248,-0.371401,-1.06635\H,0
 ,-2.4326,-1.38227,0.247238\H,0,2.66627,0.796085,-1.08832\H,0,2.55361,1
 .09056,0.649385\N,0,-2.20174,-0.620772,-0.373533\N,0,-0.596356,-0.0854
 829,1.20578\N,0,0.622268,-0.330637,1.20464\N,0,2.20207,0.710815,-0.193
 816\O,0,-1.12434,1.43408,-0.505797\O,0,1.08964,-1.15674,-0.925495\\Ver

 Normal termination of Gaussian 16 at Tue Apr  8 21:44:53 2025.
