 Gaussian 16, Revision C.01,

 ----------------------------------------------------------------------
 #t hf aug-cc-pvdz symm=none int=(grid=ultrafine) guess=(read,tcheck) s
 table=(opt,rrhf)
 ----------------------------------------------------------------------
 -----
 title
 -----
 Symbolic Z-matrix:
 Charge =  0 Multiplicity = 1

 SCF Done:  E(RHF) =  -226.849102857     A.U. after   13 cycles
 Normal termination of Gaussian 16 at Tue Apr  8 21:10:16 2025.
 Gaussian 16:  ES64L-G16RevC.01  3-Jul-2019

 ----------------------------------------------------------------------
 #t hf aug-cc-pvdz iop(5/13=1,5/36=2,99/5=2) pseudo=read geom=check gue
 ss=(read,tcheck) scf=(maxcycle=1)
 ----------------------------------------------------------------------
 -----
 title
 -----
 Structure from the checkpoint file:  "ANI1ccx_1883_conf10_mol2.chk"
 Charge =  0 Multiplicity = 1

                         Standard orientation:
 ---------------------------------------------------------------------
 Center     Atomic      Atomic             Coordinates (Angstroms)
 Number     Number       Type             X           Y           Z
 ---------------------------------------------------------------------
      1          1           0       -1.932001   -0.881025    0.491260
      2          1           0       -2.610871    0.439561    0.167381
      3          1           0       -0.054220    0.708007   -0.167214
      4          1           0        1.687839   -0.769922    0.718960
      5          8           0       -1.837021   -0.103826   -0.076837
      6          8           0        0.895079    0.756385    0.057215
      7          8           0        1.305599   -0.589638   -0.131677
 ---------------------------------------------------------------------

 SCF Done:  E(RHF) =  -226.925096961     A.U. after    2 cycles

 The electronic state is 1-A.
 Alpha  occ. eigenvalues --  -20.62124 -20.61322 -20.60912  -1.41819  -1.33673
 Alpha  occ. eigenvalues --   -1.16676  -0.74877  -0.71908  -0.71420  -0.62890
 Alpha  occ. eigenvalues --   -0.61882  -0.55725  -0.52024  -0.47079
 Alpha virt. eigenvalues --    0.02673   0.04772   0.06112   0.08224   0.14162
 Alpha virt. eigenvalues --    0.17391   0.18863   0.19598   0.20541   0.23019
 Alpha virt. eigenvalues --    0.23886   0.24833   0.25181   0.26039   0.27715

 Mulliken charges:
               1
     1  H    0.161104
     2  H    0.182474
     3  H    0.273087
     4  H    0.200809
     5  O   -0.352937
     6  O   -0.242793
     7  O   -0.221744
 Sum of Mulliken charges =  -0.00000

 Dipole moment (field-independent basis, Debye):
    X=             -3.1205    Y=             -0.8881    Z=              2.5690  Tot=              4.1383

 Test job not archived.
 1\1\GINC-SE078\SP\RHF\Aug-CC-pVDZ\H4O3\OHZDE\08-Apr-2025\0\\#t hf aug-
 cc-pvdz iop(5/13=1,5/36=2,99/5=2) pseudo=read geom=check guess=(read,t
 check) scf=(maxcycle=1)\\title\\0,1\H,0,-1.932,-0.881024,0.49126\H,0,-
 2.61087,0.439562,0.167381\H,0,-0.0542189,0.708007,-0.167214\H,0,1.6878
 4,-0.769923,0.71896\O,0,-1.83702,-0.103825,-0.0768367\O,0,0.89508,0.75
 6385,0.0572154\O,0,1.3056,-0.589638,-0.131677\\Version=ES64L-G16RevC.0
 1\State=1-A\HF=-226.925097\RMSD=2.373e-03\Dipole=-1.2276843,-0.3494172
 ,1.010719\Quadrupole=3.1351759,-1.2644434,-1.8707325,-1.8865021,-0.158

 Normal termination of Gaussian 16 at Tue Apr  8 21:10:17 2025.
