 Gaussian 16, Revision C.01,

 ----------------------------------------------------------------------
 #t hf aug-cc-pvdz symm=none int=(grid=ultrafine) guess=(read,tcheck) s
 table=(opt,rrhf)
 ----------------------------------------------------------------------
 -----
 title
 -----
 Symbolic Z-matrix:
 Charge =  0 Multiplicity = 1

 SCF Done:  E(RHF) =  -456.279328482     A.U. after   11 cycles
 Normal termination of Gaussian 16 at Tue Apr  8 21:07:47 2025.
 Gaussian 16:  ES64L-G16RevC.01  3-Jul-2019

 ----------------------------------------------------------------------
 #t hf aug-cc-pvdz iop(5/13=1,5/36=2,99/5=2) pseudo=read geom=check gue
 ss=(read,tcheck) scf=(maxcycle=1)
 ----------------------------------------------------------------------
 -----
 title
 -----
 Structure from the checkpoint file:  "ANI1ccx_1844_conf68_mol1.chk"
 Charge =  0 Multiplicity = 1

                         Standard orientation:
 ---------------------------------------------------------------------
 Center     Atomic      Atomic             Coordinates (Angstroms)
 Number     Number       Type             X           Y           Z
 ---------------------------------------------------------------------
      1          1           0       -1.383597   -2.033612    1.610040
      2          1           0       -2.081991    0.880850   -0.225454
      3          1           0       -3.330710   -0.039127   -0.629224
      4          1           0        1.830078    1.171052    0.466628
      5          1           0        1.223447    1.903652    1.722400
      6          1           0       -0.068197    2.045720   -0.358723
      7          1           0       -1.929778   -1.276863    0.376790
      8          1           0       -1.289574    2.965328   -0.525063
      9          1           0        1.189554   -2.988518   -0.709486
     10          1           0        0.160136   -1.928280   -0.176117
     11          1           0        2.192891   -0.983362   -0.194188
     12          1           0        3.241910   -0.020355   -0.757136
     13          8           0        1.316487    1.985242    0.752640
     14          8           0        0.979847   -2.039709   -0.762324
     15          8           0       -2.751800    0.224162    0.097659
     16          8           0       -0.921407    2.118799   -0.849845
     17          8           0       -1.348537   -2.048262    0.631285
     18          8           0        2.756140   -0.202293    0.055527
 ---------------------------------------------------------------------

 SCF Done:  E(RHF) =  -456.431477069     A.U. after    2 cycles

 The electronic state is 1-A.
 Alpha  occ. eigenvalues --  -20.57955 -20.57874 -20.57344 -20.57218 -20.57021
 Alpha  occ. eigenvalues --  -20.56744  -1.31916  -1.31187  -1.30720  -1.29619
 Alpha  occ. eigenvalues --   -1.29086  -1.28275  -0.74283  -0.72861  -0.72718
 Alpha  occ. eigenvalues --   -0.72383  -0.72021  -0.71412  -0.64111  -0.62379
 Alpha  occ. eigenvalues --   -0.61910  -0.58492  -0.58191  -0.56411  -0.52795
 Alpha  occ. eigenvalues --   -0.52468  -0.52284  -0.51948  -0.51784  -0.51212
 Alpha virt. eigenvalues --    0.02929   0.04485   0.04916   0.05020   0.06313
 Alpha virt. eigenvalues --    0.06875   0.08322   0.09119   0.09821   0.10069
 Alpha virt. eigenvalues --    0.10931   0.11345   0.17376   0.18474   0.18772

 Mulliken charges:
               1
     1  H    0.194781
     2  H    0.264875
     3  H    0.184221
     4  H    0.308937
     5  H    0.191524
     6  H    0.256121
     7  H    0.276826
     8  H    0.191354
     9  H    0.167839
    10  H    0.323906
    11  H    0.284682
    12  H    0.169603
    13  O   -0.498634
    14  O   -0.469019
    15  O   -0.440355
    16  O   -0.449124
    17  O   -0.493833
    18  O   -0.463703
 Sum of Mulliken charges =   0.00000

 Dipole moment (field-independent basis, Debye):
    X=             -0.7110    Y=             -0.7977    Z=              1.1801  Tot=              1.5920

 Test job not archived.
 1\1\GINC-SE329\SP\RHF\Aug-CC-pVDZ\H12O6\OHZDE\08-Apr-2025\0\\#t hf aug
 -cc-pvdz iop(5/13=1,5/36=2,99/5=2) pseudo=read geom=check guess=(read,
 tcheck) scf=(maxcycle=1)\\title\\0,1\H,0,-1.3836,-2.03361,1.61004\H,0,
 -2.08199,0.880853,-0.225454\H,0,-3.33071,-0.0391227,-0.629224\H,0,1.83
 008,1.17105,0.466628\H,0,1.22345,1.90365,1.7224\H,0,-0.0681942,2.04572
 ,-0.358723\H,0,-1.92978,-1.27686,0.37679\H,0,-1.28957,2.96533,-0.52506
 3\H,0,1.18955,-2.98852,-0.709486\H,0,0.160134,-1.92828,-0.176117\H,0,2
 .19289,-0.983365,-0.194188\H,0,3.24191,-0.0203596,-0.757136\O,0,1.3164

 Normal termination of Gaussian 16 at Tue Apr  8 21:07:51 2025.
