 Gaussian 16, Revision C.01,

 ----------------------------------------------------------------------
 #t hf aug-cc-pvdz symm=none int=(grid=ultrafine) guess=(read,tcheck) s
 table=(opt,rrhf)
 ----------------------------------------------------------------------
 -----
 title
 -----
 Symbolic Z-matrix:
 Charge =  0 Multiplicity = 1

 SCF Done:  E(RHF) =  -603.545235318     A.U. after   14 cycles
 Normal termination of Gaussian 16 at Tue Apr  8 22:17:08 2025.
 Gaussian 16:  ES64L-G16RevC.01  3-Jul-2019

 ----------------------------------------------------------------------
 #t hf aug-cc-pvdz iop(5/13=1,5/36=2,99/5=2) pseudo=read geom=check gue
 ss=(read,tcheck) scf=(maxcycle=1)
 ----------------------------------------------------------------------
 -----
 title
 -----
 Structure from the checkpoint file:  "ANI1ccx_999_conf34_mol1.chk"
 Charge =  0 Multiplicity = 1

                         Standard orientation:
 ---------------------------------------------------------------------
 Center     Atomic      Atomic             Coordinates (Angstroms)
 Number     Number       Type             X           Y           Z
 ---------------------------------------------------------------------
      1          6           0       -2.240331    0.027148    0.840955
      2          6           0       -1.439482   -1.019179   -0.018447
      3          6           0        0.890687   -0.132631    0.233296
      4          6           0        0.792125    1.277838   -0.179096
      5          6           0        2.206199   -0.542828   -0.191605
      6          1           0        2.130921    1.425357    1.053790
      7          1           0        2.663947   -1.749264    1.243860
      8          1           0        2.984570    0.240439   -0.109987
      9          1           0        2.114969   -0.429705   -1.340720
     10          1           0        0.786126   -0.256565    1.364420
     11          1           0       -1.437220    0.310690    1.506480
     12          1           0       -2.900111   -0.599907    1.391560
     13          1           0       -3.440689    1.511404    0.700895
     14          1           0       -2.161978    1.663622   -0.256424
     15          1           0        0.200048   -1.280761   -1.248400
     16          7           0       -2.853909    1.024843    0.089616
     17          7           0       -0.100721   -0.967301   -0.318437
     18          8           0        2.655487   -1.769674    0.262518
     19          8           0       -2.143953   -1.865448   -0.525340
     20          8           0        0.094664    1.777769   -1.019870
     21          8           0        1.704632    1.994827    0.430899
 ---------------------------------------------------------------------

 SCF Done:  E(RHF) =  -603.734071369     A.U. after    2 cycles

 The electronic state is 1-A.
 Alpha  occ. eigenvalues --  -20.65483 -20.62213 -20.58949 -20.53470 -15.66098
 Alpha  occ. eigenvalues --  -15.60958 -11.42032 -11.36264 -11.34216 -11.33282
 Alpha  occ. eigenvalues --  -11.27852  -1.47894  -1.38039  -1.36746  -1.35209
 Alpha  occ. eigenvalues --   -1.24034  -1.18581  -1.08059  -0.94938  -0.93098
 Alpha  occ. eigenvalues --   -0.88330  -0.83430  -0.79121  -0.76103  -0.72084
 Alpha  occ. eigenvalues --   -0.70833  -0.69527  -0.68777  -0.66861  -0.66243
 Alpha  occ. eigenvalues --   -0.64673  -0.63635  -0.62367  -0.58547  -0.57150
 Alpha  occ. eigenvalues --   -0.54317  -0.53184  -0.52677  -0.50283  -0.49838
 Alpha  occ. eigenvalues --   -0.44658  -0.41467  -0.38249
 Alpha virt. eigenvalues --    0.00971   0.03201   0.03770   0.04450   0.05519
 Alpha virt. eigenvalues --    0.05797   0.06594   0.07460   0.08131   0.08867
 Alpha virt. eigenvalues --    0.10328   0.10570   0.11152   0.11873   0.12749

 Mulliken charges:
               1
     1  C    0.911134
     2  C    0.348502
     3  C   -0.096267
     4  C    0.694433
     5  C    0.967674
     6  H    0.215676
     7  H    0.172500
     8  H   -0.251906
     9  H    0.099306
    10  H   -0.117034
    11  H   -0.162870
    12  H   -0.183732
    13  H   -0.032073
    14  H    0.045040
    15  H    0.040956
    16  N   -0.231822
    17  N   -0.424999
    18  O   -0.533452
    19  O   -0.554035
    20  O   -0.495730
    21  O   -0.411299
 Sum of Mulliken charges =  -0.00000

 Dipole moment (field-independent basis, Debye):
    X=              4.9211    Y=              1.6925    Z=              5.5798  Tot=              7.6299

 Test job not archived.
 1\1\GINC-SE455\SP\RHF\Aug-CC-pVDZ\C5H10N2O4\OHZDE\08-Apr-2025\0\\#t hf
  aug-cc-pvdz iop(5/13=1,5/36=2,99/5=2) pseudo=read geom=check guess=(r
 ead,tcheck) scf=(maxcycle=1)\\title\\0,1\C,0,-2.24033,0.0271461,0.8409
 55\C,0,-1.43948,-1.01918,-0.0184466\C,0,0.890688,-0.132629,0.233296\C,
 0,0.792124,1.27784,-0.179096\C,0,2.2062,-0.542824,-0.191605\H,0,2.1309
 2,1.42536,1.05379\H,0,2.66395,-1.74926,1.24386\H,0,2.98457,0.240444,-0
 .109987\H,0,2.11497,-0.429702,-1.34072\H,0,0.786127,-0.256563,1.36442\
 H,0,-1.43722,0.310689,1.50648\H,0,-2.90011,-0.59991,1.39156\H,0,-3.440

 Normal termination of Gaussian 16 at Tue Apr  8 22:17:21 2025.
