 Gaussian 16, Revision C.01,

 ----------------------------------------------------------------------
 #t hf aug-cc-pvdz symm=none int=(grid=ultrafine) guess=(read,tcheck) s
 table=(opt,rrhf)
 ----------------------------------------------------------------------
 -----
 title
 -----
 Symbolic Z-matrix:
 Charge =  0 Multiplicity = 1

 SCF Done:  E(RHF) =  -626.311211598     A.U. after   16 cycles
 Normal termination of Gaussian 16 at Tue Apr  8 20:23:46 2025.
 Gaussian 16:  ES64L-G16RevC.01  3-Jul-2019

 ----------------------------------------------------------------------
 #t hf aug-cc-pvdz iop(5/13=1,5/36=2,99/5=2) pseudo=read geom=check gue
 ss=(read,tcheck) scf=(maxcycle=1)
 ----------------------------------------------------------------------
 -----
 title
 -----
 Structure from the checkpoint file:  "ANI1ccx_1715_conf1_mol1.chk"
 Charge =  0 Multiplicity = 1

                         Standard orientation:
 ---------------------------------------------------------------------
 Center     Atomic      Atomic             Coordinates (Angstroms)
 Number     Number       Type             X           Y           Z
 ---------------------------------------------------------------------
      1          6           0        1.986269   -1.134760   -0.326954
      2          6           0       -2.389241    0.493281   -0.316454
      3          6           0       -2.128801   -0.853058    0.281050
      4          6           0       -1.105391    0.706792   -1.284540
      5          6           0        0.235517    0.458530   -0.761474
      6          6           0        0.955729    1.454921   -0.183129
      7          6           0        0.797985   -0.862473   -0.919692
      8          6           0        2.232859    1.120410    0.416625
      9          6           0        2.781809   -0.158037    0.273988
     10          1           0       -1.326671   -0.013370   -2.100020
     11          1           0       -1.197821    1.729321   -1.629070
     12          1           0       -3.196771    0.467839   -1.102490
     13          1           0       -2.910531    1.244281    1.478860
     14          1           0       -1.949901   -1.702389    2.001720
     15          1           0        2.813379    1.802020    1.049450
     16          1           0        4.636059    0.456919    0.537364
     17          1           0        0.634950    2.493441   -0.192222
     18          1           0        2.507389   -2.067240   -0.249757
     19          1           0       -1.792100    2.208111    0.773836
     20          1           0        0.111784   -1.596679   -1.341640
     21          7           0       -2.627281    1.639171    0.566354
     22          8           0       -2.101551   -1.813459   -0.442306
     23          8           0       -2.026231   -0.806836    1.638130
     24          8           0        4.110379   -0.360967    0.520799
 ---------------------------------------------------------------------

 SCF Done:  E(RHF) =  -626.499403278     A.U. after    2 cycles

 The electronic state is 1-A.
 Alpha  occ. eigenvalues --  -20.64181 -20.60715 -20.57155 -15.61840 -11.40799
 Alpha  occ. eigenvalues --  -11.31428 -11.29206 -11.25566 -11.25099 -11.24957
 Alpha  occ. eigenvalues --  -11.24856 -11.24510 -11.24189  -1.43011  -1.36563
 Alpha  occ. eigenvalues --   -1.34487  -1.16598  -1.14316  -1.05157  -1.01289
 Alpha  occ. eigenvalues --   -0.97715  -0.91456  -0.86186  -0.83619  -0.79238
 Alpha  occ. eigenvalues --   -0.74830  -0.72844  -0.71412  -0.67957  -0.67353
 Alpha  occ. eigenvalues --   -0.66263  -0.63733  -0.62717  -0.61272  -0.60725
 Alpha  occ. eigenvalues --   -0.60134  -0.58880  -0.56581  -0.54425  -0.53135
 Alpha  occ. eigenvalues --   -0.51967  -0.49994  -0.49068  -0.47912  -0.45465
 Alpha  occ. eigenvalues --   -0.39897  -0.34702  -0.31395
 Alpha virt. eigenvalues --    0.02821   0.03526   0.04089   0.04278   0.05273
 Alpha virt. eigenvalues --    0.05992   0.06301   0.06810   0.07184   0.08283
 Alpha virt. eigenvalues --    0.08739   0.09762   0.10782   0.11086   0.11595

 Mulliken charges:
               1
     1  C    0.837835
     2  C    0.259163
     3  C    0.788676
     4  C   -0.058212
     5  C    0.747054
     6  C    0.451965
     7  C    0.544201
     8  C    0.383869
     9  C    0.128430
    10  H   -0.019195
    11  H   -0.219284
    12  H    0.074882
    13  H    0.094266
    14  H    0.188670
    15  H   -0.524386
    16  H    0.154947
    17  H   -0.599495
    18  H   -0.493455
    19  H    0.077281
    20  H   -0.569919
    21  N   -0.510775
    22  O   -0.527050
    23  O   -0.598864
    24  O   -0.610606
 Sum of Mulliken charges =  -0.00000

 Dipole moment (field-independent basis, Debye):
    X=              0.9775    Y=              1.7022    Z=              1.6976  Tot=              2.5951

 Test job not archived.
 1\1\GINC-SE097\SP\RHF\Aug-CC-pVDZ\C9H11N1O3\OHZDE\08-Apr-2025\0\\#t hf
  aug-cc-pvdz iop(5/13=1,5/36=2,99/5=2) pseudo=read geom=check guess=(r
 ead,tcheck) scf=(maxcycle=1)\\title\\0,1\C,0,1.98627,-1.13476,-0.32695
 4\C,0,-2.38924,0.49328,-0.316454\C,0,-2.1288,-0.853059,0.28105\C,0,-1.
 10539,0.706791,-1.28454\C,0,0.235518,0.458529,-0.761474\C,0,0.95573,1.
 45492,-0.183129\C,0,0.797986,-0.862474,-0.919692\C,0,2.23286,1.12041,0
 .416625\C,0,2.78181,-0.158037,0.273988\H,0,-1.32667,-0.0133708,-2.1000
 2\H,0,-1.19782,1.72932,-1.62907\H,0,-3.19677,0.467838,-1.10249\H,0,-2.

 Normal termination of Gaussian 16 at Tue Apr  8 20:24:07 2025.
