 Gaussian 16, Revision C.01,

 ----------------------------------------------------------------------
 #t hf aug-cc-pvdz symm=none int=(grid=ultrafine) guess=(read,tcheck) s
 table=(opt,rrhf)
 ----------------------------------------------------------------------
 -----
 title
 -----
 Symbolic Z-matrix:
 Charge =  0 Multiplicity = 1

 SCF Done:  E(RHF) =  -583.237106611     A.U. after   15 cycles
 Normal termination of Gaussian 16 at Tue Apr  8 22:01:27 2025.
 Gaussian 16:  ES64L-G16RevC.01  3-Jul-2019

 ----------------------------------------------------------------------
 #t hf aug-cc-pvdz iop(5/13=1,5/36=2,99/5=2) pseudo=read geom=check gue
 ss=(read,tcheck) scf=(maxcycle=1)
 ----------------------------------------------------------------------
 -----
 title
 -----
 Structure from the checkpoint file:  "ANI1ccx_900_conf5_mol1.chk"
 Charge =  0 Multiplicity = 1

                         Standard orientation:
 ---------------------------------------------------------------------
 Center     Atomic      Atomic             Coordinates (Angstroms)
 Number     Number       Type             X           Y           Z
 ---------------------------------------------------------------------
      1          6           0        2.354779   -0.120565   -0.025419
      2          6           0        1.057299   -0.308941    0.841901
      3          6           0       -1.208770    0.756504    0.117900
      4          6           0       -1.817901   -0.667120   -0.142129
      5          1           0        1.581570    1.345890   -0.977700
      6          1           0        0.556288   -1.120750    0.474177
      7          1           0        1.561849   -0.438197    1.787340
      8          1           0        0.393351    1.696100    0.737934
      9          1           0       -3.537981    0.140466   -0.121343
     10          7           0        0.118632    0.790751    0.652077
     11          8           0        2.383010    0.847922   -0.983054
     12          8           0        3.324079   -0.853385    0.118440
     13          8           0       -1.919860    1.719601   -0.006342
     14          8           0       -3.164171   -0.765342   -0.146329
     15          8           0       -1.085301   -1.588549   -0.385023
 ---------------------------------------------------------------------

 SCF Done:  E(RHF) =  -583.418773848     A.U. after    2 cycles

 The electronic state is 1-A.
 Alpha  occ. eigenvalues --  -20.67043 -20.64346 -20.62433 -20.61846 -20.57359
 Alpha  occ. eigenvalues --  -15.70866 -11.45751 -11.44907 -11.42009 -11.32448
 Alpha  occ. eigenvalues --   -1.47113  -1.43246  -1.42658  -1.38431  -1.33580
 Alpha  occ. eigenvalues --   -1.25373  -1.03042  -0.95843  -0.87667  -0.86613
 Alpha  occ. eigenvalues --   -0.79503  -0.78597  -0.74285  -0.72357  -0.70977
 Alpha  occ. eigenvalues --   -0.69149  -0.67407  -0.66693  -0.65206  -0.63274
 Alpha  occ. eigenvalues --   -0.61850  -0.59291  -0.57589  -0.54568  -0.50735
 Alpha  occ. eigenvalues --   -0.50553  -0.48233  -0.44143
 Alpha virt. eigenvalues --    0.02423   0.03565   0.03945   0.04570   0.05229
 Alpha virt. eigenvalues --    0.07423   0.08388   0.09432   0.09938   0.10244
 Alpha virt. eigenvalues --    0.11740   0.11801   0.12669   0.13548   0.13839

 Mulliken charges:
               1
     1  C    0.499820
     2  C    0.895047
     3  C    0.492306
     4  C    0.644373
     5  H    0.158182
     6  H   -0.174832
     7  H    0.060343
     8  H   -0.212077
     9  H    0.222259
    10  N   -0.288453
    11  O   -0.450728
    12  O   -0.512467
    13  O   -0.454803
    14  O   -0.478779
    15  O   -0.400191
 Sum of Mulliken charges =  -0.00000

 Dipole moment (field-independent basis, Debye):
    X=             -3.4282    Y=              3.3527    Z=              1.9053  Tot=              5.1598

 Test job not archived.
 1\1\GINC-SE252\SP\RHF\Aug-CC-pVDZ\C4H5N1O5\OHZDE\08-Apr-2025\0\\#t hf
 aug-cc-pvdz iop(5/13=1,5/36=2,99/5=2) pseudo=read geom=check guess=(re
 ad,tcheck) scf=(maxcycle=1)\\title\\0,1\C,0,2.35478,-0.120565,-0.02541
 92\C,0,1.0573,-0.308941,0.841901\C,0,-1.20877,0.756503,0.1179\C,0,-1.8
 179,-0.667121,-0.142129\H,0,1.58157,1.34589,-0.9777\H,0,0.556289,-1.12
 075,0.474177\H,0,1.56185,-0.438197,1.78734\H,0,0.393351,1.6961,0.73793
 4\H,0,-3.53798,0.140465,-0.121343\N,0,0.118632,0.790751,0.652077\O,0,2
 .38301,0.847922,-0.983054\O,0,3.32408,-0.853385,0.11844\O,0,-1.91986,1

 Normal termination of Gaussian 16 at Tue Apr  8 22:01:34 2025.
