 Gaussian 16, Revision C.01,

 ----------------------------------------------------------------------
 #t hf aug-cc-pvdz symm=none int=(grid=ultrafine) guess=(read,tcheck) s
 table=(opt,rrhf)
 ----------------------------------------------------------------------
 -----
 title
 -----
 Symbolic Z-matrix:
 Charge =  0 Multiplicity = 1

 SCF Done:  E(RHF) =  -380.232174300     A.U. after   11 cycles
 Normal termination of Gaussian 16 at Tue Apr  8 20:57:22 2025.
 Gaussian 16:  ES64L-G16RevC.01  3-Jul-2019

 ----------------------------------------------------------------------
 #t hf aug-cc-pvdz iop(5/13=1,5/36=2,99/5=2) pseudo=read geom=check gue
 ss=(read,tcheck) scf=(maxcycle=1)
 ----------------------------------------------------------------------
 -----
 title
 -----
 Structure from the checkpoint file:  "ANI1ccx_1843_conf14_mol1.chk"
 Charge =  0 Multiplicity = 1

                         Standard orientation:
 ---------------------------------------------------------------------
 Center     Atomic      Atomic             Coordinates (Angstroms)
 Number     Number       Type             X           Y           Z
 ---------------------------------------------------------------------
      1          1           0       -0.825563    0.513120    1.518650
      2          1           0       -1.961611   -0.144387    0.766041
      3          1           0        1.094289    1.169440    0.147646
      4          1           0        0.358664    2.580030    0.245460
      5          1           0       -0.294334   -1.435400    0.561759
      6          1           0       -0.212691   -1.428440   -0.928522
      7          1           0       -1.853791    0.490713   -2.155000
      8          1           0       -0.859203    0.841873   -1.042810
      9          1           0        1.729699   -0.760921   -0.194535
     10          1           0        2.851769   -0.087122    0.646837
     11          8           0       -1.373001   -0.294756    1.513510
     12          8           0        0.202200    1.616640    0.217397
     13          8           0        0.305869   -1.714850   -0.162475
     14          8           0       -1.499531    0.147865   -1.338700
     15          8           0        2.361059    0.027739   -0.175424
 ---------------------------------------------------------------------

 SCF Done:  E(RHF) =  -380.357178591     A.U. after    2 cycles

 The electronic state is 1-A.
 Alpha  occ. eigenvalues --  -20.59636 -20.58492 -20.57672 -20.56564 -20.55905
 Alpha  occ. eigenvalues --   -1.33355  -1.31670  -1.30822  -1.30286  -1.28707
 Alpha  occ. eigenvalues --   -0.75778  -0.74510  -0.72583  -0.71874  -0.70660
 Alpha  occ. eigenvalues --   -0.64089  -0.62709  -0.61261  -0.59801  -0.57137
 Alpha  occ. eigenvalues --   -0.54475  -0.53623  -0.52740  -0.51528  -0.50404
 Alpha virt. eigenvalues --    0.02469   0.04253   0.04991   0.06699   0.07576
 Alpha virt. eigenvalues --    0.07896   0.08084   0.08941   0.09382   0.10984
 Alpha virt. eigenvalues --    0.16091   0.18411   0.19363   0.20321   0.21483

 Mulliken charges:
               1
     1  H    0.246955
     2  H    0.228926
     3  H    0.331502
     4  H    0.240982
     5  H    0.260048
     6  H    0.243555
     7  H    0.196425
     8  H    0.266395
     9  H    0.286986
    10  H    0.174994
    11  O   -0.444741
    12  O   -0.624147
    13  O   -0.516843
    14  O   -0.446496
    15  O   -0.444539
 Sum of Mulliken charges =  -0.00000

 Dipole moment (field-independent basis, Debye):
    X=              0.0880    Y=              3.8978    Z=             -0.9734  Tot=              4.0185

 Test job not archived.
 1\1\GINC-SE097\SP\RHF\Aug-CC-pVDZ\H10O5\OHZDE\08-Apr-2025\0\\#t hf aug
 -cc-pvdz iop(5/13=1,5/36=2,99/5=2) pseudo=read geom=check guess=(read,
 tcheck) scf=(maxcycle=1)\\title\\0,1\H,0,-0.825562,0.51312,1.51865\H,0
 ,-1.96161,-0.144387,0.766041\H,0,1.09429,1.16944,0.147646\H,0,0.358665
 ,2.58003,0.24546\H,0,-0.294333,-1.4354,0.561759\H,0,-0.21269,-1.42844,
 -0.928522\H,0,-1.85379,0.490713,-2.155\H,0,-0.859202,0.841873,-1.04281
 \H,0,1.7297,-0.760921,-0.194535\H,0,2.85177,-0.087122,0.646837\O,0,-1.
 373,-0.294756,1.51351\O,0,0.202201,1.61664,0.217397\O,0,0.30587,-1.714

 Normal termination of Gaussian 16 at Tue Apr  8 20:57:25 2025.
