 Gaussian 16, Revision C.01,

 ----------------------------------------------------------------------
 #t hf aug-cc-pvdz symm=none int=(grid=ultrafine) guess=(read,tcheck) s
 table=(opt,rrhf)
 ----------------------------------------------------------------------
 -----
 title
 -----
 Symbolic Z-matrix:
 Charge =  0 Multiplicity = 1

 SCF Done:  E(RHF) =  -541.237809931     A.U. after   16 cycles
 Normal termination of Gaussian 16 at Tue Apr  8 21:55:40 2025.
 Gaussian 16:  ES64L-G16RevC.01  3-Jul-2019

 ----------------------------------------------------------------------
 #t hf aug-cc-pvdz iop(5/13=1,5/36=2,99/5=2) pseudo=read geom=check gue
 ss=(read,tcheck) scf=(maxcycle=1)
 ----------------------------------------------------------------------
 -----
 title
 -----
 Structure from the checkpoint file:  "ANI1ccx_869_conf13_mol1.chk"
 Charge =  0 Multiplicity = 1

                         Standard orientation:
 ---------------------------------------------------------------------
 Center     Atomic      Atomic             Coordinates (Angstroms)
 Number     Number       Type             X           Y           Z
 ---------------------------------------------------------------------
      1          6           0        1.275981    0.057230   -0.082729
      2          6           0        0.397420    1.302949   -0.055460
      3          6           0       -1.746540   -0.060481    0.030500
      4          6           0        0.557387   -1.267672   -0.019220
      5          1           0        3.096699   -0.542241    0.038296
      6          1           0       -1.562464    1.968735    0.499853
      7          1           0       -1.330416   -2.062446   -0.221032
      8          7           0        2.544391    0.274266   -0.134219
      9          7           0       -1.091726    1.142893    0.107061
     10          7           0       -0.862459   -1.211497   -0.093023
     11          8           0        0.771642    2.428608    0.048713
     12          8           0       -2.896080   -0.258774   -0.084190
     13          8           0        1.219344   -2.294314    0.196178
 ---------------------------------------------------------------------

 SCF Done:  E(RHF) =  -541.400347897     A.U. after    2 cycles

 The electronic state is 1-A.
 Alpha  occ. eigenvalues --  -20.61172 -20.60757 -20.59258 -15.71253 -15.71229
 Alpha  occ. eigenvalues --  -15.70622 -11.45489 -11.44246 -11.43739 -11.37343
 Alpha  occ. eigenvalues --   -1.44186  -1.42461  -1.39390  -1.26330  -1.24108
 Alpha  occ. eigenvalues --   -1.20552  -1.00802  -0.90383  -0.89432  -0.81678
 Alpha  occ. eigenvalues --   -0.79150  -0.72725  -0.71711  -0.70822  -0.69579
 Alpha  occ. eigenvalues --   -0.68996  -0.66290  -0.61981  -0.61290  -0.54537
 Alpha  occ. eigenvalues --   -0.53077  -0.51226  -0.48862  -0.47169  -0.46495
 Alpha  occ. eigenvalues --   -0.46233
 Alpha virt. eigenvalues --   -0.00082   0.03332   0.03896   0.04430   0.06110
 Alpha virt. eigenvalues --    0.08291   0.09154   0.09314   0.11223   0.11467
 Alpha virt. eigenvalues --    0.12163   0.13007   0.13652   0.13726   0.14118

 Mulliken charges:
               1
     1  C    0.506167
     2  C    0.492913
     3  C    0.758250
     4  C    0.923712
     5  H    0.060484
     6  H   -0.010549
     7  H   -0.085277
     8  N   -0.381390
     9  N   -0.499339
    10  N   -0.508639
    11  O   -0.378301
    12  O   -0.346577
    13  O   -0.531453
 Sum of Mulliken charges =  -0.00000

 Dipole moment (field-independent basis, Debye):
    X=             -0.1222    Y=             -0.5867    Z=              0.2031  Tot=              0.6328

 Test job not archived.
 1\1\GINC-SE074\SP\RHF\Aug-CC-pVDZ\C4H3N3O3\OHZDE\08-Apr-2025\0\\#t hf
 aug-cc-pvdz iop(5/13=1,5/36=2,99/5=2) pseudo=read geom=check guess=(re
 ad,tcheck) scf=(maxcycle=1)\\title\\0,1\C,0,1.27598,0.057234,-0.082728
 7\C,0,0.397416,1.30295,-0.0554605\C,0,-1.74654,-0.0604861,0.0305004\C,
 0,0.55739,-1.26767,-0.0192202\H,0,3.0967,-0.542232,0.038296\H,0,-1.562
 47,1.96873,0.499853\H,0,-1.33041,-2.06245,-0.221032\N,0,2.54439,0.2742
 73,-0.134219\N,0,-1.09173,1.14289,0.107061\N,0,-0.862456,-1.2115,-0.09
 30226\O,0,0.771634,2.42861,0.0487125\O,0,-2.89608,-0.258783,-0.0841904

 Normal termination of Gaussian 16 at Tue Apr  8 21:55:46 2025.
