 Gaussian 16, Revision C.01,

 ----------------------------------------------------------------------
 #t hf aug-cc-pvdz symm=none int=(grid=ultrafine) guess=(read,tcheck) s
 table=(opt,rrhf)
 ----------------------------------------------------------------------
 -----
 title
 -----
 Symbolic Z-matrix:
 Charge =  0 Multiplicity = 1

 SCF Done:  E(RHF) =  -637.015139195     A.U. after   17 cycles
 Normal termination of Gaussian 16 at Tue Apr  8 20:56:12 2025.
 Gaussian 16:  ES64L-G16RevC.01  3-Jul-2019

 ----------------------------------------------------------------------
 #t hf aug-cc-pvdz iop(5/13=1,5/36=2,99/5=2) pseudo=read geom=check gue
 ss=(read,tcheck) scf=(maxcycle=1)
 ----------------------------------------------------------------------
 -----
 title
 -----
 Structure from the checkpoint file:  "ANI1ccx_1814_conf1_mol1.chk"
 Charge =  0 Multiplicity = 1

                         Standard orientation:
 ---------------------------------------------------------------------
 Center     Atomic      Atomic             Coordinates (Angstroms)
 Number     Number       Type             X           Y           Z
 ---------------------------------------------------------------------
      1          6           0        1.612680    1.215749    0.074859
      2          6           0        2.956540    0.623243   -0.233053
      3          6           0        0.817514   -1.142681    0.099546
      4          6           0       -1.281011   -0.999456    0.159445
      5          6           0       -2.618691   -1.236849    0.058907
      6          6           0       -3.428450   -0.129530   -0.107492
      7          6           0       -2.984130    1.187651   -0.191555
      8          6           0       -1.621480    1.417690   -0.172760
      9          6           0       -0.820818    0.312275    0.033058
     10          1           0       -1.164969    2.397630   -0.237816
     11          1           0       -3.687909    1.986961   -0.353633
     12          1           0       -4.511240   -0.370881   -0.132691
     13          1           0        3.796240    1.222688   -0.537562
     14          1           0        2.389838   -2.468992   -0.125837
     15          1           0       -2.981411   -2.289159    0.010582
     16          7           0        0.580691    0.246810   -0.052576
     17          7           0        3.127989   -0.648469   -0.299662
     18          7           0        2.144899   -1.516242    0.005916
     19          7           0       -0.238008   -1.842670    0.244679
     20          8           0        1.382191    2.294649    0.470341
 ---------------------------------------------------------------------

 SCF Done:  E(RHF) =  -637.200756784     A.U. after    2 cycles

 The electronic state is 1-A.
 Alpha  occ. eigenvalues --  -20.59215 -15.73589 -15.73150 -15.71018 -15.62698
 Alpha  occ. eigenvalues --  -11.41587 -11.39697 -11.32415 -11.28766 -11.27802
 Alpha  occ. eigenvalues --  -11.25251 -11.24829 -11.24529 -11.24499  -1.42889
 Alpha  occ. eigenvalues --   -1.38034  -1.32201  -1.20076  -1.15918  -1.13439
 Alpha  occ. eigenvalues --   -1.02875  -1.01921  -0.93438  -0.90679  -0.85692
 Alpha  occ. eigenvalues --   -0.84662  -0.78914  -0.77368  -0.73110  -0.71232
 Alpha  occ. eigenvalues --   -0.69300  -0.67959  -0.66627  -0.64460  -0.62158
 Alpha  occ. eigenvalues --   -0.61299  -0.59996  -0.58580  -0.55485  -0.52977
 Alpha  occ. eigenvalues --   -0.51584  -0.48928  -0.46389  -0.46106  -0.45038
 Alpha  occ. eigenvalues --   -0.40531  -0.33159  -0.30733
 Alpha virt. eigenvalues --    0.03022   0.03438   0.03510   0.05120   0.05337
 Alpha virt. eigenvalues --    0.05834   0.07046   0.07401   0.09204   0.09949
 Alpha virt. eigenvalues --    0.10325   0.10578   0.11111   0.11633   0.12054

 Mulliken charges:
               1
     1  C    0.126926
     2  C    0.925265
     3  C    0.096628
     4  C   -0.435241
     5  C    1.003324
     6  C    0.581869
     7  C    0.509164
     8  C    0.886198
     9  C    0.747613
    10  H   -0.553828
    11  H   -0.436686
    12  H   -0.405308
    13  H   -0.239775
    14  H   -0.065616
    15  H   -0.431782
    16  N   -0.905952
    17  N   -0.406399
    18  N   -0.068961
    19  N   -0.530929
    20  O   -0.396510
 Sum of Mulliken charges =  -0.00000

 Dipole moment (field-independent basis, Debye):
    X=              1.3135    Y=             -1.2333    Z=             -1.4374  Tot=              2.3049

 Test job not archived.
 1\1\GINC-SE252\SP\RHF\Aug-CC-pVDZ\C9H6N4O1\OHZDE\08-Apr-2025\0\\#t hf
 aug-cc-pvdz iop(5/13=1,5/36=2,99/5=2) pseudo=read geom=check guess=(re
 ad,tcheck) scf=(maxcycle=1)\\title\\0,1\C,0,1.61268,1.21575,0.0748588\
 C,0,2.95654,0.623245,-0.233053\C,0,0.817515,-1.14268,0.0995458\C,0,-1.
 28101,-0.999456,0.159445\C,0,-2.61869,-1.23685,0.0589075\C,0,-3.42845,
 -0.129531,-0.107492\C,0,-2.98413,1.18765,-0.191555\C,0,-1.62148,1.4176
 9,-0.17276\C,0,-0.820818,0.312275,0.0330584\H,0,-1.16497,2.39763,-0.23
 7816\H,0,-3.68791,1.98696,-0.353633\H,0,-4.51124,-0.370883,-0.132691\H

 Normal termination of Gaussian 16 at Tue Apr  8 20:56:28 2025.
