 Gaussian 16, Revision C.01,

 ----------------------------------------------------------------------
 #t hf aug-cc-pvdz symm=none int=(grid=ultrafine) guess=(read,tcheck) s
 table=(opt,rrhf)
 ----------------------------------------------------------------------
 -----
 title
 -----
 Symbolic Z-matrix:
 Charge =  0 Multiplicity = 1

 SCF Done:  E(RHF) =  -429.701576298     A.U. after   13 cycles
 Normal termination of Gaussian 16 at Tue Apr  8 21:50:20 2025.
 Gaussian 16:  ES64L-G16RevC.01  3-Jul-2019

 ----------------------------------------------------------------------
 #t hf aug-cc-pvdz iop(5/13=1,5/36=2,99/5=2) pseudo=read geom=check gue
 ss=(read,tcheck) scf=(maxcycle=1)
 ----------------------------------------------------------------------
 -----
 title
 -----
 Structure from the checkpoint file:  "ANI1ccx_712_conf5_mol1.chk"
 Charge =  0 Multiplicity = 1

                         Standard orientation:
 ---------------------------------------------------------------------
 Center     Atomic      Atomic             Coordinates (Angstroms)
 Number     Number       Type             X           Y           Z
 ---------------------------------------------------------------------
      1          6           0       -1.252100   -0.392749   -0.023075
      2          6           0        0.011359    1.705889    0.202770
      3          6           0        1.230480   -0.436570   -0.011957
      4          1           0       -2.048706    1.441602   -0.110194
      5          1           0        0.033134    2.035419    1.237960
      6          1           0        0.043138    2.697249   -0.324224
      7          1           0        2.049333    1.399286   -0.526832
      8          1           0       -0.126543   -2.009951    0.303246
      9          7           0       -1.147817    0.964273   -0.155567
     10          7           0        1.202373    0.927436   -0.130234
     11          7           0       -0.031147   -1.022631    0.153454
     12          8           0       -2.286671   -1.042077   -0.058870
     13          8           0        2.280089   -1.071245   -0.023624
 ---------------------------------------------------------------------

 SCF Done:  E(RHF) =  -429.834329938     A.U. after    2 cycles

 The electronic state is 1-A.
 Alpha  occ. eigenvalues --  -20.55451 -20.55055 -15.68515 -15.68037 -15.67892
 Alpha  occ. eigenvalues --  -11.42551 -11.42385 -11.35909  -1.39450  -1.36556
 Alpha  occ. eigenvalues --   -1.28010  -1.20444  -1.18279  -0.97600  -0.89694
 Alpha  occ. eigenvalues --   -0.83042  -0.77258  -0.73050  -0.70183  -0.67550
 Alpha  occ. eigenvalues --   -0.67239  -0.63860  -0.62380  -0.60644  -0.58566
 Alpha  occ. eigenvalues --   -0.49689  -0.46876  -0.44324  -0.43815  -0.41481
 Alpha virt. eigenvalues --    0.01728   0.03487   0.03945   0.05025   0.06563
 Alpha virt. eigenvalues --    0.08983   0.10115   0.10356   0.10569   0.12797
 Alpha virt. eigenvalues --    0.13903   0.14014   0.14283   0.14681   0.15109

 Mulliken charges:
               1
     1  C    0.704058
     2  C    1.330651
     3  C    0.763799
     4  H   -0.043722
     5  H   -0.243351
     6  H   -0.158793
     7  H   -0.009833
     8  H   -0.045407
     9  N   -0.455238
    10  N   -0.513413
    11  N   -0.392268
    12  O   -0.465454
    13  O   -0.471029
 Sum of Mulliken charges =  -0.00000

 Dipole moment (field-independent basis, Debye):
    X=             -0.2072    Y=              5.6446    Z=              0.4196  Tot=              5.6639

 Test job not archived.
 1\1\GINC-SE049\SP\RHF\Aug-CC-pVDZ\C3H5N3O2\OHZDE\08-Apr-2025\0\\#t hf
 aug-cc-pvdz iop(5/13=1,5/36=2,99/5=2) pseudo=read geom=check guess=(re
 ad,tcheck) scf=(maxcycle=1)\\title\\0,1\C,0,-1.2521,-0.39275,-0.023075
 4\C,0,0.0113548,1.70589,0.20277\C,0,1.23048,-0.436567,-0.0119571\H,0,-
 2.04871,1.4416,-0.110194\H,0,0.033129,2.03542,1.23796\H,0,0.0431326,2.
 69725,-0.324224\H,0,2.04933,1.39929,-0.526832\H,0,-0.126541,-2.00995,0
 .303246\N,0,-1.14782,0.964272,-0.155567\N,0,1.20237,0.927439,-0.130234
 \N,0,-0.0311469,-1.02263,0.153454\O,0,-2.28667,-1.04208,-0.0588696\O,0

 Normal termination of Gaussian 16 at Tue Apr  8 21:50:25 2025.
