 Gaussian 16, Revision C.01,

 ----------------------------------------------------------------------
 #t hf aug-cc-pvdz symm=none int=(grid=ultrafine) guess=(read,tcheck) s
 table=(opt,rrhf)
 ----------------------------------------------------------------------
 -----
 title
 -----
 Symbolic Z-matrix:
 Charge =  0 Multiplicity = 1

 SCF Done:  E(RHF) =  -414.366122216     A.U. after   15 cycles
 Normal termination of Gaussian 16 at Tue Apr  8 21:35:42 2025.
 Gaussian 16:  ES64L-G16RevC.01  3-Jul-2019

 ----------------------------------------------------------------------
 #t hf aug-cc-pvdz iop(5/13=1,5/36=2,99/5=2) pseudo=read geom=check gue
 ss=(read,tcheck) scf=(maxcycle=1)
 ----------------------------------------------------------------------
 -----
 title
 -----
 Structure from the checkpoint file:  "ANI1ccx_410_conf3_mol1.chk"
 Charge =  0 Multiplicity = 1

                         Standard orientation:
 ---------------------------------------------------------------------
 Center     Atomic      Atomic             Coordinates (Angstroms)
 Number     Number       Type             X           Y           Z
 ---------------------------------------------------------------------
      1          6           0       -2.432190   -0.420169    0.060388
      2          1           0       -0.541508   -0.508980   -0.062296
      3          1           0       -2.367611   -1.517129    0.227519
      4          1           0        1.905200    1.208080    1.001730
      5          1           0        3.409879   -0.681385   -0.391658
      6          8           0       -1.253740    0.141497   -0.244129
      7          8           0       -3.455470    0.199706    0.129678
      8          8           0        1.906300    1.205460    0.043829
      9          8           0        1.599820   -0.150081   -0.315344
     10          8           0        2.726489   -0.894029    0.243763
 ---------------------------------------------------------------------

 SCF Done:  E(RHF) =  -414.502479732     A.U. after    2 cycles

 The electronic state is 1-A.
 Alpha  occ. eigenvalues --  -20.74633 -20.68543 -20.67903 -20.63154 -20.56880
 Alpha  occ. eigenvalues --  -11.40298  -1.51474  -1.42347  -1.35246  -1.33601
 Alpha  occ. eigenvalues --   -1.16639  -0.86527  -0.81973  -0.79501  -0.72520
 Alpha  occ. eigenvalues --   -0.71854  -0.70092  -0.67824  -0.64627  -0.60305
 Alpha  occ. eigenvalues --   -0.57502  -0.56817  -0.54171  -0.50229  -0.47653
 Alpha virt. eigenvalues --    0.02767   0.04039   0.04471   0.07539   0.08636
 Alpha virt. eigenvalues --    0.09989   0.12105   0.13551   0.14816   0.15535
 Alpha virt. eigenvalues --    0.16231   0.17461   0.18033   0.19750   0.20695

 Mulliken charges:
               1
     1  C    0.740707
     2  H    0.206094
     3  H   -0.140955
     4  H    0.230197
     5  H    0.247083
     6  O   -0.398582
     7  O   -0.399827
     8  O   -0.162373
     9  O   -0.102441
    10  O   -0.219903
 Sum of Mulliken charges =  -0.00000

 Dipole moment (field-independent basis, Debye):
    X=              5.1454    Y=             -2.6610    Z=              1.0892  Tot=              5.8943

 Test job not archived.
 1\1\GINC-SE247\SP\RHF\Aug-CC-pVDZ\C1H4O5\OHZDE\08-Apr-2025\0\\#t hf au
 g-cc-pvdz iop(5/13=1,5/36=2,99/5=2) pseudo=read geom=check guess=(read
 ,tcheck) scf=(maxcycle=1)\\title\\0,1\C,0,-2.43219,-0.42017,0.0603886\
 H,0,-0.541508,-0.508981,-0.0622954\H,0,-2.36761,-1.51713,0.227519\H,0,
 1.9052,1.20808,1.00173\H,0,3.40988,-0.681385,-0.391658\O,0,-1.25374,0.
 141496,-0.244129\O,0,-3.45547,0.199705,0.129678\O,0,1.9063,1.20546,0.0
 438294\O,0,1.59982,-0.150081,-0.315344\O,0,2.72649,-0.894029,0.243763\
 \Version=ES64L-G16RevC.01\State=1-A\HF=-414.5024797\RMSD=2.248e-03\Dip

 Normal termination of Gaussian 16 at Tue Apr  8 21:35:45 2025.
