 Gaussian 16, Revision C.01,

 ----------------------------------------------------------------------
 #t hf aug-cc-pvdz symm=none int=(grid=ultrafine) guess=(read,tcheck) s
 table=(opt,rrhf)
 ----------------------------------------------------------------------
 -----
 title
 -----
 Symbolic Z-matrix:
 Charge =  0 Multiplicity = 1

 SCF Done:  E(RHF) =  -396.766324843     A.U. after   14 cycles
 Normal termination of Gaussian 16 at Tue Apr  8 21:50:58 2025.
 Gaussian 16:  ES64L-G16RevC.01  3-Jul-2019

 ----------------------------------------------------------------------
 #t hf aug-cc-pvdz iop(5/13=1,5/36=2,99/5=2) pseudo=read geom=check gue
 ss=(read,tcheck) scf=(maxcycle=1)
 ----------------------------------------------------------------------
 -----
 title
 -----
 Structure from the checkpoint file:  "ANI1ccx_744_conf15_mol1.chk"
 Charge =  0 Multiplicity = 1

                         Standard orientation:
 ---------------------------------------------------------------------
 Center     Atomic      Atomic             Coordinates (Angstroms)
 Number     Number       Type             X           Y           Z
 ---------------------------------------------------------------------
      1          6           0       -0.023695    0.741817    0.386626
      2          6           0        1.041039   -0.301651    0.085642
      3          6           0       -1.264251    0.055242    0.829202
      4          1           0       -0.751037    1.330850   -1.419460
      5          1           0        0.733931    1.835650   -1.132010
      6          1           0        0.376713    1.339570    1.223420
      7          1           0       -0.987676   -0.596177    1.629880
      8          1           0       -1.997401    0.763567    1.129370
      9          1           0       -2.506372   -1.335939    0.199906
     10          1           0       -0.299553   -1.033020   -0.909802
     11          7           0       -0.165039    1.708190   -0.669308
     12          8           0        2.184689   -0.214703    0.528914
     13          8           0       -1.845251   -0.742871   -0.228403
     14          8           0        0.669077   -1.196710   -0.781132
 ---------------------------------------------------------------------

 SCF Done:  E(RHF) =  -396.890735556     A.U. after    2 cycles

 The electronic state is 1-A.
 Alpha  occ. eigenvalues --  -20.62787 -20.62029 -20.54863 -15.63706 -11.38749
 Alpha  occ. eigenvalues --  -11.32289 -11.29577  -1.43295  -1.36781  -1.31213
 Alpha  occ. eigenvalues --   -1.19505  -1.03419  -0.89686  -0.84188  -0.77970
 Alpha  occ. eigenvalues --   -0.74884  -0.69308  -0.67739  -0.66362  -0.63986
 Alpha  occ. eigenvalues --   -0.62654  -0.60967  -0.55780  -0.54523  -0.51930
 Alpha  occ. eigenvalues --   -0.48104  -0.47191  -0.40978
 Alpha virt. eigenvalues --    0.01980   0.03900   0.04306   0.04990   0.06497
 Alpha virt. eigenvalues --    0.07045   0.07882   0.10551   0.11116   0.11739
 Alpha virt. eigenvalues --    0.13480   0.14299   0.14438   0.15451   0.15907

 Mulliken charges:
               1
     1  C    0.158608
     2  C    0.543920
     3  C    1.137988
     4  H    0.066636
     5  H    0.031983
     6  H   -0.167415
     7  H   -0.158786
     8  H   -0.139793
     9  H    0.216127
    10  H    0.332293
    11  N   -0.368291
    12  O   -0.503029
    13  O   -0.715831
    14  O   -0.434410
 Sum of Mulliken charges =  -0.00000

 Dipole moment (field-independent basis, Debye):
    X=             -5.6046    Y=             -0.0972    Z=              0.5409  Tot=              5.6314

 Test job not archived.
 1\1\GINC-SE179\SP\RHF\Aug-CC-pVDZ\C3H7N1O3\OHZDE\08-Apr-2025\0\\#t hf
 aug-cc-pvdz iop(5/13=1,5/36=2,99/5=2) pseudo=read geom=check guess=(re
 ad,tcheck) scf=(maxcycle=1)\\title\\0,1\C,0,-0.0236943,0.741817,0.3866
 26\C,0,1.04104,-0.30165,0.0856423\C,0,-1.26425,0.0552419,0.829202\H,0,
 -0.751037,1.33085,-1.41946\H,0,0.733931,1.83565,-1.13201\H,0,0.376713,
 1.33957,1.22342\H,0,-0.987675,-0.596177,1.62988\H,0,-1.9974,0.763566,1
 .12937\H,0,-2.50637,-1.33594,0.199906\H,0,-0.299552,-1.03302,-0.909802
 \N,0,-0.165039,1.70819,-0.669308\O,0,2.18469,-0.214702,0.528914\O,0,-1

 Normal termination of Gaussian 16 at Tue Apr  8 21:51:04 2025.
