 Gaussian 16, Revision C.01,

 ----------------------------------------------------------------------
 #t hf aug-cc-pvdz symm=none int=(grid=ultrafine) guess=(read,tcheck) s
 table=(opt,rrhf)
 ----------------------------------------------------------------------
 -----
 title
 -----
 Symbolic Z-matrix:
 Charge =  0 Multiplicity = 1

 SCF Done:  E(RHF) =  -334.537145491     A.U. after   14 cycles
 Normal termination of Gaussian 16 at Tue Apr  8 21:09:18 2025.
 Gaussian 16:  ES64L-G16RevC.01  3-Jul-2019

 ----------------------------------------------------------------------
 #t hf aug-cc-pvdz iop(5/13=1,5/36=2,99/5=2) pseudo=read geom=check gue
 ss=(read,tcheck) scf=(maxcycle=1)
 ----------------------------------------------------------------------
 -----
 title
 -----
 Structure from the checkpoint file:  "ANI1ccx_1859_conf2_mol1.chk"
 Charge =  0 Multiplicity = 1

                         Standard orientation:
 ---------------------------------------------------------------------
 Center     Atomic      Atomic             Coordinates (Angstroms)
 Number     Number       Type             X           Y           Z
 ---------------------------------------------------------------------
      1          1           0       -1.902869    1.408463   -0.413522
      2          1           0       -1.539270   -1.236588    0.954526
      3          7           0        1.861490   -0.069424   -0.248328
      4          7           0        2.858640   -0.074783    0.228944
      5          8           0       -1.193999    1.185072    0.198673
      6          8           0       -0.761198   -0.073908   -0.285396
      7          8           0       -1.744650   -1.006467    0.036058
 ---------------------------------------------------------------------

 SCF Done:  E(RHF) =  -334.644187597     A.U. after    2 cycles

 The electronic state is 1-A.
 Alpha  occ. eigenvalues --  -20.71407 -20.66030 -20.65843 -15.74547 -15.74238
 Alpha  occ. eigenvalues --   -1.51458  -1.40961  -1.34298  -1.13042  -0.81172
 Alpha  occ. eigenvalues --   -0.74917  -0.71447  -0.71177  -0.67927  -0.61201
 Alpha  occ. eigenvalues --   -0.59435  -0.59380  -0.54573  -0.53563  -0.51857
 Alpha virt. eigenvalues --    0.03766   0.04968   0.10253   0.12853   0.13533
 Alpha virt. eigenvalues --    0.13804   0.14712   0.15373   0.16827   0.17942
 Alpha virt. eigenvalues --    0.19142   0.19431   0.21411   0.21809   0.24918

 Mulliken charges:
               1
     1  H    0.227987
     2  H    0.230983
     3  N    0.013704
     4  N   -0.026715
     5  O   -0.194326
     6  O   -0.050250
     7  O   -0.201384
 Sum of Mulliken charges =  -0.00000

 Dipole moment (field-independent basis, Debye):
    X=             -1.2711    Y=              0.0288    Z=              0.6444  Tot=              1.4254

 Test job not archived.
 1\1\GINC-SE398\SP\RHF\Aug-CC-pVDZ\H2N2O3\OHZDE\08-Apr-2025\0\\#t hf au
 g-cc-pvdz iop(5/13=1,5/36=2,99/5=2) pseudo=read geom=check guess=(read
 ,tcheck) scf=(maxcycle=1)\\title\\0,1\H,0,-1.90287,1.40846,-0.413522\H
 ,0,-1.53927,-1.23659,0.954526\N,0,1.86149,-0.069424,-0.248328\N,0,2.85
 864,-0.0747824,0.228944\O,0,-1.194,1.18507,0.198673\O,0,-0.761198,-0.0
 739102,-0.285396\O,0,-1.74465,-1.00647,0.0360584\\Version=ES64L-G16Rev
 C.01\State=1-A\HF=-334.6441876\RMSD=2.718e-03\Dipole=-0.5000787,0.0113
 273,0.2535332\Quadrupole=-0.346192,0.2424368,0.1037553,-1.7146065,-0.7

 Normal termination of Gaussian 16 at Tue Apr  8 21:09:19 2025.
