 Gaussian 16, Revision C.01,

 ----------------------------------------------------------------------
 #t hf aug-cc-pvdz symm=none int=(grid=ultrafine) guess=(read,tcheck) s
 table=(opt,rrhf)
 ----------------------------------------------------------------------
 -----
 title
 -----
 Symbolic Z-matrix:
 Charge =  0 Multiplicity = 1

 SCF Done:  E(RHF) =  -380.225480248     A.U. after   11 cycles
 Normal termination of Gaussian 16 at Tue Apr  8 21:01:26 2025.
 Gaussian 16:  ES64L-G16RevC.01  3-Jul-2019

 ----------------------------------------------------------------------
 #t hf aug-cc-pvdz iop(5/13=1,5/36=2,99/5=2) pseudo=read geom=check gue
 ss=(read,tcheck) scf=(maxcycle=1)
 ----------------------------------------------------------------------
 -----
 title
 -----
 Structure from the checkpoint file:  "ANI1ccx_1843_conf34_mol1.chk"
 Charge =  0 Multiplicity = 1

                         Standard orientation:
 ---------------------------------------------------------------------
 Center     Atomic      Atomic             Coordinates (Angstroms)
 Number     Number       Type             X           Y           Z
 ---------------------------------------------------------------------
      1          1           0       -0.686947    0.693743    1.437219
      2          1           0       -1.840240   -0.067231    0.867122
      3          1           0        1.281241    1.048698   -0.054841
      4          1           0        0.770490    2.537279    0.086385
      5          1           0       -0.323292   -1.417581    0.666434
      6          1           0       -0.477297   -1.256981   -0.831148
      7          1           0       -2.016560    0.433047   -2.094501
      8          1           0       -0.923640    0.861512   -0.989972
      9          1           0        1.535990   -0.845774   -0.229638
     10          1           0        2.674270   -0.371417    0.693736
     11          8           0       -1.232650   -0.074640    1.644319
     12          8           0        0.456408    1.637509    0.040018
     13          8           0        0.068490   -1.742141   -0.178210
     14          8           0       -1.582060    0.173921   -1.242741
     15          8           0        2.290560   -0.196560   -0.207234
 ---------------------------------------------------------------------

 SCF Done:  E(RHF) =  -380.350013546     A.U. after    2 cycles

 The electronic state is 1-A.
 Alpha  occ. eigenvalues --  -20.59977 -20.58644 -20.58623 -20.57056 -20.56068
 Alpha  occ. eigenvalues --   -1.33422  -1.32133  -1.30704  -1.30441  -1.28586
 Alpha  occ. eigenvalues --   -0.76373  -0.74968  -0.72263  -0.71422  -0.70914
 Alpha  occ. eigenvalues --   -0.64156  -0.63124  -0.61278  -0.60501  -0.57678
 Alpha  occ. eigenvalues --   -0.54468  -0.53937  -0.52778  -0.51676  -0.50686
 Alpha virt. eigenvalues --    0.02556   0.04067   0.05051   0.06836   0.07471
 Alpha virt. eigenvalues --    0.08037   0.08217   0.08880   0.09405   0.10890
 Alpha virt. eigenvalues --    0.16447   0.17760   0.19388   0.19874   0.21621

 Mulliken charges:
               1
     1  H    0.223896
     2  H    0.239740
     3  H    0.365210
     4  H    0.219267
     5  H    0.273376
     6  H    0.241222
     7  H    0.228137
     8  H    0.259383
     9  H    0.266344
    10  H    0.220173
    11  O   -0.434533
    12  O   -0.600987
    13  O   -0.528422
    14  O   -0.486191
    15  O   -0.486615
 Sum of Mulliken charges =  -0.00000

 Dipole moment (field-independent basis, Debye):
    X=              0.0799    Y=              3.5202    Z=             -1.2350  Tot=              3.7314

 Test job not archived.
 1\1\GINC-SE150\SP\RHF\Aug-CC-pVDZ\H10O5\OHZDE\08-Apr-2025\0\\#t hf aug
 -cc-pvdz iop(5/13=1,5/36=2,99/5=2) pseudo=read geom=check guess=(read,
 tcheck) scf=(maxcycle=1)\\title\\0,1\H,0,-0.686947,0.693744,1.43722\H,
 0,-1.84024,-0.0672304,0.867123\H,0,1.28124,1.0487,-0.0548397\H,0,0.770
 489,2.53728,0.0863861\H,0,-0.323291,-1.41758,0.666435\H,0,-0.477297,-1
 .25698,-0.831147\H,0,-2.01656,0.433047,-2.0945\H,0,-0.92364,0.861513,-
 0.989971\H,0,1.53599,-0.845772,-0.229637\H,0,2.67427,-0.371415,0.69373
 7\O,0,-1.23265,-0.0746398,1.64432\O,0,0.456407,1.63751,0.0400191\O,0,0

 Normal termination of Gaussian 16 at Tue Apr  8 21:01:30 2025.
