 Gaussian 16, Revision C.01,

 ----------------------------------------------------------------------
 #t hf aug-cc-pvdz symm=none int=(grid=ultrafine) guess=(read,tcheck) s
 table=(opt,rrhf)
 ----------------------------------------------------------------------
 -----
 title
 -----
 Symbolic Z-matrix:
 Charge =  0 Multiplicity = 1

 SCF Done:  E(RHF) =  -441.659101439     A.U. after   15 cycles
 Normal termination of Gaussian 16 at Tue Apr  8 21:35:50 2025.
 Gaussian 16:  ES64L-G16RevC.01  3-Jul-2019

 ----------------------------------------------------------------------
 #t hf aug-cc-pvdz iop(5/13=1,5/36=2,99/5=2) pseudo=read geom=check gue
 ss=(read,tcheck) scf=(maxcycle=1)
 ----------------------------------------------------------------------
 -----
 title
 -----
 Structure from the checkpoint file:  "ANI1ccx_405_conf9_mol1.chk"
 Charge =  0 Multiplicity = 1

                         Standard orientation:
 ---------------------------------------------------------------------
 Center     Atomic      Atomic             Coordinates (Angstroms)
 Number     Number       Type             X           Y           Z
 ---------------------------------------------------------------------
      1          6           0        0.088033    0.717746    0.089188
      2          1           0       -2.707510    0.657363    0.728229
      3          1           0       -2.302910    0.781270   -0.892114
      4          1           0        2.662270    0.350486    0.833534
      5          1           0        2.601850    0.671312   -0.674415
      6          7           0       -2.360850    0.166922   -0.134122
      7          7           0       -0.995883   -0.102332    0.239940
      8          7           0       -0.759439   -1.453351   -0.002130
      9          7           0        0.467216   -1.503171   -0.070086
     10          7           0        1.018600   -0.255273   -0.032455
     11          7           0        2.311060   -0.080307   -0.039647
     12          8           0        0.181645    1.978209   -0.032608
 ---------------------------------------------------------------------

 SCF Done:  E(RHF) =  -441.784003169     A.U. after    2 cycles

 The electronic state is 1-A.
 Alpha  occ. eigenvalues --  -20.56978 -15.76321 -15.75538 -15.75327 -15.74774
 Alpha  occ. eigenvalues --  -15.69245 -15.69237 -11.43179  -1.50665  -1.35389
 Alpha  occ. eigenvalues --   -1.33373  -1.25710  -1.13658  -1.08202  -0.90535
 Alpha  occ. eigenvalues --   -0.89088  -0.78316  -0.76983  -0.72986  -0.69398
 Alpha  occ. eigenvalues --   -0.65986  -0.64018  -0.59129  -0.55992  -0.52928
 Alpha  occ. eigenvalues --   -0.49725  -0.49057  -0.46249  -0.43954  -0.40092
 Alpha virt. eigenvalues --    0.03048   0.03411   0.03744   0.06801   0.09109
 Alpha virt. eigenvalues --    0.09849   0.11956   0.12532   0.12850   0.13081
 Alpha virt. eigenvalues --    0.13680   0.15501   0.15927   0.17034   0.17326

 Mulliken charges:
               1
     1  C    0.735333
     2  H    0.180166
     3  H    0.030783
     4  H    0.090572
     5  H    0.057712
     6  N    0.035926
     7  N   -0.370702
     8  N   -0.113897
     9  N   -0.112284
    10  N   -0.139285
    11  N    0.129219
    12  O   -0.523543
 Sum of Mulliken charges =  -0.00000

 Dipole moment (field-independent basis, Debye):
    X=              0.2745    Y=              0.9293    Z=              0.5925  Tot=              1.1357

 Test job not archived.
 1\1\GINC-SE083\SP\RHF\Aug-CC-pVDZ\C1H4N6O1\OHZDE\08-Apr-2025\0\\#t hf
 aug-cc-pvdz iop(5/13=1,5/36=2,99/5=2) pseudo=read geom=check guess=(re
 ad,tcheck) scf=(maxcycle=1)\\title\\0,1\C,0,0.0880325,0.717747,0.08918
 78\H,0,-2.70751,0.657364,0.728229\H,0,-2.30291,0.781271,-0.892114\H,0,
 2.66227,0.350487,0.833534\H,0,2.60185,0.671313,-0.674415\N,0,-2.36085,
 0.166923,-0.134122\N,0,-0.995883,-0.102331,0.23994\N,0,-0.759439,-1.45
 335,-0.00212984\N,0,0.467216,-1.50317,-0.0700862\N,0,1.0186,-0.255272,
 -0.0324551\N,0,2.31106,-0.0803058,-0.0396467\O,0,0.181645,1.97821,-0.0

 Normal termination of Gaussian 16 at Tue Apr  8 21:35:55 2025.
