 Gaussian 16, Revision C.01,

 ----------------------------------------------------------------------
 #t hf aug-cc-pvdz symm=none int=(grid=ultrafine) guess=(read,tcheck) s
 table=(opt,rrhf)
 ----------------------------------------------------------------------
 -----
 title
 -----
 Symbolic Z-matrix:
 Charge =  0 Multiplicity = 1

 SCF Done:  E(RHF) =  -447.774944892     A.U. after   14 cycles
 Normal termination of Gaussian 16 at Tue Apr  8 21:47:31 2025.
 Gaussian 16:  ES64L-G16RevC.01  3-Jul-2019

 ----------------------------------------------------------------------
 #t hf aug-cc-pvdz iop(5/13=1,5/36=2,99/5=2) pseudo=read geom=check gue
 ss=(read,tcheck) scf=(maxcycle=1)
 ----------------------------------------------------------------------
 -----
 title
 -----
 Structure from the checkpoint file:  "ANI1ccx_586_conf7_mol1.chk"
 Charge =  0 Multiplicity = 1

                         Standard orientation:
 ---------------------------------------------------------------------
 Center     Atomic      Atomic             Coordinates (Angstroms)
 Number     Number       Type             X           Y           Z
 ---------------------------------------------------------------------
      1          6           0       -1.483090   -1.597272    0.526226
      2          6           0        0.290567    0.017877   -0.074735
      3          1           0       -1.594280   -1.319062    1.605540
      4          1           0       -0.814809   -2.449271    0.541464
      5          1           0       -2.406700   -1.947072    0.079212
      6          1           0       -2.806371    0.295536    0.158829
      7          1           0       -2.358871    0.406434   -1.414360
      8          1           0        1.010720   -1.628190   -0.967306
      9          1           0        2.514209    0.241953    0.152673
     10          1           0       -0.781914    2.159579    0.122467
     11          7           0       -1.041971   -0.427229   -0.240024
     12          7           0       -2.002251    0.610658   -0.445939
     13          7           0        1.145620   -1.111740   -0.087013
     14          7           0        0.846471    1.123690    0.117387
     15          8           0        2.515280   -0.721628   -0.136462
     16          8           0        0.204479    2.265229    0.336669
 ---------------------------------------------------------------------

 SCF Done:  E(RHF) =  -447.910283774     A.U. after    2 cycles

 The electronic state is 1-A.
 Alpha  occ. eigenvalues --  -20.60304 -20.58791 -15.70140 -15.69005 -15.68543
 Alpha  occ. eigenvalues --  -15.66424 -11.35497 -11.29672  -1.39833  -1.35267
 Alpha  occ. eigenvalues --   -1.29575  -1.16504  -1.07740  -1.03908  -0.94327
 Alpha  occ. eigenvalues --   -0.81207  -0.76153  -0.72825  -0.70625  -0.66653
 Alpha  occ. eigenvalues --   -0.65622  -0.61728  -0.61038  -0.60807  -0.58490
 Alpha  occ. eigenvalues --   -0.56852  -0.54231  -0.50980  -0.47407  -0.43352
 Alpha  occ. eigenvalues --   -0.38173  -0.34484
 Alpha virt. eigenvalues --    0.01766   0.03314   0.03596   0.05040   0.06880
 Alpha virt. eigenvalues --    0.07211   0.07475   0.07916   0.10312   0.12577
 Alpha virt. eigenvalues --    0.13753   0.14274   0.14843   0.15403   0.15922

 Mulliken charges:
               1
     1  C    0.860016
     2  C    0.847037
     3  H   -0.007824
     4  H   -0.217499
     5  H   -0.174667
     6  H    0.136658
     7  H    0.215919
     8  H    0.147479
     9  H    0.236595
    10  H    0.235414
    11  N   -0.502795
    12  N   -0.482908
    13  N   -0.118357
    14  N   -0.089013
    15  O   -0.527084
    16  O   -0.558969
 Sum of Mulliken charges =  -0.00000

 Dipole moment (field-independent basis, Debye):
    X=             -6.2291    Y=             -2.3396    Z=             -1.1145  Tot=              6.7466

 Test job not archived.
 1\1\GINC-SE109\SP\RHF\Aug-CC-pVDZ\C2H8N4O2\OHZDE\08-Apr-2025\0\\#t hf
 aug-cc-pvdz iop(5/13=1,5/36=2,99/5=2) pseudo=read geom=check guess=(re
 ad,tcheck) scf=(maxcycle=1)\\title\\0,1\C,0,-1.48309,-1.59727,0.526226
 \C,0,0.290568,0.0178776,-0.0747351\H,0,-1.59428,-1.31906,1.60554\H,0,-
 0.81481,-2.44927,0.541464\H,0,-2.4067,-1.94707,0.0792122\H,0,-2.80637,
 0.295538,0.158829\H,0,-2.35887,0.406436,-1.41436\H,0,1.01072,-1.62819,
 -0.967306\H,0,2.51421,0.241952,0.152673\H,0,-0.781912,2.15958,0.122467
 \N,0,-1.04197,-0.427228,-0.240024\N,0,-2.00225,0.61066,-0.445939\N,0,1

 Normal termination of Gaussian 16 at Tue Apr  8 21:47:37 2025.
