 Gaussian 16, Revision C.01,

 ----------------------------------------------------------------------
 #t hf aug-cc-pvdz symm=none int=(grid=ultrafine) guess=(read,tcheck) s
 table=(opt,rrhf)
 ----------------------------------------------------------------------
 -----
 title
 -----
 Symbolic Z-matrix:
 Charge =  0 Multiplicity = 1

 SCF Done:  E(RHF) =  -717.454359190     A.U. after   15 cycles
 Normal termination of Gaussian 16 at Tue Apr  8 19:20:05 2025.
 Gaussian 16:  ES64L-G16RevC.01  3-Jul-2019

 ----------------------------------------------------------------------
 #t hf aug-cc-pvdz iop(5/13=1,5/36=2,99/5=2) pseudo=read geom=check gue
 ss=(read,tcheck) scf=(maxcycle=1)
 ----------------------------------------------------------------------
 -----
 title
 -----
 Structure from the checkpoint file:  "ANI1ccx_1215_conf18_mol1.chk"
 Charge =  0 Multiplicity = 1

                         Standard orientation:
 ---------------------------------------------------------------------
 Center     Atomic      Atomic             Coordinates (Angstroms)
 Number     Number       Type             X           Y           Z
 ---------------------------------------------------------------------
      1          6           0       -1.951900    0.041423   -0.368311
      2          6           0       -1.250960    0.343112    0.951811
      3          6           0       -1.540700   -1.298580   -0.900198
      4          6           0        1.017130    0.331710   -0.092983
      5          6           0        2.052750   -0.779623    0.003235
      6          6           0        1.648360    1.646019   -0.250472
      7          1           0        0.460865   -1.880321    0.044941
      8          1           0       -0.112948    2.234340   -0.869862
      9          1           0        2.352160    1.514509   -1.162820
     10          1           0        2.274181    1.879479    0.643101
     11          1           0        0.315217    0.277494   -0.931121
     12          1           0        0.525715    0.412759    1.918320
     13          1           0       -2.340160   -1.622590   -1.620710
     14          1           0       -0.479328   -1.273620   -1.486120
     15          1           0       -3.042810    0.007530   -0.085389
     16          1           0       -2.257380    1.000890   -2.159150
     17          1           0       -2.082349    1.902020   -0.820470
     18          1           0       -1.623661   -2.185250    0.946242
     19          7           0       -1.758140    1.054710   -1.305940
     20          7           0        0.105254    0.174154    1.026500
     21          8           0        0.682549    2.624999   -0.431032
     22          8           0       -1.859800    0.823978    1.883680
     23          8           0       -1.304721   -2.383350    0.029426
     24          8           0        3.212560   -0.660763    0.185230
     25          8           0        1.485989   -1.976571   -0.232222
 ---------------------------------------------------------------------

 SCF Done:  E(RHF) =  -717.672485249     A.U. after    2 cycles

 The electronic state is 1-A.
 Alpha  occ. eigenvalues --  -20.63194 -20.61198 -20.58138 -20.57833 -20.57114
 Alpha  occ. eigenvalues --  -15.67779 -15.67208 -11.39917 -11.39661 -11.34968
 Alpha  occ. eigenvalues --  -11.32985 -11.30705 -11.30460  -1.42317  -1.39485
 Alpha  occ. eigenvalues --   -1.36525  -1.34390  -1.32891  -1.25368  -1.23226
 Alpha  occ. eigenvalues --   -1.05282  -1.03420  -0.92469  -0.89714  -0.83736
 Alpha  occ. eigenvalues --   -0.81844  -0.77613  -0.76733  -0.74211  -0.73167
 Alpha  occ. eigenvalues --   -0.69694  -0.69039  -0.68422  -0.67867  -0.66085
 Alpha  occ. eigenvalues --   -0.64918  -0.64051  -0.62459  -0.61277  -0.59610
 Alpha  occ. eigenvalues --   -0.57815  -0.57218  -0.56085  -0.52983  -0.51130
 Alpha  occ. eigenvalues --   -0.49542  -0.48831  -0.48137  -0.46281  -0.44162
 Alpha  occ. eigenvalues --   -0.41932
 Alpha virt. eigenvalues --    0.01492   0.03009   0.03669   0.04072   0.05550
 Alpha virt. eigenvalues --    0.05779   0.06757   0.07066   0.07616   0.08149
 Alpha virt. eigenvalues --    0.09127   0.10013   0.10711   0.11260   0.11299

 Mulliken charges:
               1
     1  C   -0.345529
     2  C    0.409060
     3  C    0.977289
     4  C    0.061014
     5  C    0.711388
     6  C    1.097607
     7  H    0.480540
     8  H    0.182001
     9  H    0.173622
    10  H    0.043561
    11  H   -0.489467
    12  H   -0.067690
    13  H   -0.161958
    14  H    0.213932
    15  H   -0.061407
    16  H   -0.008353
    17  H    0.160618
    18  H    0.249573
    19  N   -0.287817
    20  N   -0.583140
    21  O   -0.518331
    22  O   -0.512165
    23  O   -0.697148
    24  O   -0.429089
    25  O   -0.598111
 Sum of Mulliken charges =  -0.00000

 Dipole moment (field-independent basis, Debye):
    X=             -5.6934    Y=              0.4019    Z=             -2.8863  Tot=              6.3958

 Test job not archived.
 1\1\GINC-SE105\SP\RHF\Aug-CC-pVDZ\C6H12N2O5\OHZDE\08-Apr-2025\0\\#t hf
  aug-cc-pvdz iop(5/13=1,5/36=2,99/5=2) pseudo=read geom=check guess=(r
 ead,tcheck) scf=(maxcycle=1)\\title\\0,1\C,0,-1.9519,0.0414229,-0.3683
 11\C,0,-1.25096,0.343112,0.951811\C,0,-1.5407,-1.29858,-0.900198\C,0,1
 .01713,0.331711,-0.0929823\C,0,2.05275,-0.779622,0.00323505\C,0,1.6483
 6,1.64602,-0.250472\H,0,0.460866,-1.88032,0.0449409\H,0,-0.112949,2.23
 434,-0.869862\H,0,2.35216,1.51451,-1.16282\H,0,2.27418,1.87948,0.64310
 1\H,0,0.315217,0.277495,-0.931121\H,0,0.525715,0.41276,1.91832\H,0,-2.

 Normal termination of Gaussian 16 at Tue Apr  8 19:20:28 2025.
