 Gaussian 16, Revision C.01,

 ----------------------------------------------------------------------
 #t hf aug-cc-pvdz symm=none int=(grid=ultrafine) guess=(read,tcheck) s
 table=(opt,rrhf)
 ----------------------------------------------------------------------
 -----
 title
 -----
 Symbolic Z-matrix:
 Charge =  0 Multiplicity = 1

 SCF Done:  E(RHF) =  -430.234744676     A.U. after   15 cycles
 Normal termination of Gaussian 16 at Tue Apr  8 21:39:47 2025.
 Gaussian 16:  ES64L-G16RevC.01  3-Jul-2019

 ----------------------------------------------------------------------
 #t hf aug-cc-pvdz iop(5/13=1,5/36=2,99/5=2) pseudo=read geom=check gue
 ss=(read,tcheck) scf=(maxcycle=1)
 ----------------------------------------------------------------------
 -----
 title
 -----
 Structure from the checkpoint file:  "ANI1ccx_470_conf1_mol2.chk"
 Charge =  0 Multiplicity = 1

                         Standard orientation:
 ---------------------------------------------------------------------
 Center     Atomic      Atomic             Coordinates (Angstroms)
 Number     Number       Type             X           Y           Z
 ---------------------------------------------------------------------
      1          6           0       -1.114640   -0.175845   -0.044108
      2          6           0        1.084100   -0.184870    0.055752
      3          1           0       -1.081690    1.916231    0.404567
      4          7           0       -0.660493    1.178570   -0.121944
      5          8           0       -2.221321   -0.591958   -0.067820
      6          8           0        0.764277    1.149770    0.074199
      7          8           0        2.227729   -0.576432   -0.134335
      8          8           0       -0.034637   -0.981622    0.175353
 ---------------------------------------------------------------------

 SCF Done:  E(RHF) =  -430.370604494     A.U. after    2 cycles

 The electronic state is 1-A.
 Alpha  occ. eigenvalues --  -20.72547 -20.72076 -20.62056 -20.61541 -15.77574
 Alpha  occ. eigenvalues --  -11.51484 -11.49608  -1.56648  -1.46031  -1.41903
 Alpha  occ. eigenvalues --   -1.38474  -1.18877  -0.95624  -0.93693  -0.81786
 Alpha  occ. eigenvalues --   -0.78278  -0.75588  -0.71420  -0.70332  -0.68847
 Alpha  occ. eigenvalues --   -0.66662  -0.62477  -0.56068  -0.54209  -0.53200
 Alpha  occ. eigenvalues --   -0.47699
 Alpha virt. eigenvalues --    0.02289   0.06725   0.07368   0.07454   0.10689
 Alpha virt. eigenvalues --    0.10997   0.11326   0.11868   0.12350   0.13406
 Alpha virt. eigenvalues --    0.15273   0.15615   0.16185   0.18770   0.22544

 Mulliken charges:
               1
     1  C    0.750039
     2  C    0.891553
     3  H    0.090451
     4  N    0.003135
     5  O   -0.311678
     6  O   -0.547926
     7  O   -0.405445
     8  O   -0.470129
 Sum of Mulliken charges =   0.00000

 Dipole moment (field-independent basis, Debye):
    X=             -1.5533    Y=              3.1172    Z=              1.1898  Tot=              3.6804

 Test job not archived.
 1\1\GINC-SE273\SP\RHF\Aug-CC-pVDZ\C2H1N1O4\OHZDE\08-Apr-2025\0\\#t hf
 aug-cc-pvdz iop(5/13=1,5/36=2,99/5=2) pseudo=read geom=check guess=(re
 ad,tcheck) scf=(maxcycle=1)\\title\\0,1\C,0,-1.11464,-0.175846,-0.0441
 081\C,0,1.0841,-0.18487,0.0557523\H,0,-1.08169,1.91623,0.404567\N,0,-0
 .660493,1.17857,-0.121944\O,0,-2.22132,-0.591959,-0.0678197\O,0,0.7642
 77,1.14977,0.0741987\O,0,2.22773,-0.576431,-0.134335\O,0,-0.0346366,-0
 .981622,0.175353\\Version=ES64L-G16RevC.01\State=1-A\HF=-430.3706045\R
 MSD=2.821e-03\Dipole=-0.6111277,1.2263946,0.4681085\Quadrupole=-7.4067

 Normal termination of Gaussian 16 at Tue Apr  8 21:39:51 2025.
