 Gaussian 16, Revision C.01,

 ----------------------------------------------------------------------
 #t hf aug-cc-pvdz symm=none int=(grid=ultrafine) guess=(read,tcheck) s
 table=(opt,rrhf)
 ----------------------------------------------------------------------
 -----
 title
 -----
 Symbolic Z-matrix:
 Charge =  0 Multiplicity = 1

 SCF Done:  E(RHF) =  -871.358401745     A.U. after   14 cycles
 Normal termination of Gaussian 16 at Tue Apr  8 21:59:42 2025.
 Gaussian 16:  ES64L-G16RevC.01  3-Jul-2019

 ----------------------------------------------------------------------
 #t hf aug-cc-pvdz iop(5/13=1,5/36=2,99/5=2) pseudo=read geom=check gue
 ss=(read,tcheck) scf=(maxcycle=1)
 ----------------------------------------------------------------------
 -----
 title
 -----
 Structure from the checkpoint file:  "ANI1ccx_53_conf2_mol2.chk"
 Charge =  0 Multiplicity = 1

                         Standard orientation:
 ---------------------------------------------------------------------
 Center     Atomic      Atomic             Coordinates (Angstroms)
 Number     Number       Type             X           Y           Z
 ---------------------------------------------------------------------
      1          6           0       -2.572231   -0.792017    0.058667
      2          6           0        1.817168    2.007110   -0.090253
      3          6           0        2.011139   -0.161536   -1.408900
      4          6           0        1.689989   -1.458230    0.666935
      5          6           0        1.131099   -1.209190   -0.713925
      6          6           0        2.691439    0.984608   -0.689656
      7          6           0       -2.979272    1.548889   -0.458403
      8          6           0       -3.169521    0.134618   -1.027890
      9          6           0       -1.222381   -1.467681   -0.304503
     10          6           0       -3.140742    1.254609    1.028550
     11          1           0        1.116919   -2.112900   -1.278510
     12          1           0        2.865799   -2.554250    1.572420
     13          1           0        1.680678    3.530860    0.720067
     14          1           0        3.403188    1.481750   -1.363050
     15          1           0        3.370799    0.637355    0.110256
     16          1           0        2.874769   -0.728380   -1.830500
     17          1           0        1.495929    0.244232   -2.277220
     18          1           0       -0.409428    0.268893   -0.877849
     19          1           0       -4.225902    1.185449    1.270440
     20          1           0       -3.750962    2.201879   -0.826190
     21          1           0       -2.009252    1.973699   -0.763354
     22          1           0       -2.613861   -0.038640   -1.941100
     23          1           0       -4.218371   -0.158613   -1.189190
     24          1           0       -3.191651   -1.652221    0.253791
     25          1           0       -1.459381    0.292924    1.299660
     26          1           0       -2.870662    2.090119    1.704860
     27          7           0       -2.438291    0.033814    1.280890
     28          7           0       -0.202967   -0.655139   -0.558493
     29          8           0        2.486148    3.051930    0.409368
     30          8           0       -1.121291   -2.686331   -0.396281
     31          8           0        1.546909   -0.773341    1.646300
     32          8           0        0.614315    1.960749   -0.053840
     33          8           0        2.585179   -2.473000    0.643822
 ---------------------------------------------------------------------

 SCF Done:  E(RHF) =  -871.624211119     A.U. after    2 cycles

 The electronic state is 1-A.
 Alpha  occ. eigenvalues --  -20.64738 -20.63483 -20.58580 -20.57711 -20.53132
 Alpha  occ. eigenvalues --  -15.64365 -15.60204 -11.41889 -11.40904 -11.35199
 Alpha  occ. eigenvalues --  -11.31097 -11.28047 -11.27907 -11.26311 -11.25421
 Alpha  occ. eigenvalues --  -11.23670 -11.22932  -1.46042  -1.43965  -1.35099
 Alpha  occ. eigenvalues --   -1.34640  -1.33659  -1.22135  -1.20241  -1.10738
 Alpha  occ. eigenvalues --   -1.03448  -1.02212  -0.98238  -0.92677  -0.85782
 Alpha  occ. eigenvalues --   -0.82561  -0.80836  -0.79741  -0.79399  -0.75090
 Alpha  occ. eigenvalues --   -0.73349  -0.73167  -0.72912  -0.70414  -0.69486
 Alpha  occ. eigenvalues --   -0.67401  -0.66322  -0.65041  -0.63688  -0.63286
 Alpha  occ. eigenvalues --   -0.62846  -0.60593  -0.59630  -0.58527  -0.57113
 Alpha  occ. eigenvalues --   -0.55811  -0.55245  -0.53892  -0.53517  -0.52183
 Alpha  occ. eigenvalues --   -0.51170  -0.49766  -0.49279  -0.49004  -0.48420
 Alpha  occ. eigenvalues --   -0.47947  -0.46931  -0.42608  -0.40349  -0.37096
 Alpha virt. eigenvalues --    0.02174   0.03250   0.03415   0.03995   0.04737
 Alpha virt. eigenvalues --    0.05225   0.05429   0.06051   0.06766   0.07447
 Alpha virt. eigenvalues --    0.07627   0.07697   0.08705   0.08943   0.09520

 Mulliken charges:
               1
     1  C    0.741845
     2  C    0.372824
     3  C    0.424060
     4  C    0.641745
     5  C    0.473230
     6  C    0.133371
     7  C    0.549314
     8  C    0.466199
     9  C    0.118713
    10  C    0.739327
    11  H   -0.312927
    12  H    0.198495
    13  H    0.188138
    14  H    0.011613
    15  H    0.092649
    16  H    0.021429
    17  H   -0.094336
    18  H   -0.020419
    19  H   -0.231546
    20  H   -0.155856
    21  H   -0.250832
    22  H   -0.263729
    23  H   -0.130469
    24  H   -0.290234
    25  H    0.107839
    26  H   -0.194917
    27  N   -0.552788
    28  N   -0.230739
    29  O   -0.507630
    30  O   -0.577571
    31  O   -0.514269
    32  O   -0.374263
    33  O   -0.578266
 Sum of Mulliken charges =  -0.00000

 Dipole moment (field-independent basis, Debye):
    X=              3.1859    Y=              4.2163    Z=             -3.0226  Tot=              6.0880

 Test job not archived.
 1\1\GINC-SE362\SP\RHF\Aug-CC-pVDZ\C10H16N2O5\OHZDE\08-Apr-2025\0\\#t h
 f aug-cc-pvdz iop(5/13=1,5/36=2,99/5=2) pseudo=read geom=check guess=(
 read,tcheck) scf=(maxcycle=1)\\title\\0,1\C,0,-2.57223,-0.792016,0.058
 6669\C,0,1.81717,2.00711,-0.0902533\C,0,2.01114,-0.161536,-1.4089\C,0,
 1.68999,-1.45823,0.666935\C,0,1.1311,-1.20919,-0.713925\C,0,2.69144,0.
 984608,-0.689656\C,0,-2.97927,1.54889,-0.458403\C,0,-3.16952,0.134619,
 -1.02789\C,0,-1.22238,-1.46768,-0.304503\C,0,-3.14074,1.25461,1.02855\
 H,0,1.11692,-2.1129,-1.27851\H,0,2.8658,-2.55425,1.57242\H,0,1.68068,3

 Normal termination of Gaussian 16 at Tue Apr  8 22:00:25 2025.
