 Gaussian 16, Revision C.01,

 ----------------------------------------------------------------------
 #t hf aug-cc-pvdz symm=none int=(grid=ultrafine) guess=(read,tcheck) s
 table=(opt,rrhf)
 ----------------------------------------------------------------------
 -----
 title
 -----
 Symbolic Z-matrix:
 Charge =  0 Multiplicity = 1

 SCF Done:  E(RHF) =  -480.043276967     A.U. after   16 cycles
 Normal termination of Gaussian 16 at Tue Apr  8 21:38:47 2025.
 Gaussian 16:  ES64L-G16RevC.01  3-Jul-2019

 ----------------------------------------------------------------------
 #t hf aug-cc-pvdz iop(5/13=1,5/36=2,99/5=2) pseudo=read geom=check gue
 ss=(read,tcheck) scf=(maxcycle=1)
 ----------------------------------------------------------------------
 -----
 title
 -----
 Structure from the checkpoint file:  "ANI1ccx_456_conf10_mol1.chk"
 Charge =  0 Multiplicity = 1

                         Standard orientation:
 ---------------------------------------------------------------------
 Center     Atomic      Atomic             Coordinates (Angstroms)
 Number     Number       Type             X           Y           Z
 ---------------------------------------------------------------------
      1          6           0        0.062354   -0.031760   -0.057592
      2          7           0       -1.424450    0.014444   -0.004025
      3          7           0        0.745007   -1.101840   -0.057313
      4          7           0        2.022941   -0.658527    0.005924
      5          7           0        2.215450    0.525825    0.092180
      6          8           0       -1.953561    1.109468    0.007319
      7          8           0       -2.024249   -1.079202    0.050285
      8          8           0        0.816964    1.061140   -0.046580
 ---------------------------------------------------------------------

 SCF Done:  E(RHF) =  -480.182539572     A.U. after    2 cycles

 The electronic state is 1-A.
 Alpha  occ. eigenvalues --  -20.73319 -20.68933 -20.67449 -15.99020 -15.84142
 Alpha  occ. eigenvalues --  -15.79634 -15.74625 -11.48827  -1.60788  -1.57341
 Alpha  occ. eigenvalues --   -1.41749  -1.37994  -1.28891  -1.08814  -0.95228
 Alpha  occ. eigenvalues --   -0.89833  -0.84703  -0.79890  -0.78685  -0.75038
 Alpha  occ. eigenvalues --   -0.74623  -0.66442  -0.58773  -0.58356  -0.57717
 Alpha  occ. eigenvalues --   -0.54921  -0.53071  -0.51970  -0.50570
 Alpha virt. eigenvalues --   -0.02565   0.06273   0.06374   0.07731   0.08367
 Alpha virt. eigenvalues --    0.08903   0.10787   0.12350   0.14661   0.14820
 Alpha virt. eigenvalues --    0.16275   0.17057   0.17880   0.18400   0.19293

 Mulliken charges:
               1
     1  C    1.168004
     2  N    0.387032
     3  N   -0.219636
     4  N    0.046206
     5  N    0.141813
     6  O   -0.488407
     7  O   -0.533449
     8  O   -0.501563
 Sum of Mulliken charges =  -0.00000

 Dipole moment (field-independent basis, Debye):
    X=              1.6349    Y=              0.4411    Z=             -0.1254  Tot=              1.6979

 Test job not archived.
 1\1\GINC-SE339\SP\RHF\Aug-CC-pVDZ\C1N4O3\OHZDE\08-Apr-2025\0\\#t hf au
 g-cc-pvdz iop(5/13=1,5/36=2,99/5=2) pseudo=read geom=check guess=(read
 ,tcheck) scf=(maxcycle=1)\\title\\0,1\C,0,0.0623532,-0.0317591,-0.0575
 921\N,0,-1.42445,0.0144454,-0.0040253\N,0,0.745006,-1.10184,-0.0573133
 \N,0,2.02294,-0.658528,0.00592441\N,0,2.21545,0.525824,0.0921797\O,0,-
 1.95356,1.10947,0.00731898\O,0,-2.02425,-1.0792,0.0502849\O,0,0.816965
 ,1.06114,-0.0465796\\Version=ES64L-G16RevC.01\State=1-A\HF=-480.182539
 6\RMSD=3.510e-03\Dipole=0.6432055,0.1735244,-0.0493263\Quadrupole=-2.3

 Normal termination of Gaussian 16 at Tue Apr  8 21:38:50 2025.
