 Gaussian 16, Revision C.01,

 ----------------------------------------------------------------------
 #t hf aug-cc-pvdz symm=none int=(grid=ultrafine) guess=(read,tcheck) s
 table=(opt,rrhf)
 ----------------------------------------------------------------------
 -----
 title
 -----
 Symbolic Z-matrix:
 Charge =  0 Multiplicity = 1

 SCF Done:  E(RHF) =  -220.153915903     A.U. after   12 cycles
 Normal termination of Gaussian 16 at Tue Apr  8 21:10:17 2025.
 Gaussian 16:  ES64L-G16RevC.01  3-Jul-2019

 ----------------------------------------------------------------------
 #t hf aug-cc-pvdz iop(5/13=1,5/36=2,99/5=2) pseudo=read geom=check gue
 ss=(read,tcheck) scf=(maxcycle=1)
 ----------------------------------------------------------------------
 -----
 title
 -----
 Structure from the checkpoint file:  "ANI1ccx_1880_conf4_mol1.chk"
 Charge =  0 Multiplicity = 1

                         Standard orientation:
 ---------------------------------------------------------------------
 Center     Atomic      Atomic             Coordinates (Angstroms)
 Number     Number       Type             X           Y           Z
 ---------------------------------------------------------------------
      1          1           0        0.743223    0.049744   -0.784531
      2          1           0        0.802779    0.521545    0.728477
      3          1           0        2.851051   -0.195741    0.968916
      4          1           0        3.172791   -0.031739   -0.575154
      5          7           0       -2.058509   -0.500610   -0.074658
      6          7           0       -2.820949    0.283652    0.092363
      7          7           0        1.342651    0.551292   -0.120971
      8          7           0        2.455401   -0.383449    0.055022
 ---------------------------------------------------------------------

 SCF Done:  E(RHF) =  -220.219953091     A.U. after    2 cycles

 The electronic state is 1-A.
 Alpha  occ. eigenvalues --  -15.76517 -15.76199 -15.63761 -15.63713  -1.42702
 Alpha  occ. eigenvalues --   -1.21414  -0.99075  -0.76296  -0.69454  -0.63052
 Alpha  occ. eigenvalues --   -0.61231  -0.61138  -0.58984  -0.58456  -0.50889
 Alpha  occ. eigenvalues --   -0.35785
 Alpha virt. eigenvalues --    0.04080   0.04820   0.05722   0.07933   0.10345
 Alpha virt. eigenvalues --    0.12341   0.12488   0.12658   0.14648   0.16959
 Alpha virt. eigenvalues --    0.17923   0.18455   0.18921   0.20068   0.20678

 Mulliken charges:
               1
     1  H    0.113414
     2  H    0.032388
     3  H    0.049784
     4  H    0.089365
     5  N    0.006984
     6  N   -0.009186
     7  N   -0.159944
     8  N   -0.122805
 Sum of Mulliken charges =  -0.00000

 Dipole moment (field-independent basis, Debye):
    X=             -0.1195    Y=              0.0175    Z=              0.7249  Tot=              0.7349

 Test job not archived.
 1\1\GINC-SE458\SP\RHF\Aug-CC-pVDZ\H4N4\OHZDE\08-Apr-2025\0\\#t hf aug-
 cc-pvdz iop(5/13=1,5/36=2,99/5=2) pseudo=read geom=check guess=(read,t
 check) scf=(maxcycle=1)\\title\\0,1\H,0,0.743222,0.0497442,-0.784531\H
 ,0,0.802778,0.521545,0.728477\H,0,2.85105,-0.195741,0.968916\H,0,3.172
 79,-0.0317397,-0.575154\N,0,-2.05851,-0.50061,-0.074658\N,0,-2.82095,0
 .283652,0.0923628\N,0,1.34265,0.551292,-0.120971\N,0,2.4554,-0.383449,
 0.0550223\\Version=ES64L-G16RevC.01\State=1-A\HF=-220.2199531\RMSD=1.5
 53e-03\Dipole=-0.0470148,0.006886,0.2852041\Quadrupole=2.1563943,-3.92

 Normal termination of Gaussian 16 at Tue Apr  8 21:10:19 2025.
