 Gaussian 16, Revision C.01,

 ----------------------------------------------------------------------
 #t hf aug-cc-pvdz symm=none int=(grid=ultrafine) guess=(read,tcheck) s
 table=(opt,rrhf)
 ----------------------------------------------------------------------
 -----
 title
 -----
 Symbolic Z-matrix:
 Charge =  0 Multiplicity = 1

 SCF Done:  E(RHF) =  -696.475526782     A.U. after   14 cycles
 Normal termination of Gaussian 16 at Tue Apr  8 19:18:10 2025.
 Gaussian 16:  ES64L-G16RevC.01  3-Jul-2019

 ----------------------------------------------------------------------
 #t hf aug-cc-pvdz iop(5/13=1,5/36=2,99/5=2) pseudo=read geom=check gue
 ss=(read,tcheck) scf=(maxcycle=1)
 ----------------------------------------------------------------------
 -----
 title
 -----
 Structure from the checkpoint file:  "ANI1ccx_1205_conf48_mol1.chk"
 Charge =  0 Multiplicity = 1

                         Standard orientation:
 ---------------------------------------------------------------------
 Center     Atomic      Atomic             Coordinates (Angstroms)
 Number     Number       Type             X           Y           Z
 ---------------------------------------------------------------------
      1          6           0        1.074990    0.919489    0.311553
      2          6           0       -0.066331    1.615100   -0.357056
      3          6           0        1.696900   -0.145806   -0.587861
      4          6           0        2.874430   -0.756654   -0.064076
      5          6           0       -2.107490    0.314831    0.637758
      6          6           0       -3.025400   -0.780840    0.058211
      7          1           0       -3.188721   -1.880080   -1.276579
      8          1           0       -2.938980    0.738124    1.216721
      9          1           0       -1.579260   -0.172735    1.410961
     10          1           0       -1.887510    2.000210   -0.613103
     11          1           0        2.651719   -2.070500   -1.541109
     12          1           0        4.141629   -2.233750   -0.847188
     13          1           0        1.698320    0.130165   -1.623559
     14          1           0        0.845376   -0.918370   -0.619586
     15          1           0        1.876020    1.617790    0.506028
     16          1           0        0.152438    0.800039    2.232241
     17          1           0        1.574300   -0.175778    1.965641
     18          7           0        0.721747    0.176416    1.625181
     19          7           0        3.212359   -1.713090   -0.854556
     20          7           0       -1.329600    1.339750   -0.078452
     21          8           0        0.226141    2.527880   -1.137309
     22          8           0        3.317180   -0.414069    1.035581
     23          8           0       -4.045571   -1.331120    0.515472
     24          8           0       -2.530181   -1.214360   -1.119599
 ---------------------------------------------------------------------

 SCF Done:  E(RHF) =  -696.690690711     A.U. after    2 cycles

 The electronic state is 1-A.
 Alpha  occ. eigenvalues --  -20.64354 -20.59170 -20.54798 -20.53927 -15.68452
 Alpha  occ. eigenvalues --  -15.67152 -15.61003 -11.43566 -11.37685 -11.37637
 Alpha  occ. eigenvalues --  -11.32599 -11.28563 -11.25493  -1.45230  -1.36299
 Alpha  occ. eigenvalues --   -1.35601  -1.33078  -1.23466  -1.22353  -1.14934
 Alpha  occ. eigenvalues --   -1.04325  -1.03494  -0.93483  -0.86084  -0.84718
 Alpha  occ. eigenvalues --   -0.79843  -0.75087  -0.74664  -0.73956  -0.71453
 Alpha  occ. eigenvalues --   -0.68569  -0.67862  -0.66915  -0.66056  -0.65518
 Alpha  occ. eigenvalues --   -0.62468  -0.60840  -0.60506  -0.58719  -0.57059
 Alpha  occ. eigenvalues --   -0.56255  -0.51974  -0.51297  -0.50397  -0.49407
 Alpha  occ. eigenvalues --   -0.46589  -0.45019  -0.43985  -0.41725  -0.39272
 Alpha virt. eigenvalues --    0.01929   0.03151   0.03753   0.04428   0.05214
 Alpha virt. eigenvalues --    0.05538   0.06563   0.06781   0.07719   0.08797
 Alpha virt. eigenvalues --    0.09177   0.10777   0.11175   0.11318   0.12344

 Mulliken charges:
               1
     1  C    0.674199
     2  C    0.596208
     3  C   -0.201385
     4  C    0.871621
     5  C    0.811927
     6  C    0.576318
     7  H    0.199788
     8  H    0.006612
     9  H   -0.151330
    10  H   -0.059472
    11  H   -0.071389
    12  H    0.073475
    13  H   -0.273190
    14  H    0.120371
    15  H   -0.192296
    16  H    0.057586
    17  H   -0.066058
    18  N   -0.249642
    19  N   -0.102530
    20  N   -0.303841
    21  O   -0.628366
    22  O   -0.604194
    23  O   -0.589169
    24  O   -0.495242
 Sum of Mulliken charges =  -0.00000

 Dipole moment (field-independent basis, Debye):
    X=              0.0955    Y=             -3.4467    Z=             -2.0590  Tot=              4.0160

 Test job not archived.
 1\1\GINC-SE332\SP\RHF\Aug-CC-pVDZ\C6H11N3O4\OHZDE\08-Apr-2025\0\\#t hf
  aug-cc-pvdz iop(5/13=1,5/36=2,99/5=2) pseudo=read geom=check guess=(r
 ead,tcheck) scf=(maxcycle=1)\\title\\0,1\C,0,1.07499,0.919489,0.311552
 \C,0,-0.0663306,1.6151,-0.357057\C,0,1.6969,-0.145806,-0.587862\C,0,2.
 87443,-0.756654,-0.064077\C,0,-2.10749,0.314831,0.637757\C,0,-3.0254,-
 0.78084,0.0582102\H,0,-3.18872,-1.88008,-1.27658\H,0,-2.93898,0.738124
 ,1.21672\H,0,-1.57926,-0.172735,1.41096\H,0,-1.88751,2.00021,-0.613104
 \H,0,2.65172,-2.0705,-1.54111\H,0,4.14163,-2.23375,-0.847189\H,0,1.698

 Normal termination of Gaussian 16 at Tue Apr  8 19:18:26 2025.
