 Gaussian 16, Revision C.01,

 ----------------------------------------------------------------------
 #t hf aug-cc-pvdz symm=none int=(grid=ultrafine) guess=(read,tcheck) s
 table=(opt,rrhf)
 ----------------------------------------------------------------------
 -----
 title
 -----
 Symbolic Z-matrix:
 Charge =  0 Multiplicity = 1

 SCF Done:  E(RHF) =  -555.314240367     A.U. after   17 cycles
 Normal termination of Gaussian 16 at Tue Apr  8 21:59:58 2025.
 Gaussian 16:  ES64L-G16RevC.01  3-Jul-2019

 ----------------------------------------------------------------------
 #t hf aug-cc-pvdz iop(5/13=1,5/36=2,99/5=2) pseudo=read geom=check gue
 ss=(read,tcheck) scf=(maxcycle=1)
 ----------------------------------------------------------------------
 -----
 title
 -----
 Structure from the checkpoint file:  "ANI1ccx_886_conf9_mol1.chk"
 Charge =  0 Multiplicity = 1

                         Standard orientation:
 ---------------------------------------------------------------------
 Center     Atomic      Atomic             Coordinates (Angstroms)
 Number     Number       Type             X           Y           Z
 ---------------------------------------------------------------------
      1          6           0        1.279071    0.703386    0.000108
      2          6           0       -0.926477    0.727377    0.067602
      3          6           0       -0.939321   -0.717009   -0.022050
      4          6           0        1.281570   -0.674573    0.042017
      5          1           0        2.421222    2.317898   -0.213458
      6          1           0        3.290001    0.858320   -0.476474
      7          1           0        2.303279   -2.294812    0.206017
      8          1           0        3.275350   -0.980350    0.532629
      9          7           0        2.524051    1.324158   -0.010251
     10          7           0        0.199837    1.457509    0.023435
     11          7           0       -2.167929    1.119161    0.051556
     12          7           0       -2.153810   -1.133359   -0.086048
     13          7           0        0.194494   -1.416471    0.001242
     14          7           0        2.530460   -1.356882   -0.048316
     15          8           0       -2.918579   -0.011869   -0.012014
 ---------------------------------------------------------------------

 SCF Done:  E(RHF) =  -555.472182284     A.U. after    2 cycles

 The electronic state is 1-A.
 Alpha  occ. eigenvalues --  -20.69843 -15.71019 -15.70895 -15.68552 -15.68386
 Alpha  occ. eigenvalues --  -15.67745 -15.67405 -11.38742 -11.38594 -11.33017
 Alpha  occ. eigenvalues --  -11.32815  -1.50256  -1.34755  -1.26628  -1.23792
 Alpha  occ. eigenvalues --   -1.20132  -1.14619  -1.12403  -0.97926  -0.89569
 Alpha  occ. eigenvalues --   -0.86658  -0.80205  -0.77826  -0.72993  -0.71026
 Alpha  occ. eigenvalues --   -0.69734  -0.69021  -0.66873  -0.62833  -0.62630
 Alpha  occ. eigenvalues --   -0.55237  -0.54309  -0.52736  -0.50961  -0.48075
 Alpha  occ. eigenvalues --   -0.47443  -0.43269  -0.37402  -0.36382
 Alpha virt. eigenvalues --    0.00960   0.01403   0.02952   0.05011   0.05437
 Alpha virt. eigenvalues --    0.08370   0.08488   0.09780   0.09817   0.10863
 Alpha virt. eigenvalues --    0.12838   0.12946   0.12962   0.13196   0.13596

 Mulliken charges:
               1
     1  C    0.674411
     2  C    0.770811
     3  C    0.680984
     4  C    0.708032
     5  H    0.056290
     6  H    0.009277
     7  H    0.041423
     8  H    0.039738
     9  N   -0.358521
    10  N   -0.509076
    11  N   -0.323453
    12  N   -0.312009
    13  N   -0.527228
    14  N   -0.344469
    15  O   -0.606210
 Sum of Mulliken charges =  -0.00000

 Dipole moment (field-independent basis, Debye):
    X=              7.9275    Y=              0.0206    Z=              0.3032  Tot=              7.9333

 Test job not archived.
 1\1\GINC-SE187\SP\RHF\Aug-CC-pVDZ\C4H4N6O1\OHZDE\08-Apr-2025\0\\#t hf
 aug-cc-pvdz iop(5/13=1,5/36=2,99/5=2) pseudo=read geom=check guess=(re
 ad,tcheck) scf=(maxcycle=1)\\title\\0,1\C,0,1.27907,0.703387,0.0001083
 4\C,0,-0.926478,0.727377,0.067602\C,0,-0.939321,-0.717009,-0.0220496\C
 ,0,1.28157,-0.674572,0.042017\H,0,2.42122,2.3179,-0.213458\H,0,3.29,0.
 858322,-0.476474\H,0,2.30328,-2.29481,0.206017\H,0,3.27535,-0.980348,0
 .532629\N,0,2.52405,1.32416,-0.0102507\N,0,0.199836,1.45751,0.0234351\
 N,0,-2.16793,1.11916,0.0515565\N,0,-2.15381,-1.13336,-0.0860483\N,0,0.

 Normal termination of Gaussian 16 at Tue Apr  8 22:00:06 2025.
