 Gaussian 16, Revision C.01,

 ----------------------------------------------------------------------
 #t hf aug-cc-pvdz symm=none int=(grid=ultrafine) guess=(read,tcheck) s
 table=(opt,rrhf)
 ----------------------------------------------------------------------
 -----
 title
 -----
 Symbolic Z-matrix:
 Charge =  0 Multiplicity = 1

 SCF Done:  E(RHF) =  -456.263707159     A.U. after   11 cycles
 Normal termination of Gaussian 16 at Tue Apr  8 21:05:41 2025.
 Gaussian 16:  ES64L-G16RevC.01  3-Jul-2019

 ----------------------------------------------------------------------
 #t hf aug-cc-pvdz iop(5/13=1,5/36=2,99/5=2) pseudo=read geom=check gue
 ss=(read,tcheck) scf=(maxcycle=1)
 ----------------------------------------------------------------------
 -----
 title
 -----
 Structure from the checkpoint file:  "ANI1ccx_1844_conf163_mol1.chk"
 Charge =  0 Multiplicity = 1

                         Standard orientation:
 ---------------------------------------------------------------------
 Center     Atomic      Atomic             Coordinates (Angstroms)
 Number     Number       Type             X           Y           Z
 ---------------------------------------------------------------------
      1          1           0       -0.630876   -2.020772    1.739280
      2          1           0       -2.210159    0.056818   -0.195086
      3          1           0       -2.956608   -1.037204   -0.947646
      4          1           0        1.288649    1.708000    0.426323
      5          1           0        0.345898    1.796989    1.672460
      6          1           0       -0.943611    2.030628   -0.249217
      7          1           0       -1.240038   -1.788083    0.340622
      8          1           0       -2.322582    2.439647   -0.705737
      9          1           0        2.336243   -2.330839   -0.473145
     10          1           0        0.905151   -1.838501   -0.177551
     11          1           0        2.341201   -0.217184   -0.372042
     12          1           0        3.048760    1.097011   -0.805016
     13          8           0        0.573577    2.293279    0.762592
     14          8           0        1.676562   -1.673060   -0.793453
     15          8           0       -2.679159   -0.765233   -0.025609
     16          8           0       -1.755071    1.696107   -0.714657
     17          8           0       -0.434432   -2.216122    0.780114
     18          8           0        2.623270    0.677965   -0.040643
 ---------------------------------------------------------------------

 SCF Done:  E(RHF) =  -456.414899436     A.U. after    2 cycles

 The electronic state is 1-A.
 Alpha  occ. eigenvalues --  -20.58813 -20.58113 -20.57810 -20.57747 -20.57455
 Alpha  occ. eigenvalues --  -20.56591  -1.32337  -1.31637  -1.30961  -1.29880
 Alpha  occ. eigenvalues --   -1.29089  -1.27749  -0.73683  -0.73130  -0.72582
 Alpha  occ. eigenvalues --   -0.72468  -0.71125  -0.69658  -0.64430  -0.62954
 Alpha  occ. eigenvalues --   -0.61737  -0.58900  -0.58746  -0.57196  -0.53382
 Alpha  occ. eigenvalues --   -0.53106  -0.52277  -0.52110  -0.51662  -0.51392
 Alpha virt. eigenvalues --    0.02832   0.04410   0.04774   0.05178   0.06199
 Alpha virt. eigenvalues --    0.07108   0.08257   0.09041   0.09847   0.10078
 Alpha virt. eigenvalues --    0.10681   0.11055   0.16976   0.17786   0.18251

 Mulliken charges:
               1
     1  H    0.228833
     2  H    0.249418
     3  H    0.217124
     4  H    0.255861
     5  H    0.280637
     6  H    0.250705
     7  H    0.287687
     8  H    0.142296
     9  H    0.197838
    10  H    0.295590
    11  H    0.284542
    12  H    0.178861
    13  O   -0.561029
    14  O   -0.479838
    15  O   -0.447282
    16  O   -0.383130
    17  O   -0.553413
    18  O   -0.444699
 Sum of Mulliken charges =  -0.00000

 Dipole moment (field-independent basis, Debye):
    X=             -0.3547    Y=             -0.4319    Z=              0.4060  Tot=              0.6908

 Test job not archived.
 1\1\GINC-SE097\SP\RHF\Aug-CC-pVDZ\H12O6\OHZDE\08-Apr-2025\0\\#t hf aug
 -cc-pvdz iop(5/13=1,5/36=2,99/5=2) pseudo=read geom=check guess=(read,
 tcheck) scf=(maxcycle=1)\\title\\0,1\H,0,-0.630878,-2.02077,1.73928\H,
 0,-2.21016,0.0568217,-0.195086\H,0,-2.95661,-1.0372,-0.947646\H,0,1.28
 865,1.708,0.426323\H,0,0.345899,1.79699,1.67246\H,0,-0.94361,2.03063,-
 0.249217\H,0,-1.24004,-1.78808,0.340622\H,0,-2.32258,2.43965,-0.705737
 \H,0,2.33624,-2.33084,-0.473145\H,0,0.905149,-1.8385,-0.177551\H,0,2.3
 412,-0.217185,-0.372042\H,0,3.04876,1.09701,-0.805016\O,0,0.573578,2.2

 Normal termination of Gaussian 16 at Tue Apr  8 21:05:46 2025.
