 Gaussian 16, Revision C.01,

 ----------------------------------------------------------------------
 #t hf aug-cc-pvdz symm=none int=(grid=ultrafine) guess=(read,tcheck) s
 table=(opt,rrhf)
 ----------------------------------------------------------------------
 -----
 title
 -----
 Symbolic Z-matrix:
 Charge =  0 Multiplicity = 1

 SCF Done:  E(RHF) =  -528.200410763     A.U. after   15 cycles
 Normal termination of Gaussian 16 at Tue Apr  8 21:59:31 2025.
 Gaussian 16:  ES64L-G16RevC.01  3-Jul-2019

 ----------------------------------------------------------------------
 #t hf aug-cc-pvdz iop(5/13=1,5/36=2,99/5=2) pseudo=read geom=check gue
 ss=(read,tcheck) scf=(maxcycle=1)
 ----------------------------------------------------------------------
 -----
 title
 -----
 Structure from the checkpoint file:  "ANI1ccx_893_conf3_mol2.chk"
 Charge =  0 Multiplicity = 1

                         Standard orientation:
 ---------------------------------------------------------------------
 Center     Atomic      Atomic             Coordinates (Angstroms)
 Number     Number       Type             X           Y           Z
 ---------------------------------------------------------------------
      1          6           0       -1.853489   -0.144466   -0.029874
      2          6           0       -0.691152   -0.997731   -0.002218
      3          6           0        0.658476   -0.719606    0.013169
      4          6           0        1.474961    0.544739   -0.016446
      5          1           0       -2.576619    1.583299    0.062783
      6          1           0       -0.942306   -2.047010    0.011799
      7          1           0        2.382162   -1.444510    0.032538
      8          1           0       -0.061051    1.697830   -0.045856
      9          8           0       -1.649109    1.220820    0.016930
     10          8           0       -2.989689   -0.569254    0.004377
     11          8           0        1.472652   -1.792510   -0.006130
     12          8           0        0.916594    1.751650   -0.011513
     13          8           0        2.707681    0.403390    0.015204
 ---------------------------------------------------------------------

 SCF Done:  E(RHF) =  -528.364971257     A.U. after    2 cycles

 The electronic state is 1-A.
 Alpha  occ. eigenvalues --  -20.67177 -20.65171 -20.63895 -20.60361 -20.59460
 Alpha  occ. eigenvalues --  -11.45198 -11.44019 -11.39644 -11.29363  -1.46303
 Alpha  occ. eigenvalues --   -1.45254  -1.41388  -1.35683  -1.34784  -1.10245
 Alpha  occ. eigenvalues --   -0.96760  -0.89953  -0.87284  -0.81745  -0.76224
 Alpha  occ. eigenvalues --   -0.74907  -0.70341  -0.69470  -0.68261  -0.67500
 Alpha  occ. eigenvalues --   -0.64962  -0.63849  -0.62679  -0.58578  -0.54496
 Alpha  occ. eigenvalues --   -0.52266  -0.52195  -0.51350  -0.40213
 Alpha virt. eigenvalues --    0.01448   0.02620   0.04214   0.05387   0.06239
 Alpha virt. eigenvalues --    0.08523   0.09751   0.10346   0.11309   0.11731
 Alpha virt. eigenvalues --    0.12776   0.13144   0.13476   0.14854   0.15309

 Mulliken charges:
               1
     1  C    0.263246
     2  C    1.054934
     3  C    0.462686
     4  C    0.560740
     5  H    0.237844
     6  H   -0.446343
     7  H    0.231208
     8  H    0.240976
     9  O   -0.651120
    10  O   -0.455198
    11  O   -0.574507
    12  O   -0.406793
    13  O   -0.517674
 Sum of Mulliken charges =   0.00000

 Dipole moment (field-independent basis, Debye):
    X=             -1.5632    Y=              0.9213    Z=             -0.0410  Tot=              1.8150

 Test job not archived.
 1\1\GINC-SE073\SP\RHF\Aug-CC-pVDZ\C4H4O5\OHZDE\08-Apr-2025\0\\#t hf au
 g-cc-pvdz iop(5/13=1,5/36=2,99/5=2) pseudo=read geom=check guess=(read
 ,tcheck) scf=(maxcycle=1)\\title\\0,1\C,0,-1.85349,-0.144465,-0.029874
 1\C,0,-0.691153,-0.997731,-0.00221825\C,0,0.658475,-0.719606,0.0131691
 \C,0,1.47496,0.544739,-0.0164463\H,0,-2.57662,1.5833,0.0627827\H,0,-0.
 942308,-2.04701,0.0117989\H,0,2.38216,-1.44451,0.0325384\H,0,-0.061051
 8,1.69783,-0.0458561\O,0,-1.64911,1.22082,0.0169299\O,0,-2.98969,-0.56
 9253,0.00437732\O,0,1.47265,-1.79251,-0.00612958\O,0,0.916593,1.75165,

 Normal termination of Gaussian 16 at Tue Apr  8 21:59:36 2025.
