 Gaussian 16, Revision C.01,

 ----------------------------------------------------------------------
 #t hf aug-cc-pvdz symm=none int=(grid=ultrafine) guess=(read,tcheck) s
 table=(opt,rrhf)
 ----------------------------------------------------------------------
 -----
 title
 -----
 Symbolic Z-matrix:
 Charge =  0 Multiplicity = 1

 SCF Done:  E(RHF) =  -646.689720244     A.U. after   15 cycles
 Normal termination of Gaussian 16 at Tue Apr  8 21:51:56 2025.
 Gaussian 16:  ES64L-G16RevC.01  3-Jul-2019

 ----------------------------------------------------------------------
 #t hf aug-cc-pvdz iop(5/13=1,5/36=2,99/5=2) pseudo=read geom=check gue
 ss=(read,tcheck) scf=(maxcycle=1)
 ----------------------------------------------------------------------
 -----
 title
 -----
 Structure from the checkpoint file:  "ANI1ccx_51_conf1_mol2.chk"
 Charge =  0 Multiplicity = 1

                         Standard orientation:
 ---------------------------------------------------------------------
 Center     Atomic      Atomic             Coordinates (Angstroms)
 Number     Number       Type             X           Y           Z
 ---------------------------------------------------------------------
      1          6           0       -3.114920    0.014443   -0.039669
      2          6           0        0.882880   -1.057710   -0.932606
      3          6           0        1.959450   -1.656901    0.888256
      4          6           0        2.989120    0.074175   -0.575449
      5          6           0        2.814230    1.503019   -0.002834
      6          6           0        0.673081   -2.182250    0.800029
      7          6           0        0.332889    1.547030    0.687187
      8          6           0       -1.042880    1.459020   -0.023844
      9          6           0       -2.040930    0.644059    0.818140
     10          6           0        1.417351    2.100099   -0.238814
     11          1           0        3.079810    1.585189    1.077220
     12          1           0        0.768987   -0.549408   -1.882860
     13          1           0        0.127934   -2.818680    1.493840
     14          1           0        2.798920   -1.822031    1.590450
     15          1           0        4.002820   -0.223830   -0.250268
     16          1           0        2.989110    0.164995   -1.685110
     17          1           0        3.547421    2.137369   -0.506869
     18          1           0        1.418491    3.215289   -0.189721
     19          1           0       -0.881795    1.013600   -0.972955
     20          1           0        0.613552    0.483833    0.978951
     21          1           0        0.261198    2.145960    1.616450
     22          1           0       -1.441189    2.447350   -0.211031
     23          1           0       -1.423280   -0.116078    1.327020
     24          1           0       -2.525650    1.336290    1.543890
     25          1           0       -1.900870   -1.403470   -0.462044
     26          1           0        1.103550    1.777600   -1.294420
     27          7           0        2.042060   -0.922275   -0.220534
     28          7           0       -0.005773   -1.813320   -0.329260
     29          8           0       -2.804850   -1.122870   -0.666227
     30          8           0       -4.196980    0.511030   -0.159569
 ---------------------------------------------------------------------

 SCF Done:  E(RHF) =  -646.883431490     A.U. after    2 cycles

 The electronic state is 1-A.
 Alpha  occ. eigenvalues --  -20.58770 -20.52893 -15.71027 -15.64546 -11.36790
 Alpha  occ. eigenvalues --  -11.33069 -11.31517 -11.29794 -11.28085 -11.26435
 Alpha  occ. eigenvalues --  -11.25696 -11.24526 -11.24383 -11.23872  -1.39480
 Alpha  occ. eigenvalues --   -1.35579  -1.30342  -1.19937  -1.09945  -1.06203
 Alpha  occ. eigenvalues --   -1.02844  -0.98949  -0.92319  -0.85693  -0.83783
 Alpha  occ. eigenvalues --   -0.81732  -0.80392  -0.79805  -0.73926  -0.70643
 Alpha  occ. eigenvalues --   -0.69448  -0.66478  -0.64992  -0.64454  -0.62616
 Alpha  occ. eigenvalues --   -0.62109  -0.61194  -0.60587  -0.58263  -0.57351
 Alpha  occ. eigenvalues --   -0.56713  -0.54800  -0.54566  -0.50938  -0.50447
 Alpha  occ. eigenvalues --   -0.48846  -0.48339  -0.47716  -0.47037  -0.46086
 Alpha  occ. eigenvalues --   -0.42872  -0.41362  -0.33895
 Alpha virt. eigenvalues --    0.01747   0.02601   0.03190   0.03976   0.05045
 Alpha virt. eigenvalues --    0.05292   0.05558   0.06202   0.06328   0.07397
 Alpha virt. eigenvalues --    0.07938   0.08331   0.09042   0.09255   0.09772

 Mulliken charges:
               1
     1  C    0.797161
     2  C    0.496336
     3  C    0.403104
     4  C    0.387182
     5  C    0.470194
     6  C    0.580507
     7  C    0.448163
     8  C    0.235178
     9  C    0.538140
    10  C    0.076990
    11  H   -0.087522
    12  H   -0.426001
    13  H   -0.388503
    14  H   -0.373413
    15  H   -0.204942
    16  H   -0.061945
    17  H   -0.069103
    18  H   -0.156332
    19  H   -0.536011
    20  H   -0.330993
    21  H   -0.170754
    22  H   -0.202696
    23  H   -0.059981
    24  H   -0.078993
    25  H    0.238820
    26  H    0.118078
    27  N   -0.017422
    28  N   -0.662358
    29  O   -0.451738
    30  O   -0.511147
 Sum of Mulliken charges =  -0.00000

 Dipole moment (field-independent basis, Debye):
    X=              9.8252    Y=              1.3055    Z=              1.3510  Tot=             10.0032

 Test job not archived.
 1\1\GINC-SE366\SP\RHF\Aug-CC-pVDZ\C10H16N2O2\OHZDE\08-Apr-2025\0\\#t h
 f aug-cc-pvdz iop(5/13=1,5/36=2,99/5=2) pseudo=read geom=check guess=(
 read,tcheck) scf=(maxcycle=1)\\title\\0,1\C,0,-3.11492,0.0144428,-0.03
 96694\C,0,0.88288,-1.05771,-0.932606\C,0,1.95945,-1.6569,0.888256\C,0,
 2.98912,0.0741761,-0.575449\C,0,2.81423,1.50302,-0.00283383\C,0,0.6730
 81,-2.18225,0.800029\C,0,0.332889,1.54703,0.687187\C,0,-1.04288,1.4590
 2,-0.0238436\C,0,-2.04093,0.644059,0.81814\C,0,1.41735,2.1001,-0.23881
 4\H,0,3.07981,1.58519,1.07722\H,0,0.768987,-0.549408,-1.88286\H,0,0.12

 Normal termination of Gaussian 16 at Tue Apr  8 21:52:26 2025.
