 Gaussian 16, Revision C.01,

 ----------------------------------------------------------------------
 #t hf aug-cc-pvdz symm=none int=(grid=ultrafine) guess=(read,tcheck) s
 table=(opt,rrhf)
 ----------------------------------------------------------------------
 -----
 title
 -----
 Symbolic Z-matrix:
 Charge =  0 Multiplicity = 1

 SCF Done:  E(RHF) =  -637.347678486     A.U. after   15 cycles
 Normal termination of Gaussian 16 at Tue Apr  8 19:42:26 2025.
 Gaussian 16:  ES64L-G16RevC.01  3-Jul-2019

 ----------------------------------------------------------------------
 #t hf aug-cc-pvdz iop(5/13=1,5/36=2,99/5=2) pseudo=read geom=check gue
 ss=(read,tcheck) scf=(maxcycle=1)
 ----------------------------------------------------------------------
 -----
 title
 -----
 Structure from the checkpoint file:  "ANI1ccx_1522_conf1_mol1.chk"
 Charge =  0 Multiplicity = 1

                         Standard orientation:
 ---------------------------------------------------------------------
 Center     Atomic      Atomic             Coordinates (Angstroms)
 Number     Number       Type             X           Y           Z
 ---------------------------------------------------------------------
      1          6           0        1.739530    0.539025    0.013767
      2          6           0        2.277120   -1.586659   -0.302773
      3          6           0        0.064255   -1.125240    0.122303
      4          6           0       -2.375540   -1.085470    0.620277
      5          6           0       -2.756250   -0.147504   -0.534966
      6          6           0       -0.745828    1.378240   -0.118611
      7          6           0        0.292992    0.293314    0.058165
      8          1           0       -2.627291    1.922720   -0.335573
      9          1           0       -2.605110   -0.766788   -1.424980
     10          1           0       -3.780510    0.159003   -0.434496
     11          1           0       -3.071880   -1.920151    0.456528
     12          1           0       -2.419570   -0.690073    1.625050
     13          1           0        2.984490   -2.341379   -0.595176
     14          1           0        3.203689    1.900121    0.309307
     15          1           0        1.596259    2.547711    0.353908
     16          7           0        2.222289    1.735841    0.375862
     17          7           0        2.689110   -0.342525   -0.276996
     18          7           0        1.059930   -1.991530   -0.118207
     19          7           0       -2.029460    1.101250   -0.469929
     20          8           0       -1.078650   -1.749230    0.382134
     21          8           0       -0.402705    2.508400    0.158035
 ---------------------------------------------------------------------

 SCF Done:  E(RHF) =  -637.535371347     A.U. after    2 cycles

 The electronic state is 1-A.
 Alpha  occ. eigenvalues --  -20.62725 -20.54299 -15.66606 -15.63597 -15.60888
 Alpha  occ. eigenvalues --  -15.60300 -11.38717 -11.38474 -11.35783 -11.33304
 Alpha  occ. eigenvalues --  -11.32326 -11.31393 -11.26083  -1.40346  -1.36902
 Alpha  occ. eigenvalues --   -1.29222  -1.22265  -1.21044  -1.12922  -1.06036
 Alpha  occ. eigenvalues --   -1.02847  -0.94857  -0.88823  -0.84555  -0.81402
 Alpha  occ. eigenvalues --   -0.75802  -0.75572  -0.72930  -0.71496  -0.67831
 Alpha  occ. eigenvalues --   -0.66412  -0.65496  -0.63593  -0.62968  -0.60744
 Alpha  occ. eigenvalues --   -0.60036  -0.58512  -0.56232  -0.54663  -0.52397
 Alpha  occ. eigenvalues --   -0.48667  -0.47184  -0.44504  -0.41214  -0.40003
 Alpha  occ. eigenvalues --   -0.37546  -0.33520
 Alpha virt. eigenvalues --    0.02174   0.03976   0.04127   0.04231   0.05234
 Alpha virt. eigenvalues --    0.05544   0.06859   0.07678   0.08297   0.09198
 Alpha virt. eigenvalues --    0.10046   0.10571   0.11061   0.12027   0.12503

 Mulliken charges:
               1
     1  C    0.283424
     2  C    0.574062
     3  C    0.398800
     4  C    0.755221
     5  C    0.601227
     6  C    0.223781
     7  C    0.943164
     8  H   -0.029776
     9  H   -0.121840
    10  H   -0.181005
    11  H   -0.127891
    12  H   -0.230479
    13  H   -0.403914
    14  H   -0.042221
    15  H    0.073882
    16  N   -0.211212
    17  N   -0.515133
    18  N   -0.475284
    19  N   -0.302601
    20  O   -0.600276
    21  O   -0.611928
 Sum of Mulliken charges =  -0.00000

 Dipole moment (field-independent basis, Debye):
    X=             -4.2327    Y=              0.3864    Z=             -0.1884  Tot=              4.2544

 Test job not archived.
 1\1\GINC-SE338\SP\RHF\Aug-CC-pVDZ\C7H8N4O2\OHZDE\08-Apr-2025\0\\#t hf
 aug-cc-pvdz iop(5/13=1,5/36=2,99/5=2) pseudo=read geom=check guess=(re
 ad,tcheck) scf=(maxcycle=1)\\title\\0,1\C,0,1.73953,0.539024,0.0137666
 \C,0,2.27712,-1.58666,-0.302773\C,0,0.064255,-1.12524,0.122303\C,0,-2.
 37554,-1.08547,0.620277\C,0,-2.75625,-0.147504,-0.534966\C,0,-0.745828
 ,1.37824,-0.118611\C,0,0.292992,0.293314,0.0581645\H,0,-2.62729,1.9227
 2,-0.335573\H,0,-2.60511,-0.766788,-1.42498\H,0,-3.78051,0.159004,-0.4
 34496\H,0,-3.07188,-1.92015,0.456528\H,0,-2.41957,-0.690073,1.62505\H,

 Normal termination of Gaussian 16 at Tue Apr  8 19:42:41 2025.
