 Gaussian 16, Revision C.01,

 ----------------------------------------------------------------------
 #t hf aug-cc-pvdz symm=none int=(grid=ultrafine) guess=(read,tcheck) s
 table=(opt,rrhf)
 ----------------------------------------------------------------------
 -----
 title
 -----
 Symbolic Z-matrix:
 Charge =  0 Multiplicity = 1

 SCF Done:  E(RHF) =  -428.537329698     A.U. after   13 cycles
 Normal termination of Gaussian 16 at Tue Apr  8 21:36:48 2025.
 Gaussian 16:  ES64L-G16RevC.01  3-Jul-2019

 ----------------------------------------------------------------------
 #t hf aug-cc-pvdz iop(5/13=1,5/36=2,99/5=2) pseudo=read geom=check gue
 ss=(read,tcheck) scf=(maxcycle=1)
 ----------------------------------------------------------------------
 -----
 title
 -----
 Structure from the checkpoint file:  "ANI1ccx_419_conf11_mol1.chk"
 Charge =  0 Multiplicity = 1

                         Standard orientation:
 ---------------------------------------------------------------------
 Center     Atomic      Atomic             Coordinates (Angstroms)
 Number     Number       Type             X           Y           Z
 ---------------------------------------------------------------------
      1          6           0       -0.033665    0.026707    0.080580
      2          1           0        1.337943   -1.483250    0.978533
      3          1           0       -0.856262   -1.717761   -0.052481
      4          1           0        1.756971    0.090604   -0.577415
      5          1           0        0.131487    2.012490   -0.554000
      6          1           0       -2.901009    0.368757    0.578287
      7          7           0       -0.002529   -1.259821   -0.437156
      8          7           0        1.156641    0.613549    0.164643
      9          7           0       -1.080509    0.684811    0.196618
     10          8           0        1.190543   -1.790060    0.123519
     11          8           0        1.043480    1.948540   -0.096191
     12          8           0       -2.206818   -0.121088   -0.067971
 ---------------------------------------------------------------------

 SCF Done:  E(RHF) =  -428.665718642     A.U. after    2 cycles

 The electronic state is 1-A.
 Alpha  occ. eigenvalues --  -20.63865 -20.63178 -20.62057 -15.72560 -15.71036
 Alpha  occ. eigenvalues --  -15.67522 -11.36335  -1.44643  -1.40413  -1.38111
 Alpha  occ. eigenvalues --   -1.21719  -1.09899  -1.08803  -0.82391  -0.80252
 Alpha  occ. eigenvalues --   -0.77327  -0.71374  -0.70476  -0.67345  -0.65460
 Alpha  occ. eigenvalues --   -0.62030  -0.60867  -0.58533  -0.53347  -0.51624
 Alpha  occ. eigenvalues --   -0.46013  -0.44272  -0.38167
 Alpha virt. eigenvalues --    0.02928   0.03705   0.04596   0.06006   0.07318
 Alpha virt. eigenvalues --    0.10357   0.11756   0.13263   0.13905   0.14568
 Alpha virt. eigenvalues --    0.16338   0.16807   0.17315   0.18654   0.19081

 Mulliken charges:
               1
     1  C    1.002101
     2  H    0.156941
     3  H    0.199705
     4  H    0.254149
     5  H    0.258800
     6  H    0.324701
     7  N   -0.122185
     8  N   -0.148613
     9  N   -0.220212
    10  O   -0.465184
    11  O   -0.529987
    12  O   -0.710217
 Sum of Mulliken charges =  -0.00000

 Dipole moment (field-independent basis, Debye):
    X=             -1.5777    Y=             -1.0554    Z=              1.2041  Tot=              2.2479

 Test job not archived.
 1\1\GINC-SE402\SP\RHF\Aug-CC-pVDZ\C1H5N3O3\OHZDE\08-Apr-2025\0\\#t hf
 aug-cc-pvdz iop(5/13=1,5/36=2,99/5=2) pseudo=read geom=check guess=(re
 ad,tcheck) scf=(maxcycle=1)\\title\\0,1\C,0,-0.0336665,0.026708,0.0805
 803\H,0,1.33794,-1.48325,0.978533\H,0,-0.856265,-1.71776,-0.0524807\H,
 0,1.75697,0.0906033,-0.577415\H,0,0.131487,2.01249,-0.554\H,0,-2.90101
 ,0.36876,0.578287\N,0,-0.00253147,-1.25982,-0.437156\N,0,1.15664,0.613
 549,0.164643\N,0,-1.08051,0.684812,0.196618\O,0,1.19054,-1.79006,0.123
 519\O,0,1.04348,1.94854,-0.0961912\O,0,-2.20682,-0.121086,-0.067971\\V

 Normal termination of Gaussian 16 at Tue Apr  8 21:36:52 2025.
