 Gaussian 16, Revision C.01,

 ----------------------------------------------------------------------
 #t hf aug-cc-pvdz symm=none int=(grid=ultrafine) guess=(read,tcheck) s
 table=(opt,rrhf)
 ----------------------------------------------------------------------
 -----
 title
 -----
 Symbolic Z-matrix:
 Charge =  0 Multiplicity = 1

 SCF Done:  E(RHF) =  -501.254710623     A.U. after   17 cycles
 Normal termination of Gaussian 16 at Tue Apr  8 19:19:04 2025.
 Gaussian 16:  ES64L-G16RevC.01  3-Jul-2019

 ----------------------------------------------------------------------
 #t hf aug-cc-pvdz iop(5/13=1,5/36=2,99/5=2) pseudo=read geom=check gue
 ss=(read,tcheck) scf=(maxcycle=1)
 ----------------------------------------------------------------------
 -----
 title
 -----
 Structure from the checkpoint file:  "ANI1ccx_1284_conf4_mol2.chk"
 Charge =  0 Multiplicity = 1

                         Standard orientation:
 ---------------------------------------------------------------------
 Center     Atomic      Atomic             Coordinates (Angstroms)
 Number     Number       Type             X           Y           Z
 ---------------------------------------------------------------------
      1          6           0       -2.361790   -0.535482   -0.014560
      2          6           0       -1.132811    0.198824    0.019640
      3          6           0       -0.023476    2.225199   -0.018201
      4          6           0        1.230169    0.406416    0.023143
      5          6           0        1.781380   -1.722680   -0.020028
      6          6           0        0.118125   -0.455929    0.012415
      7          1           0       -0.147524    3.313169   -0.021916
      8          1           0        3.288559   -0.148204    0.065498
      9          1           0        2.400811   -2.600090   -0.038180
     10          7           0       -3.283790   -1.222303    0.010263
     11          7           0       -1.180801    1.529928    0.007638
     12          7           0        1.217009    1.742539   -0.022526
     13          7           0        2.310880   -0.452206    0.024710
     14          7           0        0.477928   -1.778381   -0.022923
 ---------------------------------------------------------------------

 SCF Done:  E(RHF) =  -501.394677295     A.U. after    2 cycles

 The electronic state is 1-A.
 Alpha  occ. eigenvalues --  -15.72740 -15.67526 -15.66529 -15.66026 -15.65860
 Alpha  occ. eigenvalues --  -11.36910 -11.36674 -11.36450 -11.35281 -11.31319
 Alpha  occ. eigenvalues --  -11.29936  -1.37079  -1.29830  -1.22669  -1.19928
 Alpha  occ. eigenvalues --   -1.16907  -1.07653  -0.96429  -0.90411  -0.87765
 Alpha  occ. eigenvalues --   -0.83113  -0.77097  -0.72336  -0.67331  -0.66786
 Alpha  occ. eigenvalues --   -0.66376  -0.62647  -0.57705  -0.56222  -0.52407
 Alpha  occ. eigenvalues --   -0.52050  -0.48532  -0.47801  -0.46680  -0.43945
 Alpha  occ. eigenvalues --   -0.40656  -0.35515
 Alpha virt. eigenvalues --    0.01434   0.03164   0.03348   0.04378   0.05938
 Alpha virt. eigenvalues --    0.07419   0.08180   0.08970   0.09430   0.11026
 Alpha virt. eigenvalues --    0.11239   0.11447   0.12101   0.12404   0.13267

 Mulliken charges:
               1
     1  C   -0.852514
     2  C    1.338803
     3  C    0.633349
     4  C    0.462267
     5  C    0.932358
     6  C    0.498733
     7  H   -0.286667
     8  H   -0.049152
     9  H   -0.256778
    10  N   -0.042862
    11  N   -0.620024
    12  N   -0.520820
    13  N   -0.445821
    14  N   -0.790871
 Sum of Mulliken charges =  -0.00000

 Dipole moment (field-independent basis, Debye):
    X=              7.1921    Y=              0.7019    Z=              0.0880  Tot=              7.2268

 Test job not archived.
 1\1\GINC-SE423\SP\RHF\Aug-CC-pVDZ\C6H3N5\OHZDE\08-Apr-2025\0\\#t hf au
 g-cc-pvdz iop(5/13=1,5/36=2,99/5=2) pseudo=read geom=check guess=(read
 ,tcheck) scf=(maxcycle=1)\\title\\0,1\C,0,-2.36179,-0.53548,-0.0145604
 \C,0,-1.13281,0.198826,0.0196402\C,0,-0.0234749,2.2252,-0.0182014\C,0,
 1.23017,0.406417,0.0231435\C,0,1.78138,-1.72268,-0.0200276\C,0,0.11812
 5,-0.455928,0.0124155\H,0,-0.147522,3.31317,-0.0219162\H,0,3.28856,-0.
 148204,0.0654978\H,0,2.40081,-2.60009,-0.0381804\N,0,-3.28379,-1.2223,
 0.0102634\N,0,-1.1808,1.52993,0.00763811\N,0,1.21701,1.74254,-0.022525

 Normal termination of Gaussian 16 at Tue Apr  8 19:19:12 2025.
