 Gaussian 16, Revision C.01,

 ----------------------------------------------------------------------
 #t hf aug-cc-pvdz symm=none int=(grid=ultrafine) guess=(read,tcheck) s
 table=(opt,rrhf)
 ----------------------------------------------------------------------
 -----
 title
 -----
 Symbolic Z-matrix:
 Charge =  0 Multiplicity = 1

 SCF Done:  E(RHF) =  -205.845350481     A.U. after   15 cycles
 Normal termination of Gaussian 16 at Tue Apr  8 21:10:15 2025.
 Gaussian 16:  ES64L-G16RevC.01  3-Jul-2019

 ----------------------------------------------------------------------
 #t hf aug-cc-pvdz iop(5/13=1,5/36=2,99/5=2) pseudo=read geom=check gue
 ss=(read,tcheck) scf=(maxcycle=1)
 ----------------------------------------------------------------------
 -----
 title
 -----
 Structure from the checkpoint file:  "ANI1ccx_1869_conf21_mol1.chk"
 Charge =  0 Multiplicity = 1

                         Standard orientation:
 ---------------------------------------------------------------------
 Center     Atomic      Atomic             Coordinates (Angstroms)
 Number     Number       Type             X           Y           Z
 ---------------------------------------------------------------------
      1          1           0       -1.288800   -0.422812    0.525188
      2          1           0       -1.681850    0.530981   -0.580186
      3          1           0        2.009290   -0.957894    0.459451
      4          7           0        1.275280   -0.532245   -0.164808
      5          8           0       -2.094060   -0.078258    0.022466
      6          8           0        1.098360    0.650188    0.071185
 ---------------------------------------------------------------------

 SCF Done:  E(RHF) =  -205.910378409     A.U. after    2 cycles

 The electronic state is 1-A.
 Alpha  occ. eigenvalues --  -20.69160 -20.57310 -15.79977  -1.49230  -1.29546
 Alpha  occ. eigenvalues --   -0.99936  -0.77159  -0.70353  -0.69212  -0.62471
 Alpha  occ. eigenvalues --   -0.58818  -0.51673  -0.45536
 Alpha virt. eigenvalues --    0.02862   0.03805   0.05714   0.07022   0.10335
 Alpha virt. eigenvalues --    0.14587   0.17410   0.18106   0.19737   0.21107
 Alpha virt. eigenvalues --    0.23256   0.24416   0.24956   0.26387   0.27693

 Mulliken charges:
               1
     1  H    0.188347
     2  H    0.126587
     3  H    0.155258
     4  N    0.205943
     5  O   -0.311309
     6  O   -0.364826
 Sum of Mulliken charges =   0.00000

 Dipole moment (field-independent basis, Debye):
    X=              3.6752    Y=             -1.1357    Z=              0.5953  Tot=              3.8925

 Test job not archived.
 1\1\GINC-SE044\SP\RHF\Aug-CC-pVDZ\H3N1O2\OHZDE\08-Apr-2025\0\\#t hf au
 g-cc-pvdz iop(5/13=1,5/36=2,99/5=2) pseudo=read geom=check guess=(read
 ,tcheck) scf=(maxcycle=1)\\title\\0,1\H,0,-1.2888,-0.422812,0.525188\H
 ,0,-1.68185,0.530981,-0.580186\H,0,2.00929,-0.957894,0.459451\N,0,1.27
 528,-0.532245,-0.164808\O,0,-2.09406,-0.0782578,0.0224655\O,0,1.09836,
 0.650188,0.0711846\\Version=ES64L-G16RevC.01\State=1-A\HF=-205.9103784
 \RMSD=2.585e-03\Dipole=1.4459449,-0.4468077,0.2342144\Quadrupole=-1.99
 21797,0.832874,1.1593057,-3.2710888,1.3132784,-2.1096483\PG=C01 [X(H3N

 Normal termination of Gaussian 16 at Tue Apr  8 21:10:17 2025.
