 Gaussian 16, Revision C.01,

 ----------------------------------------------------------------------
 #t hf aug-cc-pvdz symm=none int=(grid=ultrafine) guess=(read,tcheck) s
 table=(opt,rrhf)
 ----------------------------------------------------------------------
 -----
 title
 -----
 Symbolic Z-matrix:
 Charge =  0 Multiplicity = 1

 SCF Done:  E(RHF) =  -460.010340718     A.U. after   12 cycles

 1\1\GINC-SE060\Stability\RHF\Aug-CC-pVDZ\C6H14O3\OHZDE\08-Apr-2025\0\\
 #t hf aug-cc-pvdz symm=none int=(grid=ultrafine) guess=(read,tcheck) s
 table=(opt,rrhf)\\title\\0,1\C,0,-2.63351,-0.979321,1.0034\C,0,-2.3223
 3,0.367799,0.405994\C,0,-1.11208,0.389283,-0.508771\C,0,1.09596,-0.357
 587,-0.527528\C,0,2.32318,-0.387907,0.395065\C,0,2.6363,0.953143,1.039
 57\H,0,2.79757,1.65097,0.208151\H,0,3.50305,0.974404,1.70511\H,0,1.769
 28,1.31447,1.59951\H,0,2.11031,-1.09062,1.21838\H,0,3.13037,-0.826434,
 -0.204399\H,0,0.826704,-2.29128,-0.469719\H,0,1.23702,0.40424,-1.31898

 Normal termination of Gaussian 16 at Tue Apr  8 19:19:48 2025.
 Gaussian 16:  ES64L-G16RevC.01  3-Jul-2019

 ----------------------------------------------------------------------
 #t hf aug-cc-pvdz iop(5/13=1,5/36=2,99/5=2) pseudo=read geom=check gue
 ss=(read,tcheck) scf=(maxcycle=1)
 ----------------------------------------------------------------------
 -----
 title
 -----
 Structure from the checkpoint file:  "ANI1ccx_1253_conf1_mol2.chk"
 Charge =  0 Multiplicity = 1

                         Standard orientation:
 ---------------------------------------------------------------------
 Center     Atomic      Atomic             Coordinates (Angstroms)
 Number     Number       Type             X           Y           Z
 ---------------------------------------------------------------------
      1          6           0       -2.633511   -0.979322    1.003400
      2          6           0       -2.322331    0.367798    0.405994
      3          6           0       -1.112081    0.389282   -0.508771
      4          6           0        1.095959   -0.357587   -0.527528
      5          6           0        2.323179   -0.387907    0.395065
      6          6           0        2.636299    0.953143    1.039570
      7          1           0        2.797569    1.650970    0.208151
      8          1           0        3.503049    0.974404    1.705110
      9          1           0        1.769279    1.314470    1.599510
     10          1           0        2.110310   -1.090620    1.218380
     11          1           0        3.130369   -0.826434   -0.204399
     12          1           0        0.826704   -2.291280   -0.469719
     13          1           0        1.237019    0.404240   -1.318980
     14          1           0       -1.219341   -0.352799   -1.332930
     15          1           0       -2.054711    1.056859    1.201880
     16          1           0       -3.218351    0.745135   -0.107675
     17          1           0       -1.753830   -1.379861    1.530840
     18          1           0       -3.503131   -0.930656    1.662160
     19          1           0       -2.801440   -1.692991    0.198836
     20          1           0       -0.716513    2.330599   -0.480671
     21          8           0       -0.030237   -0.005339    0.251750
     22          8           0       -0.898071    1.643589   -1.132120
     23          8           0        0.924299   -1.616310   -1.151740
 ---------------------------------------------------------------------

 SCF Done:  E(RHF) =  -460.157589308     A.U. after    2 cycles

 The electronic state is 1-A.
 Alpha  occ. eigenvalues --  -20.58198 -20.58064 -20.57703 -11.34643 -11.34049
 Alpha  occ. eigenvalues --  -11.23697 -11.23002 -11.22875 -11.22436  -1.39796
 Alpha  occ. eigenvalues --   -1.33387  -1.29230  -1.06484  -1.03511  -0.93597
 Alpha  occ. eigenvalues --   -0.89069  -0.83338  -0.81816  -0.75793  -0.70777
 Alpha  occ. eigenvalues --   -0.66823  -0.65754  -0.62960  -0.62188  -0.60488
 Alpha  occ. eigenvalues --   -0.59822  -0.57230  -0.55564  -0.53926  -0.51526
 Alpha  occ. eigenvalues --   -0.50604  -0.50071  -0.49197  -0.48502  -0.48081
 Alpha  occ. eigenvalues --   -0.45980  -0.45273
 Alpha virt. eigenvalues --    0.03375   0.04109   0.04147   0.04881   0.05469
 Alpha virt. eigenvalues --    0.05861   0.06082   0.06878   0.07332   0.08434
 Alpha virt. eigenvalues --    0.08684   0.09230   0.09378   0.09650   0.13734

 Mulliken charges:
               1
     1  C    0.406779
     2  C    0.197436
     3  C    0.456686
     4  C    0.545374
     5  C    0.172637
     6  C    0.430836
     7  H   -0.026201
     8  H   -0.126843
     9  H   -0.004632
    10  H   -0.033379
    11  H   -0.035341
    12  H    0.152371
    13  H   -0.166174
    14  H   -0.112435
    15  H   -0.038373
    16  H   -0.021277
    17  H   -0.006827
    18  H   -0.080569
    19  H   -0.067903
    20  H    0.130580
    21  O   -0.743400
    22  O   -0.503587
    23  O   -0.525759
 Sum of Mulliken charges =  -0.00000

 Dipole moment (field-independent basis, Debye):
    X=              0.2426    Y=              0.0220    Z=              2.1767  Tot=              2.1903

 Test job not archived.
 1\1\GINC-SE060\SP\RHF\Aug-CC-pVDZ\C6H14O3\OHZDE\08-Apr-2025\0\\#t hf a
 ug-cc-pvdz iop(5/13=1,5/36=2,99/5=2) pseudo=read geom=check guess=(rea
 d,tcheck) scf=(maxcycle=1)\\title\\0,1\C,0,-2.63351,-0.979321,1.0034\C
 ,0,-2.32233,0.367799,0.405994\C,0,-1.11208,0.389283,-0.508771\C,0,1.09
 596,-0.357587,-0.527528\C,0,2.32318,-0.387907,0.395065\C,0,2.6363,0.95
 3143,1.03957\H,0,2.79757,1.65097,0.208151\H,0,3.50305,0.974404,1.70511
 \H,0,1.76928,1.31447,1.59951\H,0,2.11031,-1.09062,1.21838\H,0,3.13037,
 -0.826434,-0.204399\H,0,0.826704,-2.29128,-0.469719\H,0,1.23702,0.4042

 Normal termination of Gaussian 16 at Tue Apr  8 19:20:01 2025.
