 Gaussian 16, Revision C.01,

 ----------------------------------------------------------------------
 #t hf aug-cc-pvdz symm=none int=(grid=ultrafine) guess=(read,tcheck) s
 table=(opt,rrhf)
 ----------------------------------------------------------------------
 -----
 title
 -----
 Symbolic Z-matrix:
 Charge =  0 Multiplicity = 1

 SCF Done:  E(RHF) =  -603.561537977     A.U. after   15 cycles
 Normal termination of Gaussian 16 at Tue Apr  8 22:17:21 2025.
 Gaussian 16:  ES64L-G16RevC.01  3-Jul-2019

 ----------------------------------------------------------------------
 #t hf aug-cc-pvdz iop(5/13=1,5/36=2,99/5=2) pseudo=read geom=check gue
 ss=(read,tcheck) scf=(maxcycle=1)
 ----------------------------------------------------------------------
 -----
 title
 -----
 Structure from the checkpoint file:  "ANI1ccx_999_conf11_mol1.chk"
 Charge =  0 Multiplicity = 1

                         Standard orientation:
 ---------------------------------------------------------------------
 Center     Atomic      Atomic             Coordinates (Angstroms)
 Number     Number       Type             X           Y           Z
 ---------------------------------------------------------------------
      1          6           0       -1.728851    0.967578    0.509541
      2          6           0       -1.840160   -0.045226   -0.570094
      3          6           0        0.807420   -0.193716   -0.964163
      4          6           0        1.488700   -0.941933    0.177384
      5          6           0        1.338929    1.246291   -0.892530
      6          1           0       -0.095123   -0.755356    1.435739
      7          1           0        2.052409    1.807052    0.911502
      8          1           0        2.408519    1.232232   -1.230661
      9          1           0        0.832475    1.887641   -1.527181
     10          1           0        1.395140   -0.589008   -1.851691
     11          1           0       -0.958714    1.742590    0.248219
     12          1           0       -2.742231    1.314159    0.518226
     13          1           0       -2.130130   -0.455491    2.050399
     14          1           0       -1.155911    0.655825    2.554169
     15          1           0       -0.774427   -1.397860   -1.665461
     16          7           0       -1.384820    0.080841    1.681069
     17          7           0       -0.661643   -0.474632   -1.227161
     18          8           0        1.323008    2.058021    0.305637
     19          8           0       -2.892200   -0.696185   -0.865513
     20          8           0        2.646010   -1.220238    0.070064
     21          8           0        0.810307   -1.251999    1.217129
 ---------------------------------------------------------------------

 SCF Done:  E(RHF) =  -603.747089141     A.U. after    2 cycles

 The electronic state is 1-A.
 Alpha  occ. eigenvalues --  -20.60215 -20.58819 -20.56066 -20.54078 -15.68896
 Alpha  occ. eigenvalues --  -15.67329 -11.39770 -11.38295 -11.32230 -11.32197
 Alpha  occ. eigenvalues --  -11.31861  -1.41697  -1.34095  -1.33780  -1.31519
 Alpha  occ. eigenvalues --   -1.21248  -1.18755  -1.04285  -1.00377  -0.91011
 Alpha  occ. eigenvalues --   -0.83926  -0.80426  -0.74603  -0.72935  -0.72728
 Alpha  occ. eigenvalues --   -0.69230  -0.67697  -0.66418  -0.65665  -0.64584
 Alpha  occ. eigenvalues --   -0.62823  -0.61097  -0.60020  -0.57997  -0.56197
 Alpha  occ. eigenvalues --   -0.54280  -0.52811  -0.50223  -0.48345  -0.47317
 Alpha  occ. eigenvalues --   -0.46261  -0.45490  -0.40336
 Alpha virt. eigenvalues --    0.02100   0.03337   0.03913   0.04140   0.05618
 Alpha virt. eigenvalues --    0.05888   0.06290   0.08031   0.08234   0.08557
 Alpha virt. eigenvalues --    0.09962   0.10651   0.11845   0.12328   0.13058

 Mulliken charges:
               1
     1  C    0.999902
     2  C    0.452518
     3  C    0.114305
     4  C    0.662005
     5  C    0.910864
     6  H    0.542056
     7  H    0.195569
     8  H   -0.022953
     9  H   -0.432062
    10  H    0.112970
    11  H    0.084083
    12  H   -0.101298
    13  H    0.005330
    14  H    0.120606
    15  H   -0.057255
    16  N   -0.757906
    17  N   -0.523348
    18  O   -0.589985
    19  O   -0.643412
    20  O   -0.519857
    21  O   -0.552131
 Sum of Mulliken charges =  -0.00000

 Dipole moment (field-independent basis, Debye):
    X=             -1.4605    Y=              3.8051    Z=              1.5184  Tot=              4.3494

 Test job not archived.
 1\1\GINC-SE095\SP\RHF\Aug-CC-pVDZ\C5H10N2O4\OHZDE\08-Apr-2025\0\\#t hf
  aug-cc-pvdz iop(5/13=1,5/36=2,99/5=2) pseudo=read geom=check guess=(r
 ead,tcheck) scf=(maxcycle=1)\\title\\0,1\C,0,-1.72885,0.967579,0.50954
 2\C,0,-1.84016,-0.045225,-0.570093\C,0,0.80742,-0.193717,-0.964162\C,0
 ,1.4887,-0.941934,0.177385\C,0,1.33893,1.24629,-0.892529\H,0,-0.095122
 8,-0.755356,1.43574\H,0,2.05241,1.80705,0.911503\H,0,2.40852,1.23223,-
 1.23066\H,0,0.832477,1.88764,-1.52718\H,0,1.39514,-0.589009,-1.85169\H
 ,0,-0.958713,1.74259,0.24822\H,0,-2.74223,1.31416,0.518227\H,0,-2.1301

 Normal termination of Gaussian 16 at Tue Apr  8 22:17:35 2025.
