 Gaussian 16, Revision C.01,

 ----------------------------------------------------------------------
 #t hf aug-cc-pvdz symm=none int=(grid=ultrafine) guess=(read,tcheck) s
 table=(opt,rrhf)
 ----------------------------------------------------------------------
 -----
 title
 -----
 Symbolic Z-matrix:
 Charge =  0 Multiplicity = 1

 SCF Done:  E(RHF) =  -460.247806890     A.U. after   16 cycles
 Normal termination of Gaussian 16 at Tue Apr  8 21:18:33 2025.
 Gaussian 16:  ES64L-G16RevC.01  3-Jul-2019

 ----------------------------------------------------------------------
 #t hf aug-cc-pvdz iop(5/13=1,5/36=2,99/5=2) pseudo=read geom=check gue
 ss=(read,tcheck) scf=(maxcycle=1)
 ----------------------------------------------------------------------
 -----
 title
 -----
 Structure from the checkpoint file:  "ANI1ccx_373_conf12_mol1.chk"
 Charge =  0 Multiplicity = 1

                         Standard orientation:
 ---------------------------------------------------------------------
 Center     Atomic      Atomic             Coordinates (Angstroms)
 Number     Number       Type             X           Y           Z
 ---------------------------------------------------------------------
      1          6           0       -0.030895   -0.070167   -0.172511
      2          1           0       -2.637150    1.275650   -0.124746
      3          7           0        1.413310    0.016690   -0.065122
      4          7           0       -0.824142   -1.111040    0.040461
      5          7           0       -2.048759   -0.658937    0.227193
      6          7           0       -1.931350    0.579316   -0.019329
      7          7           0       -0.635431    1.026070   -0.213797
      8          8           0        1.973781   -1.083539   -0.088536
      9          8           0        1.902110    1.106121    0.260283
 ---------------------------------------------------------------------

 SCF Done:  E(RHF) =  -460.379553606     A.U. after    2 cycles

 The electronic state is 1-A.
 Alpha  occ. eigenvalues --  -20.65223 -20.65096 -15.95382 -15.81623 -15.79758
 Alpha  occ. eigenvalues --  -15.74026 -15.71788 -11.40166  -1.57280  -1.52708
 Alpha  occ. eigenvalues --   -1.39018  -1.27547  -1.24083  -1.04843  -0.97602
 Alpha  occ. eigenvalues --   -0.87126  -0.83676  -0.77894  -0.76681  -0.74785
 Alpha  occ. eigenvalues --   -0.71654  -0.62968  -0.56518  -0.54624  -0.53680
 Alpha  occ. eigenvalues --   -0.50462  -0.49493  -0.48801  -0.46530
 Alpha virt. eigenvalues --    0.01616   0.02006   0.06496   0.07728   0.08213
 Alpha virt. eigenvalues --    0.08350   0.11447   0.12010   0.13374   0.14572
 Alpha virt. eigenvalues --    0.15860   0.16738   0.17214   0.17885   0.19757

 Mulliken charges:
               1
     1  C    1.083827
     2  H    0.029235
     3  N    0.395193
     4  N   -0.321831
     5  N   -0.082746
     6  N    0.188955
     7  N   -0.242652
     8  O   -0.526490
     9  O   -0.523492
 Sum of Mulliken charges =  -0.00000

 Dipole moment (field-independent basis, Debye):
    X=             -4.9403    Y=              2.2543    Z=             -0.7672  Tot=              5.4843

 Test job not archived.
 1\1\GINC-SE072\SP\RHF\Aug-CC-pVDZ\C1H1N5O2\OHZDE\08-Apr-2025\0\\#t hf
 aug-cc-pvdz iop(5/13=1,5/36=2,99/5=2) pseudo=read geom=check guess=(re
 ad,tcheck) scf=(maxcycle=1)\\title\\0,1\C,0,-0.0308956,-0.0701672,-0.1
 72511\H,0,-2.63715,1.27565,-0.124746\N,0,1.41331,0.016689,-0.0651224\N
 ,0,-0.824143,-1.11104,0.0404614\N,0,-2.04876,-0.658937,0.227193\N,0,-1
 .93135,0.579316,-0.0193294\N,0,-0.635431,1.02607,-0.213797\O,0,1.97378
 ,-1.08354,-0.0885363\O,0,1.90211,1.10612,0.260283\\Version=ES64L-G16Re
 vC.01\State=1-A\HF=-460.3795536\RMSD=3.396e-03\Dipole=-1.9436635,0.886

 Normal termination of Gaussian 16 at Tue Apr  8 21:18:37 2025.
