 Gaussian 16, Revision C.01,

 ----------------------------------------------------------------------
 #t hf aug-cc-pvdz symm=none int=(grid=ultrafine) guess=(read,tcheck) s
 table=(opt,rrhf)
 ----------------------------------------------------------------------
 -----
 title
 -----
 Symbolic Z-matrix:
 Charge =  0 Multiplicity = 1

 SCF Done:  E(RHF) =  -424.687898332     A.U. after   15 cycles
 Normal termination of Gaussian 16 at Tue Apr  8 21:43:46 2025.
 Gaussian 16:  ES64L-G16RevC.01  3-Jul-2019

 ----------------------------------------------------------------------
 #t hf aug-cc-pvdz iop(5/13=1,5/36=2,99/5=2) pseudo=read geom=check gue
 ss=(read,tcheck) scf=(maxcycle=1)
 ----------------------------------------------------------------------
 -----
 title
 -----
 Structure from the checkpoint file:  "ANI1ccx_507_conf3_mol1.chk"
 Charge =  0 Multiplicity = 1

                         Standard orientation:
 ---------------------------------------------------------------------
 Center     Atomic      Atomic             Coordinates (Angstroms)
 Number     Number       Type             X           Y           Z
 ---------------------------------------------------------------------
      1          6           0        1.286049   -0.325860    0.062354
      2          6           0       -0.184201    1.428341   -0.055771
      3          1           0        3.018817   -1.378547    0.132276
      4          1           0        3.006260    0.000166   -0.993513
      5          1           0       -2.047055    1.962936    0.061371
      6          7           0        2.596379   -0.562316   -0.223852
      7          7           0        0.879486    0.893753   -0.475990
      8          7           0       -1.076724    2.118884    0.354747
      9          7           0       -2.273561   -0.605281   -0.225424
     10          7           0       -2.335694   -1.726433   -0.259649
     11          8           0        0.610212   -1.003711    0.821443
 ---------------------------------------------------------------------

 SCF Done:  E(RHF) =  -424.815868281     A.U. after    2 cycles

 The electronic state is 1-A.
 Alpha  occ. eigenvalues --  -20.54279 -15.76127 -15.75638 -15.67450 -15.65867
 Alpha  occ. eigenvalues --  -15.65863 -11.41165 -11.41149  -1.40441  -1.37198
 Alpha  occ. eigenvalues --   -1.27457  -1.21214  -1.17301  -0.89375  -0.79095
 Alpha  occ. eigenvalues --   -0.76143  -0.74996  -0.70729  -0.65040  -0.63810
 Alpha  occ. eigenvalues --   -0.62447  -0.59965  -0.59452  -0.57981  -0.56396
 Alpha  occ. eigenvalues --   -0.49403  -0.43422  -0.43005  -0.42181
 Alpha virt. eigenvalues --    0.03110   0.03696   0.05242   0.08007   0.08869
 Alpha virt. eigenvalues --    0.09956   0.10402   0.11792   0.12153   0.12836
 Alpha virt. eigenvalues --    0.13643   0.13698   0.14909   0.15302   0.15981

 Mulliken charges:
               1
     1  C    0.861410
     2  C   -0.064380
     3  H   -0.040327
     4  H    0.077948
     5  H    0.144144
     6  N   -0.145277
     7  N   -0.325720
     8  N   -0.027549
     9  N   -0.013498
    10  N   -0.008382
    11  O   -0.458369
 Sum of Mulliken charges =  -0.00000

 Dipole moment (field-independent basis, Debye):
    X=              0.6273    Y=              0.7025    Z=             -2.3611  Tot=              2.5421

 Test job not archived.
 1\1\GINC-SE090\SP\RHF\Aug-CC-pVDZ\C2H3N5O1\OHZDE\08-Apr-2025\0\\#t hf
 aug-cc-pvdz iop(5/13=1,5/36=2,99/5=2) pseudo=read geom=check guess=(re
 ad,tcheck) scf=(maxcycle=1)\\title\\0,1\C,0,1.28605,-0.325858,0.062354
 4\C,0,-0.184205,1.42834,-0.0557704\H,0,3.01882,-1.37854,0.132276\H,0,3
 .00626,0.00017295,-0.993513\H,0,-2.04706,1.96293,0.0613713\N,0,2.59638
 ,-0.56231,-0.223852\N,0,0.879483,0.893754,-0.47599\N,0,-1.07673,2.1188
 8,0.354747\N,0,-2.27356,-0.605288,-0.225424\N,0,-2.33569,-1.72644,-0.2
 59649\O,0,0.610214,-1.00371,0.821443\\Version=ES64L-G16RevC.01\State=1

 Normal termination of Gaussian 16 at Tue Apr  8 21:43:50 2025.
