 Gaussian 16, Revision C.01,

 ----------------------------------------------------------------------
 #t hf aug-cc-pvdz symm=none int=(grid=ultrafine) guess=(read,tcheck) s
 table=(opt,rrhf)
 ----------------------------------------------------------------------
 -----
 title
 -----
 Symbolic Z-matrix:
 Charge =  0 Multiplicity = 1

 SCF Done:  E(RHF) =  -507.437564534     A.U. after   16 cycles
 Normal termination of Gaussian 16 at Tue Apr  8 19:37:40 2025.
 Gaussian 16:  ES64L-G16RevC.01  3-Jul-2019

 ----------------------------------------------------------------------
 #t hf aug-cc-pvdz iop(5/13=1,5/36=2,99/5=2) pseudo=read geom=check gue
 ss=(read,tcheck) scf=(maxcycle=1)
 ----------------------------------------------------------------------
 -----
 title
 -----
 Structure from the checkpoint file:  "ANI1ccx_1510_conf2_mol1.chk"
 Charge =  0 Multiplicity = 1

                         Standard orientation:
 ---------------------------------------------------------------------
 Center     Atomic      Atomic             Coordinates (Angstroms)
 Number     Number       Type             X           Y           Z
 ---------------------------------------------------------------------
      1          6           0        2.227890   -0.213135    0.032578
      2          6           0        0.149552   -0.561836    0.007104
      3          6           0       -1.153250   -1.142890    0.008693
      4          6           0       -2.199940   -0.281307   -0.007226
      5          6           0       -2.031920    1.114240    0.002381
      6          6           0       -0.794820    1.706951   -0.012780
      7          6           0        0.323606    0.804136   -0.019308
      8          1           0        2.145300    1.824731   -0.255213
      9          1           0       -0.703673    2.784051    0.130202
     10          1           0       -2.942220    1.705740   -0.013334
     11          1           0        4.182490    0.222625    0.505370
     12          1           0       -1.221189   -2.227650    0.031477
     13          1           0        3.906120   -1.333208    0.022116
     14          1           0       -3.445489   -1.689050    0.005032
     15          7           0        1.655470    0.987351    0.027469
     16          7           0        3.618350   -0.365113   -0.095825
     17          7           0        1.413030   -1.194889    0.001103
     18          8           0       -3.482000   -0.729455   -0.002941
 ---------------------------------------------------------------------

 SCF Done:  E(RHF) =  -507.587638961     A.U. after    2 cycles

 The electronic state is 1-A.
 Alpha  occ. eigenvalues --  -20.59359 -15.67584 -15.64992 -15.59970 -11.35259
 Alpha  occ. eigenvalues --  -11.29931 -11.26912 -11.26453 -11.25910 -11.23400
 Alpha  occ. eigenvalues --  -11.23355  -1.36412  -1.34578  -1.18649  -1.15066
 Alpha  occ. eigenvalues --   -1.11403  -1.00460  -0.98348  -0.86694  -0.82601
 Alpha  occ. eigenvalues --   -0.81929  -0.75506  -0.73821  -0.70641  -0.66211
 Alpha  occ. eigenvalues --   -0.65113  -0.62801  -0.61631  -0.60763  -0.59891
 Alpha  occ. eigenvalues --   -0.57640  -0.54501  -0.51853  -0.49166  -0.44360
 Alpha  occ. eigenvalues --   -0.43600  -0.41219  -0.31608  -0.28640
 Alpha virt. eigenvalues --    0.02263   0.03369   0.03810   0.05269   0.05794
 Alpha virt. eigenvalues --    0.06239   0.07417   0.09263   0.10717   0.11177
 Alpha virt. eigenvalues --    0.11704   0.12562   0.12674   0.13716   0.14054

 Mulliken charges:
               1
     1  C    0.345290
     2  C   -0.239235
     3  C    1.081310
     4  C    0.539405
     5  C    0.916835
     6  C    1.236832
     7  C   -0.274013
     8  H   -0.101588
     9  H   -0.470550
    10  H   -0.522407
    11  H   -0.025216
    12  H   -0.580738
    13  H    0.039464
    14  H    0.136552
    15  N   -0.424046
    16  N   -0.316172
    17  N   -0.758885
    18  O   -0.582840
 Sum of Mulliken charges =   0.00000

 Dipole moment (field-independent basis, Debye):
    X=              3.1014    Y=              1.7749    Z=              0.8240  Tot=              3.6672

 Test job not archived.
 1\1\GINC-SE365\SP\RHF\Aug-CC-pVDZ\C7H7N3O1\OHZDE\08-Apr-2025\0\\#t hf
 aug-cc-pvdz iop(5/13=1,5/36=2,99/5=2) pseudo=read geom=check guess=(re
 ad,tcheck) scf=(maxcycle=1)\\title\\0,1\C,0,2.22789,-0.213136,0.032578
 4\C,0,0.149552,-0.561837,0.00710361\C,0,-1.15325,-1.14289,0.0086932\C,
 0,-2.19994,-0.281307,-0.00722554\C,0,-2.03192,1.11424,0.00238065\C,0,-
 0.79482,1.70695,-0.0127802\C,0,0.323606,0.804135,-0.0193083\H,0,2.1453
 ,1.82473,-0.255213\H,0,-0.703672,2.78405,0.130202\H,0,-2.94222,1.70574
 ,-0.0133339\H,0,4.18249,0.222623,0.50537\H,0,-1.22119,-2.22765,0.03147

 Normal termination of Gaussian 16 at Tue Apr  8 19:37:49 2025.
