 Gaussian 16, Revision C.01,

 ----------------------------------------------------------------------
 #t hf aug-cc-pvdz symm=none int=(grid=ultrafine) guess=(read,tcheck) s
 table=(opt,rrhf)
 ----------------------------------------------------------------------
 -----
 title
 -----
 Symbolic Z-matrix:
 Charge =  0 Multiplicity = 1

 SCF Done:  E(RHF) =  -456.237787974     A.U. after   11 cycles
 Normal termination of Gaussian 16 at Tue Apr  8 21:06:43 2025.
 Gaussian 16:  ES64L-G16RevC.01  3-Jul-2019

 ----------------------------------------------------------------------
 #t hf aug-cc-pvdz iop(5/13=1,5/36=2,99/5=2) pseudo=read geom=check gue
 ss=(read,tcheck) scf=(maxcycle=1)
 ----------------------------------------------------------------------
 -----
 title
 -----
 Structure from the checkpoint file:  "ANI1ccx_1844_conf305_mol1.chk"
 Charge =  0 Multiplicity = 1

                         Standard orientation:
 ---------------------------------------------------------------------
 Center     Atomic      Atomic             Coordinates (Angstroms)
 Number     Number       Type             X           Y           Z
 ---------------------------------------------------------------------
      1          1           0       -0.662230    2.278013    1.417430
      2          1           0        1.955454    1.049584   -0.338445
      3          1           0        1.835440    2.702344   -0.790846
      4          1           0       -0.111013   -1.858229    0.230336
      5          1           0        0.982875   -2.083673    1.439860
      6          1           0        2.032627   -1.072807    0.307505
      7          1           0        0.025803    2.110970    0.012269
      8          1           0        3.048699   -0.464963   -0.812717
      9          1           0       -3.284347    0.779303   -0.509107
     10          1           0       -1.937166    1.036617    0.203800
     11          1           0       -2.062793   -1.155313   -0.401769
     12          1           0       -1.987629   -2.700273   -0.381920
     13          8           0        0.897864   -2.113103    0.425083
     14          8           0       -2.687258    0.353659    0.132685
     15          8           0        1.374287    1.779216   -0.667763
     16          8           0        2.789629   -0.358387    0.176508
     17          8           0       -0.862601    2.192723    0.496241
     18          8           0       -1.491386   -1.931804   -0.609804
 ---------------------------------------------------------------------

 SCF Done:  E(RHF) =  -456.388520093     A.U. after    2 cycles

 The electronic state is 1-A.
 Alpha  occ. eigenvalues --  -20.58624 -20.58112 -20.57425 -20.56590 -20.56319
 Alpha  occ. eigenvalues --  -20.56292  -1.32289  -1.31590  -1.29851  -1.28776
 Alpha  occ. eigenvalues --   -1.28057  -1.25919  -0.75391  -0.74574  -0.73082
 Alpha  occ. eigenvalues --   -0.72595  -0.71540  -0.68659  -0.63373  -0.61886
 Alpha  occ. eigenvalues --   -0.60659  -0.58155  -0.57590  -0.56141  -0.52685
 Alpha  occ. eigenvalues --   -0.52336  -0.51566  -0.51338  -0.50574  -0.50337
 Alpha virt. eigenvalues --    0.02884   0.04156   0.05005   0.05251   0.06332
 Alpha virt. eigenvalues --    0.06940   0.08546   0.08870   0.09919   0.10573
 Alpha virt. eigenvalues --    0.11047   0.11482   0.16747   0.17874   0.19061

 Mulliken charges:
               1
     1  H    0.152159
     2  H    0.283416
     3  H    0.265516
     4  H    0.386215
     5  H    0.284575
     6  H    0.347379
     7  H    0.338979
     8  H    0.247778
     9  H    0.161069
    10  H    0.340973
    11  H    0.269697
    12  H    0.140681
    13  O   -0.650738
    14  O   -0.484445
    15  O   -0.527740
    16  O   -0.616184
    17  O   -0.526230
    18  O   -0.413099
 Sum of Mulliken charges =   0.00000

 Dipole moment (field-independent basis, Debye):
    X=             -0.4320    Y=              1.1137    Z=              0.6190  Tot=              1.3454

 Test job not archived.
 1\1\GINC-SE015\SP\RHF\Aug-CC-pVDZ\H12O6\OHZDE\08-Apr-2025\0\\#t hf aug
 -cc-pvdz iop(5/13=1,5/36=2,99/5=2) pseudo=read geom=check guess=(read,
 tcheck) scf=(maxcycle=1)\\title\\0,1\H,0,-0.662238,2.27801,1.41743\H,0
 ,1.95545,1.04959,-0.338445\H,0,1.83543,2.70235,-0.790846\H,0,-0.111007
 ,-1.85823,0.230336\H,0,0.982882,-2.08367,1.43986\H,0,2.03263,-1.0728,0
 .307505\H,0,0.0257947,2.11097,0.0122687\H,0,3.0487,-0.464953,-0.812717
 \H,0,-3.28435,0.779291,-0.509107\H,0,-1.93717,1.03661,0.2038\H,0,-2.06
 279,-1.15532,-0.401769\H,0,-1.98762,-2.70028,-0.38192\O,0,0.897871,-2.

 Normal termination of Gaussian 16 at Tue Apr  8 21:06:49 2025.
