 Gaussian 16, Revision C.01,

 ----------------------------------------------------------------------
 #t hf aug-cc-pvdz symm=none int=(grid=ultrafine) guess=(read,tcheck) s
 table=(opt,rrhf)
 ----------------------------------------------------------------------
 -----
 title
 -----
 Symbolic Z-matrix:
 Charge =  0 Multiplicity = 1

 SCF Done:  E(RHF) =  -276.593332781     A.U. after   15 cycles
 Normal termination of Gaussian 16 at Tue Apr  8 21:15:23 2025.
 Gaussian 16:  ES64L-G16RevC.01  3-Jul-2019

 ----------------------------------------------------------------------
 #t hf aug-cc-pvdz iop(5/13=1,5/36=2,99/5=2) pseudo=read geom=check gue
 ss=(read,tcheck) scf=(maxcycle=1)
 ----------------------------------------------------------------------
 -----
 title
 -----
 Structure from the checkpoint file:  "ANI1ccx_370_conf43_mol1.chk"
 Charge =  0 Multiplicity = 1

                         Standard orientation:
 ---------------------------------------------------------------------
 Center     Atomic      Atomic             Coordinates (Angstroms)
 Number     Number       Type             X           Y           Z
 ---------------------------------------------------------------------
      1          6           0       -1.022940    0.216952    0.030245
      2          1           0       -2.070509    0.346562    0.003046
      3          7           0       -0.151360    1.129161   -0.032680
      4          7           0        1.049041    0.497741    0.027263
      5          7           0        0.844199   -0.734698   -0.012336
      6          8           0       -0.498127   -0.986712   -0.007531
 ---------------------------------------------------------------------

 SCF Done:  E(RHF) =  -276.674326723     A.U. after    2 cycles

 The electronic state is 1-A.
 Alpha  occ. eigenvalues --  -20.72390 -15.78041 -15.75416 -15.69094 -11.39080
 Alpha  occ. eigenvalues --   -1.57262  -1.34504  -1.21986  -0.94273  -0.92077
 Alpha  occ. eigenvalues --   -0.80051  -0.75471  -0.68238  -0.59352  -0.54377
 Alpha  occ. eigenvalues --   -0.51245  -0.49967  -0.45609
 Alpha virt. eigenvalues --    0.02688   0.06557   0.07447   0.09270   0.10384
 Alpha virt. eigenvalues --    0.12973   0.13188   0.15171   0.16031   0.17600
 Alpha virt. eigenvalues --    0.18758   0.19945   0.21014   0.23422   0.25479

 Mulliken charges:
               1
     1  C    0.926937
     2  H   -0.229710
     3  N   -0.287432
     4  N   -0.041353
     5  N    0.104930
     6  O   -0.473371
 Sum of Mulliken charges =   0.00000

 Dipole moment (field-independent basis, Debye):
    X=             -2.9560    Y=             -0.3399    Z=              0.0729  Tot=              2.9764

 Test job not archived.
 1\1\GINC-SE249\SP\RHF\Aug-CC-pVDZ\C1H1N3O1\OHZDE\08-Apr-2025\0\\#t hf
 aug-cc-pvdz iop(5/13=1,5/36=2,99/5=2) pseudo=read geom=check guess=(re
 ad,tcheck) scf=(maxcycle=1)\\title\\0,1\C,0,-1.02294,0.216948,0.030245
 4\H,0,-2.07051,0.346555,0.00304627\N,0,-0.151364,1.12916,-0.0326802\N,
 0,1.04904,0.497745,0.0272634\N,0,0.844202,-0.734695,-0.0123359\O,0,-0.
 498123,-0.986714,-0.00753123\\Version=ES64L-G16RevC.01\State=1-A\HF=-2
 76.6743267\RMSD=3.395e-03\Dipole=-1.1629831,-0.1337305,0.0286858\Quadr
 upole=2.4463113,-3.3602837,0.9139723,-0.3186113,-0.0731886,0.0300168\P

 Normal termination of Gaussian 16 at Tue Apr  8 21:15:26 2025.
