 Gaussian 16, Revision C.01,

 ----------------------------------------------------------------------
 #t hf aug-cc-pvdz symm=none int=(grid=ultrafine) guess=(read,tcheck) s
 table=(opt,rrhf)
 ----------------------------------------------------------------------
 -----
 title
 -----
 Symbolic Z-matrix:
 Charge =  0 Multiplicity = 1

 SCF Done:  E(RHF) =  -869.310020188     A.U. after   14 cycles
 Normal termination of Gaussian 16 at Tue Apr  8 20:06:47 2025.
 Gaussian 16:  ES64L-G16RevC.01  3-Jul-2019

 ----------------------------------------------------------------------
 #t hf aug-cc-pvdz iop(5/13=1,5/36=2,99/5=2) pseudo=read geom=check gue
 ss=(read,tcheck) scf=(maxcycle=1)
 ----------------------------------------------------------------------
 -----
 title
 -----
 Structure from the checkpoint file:  "ANI1ccx_1593_conf8_mol1.chk"
 Charge =  0 Multiplicity = 1

                         Standard orientation:
 ---------------------------------------------------------------------
 Center     Atomic      Atomic             Coordinates (Angstroms)
 Number     Number       Type             X           Y           Z
 ---------------------------------------------------------------------
      1          6           0       -1.869270    0.590754    0.855088
      2          6           0       -0.697931    0.407504   -0.117053
      3          6           0       -3.175290    0.704070    0.130770
      4          6           0       -3.836389   -0.544219   -0.355774
      5          6           0        1.573061   -0.324954   -0.234416
      6          6           0        2.589471   -1.240189    0.542504
      7          6           0        2.327700    0.912360   -0.776276
      8          6           0        2.946610    1.729241    0.308442
      9          1           0        4.008011   -0.697793   -0.638130
     10          1           0        2.163310    2.084761    1.046920
     11          1           0        3.419870    2.636431   -0.101367
     12          1           0        3.711020    1.183652    0.913859
     13          1           0        2.785921   -0.172738   -2.178480
     14          1           0        1.556700    1.581071   -1.286010
     15          1           0        1.349481   -1.061049   -1.042430
     16          1           0        0.484341   -0.531029    1.429460
     17          1           0       -3.627709   -2.327591   -0.455111
     18          1           0       -3.015770    1.450489   -0.648765
     19          1           0       -3.951870    1.052079    0.931777
     20          1           0       -1.836649   -0.174524    1.646460
     21          1           0       -0.724600    1.865760    1.978430
     22          1           0       -1.892210    2.630580    0.972542
     23          7           0       -1.665150    1.794650    1.624160
     24          7           0        0.409949   -0.124070    0.516248
     25          8           0       -0.722137    0.561587   -1.325730
     26          8           0       -4.942219   -0.630183   -0.777578
     27          8           0       -3.013639   -1.591161   -0.319277
     28          8           0        2.206991   -1.853829    1.534530
     29          8           0        3.290930    0.497809   -1.708520
     30          8           0        3.831171   -1.311918    0.137609
 ---------------------------------------------------------------------

 SCF Done:  E(RHF) =  -869.576646941     A.U. after    2 cycles

 The electronic state is 1-A.
 Alpha  occ. eigenvalues --  -20.63627 -20.63486 -20.63070 -20.57127 -20.57043
 Alpha  occ. eigenvalues --  -20.56835 -15.67119 -15.64465 -11.41611 -11.40620
 Alpha  occ. eigenvalues --  -11.39087 -11.33271 -11.32420 -11.30566 -11.27466
 Alpha  occ. eigenvalues --  -11.26075  -1.45231  -1.44123  -1.39492  -1.38209
 Alpha  occ. eigenvalues --   -1.34489  -1.33227  -1.23946  -1.20040  -1.06996
 Alpha  occ. eigenvalues --   -1.05227  -0.99774  -0.91907  -0.86723  -0.86361
 Alpha  occ. eigenvalues --   -0.84083  -0.81586  -0.78513  -0.75190  -0.74494
 Alpha  occ. eigenvalues --   -0.73676  -0.71621  -0.70634  -0.69091  -0.68046
 Alpha  occ. eigenvalues --   -0.66899  -0.66522  -0.65689  -0.64603  -0.62721
 Alpha  occ. eigenvalues --   -0.61404  -0.59666  -0.59412  -0.57695  -0.56809
 Alpha  occ. eigenvalues --   -0.55952  -0.55583  -0.54139  -0.53064  -0.51061
 Alpha  occ. eigenvalues --   -0.50371  -0.50047  -0.49012  -0.48004  -0.45586
 Alpha  occ. eigenvalues --   -0.42183  -0.40789
 Alpha virt. eigenvalues --    0.02578   0.03120   0.03356   0.03895   0.04929
 Alpha virt. eigenvalues --    0.05411   0.05779   0.06541   0.06827   0.07069
 Alpha virt. eigenvalues --    0.08125   0.08614   0.08684   0.09030   0.10941

 Mulliken charges:
               1
     1  C    0.649741
     2  C    0.382694
     3  C    0.073623
     4  C    0.606643
     5  C    0.090783
     6  C    0.692575
     7  C    0.490077
     8  C    0.423242
     9  H    0.320730
    10  H    0.037476
    11  H   -0.035202
    12  H   -0.075354
    13  H    0.260848
    14  H   -0.164778
    15  H   -0.076860
    16  H   -0.041674
    17  H    0.223149
    18  H    0.036320
    19  H    0.366700
    20  H   -0.295366
    21  H   -0.034034
    22  H    0.175265
    23  N   -0.445489
    24  N   -0.346249
    25  O   -0.544522
    26  O   -0.501757
    27  O   -0.537149
    28  O   -0.570269
    29  O   -0.686156
    30  O   -0.475009
 Sum of Mulliken charges =  -0.00000

 Dipole moment (field-independent basis, Debye):
    X=              1.4339    Y=              2.3611    Z=              0.0343  Tot=              2.7626

 Test job not archived.
 1\1\GINC-SE332\SP\RHF\Aug-CC-pVDZ\C8H14N2O6\OHZDE\08-Apr-2025\0\\#t hf
  aug-cc-pvdz iop(5/13=1,5/36=2,99/5=2) pseudo=read geom=check guess=(r
 ead,tcheck) scf=(maxcycle=1)\\title\\0,1\C,0,-1.86927,0.590754,0.85508
 8\C,0,-0.697932,0.407504,-0.117053\C,0,-3.17529,0.704071,0.13077\C,0,-
 3.83639,-0.544218,-0.355774\C,0,1.57306,-0.324955,-0.234416\C,0,2.5894
 7,-1.24019,0.542504\C,0,2.3277,0.912359,-0.776276\C,0,2.94661,1.72924,
 0.308442\H,0,4.00801,-0.697795,-0.63813\H,0,2.16331,2.08476,1.04692\H,
 0,3.41987,2.63643,-0.101367\H,0,3.71102,1.18365,0.913859\H,0,2.78592,-

 Normal termination of Gaussian 16 at Tue Apr  8 20:07:19 2025.
