 Gaussian 16, Revision C.01,

 ----------------------------------------------------------------------
 #t hf aug-cc-pvdz symm=none int=(grid=ultrafine) guess=(read,tcheck) s
 table=(opt,rrhf)
 ----------------------------------------------------------------------
 -----
 title
 -----
 Symbolic Z-matrix:
 Charge =  0 Multiplicity = 1

 SCF Done:  E(RHF) =  -407.108981560     A.U. after   14 cycles
 Normal termination of Gaussian 16 at Tue Apr  8 21:47:26 2025.
 Gaussian 16:  ES64L-G16RevC.01  3-Jul-2019

 ----------------------------------------------------------------------
 #t hf aug-cc-pvdz iop(5/13=1,5/36=2,99/5=2) pseudo=read geom=check gue
 ss=(read,tcheck) scf=(maxcycle=1)
 ----------------------------------------------------------------------
 -----
 title
 -----
 Structure from the checkpoint file:  "ANI1ccx_588_conf5_mol1.chk"
 Charge =  0 Multiplicity = 1

                         Standard orientation:
 ---------------------------------------------------------------------
 Center     Atomic      Atomic             Coordinates (Angstroms)
 Number     Number       Type             X           Y           Z
 ---------------------------------------------------------------------
      1          6           0        1.606311    0.003898   -0.043228
      2          6           0       -1.832299    0.008009   -0.045770
      3          1           0        3.492621    0.564456    0.224961
      4          1           0        2.683791    1.371399   -0.987330
      5          1           0        0.856064   -1.314540    1.309050
      6          1           0        2.321040   -1.680751    0.629771
      7          1           0       -0.541358   -1.217429   -1.031160
      8          1           0       -1.087218    1.813441    0.504156
      9          1           0       -2.733369    1.590442    0.715241
     10          1           0       -2.502050   -1.466318   -0.962965
     11          7           0        2.780661    0.487232   -0.502138
     12          7           0        1.755850   -0.909155    0.974599
     13          7           0        0.510513    0.481317   -0.470912
     14          7           0       -0.533487   -0.427023   -0.410644
     15          7           0       -1.844749    1.135151    0.747023
     16          7           0       -2.830730   -0.729256   -0.319033
 ---------------------------------------------------------------------

 SCF Done:  E(RHF) =  -407.230170819     A.U. after    2 cycles

 The electronic state is 1-A.
 Alpha  occ. eigenvalues --  -15.65841 -15.65786 -15.65381 -15.63075 -15.62562
 Alpha  occ. eigenvalues --  -15.56585 -11.37131 -11.34612  -1.32287  -1.26156
 Alpha  occ. eigenvalues --   -1.18320  -1.15530  -1.11304  -1.03186  -0.82008
 Alpha  occ. eigenvalues --   -0.79700  -0.75178  -0.72447  -0.71596  -0.64907
 Alpha  occ. eigenvalues --   -0.63487  -0.62663  -0.60055  -0.58412  -0.55833
 Alpha  occ. eigenvalues --   -0.48793  -0.44650  -0.42247  -0.40051  -0.37479
 Alpha  occ. eigenvalues --   -0.31192
 Alpha virt. eigenvalues --    0.02348   0.02709   0.04184   0.04489   0.06384
 Alpha virt. eigenvalues --    0.06650   0.07881   0.08887   0.11463   0.12598
 Alpha virt. eigenvalues --    0.12770   0.14322   0.14397   0.15107   0.15802

 Mulliken charges:
               1
     1  C    0.949049
     2  C    0.965970
     3  H    0.014885
     4  H    0.015879
     5  H    0.135236
     6  H    0.055608
     7  H   -0.079788
     8  H    0.101959
     9  H   -0.002533
    10  H    0.000247
    11  N   -0.260877
    12  N   -0.319165
    13  N   -0.403340
    14  N   -0.426635
    15  N   -0.286324
    16  N   -0.460171
 Sum of Mulliken charges =  -0.00000

 Dipole moment (field-independent basis, Debye):
    X=              5.2821    Y=              0.0751    Z=             -0.2602  Tot=              5.2890

 Test job not archived.
 1\1\GINC-SE221\SP\RHF\Aug-CC-pVDZ\C2H8N6\OHZDE\08-Apr-2025\0\\#t hf au
 g-cc-pvdz iop(5/13=1,5/36=2,99/5=2) pseudo=read geom=check guess=(read
 ,tcheck) scf=(maxcycle=1)\\title\\0,1\C,0,1.60631,0.0038983,-0.0432276
 \C,0,-1.8323,0.00800786,-0.0457703\H,0,3.49262,0.564457,0.224961\H,0,2
 .68379,1.3714,-0.98733\H,0,0.856064,-1.31454,1.30905\H,0,2.32104,-1.68
 075,0.629771\H,0,-0.541358,-1.21743,-1.03116\H,0,-1.08722,1.81344,0.50
 4156\H,0,-2.73337,1.59044,0.715241\H,0,-2.50205,-1.46632,-0.962965\N,0
 ,2.78066,0.487233,-0.502138\N,0,1.75585,-0.909155,0.974599\N,0,0.51051

 Normal termination of Gaussian 16 at Tue Apr  8 21:47:32 2025.
