 Gaussian 16, Revision C.01,

 ----------------------------------------------------------------------
 #t hf aug-cc-pvdz symm=none int=(grid=ultrafine) guess=(read,tcheck) s
 table=(opt,rrhf)
 ----------------------------------------------------------------------
 -----
 title
 -----
 Symbolic Z-matrix:
 Charge =  0 Multiplicity = 1

 SCF Done:  E(RHF) =  -487.428235659     A.U. after   14 cycles
 Normal termination of Gaussian 16 at Tue Apr  8 21:57:11 2025.
 Gaussian 16:  ES64L-G16RevC.01  3-Jul-2019

 ----------------------------------------------------------------------
 #t hf aug-cc-pvdz iop(5/13=1,5/36=2,99/5=2) pseudo=read geom=check gue
 ss=(read,tcheck) scf=(maxcycle=1)
 ----------------------------------------------------------------------
 -----
 title
 -----
 Structure from the checkpoint file:  "ANI1ccx_877_conf4_mol2.chk"
 Charge =  0 Multiplicity = 1

                         Standard orientation:
 ---------------------------------------------------------------------
 Center     Atomic      Atomic             Coordinates (Angstroms)
 Number     Number       Type             X           Y           Z
 ---------------------------------------------------------------------
      1          6           0       -1.342937   -0.553509    0.009860
      2          6           0       -0.158070   -1.497053    0.005620
      3          6           0        1.193990   -0.817213   -0.015287
      4          6           0        0.159171    1.428615    0.032816
      5          1           0       -0.177078   -2.130564    0.900477
      6          1           0       -0.276001   -2.167126   -0.850059
      7          1           0        2.114305    0.982350   -0.196655
      8          1           0       -1.879615    1.385374    0.162088
      9          7           0        1.234436    0.532549    0.031662
     10          7           0       -1.110730    0.794971    0.018864
     11          8           0       -2.473447   -0.970308   -0.037513
     12          8           0        2.195476   -1.472855    0.001417
     13          8           0        0.307912    2.602198   -0.034852
 ---------------------------------------------------------------------

 SCF Done:  E(RHF) =  -487.579269342     A.U. after    2 cycles

 The electronic state is 1-A.
 Alpha  occ. eigenvalues --  -20.59726 -20.58088 -20.58084 -15.71206 -15.70919
 Alpha  occ. eigenvalues --  -11.45859 -11.41407 -11.41238 -11.30172  -1.44120
 Alpha  occ. eigenvalues --   -1.40779  -1.40070  -1.28014  -1.22748  -1.07705
 Alpha  occ. eigenvalues --   -0.93129  -0.90081  -0.83572  -0.79128  -0.72249
 Alpha  occ. eigenvalues --   -0.71788  -0.70437  -0.68678  -0.65465  -0.64259
 Alpha  occ. eigenvalues --   -0.63957  -0.62083  -0.55191  -0.53173  -0.51305
 Alpha  occ. eigenvalues --   -0.46982  -0.46474  -0.46298
 Alpha virt. eigenvalues --    0.02987   0.04152   0.04409   0.04546   0.07708
 Alpha virt. eigenvalues --    0.09190   0.09312   0.09443   0.09936   0.11509
 Alpha virt. eigenvalues --    0.12968   0.13035   0.13862   0.14300   0.14602

 Mulliken charges:
               1
     1  C    0.666861
     2  C   -0.179245
     3  C    0.626943
     4  C    0.853709
     5  H    0.163652
     6  H    0.145012
     7  H   -0.016520
     8  H   -0.096932
     9  N   -0.402514
    10  N   -0.378366
    11  O   -0.511455
    12  O   -0.494919
    13  O   -0.376225
 Sum of Mulliken charges =  -0.00000

 Dipole moment (field-independent basis, Debye):
    X=              0.0722    Y=              0.2129    Z=              0.1275  Tot=              0.2584

 Test job not archived.
 1\1\GINC-SE049\SP\RHF\Aug-CC-pVDZ\C4H4N2O3\OHZDE\08-Apr-2025\0\\#t hf
 aug-cc-pvdz iop(5/13=1,5/36=2,99/5=2) pseudo=read geom=check guess=(re
 ad,tcheck) scf=(maxcycle=1)\\title\\0,1\C,0,-1.34295,-0.553476,0.00985
 99\C,0,-0.158107,-1.49705,0.00561998\C,0,1.19397,-0.817243,-0.0152873\
 C,0,0.159207,1.42861,0.0328157\H,0,-0.17713,-2.13056,0.900477\H,0,-0.2
 76054,-2.16712,-0.850059\H,0,2.11433,0.982297,-0.196655\H,0,-1.87958,1
 .38542,0.162088\N,0,1.23445,0.532518,0.0316617\N,0,-1.11071,0.794998,0
 .0188643\O,0,-2.47347,-0.970247,-0.0375127\O,0,2.19544,-1.47291,0.0014

 Normal termination of Gaussian 16 at Tue Apr  8 21:57:17 2025.
