 Gaussian 16, Revision C.01,

 ----------------------------------------------------------------------
 #t hf aug-cc-pvdz symm=none int=(grid=ultrafine) guess=(read,tcheck) s
 table=(opt,rrhf)
 ----------------------------------------------------------------------
 -----
 title
 -----
 Symbolic Z-matrix:
 Charge =  0 Multiplicity = 1

 SCF Done:  E(RHF) =  -682.228945632     A.U. after   17 cycles
 Normal termination of Gaussian 16 at Tue Apr  8 19:38:18 2025.
 Gaussian 16:  ES64L-G16RevC.01  3-Jul-2019

 ----------------------------------------------------------------------
 #t hf aug-cc-pvdz iop(5/13=1,5/36=2,99/5=2) pseudo=read geom=check gue
 ss=(read,tcheck) scf=(maxcycle=1)
 ----------------------------------------------------------------------
 -----
 title
 -----
 Structure from the checkpoint file:  "ANI1ccx_144_conf3_mol2.chk"
 Charge =  0 Multiplicity = 1

                         Standard orientation:
 ---------------------------------------------------------------------
 Center     Atomic      Atomic             Coordinates (Angstroms)
 Number     Number       Type             X           Y           Z
 ---------------------------------------------------------------------
      1          6           0       -3.948101    0.292066    0.602441
      2          6           0        2.118939    0.944069    0.276625
      3          6           0        2.474259   -0.554729    0.554663
      4          6           0        1.159639    0.954809   -0.986391
      5          6           0       -0.003864    0.013727   -0.733602
      6          6           0        0.031344   -1.394170   -0.776584
      7          6           0       -1.305191    0.354032   -0.342226
      8          6           0       -2.011041   -0.829847   -0.178676
      9          6           0       -1.955402    1.584429   -0.170763
     10          6           0       -3.328161   -0.895808    0.300099
     11          6           0       -3.273462    1.541649    0.337667
     12          1           0        0.882351   -2.114440   -0.986775
     13          1           0       -1.302011   -2.912631   -0.235982
     14          1           0       -3.782551   -1.872981    0.613007
     15          1           0        0.789122    1.998070   -1.156790
     16          1           0       -3.805102    2.476579    0.529062
     17          1           0       -1.591242    2.612659   -0.329464
     18          1           0        1.809089    0.719195   -1.839850
     19          1           0        3.709629   -1.750570   -0.139472
     20          1           0        3.657478    1.944150    1.159990
     21          1           0        3.929078    1.659560   -0.432991
     22          1           0       -4.950261    0.318301    1.004330
     23          1           0        1.505798    1.294040    1.078410
     24          7           0       -1.191331   -1.884961   -0.468973
     25          7           0        3.214188    1.961800    0.229048
     26          8           0        3.552429   -0.818226   -0.257934
     27          8           0        2.101929   -1.303170    1.397490
 ---------------------------------------------------------------------

 SCF Done:  E(RHF) =  -682.427987102     A.U. after    2 cycles

 The electronic state is 1-A.
 Alpha  occ. eigenvalues --  -20.62682 -20.57830 -15.67647 -15.62845 -11.40371
 Alpha  occ. eigenvalues --  -11.28905 -11.28624 -11.27292 -11.25451 -11.24629
 Alpha  occ. eigenvalues --  -11.24565 -11.23935 -11.23828 -11.23443 -11.23261
 Alpha  occ. eigenvalues --   -1.43418  -1.34211  -1.27883  -1.15926  -1.12001
 Alpha  occ. eigenvalues --   -1.07032  -1.00683  -0.98971  -0.95631  -0.89964
 Alpha  occ. eigenvalues --   -0.83983  -0.81543  -0.80604  -0.76563  -0.73168
 Alpha  occ. eigenvalues --   -0.72530  -0.69684  -0.67144  -0.66052  -0.64438
 Alpha  occ. eigenvalues --   -0.64050  -0.61540  -0.61323  -0.60399  -0.59735
 Alpha  occ. eigenvalues --   -0.57918  -0.56286  -0.53951  -0.52866  -0.51888
 Alpha  occ. eigenvalues --   -0.51192  -0.49412  -0.48621  -0.48220  -0.46451
 Alpha  occ. eigenvalues --   -0.40782  -0.38214  -0.30406  -0.27793
 Alpha virt. eigenvalues --    0.02656   0.03400   0.03823   0.04557   0.04987
 Alpha virt. eigenvalues --    0.05041   0.06284   0.06370   0.07386   0.07879
 Alpha virt. eigenvalues --    0.08501   0.09489   0.09972   0.10426   0.10631

 Mulliken charges:
               1
     1  C    0.597173
     2  C    0.431405
     3  C    0.661303
     4  C    0.184683
     5  C    0.118251
     6  C    0.960167
     7  C    0.307490
     8  C   -0.570647
     9  C    0.438226
    10  C    0.837598
    11  C    0.410980
    12  H   -0.318673
    13  H    0.016960
    14  H   -0.400423
    15  H    0.032181
    16  H   -0.519034
    17  H   -0.542365
    18  H   -0.102645
    19  H    0.136718
    20  H    0.044780
    21  H    0.067040
    22  H   -0.465101
    23  H   -0.232113
    24  N   -0.701879
    25  N   -0.398313
    26  O   -0.535953
    27  O   -0.457810
 Sum of Mulliken charges =   0.00000

 Dipole moment (field-independent basis, Debye):
    X=              1.2050    Y=             -2.3280    Z=             -0.6942  Tot=              2.7117

 Test job not archived.
 1\1\GINC-SE195\SP\RHF\Aug-CC-pVDZ\C11H12N2O2\OHZDE\08-Apr-2025\0\\#t h
 f aug-cc-pvdz iop(5/13=1,5/36=2,99/5=2) pseudo=read geom=check guess=(
 read,tcheck) scf=(maxcycle=1)\\title\\0,1\C,0,-3.9481,0.292067,0.60244
 1\C,0,2.11894,0.944069,0.276625\C,0,2.47426,-0.554729,0.554663\C,0,1.1
 5964,0.954809,-0.986391\C,0,-0.00386265,0.013727,-0.733602\C,0,0.03134
 54,-1.39417,-0.776584\C,0,-1.30519,0.354033,-0.342226\C,0,-2.01104,-0.
 829846,-0.178676\C,0,-1.9554,1.58443,-0.170763\C,0,-3.32816,-0.895807,
 0.300099\C,0,-3.27346,1.54165,0.337667\H,0,0.882352,-2.11444,-0.986775

 Normal termination of Gaussian 16 at Tue Apr  8 19:38:49 2025.
