 Gaussian 16, Revision C.01,

 ----------------------------------------------------------------------
 #t hf aug-cc-pvdz symm=none int=(grid=ultrafine) guess=(read,tcheck) s
 table=(opt,rrhf)
 ----------------------------------------------------------------------
 -----
 title
 -----
 Symbolic Z-matrix:
 Charge =  0 Multiplicity = 1

 SCF Done:  E(RHF) =  -239.974383502     A.U. after   12 cycles
 Normal termination of Gaussian 16 at Tue Apr  8 21:10:16 2025.
 Gaussian 16:  ES64L-G16RevC.01  3-Jul-2019

 ----------------------------------------------------------------------
 #t hf aug-cc-pvdz iop(5/13=1,5/36=2,99/5=2) pseudo=read geom=check gue
 ss=(read,tcheck) scf=(maxcycle=1)
 ----------------------------------------------------------------------
 -----
 title
 -----
 Structure from the checkpoint file:  "ANI1ccx_1874_conf11_mol2.chk"
 Charge =  0 Multiplicity = 1

                         Standard orientation:
 ---------------------------------------------------------------------
 Center     Atomic      Atomic             Coordinates (Angstroms)
 Number     Number       Type             X           Y           Z
 ---------------------------------------------------------------------
      1          1           0        1.119302    0.898298    0.169761
      2          1           0        2.772612   -0.816002   -0.802224
      3          1           0        2.704972   -0.854049    0.806940
      4          7           0       -2.167068   -0.056777    0.008452
      5          7           0       -3.250698   -0.022889   -0.012301
      6          7           0        2.147122   -0.679976    0.000423
      7          8           0        2.037202    0.761156   -0.018811
 ---------------------------------------------------------------------

 SCF Done:  E(RHF) =  -240.049777451     A.U. after    2 cycles

 The electronic state is 1-A.
 Alpha  occ. eigenvalues --  -20.59865 -15.75451 -15.75101 -15.67387  -1.43875
 Alpha  occ. eigenvalues --   -1.35353  -1.06295  -0.75197  -0.70616  -0.67568
 Alpha  occ. eigenvalues --   -0.62755  -0.62194  -0.61665  -0.61663  -0.50190
 Alpha  occ. eigenvalues --   -0.43109
 Alpha virt. eigenvalues --    0.04141   0.05382   0.05740   0.10344   0.12023
 Alpha virt. eigenvalues --    0.13353   0.13495   0.14041   0.14302   0.17723
 Alpha virt. eigenvalues --    0.18328   0.19630   0.20821   0.22519   0.22739

 Mulliken charges:
               1
     1  H    0.166905
     2  H    0.131738
     3  H    0.091581
     4  N   -0.010126
     5  N    0.012724
     6  N    0.080418
     7  O   -0.473240
 Sum of Mulliken charges =  -0.00000

 Dipole moment (field-independent basis, Debye):
    X=              0.1608    Y=             -0.7395    Z=              0.3837  Tot=              0.8485

 Test job not archived.
 1\1\GINC-SE393\SP\RHF\Aug-CC-pVDZ\H3N3O1\OHZDE\08-Apr-2025\0\\#t hf au
 g-cc-pvdz iop(5/13=1,5/36=2,99/5=2) pseudo=read geom=check guess=(read
 ,tcheck) scf=(maxcycle=1)\\title\\0,1\H,0,1.1193,0.898298,0.169761\H,0
 ,2.77261,-0.816003,-0.802224\H,0,2.70497,-0.85405,0.80694\N,0,-2.16707
 ,-0.0567765,0.00845152\N,0,-3.2507,-0.0228882,-0.0123014\N,0,2.14712,-
 0.679977,0.00042293\O,0,2.0372,0.761155,-0.0188111\\Version=ES64L-G16R
 evC.01\State=1-A\HF=-240.0497775\RMSD=2.399e-03\Dipole=0.0632801,-0.29
 09432,0.1509582\Quadrupole=0.7660692,-1.1646261,0.3985569,-3.7809633,0

 Normal termination of Gaussian 16 at Tue Apr  8 21:10:18 2025.
