 Gaussian 16, Revision C.01,

 ----------------------------------------------------------------------
 #t hf aug-cc-pvdz symm=none int=(grid=ultrafine) guess=(read,tcheck) s
 table=(opt,rrhf)
 ----------------------------------------------------------------------
 -----
 title
 -----
 Symbolic Z-matrix:
 Charge =  0 Multiplicity = 1

 SCF Done:  E(RHF) =  -447.769638778     A.U. after   14 cycles
 Normal termination of Gaussian 16 at Tue Apr  8 21:47:31 2025.
 Gaussian 16:  ES64L-G16RevC.01  3-Jul-2019

 ----------------------------------------------------------------------
 #t hf aug-cc-pvdz iop(5/13=1,5/36=2,99/5=2) pseudo=read geom=check gue
 ss=(read,tcheck) scf=(maxcycle=1)
 ----------------------------------------------------------------------
 -----
 title
 -----
 Structure from the checkpoint file:  "ANI1ccx_586_conf6_mol1.chk"
 Charge =  0 Multiplicity = 1

                         Standard orientation:
 ---------------------------------------------------------------------
 Center     Atomic      Atomic             Coordinates (Angstroms)
 Number     Number       Type             X           Y           Z
 ---------------------------------------------------------------------
      1          6           0       -1.195058    1.467442   -0.800761
      2          6           0        0.160266   -0.487506   -0.172904
      3          1           0       -1.557749    0.881222   -1.626740
      4          1           0       -1.906528    1.593923    0.038600
      5          1           0       -0.892071    2.465582   -1.119990
      6          1           0        0.683294    2.452960    0.756427
      7          1           0       -0.026045    1.125891    1.653350
      8          1           0       -0.700193   -2.196439   -0.289506
      9          1           0       -2.675801   -0.626097    0.355740
     10          1           0        2.071951    0.540199   -0.206762
     11          7           0        0.027652    0.890228   -0.212472
     12          7           0        0.624155    1.417710    0.938551
     13          7           0       -0.980024   -1.216438   -0.377175
     14          7           0        1.288719   -1.175021   -0.140969
     15          8           0       -1.852241   -1.035677    0.742916
     16          8           0        2.413290   -0.405848   -0.139751
 ---------------------------------------------------------------------

 SCF Done:  E(RHF) =  -447.903265499     A.U. after    2 cycles

 The electronic state is 1-A.
 Alpha  occ. eigenvalues --  -20.63221 -20.59133 -15.69814 -15.67890 -15.67846
 Alpha  occ. eigenvalues --  -15.67119 -11.34463 -11.29554  -1.39721  -1.36948
 Alpha  occ. eigenvalues --   -1.30010  -1.17649  -1.06647  -1.02913  -0.94613
 Alpha  occ. eigenvalues --   -0.79658  -0.76851  -0.73325  -0.71064  -0.69515
 Alpha  occ. eigenvalues --   -0.66206  -0.64127  -0.60874  -0.59639  -0.58799
 Alpha  occ. eigenvalues --   -0.57916  -0.52871  -0.49099  -0.47815  -0.44110
 Alpha  occ. eigenvalues --   -0.40207  -0.32826
 Alpha virt. eigenvalues --    0.01982   0.03169   0.03833   0.05282   0.06733
 Alpha virt. eigenvalues --    0.06977   0.07670   0.07849   0.09891   0.12813
 Alpha virt. eigenvalues --    0.13486   0.13986   0.14591   0.15199   0.16087

 Mulliken charges:
               1
     1  C    0.929077
     2  C    1.004054
     3  H   -0.128087
     4  H   -0.068582
     5  H   -0.223308
     6  H    0.143480
     7  H    0.131187
     8  H    0.107442
     9  H    0.263293
    10  H    0.286155
    11  N   -0.567293
    12  N   -0.306086
    13  N   -0.212801
    14  N   -0.240108
    15  O   -0.581294
    16  O   -0.537130
 Sum of Mulliken charges =  -0.00000

 Dipole moment (field-independent basis, Debye):
    X=             -4.8438    Y=              4.2693    Z=             -0.4846  Tot=              6.4749

 Test job not archived.
 1\1\GINC-SE029\SP\RHF\Aug-CC-pVDZ\C2H8N4O2\OHZDE\08-Apr-2025\0\\#t hf
 aug-cc-pvdz iop(5/13=1,5/36=2,99/5=2) pseudo=read geom=check guess=(re
 ad,tcheck) scf=(maxcycle=1)\\title\\0,1\C,0,-1.19506,1.46744,-0.800761
 \C,0,0.160267,-0.487506,-0.172904\H,0,-1.55775,0.88122,-1.62674\H,0,-1
 .90653,1.59392,0.0386001\H,0,-0.892074,2.46558,-1.11999\H,0,0.683291,2
 .45296,0.756427\H,0,-0.0260462,1.12589,1.65335\H,0,-0.70019,-2.19644,-
 0.289506\H,0,-2.6758,-0.626101,0.35574\H,0,2.07195,0.540201,-0.206762\
 N,0,0.0276505,0.890227,-0.212472\N,0,0.624153,1.41771,0.938551\N,0,-0.

 Normal termination of Gaussian 16 at Tue Apr  8 21:47:37 2025.
