 Gaussian 16, Revision C.01,

 ----------------------------------------------------------------------
 #t hf aug-cc-pvdz symm=none int=(grid=ultrafine) guess=(read,tcheck) s
 table=(opt,rrhf)
 ----------------------------------------------------------------------
 -----
 title
 -----
 Symbolic Z-matrix:
 Charge =  0 Multiplicity = 1

 SCF Done:  E(RHF) =  -464.384339804     A.U. after   15 cycles
 Normal termination of Gaussian 16 at Tue Apr  8 21:40:49 2025.
 Gaussian 16:  ES64L-G16RevC.01  3-Jul-2019

 ----------------------------------------------------------------------
 #t hf aug-cc-pvdz iop(5/13=1,5/36=2,99/5=2) pseudo=read geom=check gue
 ss=(read,tcheck) scf=(maxcycle=1)
 ----------------------------------------------------------------------
 -----
 title
 -----
 Structure from the checkpoint file:  "ANI1ccx_474_conf9_mol1.chk"
 Charge =  0 Multiplicity = 1

                         Standard orientation:
 ---------------------------------------------------------------------
 Center     Atomic      Atomic             Coordinates (Angstroms)
 Number     Number       Type             X           Y           Z
 ---------------------------------------------------------------------
      1          6           0        1.288500   -0.366925    0.120297
      2          6           0       -0.223045    1.416789   -0.006166
      3          1           0        2.879880   -0.011045   -0.931592
      4          7           0        0.801639    0.893572   -0.397748
      5          7           0       -2.074350   -0.661226   -0.419948
      6          7           0       -2.552808   -1.607134   -0.127775
      7          8           0        2.483500   -0.706456   -0.381691
      8          8           0       -1.047603    2.173348    0.297471
      9          8           0        0.752356   -1.049970    0.942357
 ---------------------------------------------------------------------

 SCF Done:  E(RHF) =  -464.530270294     A.U. after    2 cycles

 The electronic state is 1-A.
 Alpha  occ. eigenvalues --  -20.67739 -20.65547 -20.59007 -15.76104 -15.75674
 Alpha  occ. eigenvalues --  -15.69588 -11.47666 -11.47012  -1.48127  -1.46177
 Alpha  occ. eigenvalues --   -1.42893  -1.36720  -1.27609  -0.93400  -0.85473
 Alpha  occ. eigenvalues --   -0.78528  -0.76634  -0.72274  -0.71573  -0.68879
 Alpha  occ. eigenvalues --   -0.67443  -0.63675  -0.62709  -0.61208  -0.61134
 Alpha  occ. eigenvalues --   -0.56718  -0.54004  -0.49132  -0.48084
 Alpha virt. eigenvalues --    0.02749   0.06377   0.07400   0.08765   0.09599
 Alpha virt. eigenvalues --    0.10339   0.10783   0.11163   0.11972   0.12699
 Alpha virt. eigenvalues --    0.13205   0.13498   0.14836   0.16401   0.17337

 Mulliken charges:
               1
     1  C    0.924459
     2  C    0.036179
     3  H    0.203785
     4  N   -0.232741
     5  N    0.024267
     6  N   -0.035641
     7  O   -0.420187
     8  O   -0.151304
     9  O   -0.348817
 Sum of Mulliken charges =   0.00000

 Dipole moment (field-independent basis, Debye):
    X=              1.4534    Y=              1.6806    Z=             -2.3363  Tot=              3.2242

 Test job not archived.
 1\1\GINC-SE454\SP\RHF\Aug-CC-pVDZ\C2H1N3O3\OHZDE\08-Apr-2025\0\\#t hf
 aug-cc-pvdz iop(5/13=1,5/36=2,99/5=2) pseudo=read geom=check guess=(re
 ad,tcheck) scf=(maxcycle=1)\\title\\0,1\C,0,1.2885,-0.366926,0.120297\
 C,0,-0.223043,1.41679,-0.00616561\H,0,2.87988,-0.0110481,-0.931592\N,0
 ,0.801641,0.893571,-0.397748\N,0,-2.07435,-0.661223,-0.419948\N,0,-2.5
 5281,-1.60713,-0.127775\O,0,2.4835,-0.706459,-0.381691\O,0,-1.0476,2.1
 7335,0.297471\O,0,0.752355,-1.04997,0.942357\\Version=ES64L-G16RevC.01
 \State=1-A\HF=-464.5302703\RMSD=2.519e-03\Dipole=0.5718153,0.661204,-0

 Normal termination of Gaussian 16 at Tue Apr  8 21:40:53 2025.
