 Gaussian 16, Revision C.01,

 ----------------------------------------------------------------------
 #t hf aug-cc-pvdz symm=none int=(grid=ultrafine) guess=(read,tcheck) s
 table=(opt,rrhf)
 ----------------------------------------------------------------------
 -----
 title
 -----
 Symbolic Z-matrix:
 Charge =  0 Multiplicity = 1

 SCF Done:  E(RHF) =  -390.252402121     A.U. after   16 cycles
 Normal termination of Gaussian 16 at Tue Apr  8 21:54:00 2025.
 Gaussian 16:  ES64L-G16RevC.01  3-Jul-2019

 ----------------------------------------------------------------------
 #t hf aug-cc-pvdz iop(5/13=1,5/36=2,99/5=2) pseudo=read geom=check gue
 ss=(read,tcheck) scf=(maxcycle=1)
 ----------------------------------------------------------------------
 -----
 title
 -----
 Structure from the checkpoint file:  "ANI1ccx_847_conf2_mol2.chk"
 Charge =  0 Multiplicity = 1

                         Standard orientation:
 ---------------------------------------------------------------------
 Center     Atomic      Atomic             Coordinates (Angstroms)
 Number     Number       Type             X           Y           Z
 ---------------------------------------------------------------------
      1          6           0       -1.494620   -0.291344    0.003347
      2          6           0       -1.120191    1.208869    0.015243
      3          6           0        0.636745   -0.031151    0.010951
      4          6           0        2.063800   -0.211362    0.006735
      5          1           0       -1.827671    2.017479    0.007656
      6          7           0        0.155516    1.337610   -0.010329
      7          7           0       -0.215542   -0.978340    0.038457
      8          7           0        3.210140   -0.326069   -0.024749
      9          8           0       -2.592190   -0.787495   -0.031119
 ---------------------------------------------------------------------

 SCF Done:  E(RHF) =  -390.362954504     A.U. after    2 cycles

 The electronic state is 1-A.
 Alpha  occ. eigenvalues --  -20.64479 -15.71472 -15.69880 -15.69857 -11.43433
 Alpha  occ. eigenvalues --  -11.42915 -11.37637 -11.33462  -1.43248  -1.35998
 Alpha  occ. eigenvalues --   -1.24023  -1.20932  -1.03839  -0.89561  -0.85286
 Alpha  occ. eigenvalues --   -0.78344  -0.71747  -0.68932  -0.66743  -0.60370
 Alpha  occ. eigenvalues --   -0.59587  -0.57436  -0.51952  -0.51449  -0.50212
 Alpha  occ. eigenvalues --   -0.48491  -0.45581
 Alpha virt. eigenvalues --   -0.03824   0.02383   0.06071   0.06473   0.06737
 Alpha virt. eigenvalues --    0.09136   0.09822   0.09999   0.10628   0.12006
 Alpha virt. eigenvalues --    0.12419   0.13100   0.13299   0.14380   0.15386

 Mulliken charges:
               1
     1  C    0.554922
     2  C    0.584614
     3  C    1.116689
     4  C   -0.592119
     5  H   -0.181296
     6  N   -0.551086
     7  N   -0.504057
     8  N   -0.041672
     9  O   -0.385996
 Sum of Mulliken charges =  -0.00000

 Dipole moment (field-independent basis, Debye):
    X=             -1.8095    Y=              2.7826    Z=              0.1004  Tot=              3.3207

 Test job not archived.
 1\1\GINC-SE393\SP\RHF\Aug-CC-pVDZ\C4H1N3O1\OHZDE\08-Apr-2025\0\\#t hf
 aug-cc-pvdz iop(5/13=1,5/36=2,99/5=2) pseudo=read geom=check guess=(re
 ad,tcheck) scf=(maxcycle=1)\\title\\0,1\C,0,-1.49462,-0.291343,0.00334
 711\C,0,-1.12019,1.20887,0.0152428\C,0,0.636745,-0.0311507,0.0109505\C
 ,0,2.0638,-0.211362,0.00673491\H,0,-1.82767,2.01748,0.00765641\N,0,0.1
 55517,1.33761,-0.0103293\N,0,-0.215542,-0.978339,0.0384567\N,0,3.21014
 ,-0.32607,-0.0247493\O,0,-2.59219,-0.787493,-0.0311194\\Version=ES64L-
 G16RevC.01\State=1-A\HF=-390.3629545\RMSD=5.193e-03\Dipole=-0.7119266,

 Normal termination of Gaussian 16 at Tue Apr  8 21:54:04 2025.
