 Gaussian 16, Revision C.01,

 ----------------------------------------------------------------------
 #t hf aug-cc-pvdz symm=none int=(grid=ultrafine) guess=(read,tcheck) s
 table=(opt,rrhf)
 ----------------------------------------------------------------------
 -----
 title
 -----
 Symbolic Z-matrix:
 Charge =  0 Multiplicity = 1

 SCF Done:  E(RHF) =  -522.615645047     A.U. after   13 cycles
 Normal termination of Gaussian 16 at Tue Apr  8 22:06:10 2025.
 Gaussian 16:  ES64L-G16RevC.01  3-Jul-2019

 ----------------------------------------------------------------------
 #t hf aug-cc-pvdz iop(5/13=1,5/36=2,99/5=2) pseudo=read geom=check gue
 ss=(read,tcheck) scf=(maxcycle=1)
 ----------------------------------------------------------------------
 -----
 title
 -----
 Structure from the checkpoint file:  "ANI1ccx_922_conf6_mol1.chk"
 Charge =  0 Multiplicity = 1

                         Standard orientation:
 ---------------------------------------------------------------------
 Center     Atomic      Atomic             Coordinates (Angstroms)
 Number     Number       Type             X           Y           Z
 ---------------------------------------------------------------------
      1          6           0        1.969631   -0.010663   -0.232393
      2          6           0        0.012145   -0.735624    0.793408
      3          6           0       -1.941499   -0.029795   -0.301420
      4          6           0       -0.003498    0.791501    0.771158
      5          1           0        1.594272   -2.014649   -0.116781
      6          1           0       -0.074599   -1.043510    1.842100
      7          1           0       -1.633818   -1.988430    0.227068
      8          1           0       -1.670909    2.034950    0.087164
      9          1           0       -0.062664    1.138540    1.828070
     10          1           0        1.347031    2.032801   -0.352232
     11          7           0        1.299642   -1.090429    0.281769
     12          7           0       -1.119108   -1.144380   -0.018905
     13          7           0       -1.253689    1.131210    0.091615
     14          7           0        1.242321    1.153091    0.145649
     15          8           0        2.971051   -0.010805   -0.893118
     16          8           0       -3.084069   -0.064027   -0.756981
 ---------------------------------------------------------------------

 SCF Done:  E(RHF) =  -522.772885183     A.U. after    2 cycles

 The electronic state is 1-A.
 Alpha  occ. eigenvalues --  -20.55136 -20.54547 -15.67322 -15.67176 -15.66879
 Alpha  occ. eigenvalues --  -15.66084 -11.41921 -11.40636 -11.35706 -11.35655
 Alpha  occ. eigenvalues --   -1.38462  -1.36717  -1.30493  -1.22513  -1.20190
 Alpha  occ. eigenvalues --   -1.13622  -1.00361  -0.87598  -0.86701  -0.82441
 Alpha  occ. eigenvalues --   -0.75879  -0.74695  -0.70248  -0.67914  -0.66766
 Alpha  occ. eigenvalues --   -0.65496  -0.63860  -0.63165  -0.60665  -0.59378
 Alpha  occ. eigenvalues --   -0.56094  -0.48624  -0.46964  -0.44363  -0.43280
 Alpha  occ. eigenvalues --   -0.41870  -0.41080
 Alpha virt. eigenvalues --    0.01851   0.02481   0.03718   0.04644   0.06159
 Alpha virt. eigenvalues --    0.06632   0.08689   0.09992   0.10797   0.11515
 Alpha virt. eigenvalues --    0.12006   0.12322   0.13022   0.13072   0.13391

 Mulliken charges:
               1
     1  C    0.775521
     2  C    0.914777
     3  C    0.802315
     4  C    0.831793
     5  H   -0.001749
     6  H   -0.099696
     7  H   -0.027864
     8  H   -0.144272
     9  H   -0.038497
    10  H   -0.059627
    11  N   -0.460752
    12  N   -0.570561
    13  N   -0.497372
    14  N   -0.494076
    15  O   -0.446182
    16  O   -0.483759
 Sum of Mulliken charges =  -0.00000

 Dipole moment (field-independent basis, Debye):
    X=             -0.5671    Y=              0.1060    Z=              4.2897  Tot=              4.3283

 Test job not archived.
 1\1\GINC-SE364\SP\RHF\Aug-CC-pVDZ\C4H6N4O2\OHZDE\08-Apr-2025\0\\#t hf
 aug-cc-pvdz iop(5/13=1,5/36=2,99/5=2) pseudo=read geom=check guess=(re
 ad,tcheck) scf=(maxcycle=1)\\title\\0,1\C,0,1.96963,-0.0106641,-0.2323
 93\C,0,0.0121435,-0.735625,0.793408\C,0,-1.9415,-0.0297946,-0.30142\C,
 0,-0.00349924,0.7915,0.771158\H,0,1.59427,-2.01465,-0.116781\H,0,-0.07
 4601,-1.04351,1.8421\H,0,-1.63382,-1.98843,0.227068\H,0,-1.67091,2.034
 95,0.087164\H,0,-0.0626647,1.13854,1.82807\H,0,1.34703,2.0328,-0.35223
 2\N,0,1.29964,-1.09043,0.281769\N,0,-1.11911,-1.14438,-0.0189046\N,0,-

 Normal termination of Gaussian 16 at Tue Apr  8 22:06:18 2025.
