 Gaussian 16, Revision C.01,

 ----------------------------------------------------------------------
 #t hf aug-cc-pvdz symm=none int=(grid=ultrafine) guess=(read,tcheck) s
 table=(opt,rrhf)
 ----------------------------------------------------------------------
 -----
 title
 -----
 Symbolic Z-matrix:
 Charge =  0 Multiplicity = 1

 SCF Done:  E(RHF) =  -259.150926971     A.U. after   13 cycles
 Normal termination of Gaussian 16 at Tue Apr  8 21:37:42 2025.
 Gaussian 16:  ES64L-G16RevC.01  3-Jul-2019

 ----------------------------------------------------------------------
 #t hf aug-cc-pvdz iop(5/13=1,5/36=2,99/5=2) pseudo=read geom=check gue
 ss=(read,tcheck) scf=(maxcycle=1)
 ----------------------------------------------------------------------
 -----
 title
 -----
 Structure from the checkpoint file:  "ANI1ccx_430_conf52_mol1.chk"
 Charge =  0 Multiplicity = 1

                         Standard orientation:
 ---------------------------------------------------------------------
 Center     Atomic      Atomic             Coordinates (Angstroms)
 Number     Number       Type             X           Y           Z
 ---------------------------------------------------------------------
      1          6           0        0.480626    0.112757   -0.064074
      2          1           0       -1.945200    0.436908    0.950843
      3          1           0       -2.192980    0.371366   -0.738085
      4          1           0       -0.617718   -1.658761   -0.218971
      5          1           0        1.705260   -1.614731    0.177075
      6          1           0        2.540630   -0.052952    0.147977
      7          1           0       -0.345152    1.870029   -0.177539
      8          7           0       -1.911200   -0.166095    0.091391
      9          7           0       -0.640191   -0.637912   -0.088578
     10          7           0        1.667970   -0.605932    0.031163
     11          7           0        0.593622    1.405879    0.000759
 ---------------------------------------------------------------------

 SCF Done:  E(RHF) =  -259.229912689     A.U. after    2 cycles

 The electronic state is 1-A.
 Alpha  occ. eigenvalues --  -15.67562 -15.66826 -15.63646 -15.57267 -11.36159
 Alpha  occ. eigenvalues --   -1.30609  -1.19702  -1.08344  -1.02885  -0.81052
 Alpha  occ. eigenvalues --   -0.74289  -0.70592  -0.69484  -0.63596  -0.58868
 Alpha  occ. eigenvalues --   -0.54833  -0.44497  -0.41283  -0.39703  -0.33905
 Alpha virt. eigenvalues --    0.02749   0.03480   0.04620   0.05336   0.07531
 Alpha virt. eigenvalues --    0.07755   0.12086   0.12540   0.14311   0.15321
 Alpha virt. eigenvalues --    0.16852   0.16880   0.17712   0.18466   0.19014

 Mulliken charges:
               1
     1  C    1.063610
     2  H    0.089502
     3  H    0.074433
     4  H   -0.000831
     5  H   -0.056410
     6  H    0.050525
     7  H    0.026001
     8  N   -0.158302
     9  N   -0.238933
    10  N   -0.384380
    11  N   -0.465214
 Sum of Mulliken charges =  -0.00000

 Dipole moment (field-independent basis, Debye):
    X=             -0.9549    Y=             -2.6755    Z=             -0.0621  Tot=              2.8415

 Test job not archived.
 1\1\GINC-SE338\SP\RHF\Aug-CC-pVDZ\C1H6N4\OHZDE\08-Apr-2025\0\\#t hf au
 g-cc-pvdz iop(5/13=1,5/36=2,99/5=2) pseudo=read geom=check guess=(read
 ,tcheck) scf=(maxcycle=1)\\title\\0,1\C,0,0.480626,0.112758,-0.0640741
 \H,0,-1.9452,0.436909,0.950843\H,0,-2.19298,0.371367,-0.738085\H,0,-0.
 617718,-1.65876,-0.218971\H,0,1.70526,-1.61473,0.177075\H,0,2.54063,-0
 .0529513,0.147977\H,0,-0.345152,1.87003,-0.177539\N,0,-1.9112,-0.16609
 4,0.0913907\N,0,-0.640191,-0.637911,-0.0885778\N,0,1.66797,-0.605931,0
 .0311633\N,0,0.593622,1.40588,0.00075873\\Version=ES64L-G16RevC.01\Sta

 Normal termination of Gaussian 16 at Tue Apr  8 21:37:45 2025.
