 Gaussian 16, Revision C.01,

 ----------------------------------------------------------------------
 #t hf aug-cc-pvdz symm=none int=(grid=ultrafine) guess=(read,tcheck) s
 table=(opt,rrhf)
 ----------------------------------------------------------------------
 -----
 title
 -----
 Symbolic Z-matrix:
 Charge =  0 Multiplicity = 1

 SCF Done:  E(RHF) =  -298.817022902     A.U. after   14 cycles
 Normal termination of Gaussian 16 at Tue Apr  8 21:34:38 2025.
 Gaussian 16:  ES64L-G16RevC.01  3-Jul-2019

 ----------------------------------------------------------------------
 #t hf aug-cc-pvdz iop(5/13=1,5/36=2,99/5=2) pseudo=read geom=check gue
 ss=(read,tcheck) scf=(maxcycle=1)
 ----------------------------------------------------------------------
 -----
 title
 -----
 Structure from the checkpoint file:  "ANI1ccx_398_conf32_mol1.chk"
 Charge =  0 Multiplicity = 1

                         Standard orientation:
 ---------------------------------------------------------------------
 Center     Atomic      Atomic             Coordinates (Angstroms)
 Number     Number       Type             X           Y           Z
 ---------------------------------------------------------------------
      1          6           0       -0.471158    0.132499   -0.062042
      2          1           0       -1.852250   -1.440010   -0.213158
      3          1           0       -2.536400    0.137381   -0.070433
      4          1           0        0.618857   -1.491290    0.722122
      5          1           0        1.551260    0.782512    0.130347
      6          7           0       -1.663960   -0.416879    0.037069
      7          7           0        0.555437   -0.797751   -0.061454
      8          8           0       -0.211326    1.334420    0.042026
      9          8           0        1.811970   -0.119568   -0.045268
 ---------------------------------------------------------------------

 SCF Done:  E(RHF) =  -298.911204916     A.U. after    2 cycles

 The electronic state is 1-A.
 Alpha  occ. eigenvalues --  -20.60110 -20.55428 -15.70241 -15.68312 -11.41387
 Alpha  occ. eigenvalues --   -1.40913  -1.33343  -1.22141  -1.09338  -0.84827
 Alpha  occ. eigenvalues --   -0.78761  -0.72495  -0.69560  -0.64811  -0.61300
 Alpha  occ. eigenvalues --   -0.58149  -0.55286  -0.49005  -0.45275  -0.41301
 Alpha virt. eigenvalues --    0.02094   0.03869   0.05118   0.06970   0.09768
 Alpha virt. eigenvalues --    0.11825   0.12867   0.14423   0.15563   0.16425
 Alpha virt. eigenvalues --    0.16656   0.17171   0.18712   0.19399   0.20721

 Mulliken charges:
               1
     1  C    0.854099
     2  H    0.091663
     3  H    0.042798
     4  H    0.137408
     5  H    0.163038
     6  N   -0.232497
     7  N   -0.046192
     8  O   -0.537284
     9  O   -0.473034
 Sum of Mulliken charges =  -0.00000

 Dipole moment (field-independent basis, Debye):
    X=             -3.7349    Y=             -3.1660    Z=              0.7274  Tot=              4.9500

 Test job not archived.
 1\1\GINC-SE247\SP\RHF\Aug-CC-pVDZ\C1H4N2O2\OHZDE\08-Apr-2025\0\\#t hf
 aug-cc-pvdz iop(5/13=1,5/36=2,99/5=2) pseudo=read geom=check guess=(re
 ad,tcheck) scf=(maxcycle=1)\\title\\0,1\C,0,-0.471158,0.132499,-0.0620
 422\H,0,-1.85225,-1.44001,-0.213158\H,0,-2.5364,0.137381,-0.0704333\H,
 0,0.618857,-1.49129,0.722122\H,0,1.55126,0.782512,0.130347\N,0,-1.6639
 6,-0.416879,0.0370692\N,0,0.555437,-0.797751,-0.0614536\O,0,-0.211326,
 1.33442,0.0420263\O,0,1.81197,-0.119568,-0.045268\\Version=ES64L-G16Re
 vC.01\State=1-A\HF=-298.9112049\RMSD=2.438e-03\Dipole=-1.4694126,-1.24

 Normal termination of Gaussian 16 at Tue Apr  8 21:34:40 2025.
