 Gaussian 16, Revision C.01,

 ----------------------------------------------------------------------
 #t hf aug-cc-pvdz symm=none int=(grid=ultrafine) guess=(read,tcheck) s
 table=(opt,rrhf)
 ----------------------------------------------------------------------
 -----
 title
 -----
 Symbolic Z-matrix:
 Charge =  0 Multiplicity = 1

 SCF Done:  E(RHF) =  -794.440790266     A.U. after   14 cycles
 Normal termination of Gaussian 16 at Tue Apr  8 20:04:20 2025.
 Gaussian 16:  ES64L-G16RevC.01  3-Jul-2019

 ----------------------------------------------------------------------
 #t hf aug-cc-pvdz iop(5/13=1,5/36=2,99/5=2) pseudo=read geom=check gue
 ss=(read,tcheck) scf=(maxcycle=1)
 ----------------------------------------------------------------------
 -----
 title
 -----
 Structure from the checkpoint file:  "ANI1ccx_1592_conf15_mol1.chk"
 Charge =  0 Multiplicity = 1

                         Standard orientation:
 ---------------------------------------------------------------------
 Center     Atomic      Atomic             Coordinates (Angstroms)
 Number     Number       Type             X           Y           Z
 ---------------------------------------------------------------------
      1          6           0        0.550285    1.450499   -0.301021
      2          6           0       -0.855869    1.868870    0.005743
      3          6           0        1.450282    1.163578    0.912245
      4          6           0        2.703712    0.381527    0.502752
      5          6           0        2.536260   -1.096643    0.020560
      6          6           0       -1.471909   -0.520211    0.569402
      7          6           0       -2.089040   -1.326699   -0.531969
      8          6           0       -2.124780   -0.997632    1.827070
      9          1           0       -0.331314   -2.052410   -0.859755
     10          1           0       -3.200019   -0.689775    1.676980
     11          1           0       -1.689269   -0.665614    2.794310
     12          1           0       -2.058661   -2.109649    1.835440
     13          1           0       -0.402773   -0.659376    0.654019
     14          1           0       -2.672468    0.984643    0.278650
     15          1           0        3.584908   -2.767614   -0.032225
     16          1           0        3.155892    0.833998   -0.382887
     17          1           0        3.396482    0.415746    1.411640
     18          1           0        1.896873    2.053917    1.385770
     19          1           0        0.981589    0.580993    1.775340
     20          1           0        0.456453    0.522484   -0.793976
     21          1           0        0.718955    2.403839   -2.117140
     22          1           0        1.063665    3.438098   -0.830804
     23          7           0        1.144844    2.450938   -1.200890
     24          7           0       -1.708738    0.851275    0.381906
     25          8           0       -1.351986    2.984331   -0.069011
     26          8           0        1.533680   -1.591912   -0.460435
     27          8           0        3.679379   -1.784494    0.103678
     28          8           0       -3.280450   -1.329947   -0.767697
     29          8           0       -1.223961   -2.146039   -1.192930
 ---------------------------------------------------------------------

 SCF Done:  E(RHF) =  -794.684182585     A.U. after    2 cycles

 The electronic state is 1-A.
 Alpha  occ. eigenvalues --  -20.65989 -20.61724 -20.60403 -20.56448 -20.54403
 Alpha  occ. eigenvalues --  -15.64386 -15.62749 -11.44497 -11.39990 -11.37230
 Alpha  occ. eigenvalues --  -11.30048 -11.29910 -11.29493 -11.28613 -11.25360
 Alpha  occ. eigenvalues --   -1.45796  -1.41349  -1.35959  -1.35646  -1.32761
 Alpha  occ. eigenvalues --   -1.22987  -1.17727  -1.08281  -1.05267  -0.98689
 Alpha  occ. eigenvalues --   -0.91954  -0.90510  -0.84291  -0.84071  -0.80005
 Alpha  occ. eigenvalues --   -0.77338  -0.75423  -0.73439  -0.71769  -0.70281
 Alpha  occ. eigenvalues --   -0.68361  -0.67266  -0.66062  -0.64491  -0.63972
 Alpha  occ. eigenvalues --   -0.62457  -0.61479  -0.59768  -0.59539  -0.59103
 Alpha  occ. eigenvalues --   -0.56876  -0.55392  -0.54960  -0.54362  -0.53992
 Alpha  occ. eigenvalues --   -0.52150  -0.51233  -0.49585  -0.48810  -0.47735
 Alpha  occ. eigenvalues --   -0.45527  -0.41124  -0.38993
 Alpha virt. eigenvalues --    0.01718   0.02920   0.03565   0.04172   0.05353
 Alpha virt. eigenvalues --    0.05756   0.06048   0.06287   0.06692   0.08027
 Alpha virt. eigenvalues --    0.08641   0.08796   0.09499   0.09798   0.10548

 Mulliken charges:
               1
     1  C    0.561796
     2  C    0.628792
     3  C    0.324521
     4  C    0.215338
     5  C    0.441205
     6  C   -0.279882
     7  C    0.630439
     8  C    0.697629
     9  H    0.185289
    10  H    0.135332
    11  H   -0.010131
    12  H    0.130117
    13  H   -0.407056
    14  H   -0.160416
    15  H    0.220080
    16  H    0.099026
    17  H    0.081758
    18  H   -0.112022
    19  H   -0.092166
    20  H   -0.280639
    21  H    0.013732
    22  H    0.109415
    23  N   -0.456712
    24  N   -0.137358
    25  O   -0.540316
    26  O   -0.487805
    27  O   -0.545447
    28  O   -0.515136
    29  O   -0.449385
 Sum of Mulliken charges =  -0.00000

 Dipole moment (field-independent basis, Debye):
    X=              6.9630    Y=             -1.7961    Z=              3.5337  Tot=              8.0123

 Test job not archived.
 1\1\GINC-SE132\SP\RHF\Aug-CC-pVDZ\C8H14N2O5\OHZDE\08-Apr-2025\0\\#t hf
  aug-cc-pvdz iop(5/13=1,5/36=2,99/5=2) pseudo=read geom=check guess=(r
 ead,tcheck) scf=(maxcycle=1)\\title\\0,1\C,0,0.550282,1.4505,-0.301021
 \C,0,-0.855872,1.86887,0.00574362\C,0,1.45028,1.16358,0.912245\C,0,2.7
 0371,0.38153,0.502752\C,0,2.53626,-1.09664,0.0205601\C,0,-1.47191,-0.5
 20212,0.569402\C,0,-2.08904,-1.3267,-0.531969\C,0,-2.12478,-0.997633,1
 .82707\H,0,-0.331313,-2.05241,-0.859755\H,0,-3.20002,-0.689778,1.67698
 \H,0,-1.68927,-0.665615,2.79431\H,0,-2.05866,-2.10965,1.83544\H,0,-0.4

 Normal termination of Gaussian 16 at Tue Apr  8 20:04:56 2025.
