 Gaussian 16, Revision C.01,

 ----------------------------------------------------------------------
 #t hf aug-cc-pvdz symm=none int=(grid=ultrafine) guess=(read,tcheck) s
 table=(opt,rrhf)
 ----------------------------------------------------------------------
 -----
 title
 -----
 Symbolic Z-matrix:
 Charge =  0 Multiplicity = 1

 SCF Done:  E(RHF) =  -353.824461806     A.U. after   13 cycles
 Normal termination of Gaussian 16 at Tue Apr  8 21:36:45 2025.
 Gaussian 16:  ES64L-G16RevC.01  3-Jul-2019

 ----------------------------------------------------------------------
 #t hf aug-cc-pvdz iop(5/13=1,5/36=2,99/5=2) pseudo=read geom=check gue
 ss=(read,tcheck) scf=(maxcycle=1)
 ----------------------------------------------------------------------
 -----
 title
 -----
 Structure from the checkpoint file:  "ANI1ccx_418_conf3_mol1.chk"
 Charge =  0 Multiplicity = 1

                         Standard orientation:
 ---------------------------------------------------------------------
 Center     Atomic      Atomic             Coordinates (Angstroms)
 Number     Number       Type             X           Y           Z
 ---------------------------------------------------------------------
      1          6           0        0.005731    0.473884   -0.006754
      2          1           0       -2.395029   -0.493205    0.954220
      3          1           0       -2.398099    0.030101   -0.655401
      4          1           0       -0.204155   -1.602230   -0.319913
      5          1           0        1.841660    1.231941   -0.383065
      6          1           0        2.431991   -1.023909    0.652036
      7          7           0       -2.108569   -0.737597   -0.007373
      8          7           0       -0.645170   -0.754263   -0.000136
      9          7           0        1.387021    0.489243    0.185281
     10          8           0       -0.702787    1.499830   -0.034484
     11          8           0        1.984821   -0.745790   -0.146986
 ---------------------------------------------------------------------

 SCF Done:  E(RHF) =  -353.933140552     A.U. after    2 cycles

 The electronic state is 1-A.
 Alpha  occ. eigenvalues --  -20.64807 -20.54170 -15.72603 -15.67705 -15.66073
 Alpha  occ. eigenvalues --  -11.40766  -1.41899  -1.34681  -1.22434  -1.13622
 Alpha  occ. eigenvalues --   -1.03038  -0.82475  -0.76543  -0.74911  -0.70528
 Alpha  occ. eigenvalues --   -0.67385  -0.64064  -0.61324  -0.57398  -0.55998
 Alpha  occ. eigenvalues --   -0.47047  -0.44203  -0.43848  -0.40695
 Alpha virt. eigenvalues --    0.02722   0.04260   0.04679   0.05326   0.07172
 Alpha virt. eigenvalues --    0.11034   0.12044   0.12679   0.14697   0.15089
 Alpha virt. eigenvalues --    0.17128   0.17483   0.17671   0.18041   0.18783

 Mulliken charges:
               1
     1  C    0.958763
     2  H    0.115110
     3  H    0.123014
     4  H    0.028631
     5  H    0.148533
     6  H    0.219309
     7  N   -0.203757
     8  N   -0.235088
     9  N   -0.106686
    10  O   -0.523693
    11  O   -0.524135
 Sum of Mulliken charges =  -0.00000

 Dipole moment (field-independent basis, Debye):
    X=              2.6395    Y=             -1.8936    Z=              0.5330  Tot=              3.2920

 Test job not archived.
 1\1\GINC-SE110\SP\RHF\Aug-CC-pVDZ\C1H5N3O2\OHZDE\08-Apr-2025\0\\#t hf
 aug-cc-pvdz iop(5/13=1,5/36=2,99/5=2) pseudo=read geom=check guess=(re
 ad,tcheck) scf=(maxcycle=1)\\title\\0,1\C,0,0.00573,0.473884,-0.006754
 52\H,0,-2.39503,-0.493204,0.95422\H,0,-2.3981,0.030102,-0.655401\H,0,-
 0.204156,-1.60223,-0.319913\H,0,1.84166,1.23194,-0.383065\H,0,2.43199,
 -1.02391,0.652036\N,0,-2.10857,-0.737596,-0.00737274\N,0,-0.645171,-0.
 754263,-0.0001359\N,0,1.38702,0.489242,0.185281\O,0,-0.702787,1.49983,
 -0.034484\O,0,1.98482,-0.745791,-0.146986\\Version=ES64L-G16RevC.01\St

 Normal termination of Gaussian 16 at Tue Apr  8 21:36:48 2025.
