 Gaussian 16, Revision C.01,

 ----------------------------------------------------------------------
 #t hf aug-cc-pvdz symm=none int=(grid=ultrafine) guess=(read,tcheck) s
 table=(opt,rrhf)
 ----------------------------------------------------------------------
 -----
 title
 -----
 Symbolic Z-matrix:
 Charge =  0 Multiplicity = 1

 SCF Done:  E(RHF) =  -659.101900611     A.U. after   13 cycles
 Normal termination of Gaussian 16 at Tue Apr  8 19:26:51 2025.
 Gaussian 16:  ES64L-G16RevC.01  3-Jul-2019

 ----------------------------------------------------------------------
 #t hf aug-cc-pvdz iop(5/13=1,5/36=2,99/5=2) pseudo=read geom=check gue
 ss=(read,tcheck) scf=(maxcycle=1)
 ----------------------------------------------------------------------
 -----
 title
 -----
 Structure from the checkpoint file:  "ANI1ccx_1265_conf7_mol1.chk"
 Charge =  0 Multiplicity = 1

                         Standard orientation:
 ---------------------------------------------------------------------
 Center     Atomic      Atomic             Coordinates (Angstroms)
 Number     Number       Type             X           Y           Z
 ---------------------------------------------------------------------
      1          6           0       -2.171731    0.128917   -0.626411
      2          6           0       -0.744718    1.993159    0.062311
      3          6           0        0.729327    1.821539   -0.394249
      4          6           0        1.608809    1.288819    0.768013
      5          6           0        2.525959    0.111037    0.484259
      6          6           0        1.811560   -1.165581   -0.072154
      7          1           0        0.024429   -0.415505    0.462922
      8          1           0        3.979639   -0.524296   -0.686648
      9          1           0        4.274299    0.993885    0.009272
     10          1           0        2.881329   -0.190530    1.484710
     11          1           0        0.960192    1.014309    1.608240
     12          1           0        2.237349    2.140279    1.129190
     13          1           0        0.651333    1.284589   -1.353840
     14          1           0        1.190979    2.798059   -0.702418
     15          1           0       -0.885276    2.684969    0.871680
     16          1           0       -1.335371    2.389859   -0.776368
     17          1           0       -2.121571    1.009689    1.124560
     18          1           0       -3.846081    0.456984    0.343323
     19          1           0       -4.091601    0.275289   -1.293090
     20          1           0       -1.724991    0.409346   -1.584540
     21          1           0       -1.381080   -1.728011   -0.718748
     22          1           0       -1.839610   -1.339371    1.611440
     23          1           0       -2.921040   -2.548021    0.988649
     24          7           0       -2.564430   -1.575131    0.917432
     25          7           0       -2.235770   -1.324681   -0.405581
     26          7           0       -3.494851    0.710706   -0.583199
     27          7           0       -1.388601    0.734335    0.492540
     28          7           0        3.564639    0.408741   -0.491087
     29          8           0        0.536885   -1.270341    0.162072
     30          8           0        2.491230   -2.036741   -0.582030
 ---------------------------------------------------------------------

 SCF Done:  E(RHF) =  -659.298969240     A.U. after    2 cycles

 The electronic state is 1-A.
 Alpha  occ. eigenvalues --  -20.61521 -20.54655 -15.64139 -15.64029 -15.63191
 Alpha  occ. eigenvalues --  -15.61525 -15.61364 -11.38821 -11.33419 -11.28532
 Alpha  occ. eigenvalues --  -11.27551 -11.25351 -11.25222  -1.41484  -1.31620
 Alpha  occ. eigenvalues --   -1.27923  -1.19939  -1.16400  -1.13079  -1.04783
 Alpha  occ. eigenvalues --   -1.00379  -0.96383  -0.89074  -0.85016  -0.82966
 Alpha  occ. eigenvalues --   -0.80746  -0.72480  -0.72178  -0.69354  -0.68407
 Alpha  occ. eigenvalues --   -0.67061  -0.66821  -0.66327  -0.63398  -0.62730
 Alpha  occ. eigenvalues --   -0.61519  -0.61067  -0.59370  -0.56959  -0.55201
 Alpha  occ. eigenvalues --   -0.54179  -0.53394  -0.50722  -0.49946  -0.49286
 Alpha  occ. eigenvalues --   -0.47817  -0.44465  -0.42632  -0.41663  -0.41567
 Alpha  occ. eigenvalues --   -0.39607  -0.37022
 Alpha virt. eigenvalues --    0.02262   0.03181   0.03457   0.03863   0.05049
 Alpha virt. eigenvalues --    0.05261   0.05660   0.06668   0.06788   0.08010
 Alpha virt. eigenvalues --    0.08313   0.08689   0.09175   0.09378   0.10174

 Mulliken charges:
               1
     1  C    1.116714
     2  C    0.813361
     3  C    0.277920
     4  C    0.386400
     5  C    0.020771
     6  C    0.669027
     7  H    0.435400
     8  H    0.120089
     9  H    0.072263
    10  H    0.045270
    11  H   -0.082688
    12  H   -0.091938
    13  H   -0.215456
    14  H   -0.058552
    15  H   -0.382390
    16  H   -0.088811
    17  H    0.039025
    18  H    0.103763
    19  H    0.015797
    20  H   -0.276796
    21  H    0.085994
    22  H    0.118681
    23  H    0.046490
    24  N   -0.184835
    25  N   -0.395117
    26  N   -0.349634
    27  N   -0.727077
    28  N   -0.474336
    29  O   -0.486496
    30  O   -0.552840
 Sum of Mulliken charges =  -0.00000

 Dipole moment (field-independent basis, Debye):
    X=             -1.3588    Y=              3.4594    Z=              3.0937  Tot=              4.8357

 Test job not archived.
 1\1\GINC-SE273\SP\RHF\Aug-CC-pVDZ\C6H17N5O2\OHZDE\08-Apr-2025\0\\#t hf
  aug-cc-pvdz iop(5/13=1,5/36=2,99/5=2) pseudo=read geom=check guess=(r
 ead,tcheck) scf=(maxcycle=1)\\title\\0,1\C,0,-2.17173,0.128918,-0.6264
 11\C,0,-0.744717,1.99316,0.062311\C,0,0.729328,1.82154,-0.394249\C,0,1
 .60881,1.28882,0.768013\C,0,2.52596,0.111038,0.484259\C,0,1.81156,-1.1
 6558,-0.0721537\H,0,0.02443,-0.415504,0.462922\H,0,3.97964,-0.524295,-
 0.686648\H,0,4.2743,0.993886,0.00927174\H,0,2.88133,-0.190529,1.48471\
 H,0,0.960193,1.01431,1.60824\H,0,2.23735,2.14028,1.12919\H,0,0.651334,

 Normal termination of Gaussian 16 at Tue Apr  8 19:27:24 2025.
