 Gaussian 16, Revision C.01,

 ----------------------------------------------------------------------
 #t hf aug-cc-pvdz symm=none int=(grid=ultrafine) guess=(read,tcheck) s
 table=(opt,rrhf)
 ----------------------------------------------------------------------
 -----
 title
 -----
 Symbolic Z-matrix:
 Charge =  0 Multiplicity = 1

 SCF Done:  E(RHF) =  -578.785253268     A.U. after   14 cycles
 Normal termination of Gaussian 16 at Tue Apr  8 22:15:11 2025.
 Gaussian 16:  ES64L-G16RevC.01  3-Jul-2019

 ----------------------------------------------------------------------
 #t hf aug-cc-pvdz iop(5/13=1,5/36=2,99/5=2) pseudo=read geom=check gue
 ss=(read,tcheck) scf=(maxcycle=1)
 ----------------------------------------------------------------------
 -----
 title
 -----
 Structure from the checkpoint file:  "ANI1ccx_987_conf3_mol1.chk"
 Charge =  0 Multiplicity = 1

                         Standard orientation:
 ---------------------------------------------------------------------
 Center     Atomic      Atomic             Coordinates (Angstroms)
 Number     Number       Type             X           Y           Z
 ---------------------------------------------------------------------
      1          6           0        2.053090   -0.459495   -0.048600
      2          6           0        0.439126    1.149860    0.058760
      3          6           0       -1.816011    0.543051    0.824525
      4          6           0       -2.133740   -0.592485   -0.170915
      5          1           0       -0.399563   -1.350370   -0.060286
      6          1           0       -2.288360    0.295569    1.781220
      7          1           0       -2.306491    1.412610    0.479284
      8          1           0        0.605393    2.680740   -1.183610
      9          1           0        0.045406   -0.106732    1.537300
     10          1           0        1.770510   -2.308769    0.315098
     11          1           0        3.940180    0.237506   -0.446127
     12          1           0        3.767380   -1.487229   -0.230709
     13          1           0       -0.943030    2.672170   -0.288354
     14          7           0        3.423290   -0.563343   -0.026975
     15          7           0        1.239300   -1.432019    0.239446
     16          7           0        1.631339    0.836518   -0.286743
     17          7           0       -0.078613    2.221850   -0.640271
     18          7           0       -0.347450    0.639783    1.027680
     19          8           0       -1.284940   -1.582480   -0.480320
     20          8           0       -3.280220   -0.643846   -0.529480
 ---------------------------------------------------------------------

 SCF Done:  E(RHF) =  -578.961698586     A.U. after    2 cycles

 The electronic state is 1-A.
 Alpha  occ. eigenvalues --  -20.59037 -20.53658 -15.67108 -15.66262 -15.65588
 Alpha  occ. eigenvalues --  -15.60563 -15.59760 -11.39948 -11.38064 -11.37556
 Alpha  occ. eigenvalues --  -11.31760  -1.39671  -1.32513  -1.30402  -1.25763
 Alpha  occ. eigenvalues --   -1.18891  -1.14142  -1.11101  -1.00095  -0.87939
 Alpha  occ. eigenvalues --   -0.83071  -0.81134  -0.75416  -0.73465  -0.71682
 Alpha  occ. eigenvalues --   -0.69821  -0.68572  -0.67467  -0.64848  -0.63950
 Alpha  occ. eigenvalues --   -0.61045  -0.59457  -0.57745  -0.57319  -0.55725
 Alpha  occ. eigenvalues --   -0.48062  -0.46974  -0.45029  -0.43778  -0.41460
 Alpha  occ. eigenvalues --   -0.40600  -0.36009
 Alpha virt. eigenvalues --    0.02509   0.02575   0.03187   0.04665   0.05752
 Alpha virt. eigenvalues --    0.06133   0.07717   0.08695   0.08982   0.09719
 Alpha virt. eigenvalues --    0.11013   0.12262   0.12665   0.13137   0.13548

 Mulliken charges:
               1
     1  C    0.882847
     2  C    0.542528
     3  C    0.742260
     4  C    0.527845
     5  H    0.391347
     6  H   -0.039127
     7  H   -0.172313
     8  H   -0.063984
     9  H    0.003347
    10  H   -0.070150
    11  H    0.063932
    12  H   -0.005739
    13  H    0.049002
    14  N   -0.311055
    15  N   -0.462140
    16  N   -0.543538
    17  N   -0.193853
    18  N   -0.340032
    19  O   -0.481221
    20  O   -0.519955
 Sum of Mulliken charges =  -0.00000

 Dipole moment (field-independent basis, Debye):
    X=              4.8494    Y=              3.2816    Z=              2.2198  Tot=              6.2621

 Test job not archived.
 1\1\GINC-SE250\SP\RHF\Aug-CC-pVDZ\C4H9N5O2\OHZDE\08-Apr-2025\0\\#t hf
 aug-cc-pvdz iop(5/13=1,5/36=2,99/5=2) pseudo=read geom=check guess=(re
 ad,tcheck) scf=(maxcycle=1)\\title\\0,1\C,0,2.05309,-0.459496,-0.04860
 06\C,0,0.439127,1.14986,0.0587599\C,0,-1.81601,0.543051,0.824525\C,0,-
 2.13374,-0.592485,-0.170915\H,0,-0.399563,-1.35037,-0.0602866\H,0,-2.2
 8836,0.295569,1.78122\H,0,-2.30649,1.41261,0.479284\H,0,0.605394,2.680
 74,-1.18361\H,0,0.0454059,-0.106732,1.5373\H,0,1.77051,-2.30877,0.3150
 98\H,0,3.94018,0.237505,-0.446127\H,0,3.76738,-1.48723,-0.230709\H,0,-

 Normal termination of Gaussian 16 at Tue Apr  8 22:15:23 2025.
