 Gaussian 16, Revision C.01,

 ----------------------------------------------------------------------
 #t hf aug-cc-pvdz symm=none int=(grid=ultrafine) guess=(read,tcheck) s
 table=(opt,rrhf)
 ----------------------------------------------------------------------
 -----
 title
 -----
 Symbolic Z-matrix:
 Charge =  0 Multiplicity = 1

 SCF Done:  E(RHF) =  -621.221484890     A.U. after   16 cycles
 Normal termination of Gaussian 16 at Tue Apr  8 20:21:25 2025.
 Gaussian 16:  ES64L-G16RevC.01  3-Jul-2019

 ----------------------------------------------------------------------
 #t hf aug-cc-pvdz iop(5/13=1,5/36=2,99/5=2) pseudo=read geom=check gue
 ss=(read,tcheck) scf=(maxcycle=1)
 ----------------------------------------------------------------------
 -----
 title
 -----
 Structure from the checkpoint file:  "ANI1ccx_1698_conf1_mol1.chk"
 Charge =  0 Multiplicity = 1

                         Standard orientation:
 ---------------------------------------------------------------------
 Center     Atomic      Atomic             Coordinates (Angstroms)
 Number     Number       Type             X           Y           Z
 ---------------------------------------------------------------------
      1          6           0        2.143601    0.781808   -0.425504
      2          6           0        2.371661   -0.689157   -0.141734
      3          6           0        0.291483   -0.862992    1.313650
      4          6           0       -0.919334   -0.488095    0.532883
      5          6           0       -1.278509   -1.125210   -0.626985
      6          6           0       -2.505669   -0.842497   -1.320120
      7          6           0       -3.308369    0.102371   -0.667332
      8          6           0       -1.781559    0.488071    1.042430
      9          1           0       -1.558809    0.980198    2.027260
     10          1           0       -4.255599    0.348599   -1.179690
     11          1           0       -2.898669   -1.499250   -2.149160
     12          1           0       -0.586667   -1.933219   -1.041560
     13          1           0        1.531561   -2.454289    0.631454
     14          1           0        0.593174    0.036775    1.901550
     15          1           0        2.688481    1.060421   -1.357690
     16          1           0        0.790990    3.216351    0.359532
     17          1           0       -0.104490   -1.571209    2.006720
     18          7           0        1.265801    1.488331    0.185428
     19          7           0        1.412931   -1.413459    0.672660
     20          7           0       -3.027629    0.658106    0.534714
     21          8           0        1.199620    2.742491   -0.454381
     22          8           0        3.320691   -1.180119   -0.694586
 ---------------------------------------------------------------------

 SCF Done:  E(RHF) =  -621.401138242     A.U. after    2 cycles

 The electronic state is 1-A.
 Alpha  occ. eigenvalues --  -20.64467 -20.57323 -15.73104 -15.66863 -15.64062
 Alpha  occ. eigenvalues --  -11.40021 -11.31908 -11.29690 -11.29075 -11.29051
 Alpha  occ. eigenvalues --  -11.27379 -11.26651 -11.25758  -1.40154  -1.38337
 Alpha  occ. eigenvalues --   -1.22955  -1.21081  -1.15321  -1.08130  -1.04031
 Alpha  occ. eigenvalues --   -0.95128  -0.90116  -0.86155  -0.82975  -0.78367
 Alpha  occ. eigenvalues --   -0.72694  -0.71421  -0.70774  -0.69728  -0.67358
 Alpha  occ. eigenvalues --   -0.65699  -0.64269  -0.63053  -0.61703  -0.60490
 Alpha  occ. eigenvalues --   -0.58504  -0.57633  -0.55697  -0.53508  -0.52097
 Alpha  occ. eigenvalues --   -0.49092  -0.46188  -0.43288  -0.42200  -0.40272
 Alpha  occ. eigenvalues --   -0.37368  -0.34375
 Alpha virt. eigenvalues --    0.02818   0.03121   0.03501   0.04489   0.05508
 Alpha virt. eigenvalues --    0.05812   0.06141   0.06592   0.06802   0.08016
 Alpha virt. eigenvalues --    0.08460   0.10120   0.10387   0.11073   0.11614

 Mulliken charges:
               1
     1  C    0.526737
     2  C    0.461488
     3  C    0.793883
     4  C    0.395176
     5  C   -0.190718
     6  C    0.223371
     7  C    0.569185
     8  C    0.649500
     9  H   -0.395144
    10  H   -0.282074
    11  H   -0.287818
    12  H   -0.490908
    13  H    0.000513
    14  H    0.039111
    15  H   -0.142586
    16  H    0.289366
    17  H   -0.043955
    18  N    0.020484
    19  N   -0.408719
    20  N   -0.647428
    21  O   -0.615719
    22  O   -0.463746
 Sum of Mulliken charges =  -0.00000

 Dipole moment (field-independent basis, Debye):
    X=             -1.1630    Y=             -0.7231    Z=              1.4193  Tot=              1.9723

 Test job not archived.
 1\1\GINC-SE177\SP\RHF\Aug-CC-pVDZ\C8H9N3O2\OHZDE\08-Apr-2025\0\\#t hf
 aug-cc-pvdz iop(5/13=1,5/36=2,99/5=2) pseudo=read geom=check guess=(re
 ad,tcheck) scf=(maxcycle=1)\\title\\0,1\C,0,2.1436,0.781807,-0.425504\
 C,0,2.37166,-0.689158,-0.141734\C,0,0.291482,-0.862993,1.31365\C,0,-0.
 919335,-0.488096,0.532883\C,0,-1.27851,-1.12521,-0.626985\C,0,-2.50567
 ,-0.842497,-1.32012\C,0,-3.30837,0.102371,-0.667332\C,0,-1.78156,0.488
 071,1.04243\H,0,-1.55881,0.980198,2.02726\H,0,-4.2556,0.348599,-1.1796
 9\H,0,-2.89867,-1.49925,-2.14916\H,0,-0.586668,-1.93322,-1.04156\H,0,1

 Normal termination of Gaussian 16 at Tue Apr  8 20:21:43 2025.
