 Gaussian 16, Revision C.01,

 ----------------------------------------------------------------------
 #t hf aug-cc-pvdz symm=none int=(grid=ultrafine) guess=(read,tcheck) s
 table=(opt,rrhf)
 ----------------------------------------------------------------------
 -----
 title
 -----
 Symbolic Z-matrix:
 Charge =  0 Multiplicity = 1

 SCF Done:  E(RHF) =  -659.110694472     A.U. after   14 cycles
 Normal termination of Gaussian 16 at Tue Apr  8 19:27:29 2025.
 Gaussian 16:  ES64L-G16RevC.01  3-Jul-2019

 ----------------------------------------------------------------------
 #t hf aug-cc-pvdz iop(5/13=1,5/36=2,99/5=2) pseudo=read geom=check gue
 ss=(read,tcheck) scf=(maxcycle=1)
 ----------------------------------------------------------------------
 -----
 title
 -----
 Structure from the checkpoint file:  "ANI1ccx_1265_conf6_mol1.chk"
 Charge =  0 Multiplicity = 1

                         Standard orientation:
 ---------------------------------------------------------------------
 Center     Atomic      Atomic             Coordinates (Angstroms)
 Number     Number       Type             X           Y           Z
 ---------------------------------------------------------------------
      1          6           0       -2.106510    0.118626   -0.622139
      2          6           0       -0.671998    1.967989    0.241354
      3          6           0        0.763238    1.781689   -0.258113
      4          6           0        1.614500    1.164579    0.845124
      5          6           0        2.613960    0.074117    0.401155
      6          6           0        1.939950   -1.253021   -0.024715
      7          1           0       -0.006725   -0.637047    0.411538
      8          1           0        3.992520   -0.219439   -1.060480
      9          1           0        4.177190    1.231339   -0.196114
     10          1           0        3.029240   -0.197761    1.408460
     11          1           0        0.967445    0.766597    1.576290
     12          1           0        2.206910    1.927279    1.310510
     13          1           0        0.763726    1.177519   -1.158860
     14          1           0        1.237080    2.752339   -0.630018
     15          1           0       -0.601707    2.491719    1.231800
     16          1           0       -1.255220    2.570059   -0.426255
     17          1           0       -1.828160    0.684928    1.378000
     18          1           0       -3.883860    1.062649   -0.125285
     19          1           0       -3.942470    0.362957   -1.570020
     20          1           0       -1.521470    0.028063   -1.473650
     21          1           0       -1.548320   -1.798241   -0.396845
     22          1           0       -2.471910   -1.822431    1.639140
     23          1           0       -3.925760   -1.859691    0.838087
     24          7           0       -3.056320   -1.361071    0.949227
     25          7           0       -2.452830   -1.286351   -0.373163
     26          7           0       -3.311030    0.861309   -0.940106
     27          7           0       -1.335650    0.668970    0.471167
     28          7           0        3.551030    0.559759   -0.602462
     29          8           0        0.656497   -1.311521    0.171063
     30          8           0        2.584290   -2.156361   -0.519180
 ---------------------------------------------------------------------

 SCF Done:  E(RHF) =  -659.311395370     A.U. after    2 cycles

 The electronic state is 1-A.
 Alpha  occ. eigenvalues --  -20.60260 -20.54469 -15.64852 -15.64617 -15.63654
 Alpha  occ. eigenvalues --  -15.61172 -15.60683 -11.39206 -11.32628 -11.28502
 Alpha  occ. eigenvalues --  -11.27374 -11.23694 -11.23366  -1.41414  -1.31455
 Alpha  occ. eigenvalues --   -1.26767  -1.18615  -1.16393  -1.12582  -1.05292
 Alpha  occ. eigenvalues --   -1.02051  -0.96547  -0.90661  -0.86169  -0.84022
 Alpha  occ. eigenvalues --   -0.80445  -0.72614  -0.71608  -0.69070  -0.68400
 Alpha  occ. eigenvalues --   -0.67289  -0.66889  -0.65008  -0.63754  -0.62884
 Alpha  occ. eigenvalues --   -0.61617  -0.60710  -0.59529  -0.57337  -0.54960
 Alpha  occ. eigenvalues --   -0.54685  -0.53412  -0.49799  -0.49752  -0.48994
 Alpha  occ. eigenvalues --   -0.47612  -0.45254  -0.44094  -0.41395  -0.39355
 Alpha  occ. eigenvalues --   -0.38367  -0.38226
 Alpha virt. eigenvalues --    0.02261   0.03121   0.03423   0.03884   0.05080
 Alpha virt. eigenvalues --    0.05160   0.05699   0.06741   0.07214   0.08000
 Alpha virt. eigenvalues --    0.08407   0.08547   0.08633   0.09298   0.10196

 Mulliken charges:
               1
     1  C    1.638201
     2  C    0.809288
     3  C    0.307503
     4  C    0.781510
     5  C   -0.072881
     6  C    0.606814
     7  H    0.364785
     8  H    0.026692
     9  H    0.000849
    10  H    0.158832
    11  H   -0.457689
    12  H   -0.174395
    13  H   -0.345607
    14  H   -0.028752
    15  H   -0.126688
    16  H   -0.278383
    17  H    0.118329
    18  H   -0.009621
    19  H   -0.020015
    20  H   -0.532378
    21  H    0.111442
    22  H    0.000217
    23  H    0.010858
    24  N    0.017097
    25  N   -0.547810
    26  N   -0.317290
    27  N   -0.817898
    28  N   -0.300166
    29  O   -0.392319
    30  O   -0.530524
 Sum of Mulliken charges =  -0.00000

 Dipole moment (field-independent basis, Debye):
    X=             -2.2112    Y=              3.1318    Z=              3.5324  Tot=              5.2130

 Test job not archived.
 1\1\GINC-SE126\SP\RHF\Aug-CC-pVDZ\C6H17N5O2\OHZDE\08-Apr-2025\0\\#t hf
  aug-cc-pvdz iop(5/13=1,5/36=2,99/5=2) pseudo=read geom=check guess=(r
 ead,tcheck) scf=(maxcycle=1)\\title\\0,1\C,0,-2.10651,0.118627,-0.6221
 39\C,0,-0.671998,1.96799,0.241354\C,0,0.763238,1.78169,-0.258113\C,0,1
 .6145,1.16458,0.845124\C,0,2.61396,0.0741173,0.401155\C,0,1.93995,-1.2
 5302,-0.0247151\H,0,-0.00672409,-0.637046,0.411538\H,0,3.99252,-0.2194
 38,-1.06048\H,0,4.17719,1.23134,-0.196114\H,0,3.02924,-0.19776,1.40846
 \H,0,0.967445,0.766598,1.57629\H,0,2.20691,1.92728,1.31051\H,0,0.76372

 Normal termination of Gaussian 16 at Tue Apr  8 19:28:00 2025.
