 Gaussian 16, Revision C.01,

 ----------------------------------------------------------------------
 #t hf aug-cc-pvdz symm=none int=(grid=ultrafine) guess=(read,tcheck) s
 table=(opt,rrhf)
 ----------------------------------------------------------------------
 -----
 title
 -----
 Symbolic Z-matrix:
 Charge =  0 Multiplicity = 1

 SCF Done:  E(RHF) =  -466.635280844     A.U. after   13 cycles
 Normal termination of Gaussian 16 at Tue Apr  8 21:45:10 2025.
 Gaussian 16:  ES64L-G16RevC.01  3-Jul-2019

 ----------------------------------------------------------------------
 #t hf aug-cc-pvdz iop(5/13=1,5/36=2,99/5=2) pseudo=read geom=check gue
 ss=(read,tcheck) scf=(maxcycle=1)
 ----------------------------------------------------------------------
 -----
 title
 -----
 Structure from the checkpoint file:  "ANI1ccx_540_conf2_mol1.chk"
 Charge =  0 Multiplicity = 1

                         Standard orientation:
 ---------------------------------------------------------------------
 Center     Atomic      Atomic             Coordinates (Angstroms)
 Number     Number       Type             X           Y           Z
 ---------------------------------------------------------------------
      1          6           0       -1.494170   -0.411187   -0.034658
      2          6           0        0.735875    0.601523   -0.005783
      3          1           0       -3.034169    0.947052    0.201468
      4          1           0       -1.437759    1.620071   -0.308234
      5          1           0        0.229670   -1.368600    0.067329
      6          1           0        2.753831    0.777847   -0.529294
      7          1           0        2.765470   -1.364871    0.619911
      8          7           0       -2.021959    0.882069    0.009636
      9          7           0       -0.139420   -0.470865   -0.051336
     10          7           0        2.067780    0.225334    0.150466
     11          8           0       -2.124980   -1.396399    0.026002
     12          8           0        0.416571    1.758510    0.022993
     13          8           0        2.199400   -1.138271   -0.120231
 ---------------------------------------------------------------------

 SCF Done:  E(RHF) =  -466.782808811     A.U. after    2 cycles

 The electronic state is 1-A.
 Alpha  occ. eigenvalues --  -20.65927 -20.57111 -20.53804 -15.73981 -15.67523
 Alpha  occ. eigenvalues --  -15.62997 -11.42995 -11.39620  -1.45038  -1.40548
 Alpha  occ. eigenvalues --   -1.38832  -1.23773  -1.15995  -1.12427  -0.90215
 Alpha  occ. eigenvalues --   -0.82076  -0.78537  -0.76225  -0.72694  -0.72450
 Alpha  occ. eigenvalues --   -0.68349  -0.65813  -0.64513  -0.64170  -0.59210
 Alpha  occ. eigenvalues --   -0.57475  -0.49574  -0.47270  -0.45679  -0.44643
 Alpha  occ. eigenvalues --   -0.41116
 Alpha virt. eigenvalues --    0.02262   0.03737   0.04489   0.06178   0.07156
 Alpha virt. eigenvalues --    0.08050   0.11434   0.11792   0.12373   0.13316
 Alpha virt. eigenvalues --    0.14062   0.14443   0.15361   0.16164   0.16713

 Mulliken charges:
               1
     1  C    0.651086
     2  C    0.868957
     3  H    0.015557
     4  H    0.055493
     5  H   -0.042428
     6  H    0.225900
     7  H    0.244451
     8  N   -0.190950
     9  N   -0.199409
    10  N   -0.236819
    11  O   -0.397704
    12  O   -0.453765
    13  O   -0.540369
 Sum of Mulliken charges =  -0.00000

 Dipole moment (field-independent basis, Debye):
    X=              4.2097    Y=              0.3325    Z=              0.0393  Tot=              4.2230

 Test job not archived.
 1\1\GINC-SE334\SP\RHF\Aug-CC-pVDZ\C2H5N3O3\OHZDE\08-Apr-2025\0\\#t hf
 aug-cc-pvdz iop(5/13=1,5/36=2,99/5=2) pseudo=read geom=check guess=(re
 ad,tcheck) scf=(maxcycle=1)\\title\\0,1\C,0,-1.49417,-0.411188,-0.0346
 576\C,0,0.735874,0.601523,-0.00578325\H,0,-3.03417,0.947051,0.201468\H
 ,0,-1.43776,1.62007,-0.308234\H,0,0.22967,-1.3686,0.067329\H,0,2.75383
 ,0.777848,-0.529294\H,0,2.76547,-1.36487,0.619911\N,0,-2.02196,0.88206
 8,0.00963597\N,0,-0.13942,-0.470865,-0.051336\N,0,2.06778,0.225335,0.1
 50466\O,0,-2.12498,-1.3964,0.0260018\O,0,0.41657,1.75851,0.022993\O,0,

 Normal termination of Gaussian 16 at Tue Apr  8 21:45:14 2025.
