 Gaussian 16, Revision C.01,

 ----------------------------------------------------------------------
 #t hf aug-cc-pvdz symm=none int=(grid=ultrafine) guess=(read,tcheck) s
 table=(opt,rrhf)
 ----------------------------------------------------------------------
 -----
 title
 -----
 Symbolic Z-matrix:
 Charge =  0 Multiplicity = 1

 SCF Done:  E(RHF) =  -460.227317266     A.U. after   17 cycles
 Normal termination of Gaussian 16 at Tue Apr  8 21:19:36 2025.
 Gaussian 16:  ES64L-G16RevC.01  3-Jul-2019

 ----------------------------------------------------------------------
 #t hf aug-cc-pvdz iop(5/13=1,5/36=2,99/5=2) pseudo=read geom=check gue
 ss=(read,tcheck) scf=(maxcycle=1)
 ----------------------------------------------------------------------
 -----
 title
 -----
 Structure from the checkpoint file:  "ANI1ccx_373_conf16_mol1.chk"
 Charge =  0 Multiplicity = 1

                         Standard orientation:
 ---------------------------------------------------------------------
 Center     Atomic      Atomic             Coordinates (Angstroms)
 Number     Number       Type             X           Y           Z
 ---------------------------------------------------------------------
      1          6           0        0.000283   -0.077290   -0.064290
      2          1           0       -2.701948    1.356431   -0.023094
      3          7           0        1.405571    0.006885   -0.098838
      4          7           0       -0.744199   -1.215170   -0.203323
      5          7           0       -2.027839   -0.693703   -0.027672
      6          7           0       -1.937989    0.592937    0.188887
      7          7           0       -0.690836    1.072990    0.042625
      8          8           0        1.871262    1.152608   -0.101879
      9          8           0        1.962150   -1.057642    0.239014
 ---------------------------------------------------------------------

 SCF Done:  E(RHF) =  -460.358034541     A.U. after    2 cycles

 The electronic state is 1-A.
 Alpha  occ. eigenvalues --  -20.65300 -20.65159 -15.95133 -15.83224 -15.79202
 Alpha  occ. eigenvalues --  -15.74836 -15.74732 -11.41089  -1.57067  -1.48981
 Alpha  occ. eigenvalues --   -1.38875  -1.24750  -1.22100  -1.05303  -0.95025
 Alpha  occ. eigenvalues --   -0.85573  -0.81681  -0.76923  -0.75923  -0.74235
 Alpha  occ. eigenvalues --   -0.69774  -0.61036  -0.56298  -0.54986  -0.53286
 Alpha  occ. eigenvalues --   -0.51754  -0.49485  -0.47594  -0.45003
 Alpha virt. eigenvalues --    0.00484   0.01330   0.06230   0.06807   0.07972
 Alpha virt. eigenvalues --    0.08397   0.11328   0.11977   0.13029   0.14381
 Alpha virt. eigenvalues --    0.15388   0.17158   0.17593   0.17875   0.18775

 Mulliken charges:
               1
     1  C    1.197360
     2  H    0.228510
     3  N    0.444466
     4  N   -0.351058
     5  N   -0.158854
     6  N    0.104072
     7  N   -0.384706
     8  O   -0.546484
     9  O   -0.533304
 Sum of Mulliken charges =  -0.00000

 Dipole moment (field-independent basis, Debye):
    X=             -4.9422    Y=              2.3718    Z=             -0.4391  Tot=              5.4994

 Test job not archived.
 1\1\GINC-SE179\SP\RHF\Aug-CC-pVDZ\C1H1N5O2\OHZDE\08-Apr-2025\0\\#t hf
 aug-cc-pvdz iop(5/13=1,5/36=2,99/5=2) pseudo=read geom=check guess=(re
 ad,tcheck) scf=(maxcycle=1)\\title\\0,1\C,0,0.00028177,-0.0772893,-0.0
 642902\H,0,-2.70195,1.35643,-0.0230944\N,0,1.40557,0.00688658,-0.09883
 76\N,0,-0.744199,-1.21517,-0.203323\N,0,-2.02784,-0.693703,-0.0276721\
 N,0,-1.93799,0.592937,0.188887\N,0,-0.690838,1.07299,0.0426249\O,0,1.8
 7126,1.15261,-0.101879\O,0,1.96215,-1.05764,0.239014\\Version=ES64L-G1
 6RevC.01\State=1-A\HF=-460.3580345\RMSD=3.245e-03\Dipole=-1.9444073,0.

 Normal termination of Gaussian 16 at Tue Apr  8 21:19:40 2025.
