 Gaussian 16, Revision C.01,

 ----------------------------------------------------------------------
 #t hf aug-cc-pvdz symm=none int=(grid=ultrafine) guess=(read,tcheck) s
 table=(opt,rrhf)
 ----------------------------------------------------------------------
 -----
 title
 -----
 Symbolic Z-matrix:
 Charge =  0 Multiplicity = 1

 SCF Done:  E(RHF) =  -537.773889688     A.U. after   16 cycles
 Normal termination of Gaussian 16 at Tue Apr  8 22:15:26 2025.
 Gaussian 16:  ES64L-G16RevC.01  3-Jul-2019

 ----------------------------------------------------------------------
 #t hf aug-cc-pvdz iop(5/13=1,5/36=2,99/5=2) pseudo=read geom=check gue
 ss=(read,tcheck) scf=(maxcycle=1)
 ----------------------------------------------------------------------
 -----
 title
 -----
 Structure from the checkpoint file:  "ANI1ccx_988_conf14_mol1.chk"
 Charge =  0 Multiplicity = 1

                         Standard orientation:
 ---------------------------------------------------------------------
 Center     Atomic      Atomic             Coordinates (Angstroms)
 Number     Number       Type             X           Y           Z
 ---------------------------------------------------------------------
      1          6           0       -2.175110   -0.493722   -0.080997
      2          6           0       -0.793313    1.707650   -0.683506
      3          6           0        0.616849    1.725191   -0.017515
      4          6           0        1.387230    0.458164    0.118690
      5          1           0        0.017067   -1.046650   -0.677302
      6          1           0        0.754096    2.191281    0.885885
      7          1           0        1.063719    2.308921   -0.882483
      8          1           0       -1.298012    2.642690   -0.764574
      9          1           0       -0.730891    1.034450   -1.590810
     10          1           0       -2.204759   -2.269231   -0.740915
     11          1           0       -3.255979   -1.590381    1.291060
     12          1           0       -3.443760    0.094257    1.541630
     13          1           0       -1.583891    1.030850    1.178140
     14          7           0        2.204180   -1.522369   -0.225819
     15          7           0       -2.899310   -0.721012    1.084290
     16          7           0       -1.775590   -1.302741   -0.998811
     17          7           0       -1.883621    0.965182    0.056739
     18          7           0        2.608709    0.533886    0.594851
     19          7           0        3.050850   -0.716981    0.387314
     20          7           0        1.047420   -0.775949   -0.364370
 ---------------------------------------------------------------------

 SCF Done:  E(RHF) =  -537.925333479     A.U. after    2 cycles

 The electronic state is 1-A.
 Alpha  occ. eigenvalues --  -15.71224 -15.70751 -15.69373 -15.67538 -15.67505
 Alpha  occ. eigenvalues --  -15.65098 -15.64447 -11.41095 -11.33032 -11.30702
 Alpha  occ. eigenvalues --  -11.27291  -1.40672  -1.28340  -1.18760  -1.16470
 Alpha  occ. eigenvalues --   -1.15008  -1.13276  -1.02251  -0.91604  -0.85196
 Alpha  occ. eigenvalues --   -0.81100  -0.79396  -0.73825  -0.71881  -0.71518
 Alpha  occ. eigenvalues --   -0.67449  -0.64380  -0.63853  -0.62364  -0.59688
 Alpha  occ. eigenvalues --   -0.56268  -0.54601  -0.51990  -0.51125  -0.47371
 Alpha  occ. eigenvalues --   -0.46099  -0.43376  -0.42724  -0.41869  -0.40555
 Alpha  occ. eigenvalues --   -0.37079
 Alpha virt. eigenvalues --    0.01346   0.02512   0.03556   0.04492   0.05781
 Alpha virt. eigenvalues --    0.06070   0.06970   0.07808   0.08800   0.09843
 Alpha virt. eigenvalues --    0.10940   0.11367   0.12791   0.13250   0.13871

 Mulliken charges:
               1
     1  C    0.905823
     2  C    0.771690
     3  C    0.214225
     4  C    0.704486
     5  H    0.287559
     6  H   -0.185047
     7  H    0.250682
     8  H   -0.275807
     9  H   -0.062014
    10  H    0.104527
    11  H   -0.171281
    12  H    0.121648
    13  H    0.258126
    14  N   -0.218580
    15  N   -0.176251
    16  N   -0.505412
    17  N   -0.972403
    18  N   -0.530318
    19  N   -0.215241
    20  N   -0.306413
 Sum of Mulliken charges =  -0.00000

 Dipole moment (field-independent basis, Debye):
    X=             -8.1285    Y=              1.7852    Z=              1.4757  Tot=              8.4520

 Test job not archived.
 1\1\GINC-SE071\SP\RHF\Aug-CC-pVDZ\C4H9N7\OHZDE\08-Apr-2025\0\\#t hf au
 g-cc-pvdz iop(5/13=1,5/36=2,99/5=2) pseudo=read geom=check guess=(read
 ,tcheck) scf=(maxcycle=1)\\title\\0,1\C,0,-2.17511,-0.493721,-0.080996
 3\C,0,-0.793312,1.70765,-0.683506\C,0,0.61685,1.72519,-0.0175141\C,0,1
 .38723,0.458163,0.11869\H,0,0.0170666,-1.04665,-0.677302\H,0,0.754097,
 2.19128,0.885885\H,0,1.06372,2.30892,-0.882483\H,0,-1.29801,2.64269,-0
 .764574\H,0,-0.73089,1.03445,-1.59081\H,0,-2.20476,-2.26923,-0.740915\
 H,0,-3.25598,-1.59038,1.29106\H,0,-3.44376,0.0942584,1.54163\H,0,-1.58

 Normal termination of Gaussian 16 at Tue Apr  8 22:15:39 2025.
