 Gaussian 16, Revision C.01,

 ----------------------------------------------------------------------
 #t hf aug-cc-pvdz symm=none int=(grid=ultrafine) guess=(read,tcheck) s
 table=(opt,rrhf)
 ----------------------------------------------------------------------
 -----
 title
 -----
 Symbolic Z-matrix:
 Charge =  0 Multiplicity = 1

 SCF Done:  E(RHF) =  -603.087412184     A.U. after   14 cycles
 Normal termination of Gaussian 16 at Tue Apr  8 22:00:23 2025.
 Gaussian 16:  ES64L-G16RevC.01  3-Jul-2019

 ----------------------------------------------------------------------
 #t hf aug-cc-pvdz iop(5/13=1,5/36=2,99/5=2) pseudo=read geom=check gue
 ss=(read,tcheck) scf=(maxcycle=1)
 ----------------------------------------------------------------------
 -----
 title
 -----
 Structure from the checkpoint file:  "ANI1ccx_894_conf1_mol1.chk"
 Charge =  0 Multiplicity = 1

                         Standard orientation:
 ---------------------------------------------------------------------
 Center     Atomic      Atomic             Coordinates (Angstroms)
 Number     Number       Type             X           Y           Z
 ---------------------------------------------------------------------
      1          6           0       -1.924482    0.232518   -0.013358
      2          6           0       -0.570129   -0.365658    0.035352
      3          6           0        0.585636    0.338237    0.041616
      4          6           0        1.957768   -0.246766    0.057720
      5          1           0       -2.589152   -1.473879    0.001756
      6          1           0        0.282863   -2.029010    0.039385
      7          1           0       -0.365683    1.992880    0.097980
      8          1           0        2.533059    1.490388   -0.010553
      9          8           0       -2.950392   -0.575535   -0.014027
     10          8           0       -2.042681    1.436401   -0.011530
     11          8           0       -0.623090   -1.723790   -0.015658
     12          8           0        0.573935    1.726539   -0.003341
     13          8           0        2.933619    0.606460   -0.050178
     14          8           0        2.089378   -1.436371   -0.012335
 ---------------------------------------------------------------------

 SCF Done:  E(RHF) =  -603.278180565     A.U. after    2 cycles

 The electronic state is 1-A.
 Alpha  occ. eigenvalues --  -20.66378 -20.66105 -20.64204 -20.63384 -20.59726
 Alpha  occ. eigenvalues --  -20.59698 -11.44210 -11.44130 -11.36639 -11.36464
 Alpha  occ. eigenvalues --   -1.48221  -1.47729  -1.41452  -1.39669  -1.37908
 Alpha  occ. eigenvalues --   -1.36704  -1.08282  -0.98142  -0.89554  -0.88753
 Alpha  occ. eigenvalues --   -0.84608  -0.79236  -0.76580  -0.71929  -0.71753
 Alpha  occ. eigenvalues --   -0.71272  -0.69254  -0.67812  -0.65438  -0.63790
 Alpha  occ. eigenvalues --   -0.63473  -0.61528  -0.61206  -0.53927  -0.53814
 Alpha  occ. eigenvalues --   -0.53367  -0.49920  -0.38654
 Alpha virt. eigenvalues --    0.02980   0.03153   0.04025   0.05773   0.06622
 Alpha virt. eigenvalues --    0.08266   0.09310   0.10202   0.10580   0.10784
 Alpha virt. eigenvalues --    0.11906   0.13196   0.13706   0.14872   0.15189

 Mulliken charges:
               1
     1  C    0.292083
     2  C    0.752456
     3  C    0.786250
     4  C    0.316236
     5  H    0.214875
     6  H    0.185764
     7  H    0.226783
     8  H    0.223445
     9  O   -0.410438
    10  O   -0.481665
    11  O   -0.593430
    12  O   -0.661836
    13  O   -0.406460
    14  O   -0.444063
 Sum of Mulliken charges =  -0.00000

 Dipole moment (field-independent basis, Debye):
    X=             -0.1305    Y=             -0.3231    Z=              0.5461  Tot=              0.6478

 Test job not archived.
 1\1\GINC-SE102\SP\RHF\Aug-CC-pVDZ\C4H4O6\OHZDE\08-Apr-2025\0\\#t hf au
 g-cc-pvdz iop(5/13=1,5/36=2,99/5=2) pseudo=read geom=check guess=(read
 ,tcheck) scf=(maxcycle=1)\\title\\0,1\C,0,-1.92448,0.232517,-0.0133579
 \C,0,-0.570127,-0.365658,0.0353524\C,0,0.585637,0.338238,0.0416159\C,0
 ,1.95777,-0.246765,0.0577203\H,0,-2.58915,-1.47388,0.00175565\H,0,0.28
 2866,-2.02901,0.039385\H,0,-0.365682,1.99288,0.0979799\H,0,2.53306,1.4
 9039,-0.0105533\O,0,-2.95039,-0.575536,-0.0140266\O,0,-2.04268,1.4364,
 -0.0115304\O,0,-0.623087,-1.72379,-0.0156584\O,0,0.573936,1.72654,-0.0

 Normal termination of Gaussian 16 at Tue Apr  8 22:00:30 2025.
