 Gaussian 16, Revision C.01,

 ----------------------------------------------------------------------
 #t hf aug-cc-pvdz symm=none int=(grid=ultrafine) guess=(read,tcheck) s
 table=(opt,rrhf)
 ----------------------------------------------------------------------
 -----
 title
 -----
 Symbolic Z-matrix:
 Charge =  0 Multiplicity = 1

 SCF Done:  E(RHF) =  -674.271326489     A.U. after   18 cycles
 Normal termination of Gaussian 16 at Tue Apr  8 19:25:57 2025.
 Gaussian 16:  ES64L-G16RevC.01  3-Jul-2019

 ----------------------------------------------------------------------
 #t hf aug-cc-pvdz iop(5/13=1,5/36=2,99/5=2) pseudo=read geom=check gue
 ss=(read,tcheck) scf=(maxcycle=1)
 ----------------------------------------------------------------------
 -----
 title
 -----
 Structure from the checkpoint file:  "ANI1ccx_1351_conf2_mol2.chk"
 Charge =  0 Multiplicity = 1

                         Standard orientation:
 ---------------------------------------------------------------------
 Center     Atomic      Atomic             Coordinates (Angstroms)
 Number     Number       Type             X           Y           Z
 ---------------------------------------------------------------------
      1          6           0        3.446121    0.542011    0.007190
      2          6           0        1.138561    0.040967    0.020702
      3          6           0       -0.326780    1.771631   -0.008774
      4          6           0       -1.222039   -0.301529    0.012006
      5          6           0       -3.566090   -0.497107    0.011887
      6          6           0        0.060872   -0.885477    0.016143
      7          1           0       -3.694229    0.092957    0.929011
      8          1           0       -4.284000   -1.311706   -0.029923
      9          1           0       -3.680879    0.165486   -0.846933
     10          1           0       -1.445626    3.476082   -0.072169
     11          1           0        3.399012    1.173407    0.901051
     12          1           0        4.357531   -0.053337   -0.000198
     13          1           0        3.389142    1.170457   -0.894846
     14          1           0        0.288286    3.724660   -0.075013
     15          7           0        0.949743    1.352739    0.011209
     16          7           0       -0.512323    3.104551   -0.008515
     17          7           0       -1.429278    1.006992   -0.019486
     18          7           0        0.114000   -2.290890   -0.045200
     19          8           0       -2.269560   -1.121048    0.020547
     20          8           0        2.376550   -0.419333    0.022559
     21          8           0        1.221998   -2.793961   -0.022100
 ---------------------------------------------------------------------

 SCF Done:  E(RHF) =  -674.476459122     A.U. after    2 cycles

 The electronic state is 1-A.
 Alpha  occ. eigenvalues --  -20.62451 -20.62412 -20.59641 -15.74278 -15.66710
 Alpha  occ. eigenvalues --  -15.62859 -15.62831 -11.39676 -11.39084 -11.38672
 Alpha  occ. eigenvalues --  -11.30334 -11.30196 -11.26192  -1.43102  -1.40961
 Alpha  occ. eigenvalues --   -1.40856  -1.31106  -1.19451  -1.17036  -1.09267
 Alpha  occ. eigenvalues --   -0.99804  -0.97313  -0.92363  -0.86008  -0.85699
 Alpha  occ. eigenvalues --   -0.77887  -0.77001  -0.72164  -0.70338  -0.69675
 Alpha  occ. eigenvalues --   -0.68746  -0.67844  -0.67171  -0.62420  -0.62190
 Alpha  occ. eigenvalues --   -0.60733  -0.58557  -0.57989  -0.54977  -0.54122
 Alpha  occ. eigenvalues --   -0.53146  -0.52602  -0.50850  -0.44420  -0.43124
 Alpha  occ. eigenvalues --   -0.41437  -0.38253  -0.34074
 Alpha virt. eigenvalues --    0.02187   0.03073   0.04153   0.04556   0.05483
 Alpha virt. eigenvalues --    0.06611   0.06715   0.07600   0.07961   0.08118
 Alpha virt. eigenvalues --    0.09448   0.10934   0.11607   0.12976   0.13056

 Mulliken charges:
               1
     1  C    0.753680
     2  C    0.334805
     3  C    1.054394
     4  C    0.118751
     5  C    0.782198
     6  C    1.223029
     7  H   -0.027283
     8  H   -0.311679
     9  H   -0.026644
    10  H   -0.024701
    11  H   -0.027804
    12  H   -0.293522
    13  H   -0.013001
    14  H   -0.014116
    15  N   -0.581702
    16  N   -0.232974
    17  N   -0.572722
    18  N   -0.560483
    19  O   -0.582569
    20  O   -0.539817
    21  O   -0.457840
 Sum of Mulliken charges =  -0.00000

 Dipole moment (field-independent basis, Debye):
    X=             -1.5609    Y=              7.0184    Z=             -0.1672  Tot=              7.1919

 Test job not archived.
 1\1\GINC-SE332\SP\RHF\Aug-CC-pVDZ\C6H8N4O3\OHZDE\08-Apr-2025\0\\#t hf
 aug-cc-pvdz iop(5/13=1,5/36=2,99/5=2) pseudo=read geom=check guess=(re
 ad,tcheck) scf=(maxcycle=1)\\title\\0,1\C,0,3.44612,0.542014,0.0071899
 5\C,0,1.13856,0.0409681,0.0207018\C,0,-0.326783,1.77163,-0.00877418\C,
 0,-1.22204,-0.30153,0.0120056\C,0,-3.56609,-0.497111,0.0118872\C,0,0.0
 608716,-0.885477,0.0161427\H,0,-3.69423,0.0929534,0.929011\H,0,-4.284,
 -1.31171,-0.0299234\H,0,-3.68088,0.165482,-0.846933\H,0,-1.44563,3.476
 08,-0.0721691\H,0,3.39901,1.17341,0.901051\H,0,4.35753,-0.0533331,-0.0

 Normal termination of Gaussian 16 at Tue Apr  8 19:26:09 2025.
