 Gaussian 16, Revision C.01,

 ----------------------------------------------------------------------
 #t hf aug-cc-pvdz symm=none int=(grid=ultrafine) guess=(read,tcheck) s
 table=(opt,rrhf)
 ----------------------------------------------------------------------
 -----
 title
 -----
 Symbolic Z-matrix:
 Charge =  0 Multiplicity = 1

 SCF Done:  E(RHF) =  -502.731676493     A.U. after   15 cycles
 Normal termination of Gaussian 16 at Tue Apr  8 22:11:23 2025.
 Gaussian 16:  ES64L-G16RevC.01  3-Jul-2019

 ----------------------------------------------------------------------
 #t hf aug-cc-pvdz iop(5/13=1,5/36=2,99/5=2) pseudo=read geom=check gue
 ss=(read,tcheck) scf=(maxcycle=1)
 ----------------------------------------------------------------------
 -----
 title
 -----
 Structure from the checkpoint file:  "ANI1ccx_948_conf1_mol1.chk"
 Charge =  0 Multiplicity = 1

                         Standard orientation:
 ---------------------------------------------------------------------
 Center     Atomic      Atomic             Coordinates (Angstroms)
 Number     Number       Type             X           Y           Z
 ---------------------------------------------------------------------
      1          6           0       -3.294260   -0.468182    0.076062
      2          6           0       -0.968323    0.390786   -0.013221
      3          6           0        1.923669   -1.521831    0.069921
      4          6           0        1.517540    0.498476    0.003400
      5          1           0        2.287140    2.372639    0.132446
      6          1           0        0.492361    2.255780    0.165674
      7          1           0       -1.476311   -1.526840    0.174732
      8          1           0        2.415359   -2.474911    0.152722
      9          1           0       -3.494930    0.601130    0.133364
     10          1           0       -3.645251   -0.960773    0.992118
     11          1           0       -3.822971   -0.891463   -0.796532
     12          7           0        1.453400    1.862769   -0.082050
     13          7           0       -1.861291   -0.635523   -0.130429
     14          7           0        0.366952   -0.172293   -0.112174
     15          7           0        0.637024   -1.521660   -0.075321
     16          7           0        2.545270   -0.329639    0.081493
     17          8           0       -1.227080    1.600420    0.057235
 ---------------------------------------------------------------------

 SCF Done:  E(RHF) =  -502.881504363     A.U. after    2 cycles

 The electronic state is 1-A.
 Alpha  occ. eigenvalues --  -20.57834 -15.72010 -15.66855 -15.65802 -15.65113
 Alpha  occ. eigenvalues --  -15.61966 -11.44120 -11.38137 -11.31561 -11.28687
 Alpha  occ. eigenvalues --   -1.41399  -1.36847  -1.23672  -1.20626  -1.17101
 Alpha  occ. eigenvalues --   -1.08155  -0.97835  -0.87588  -0.84551  -0.80241
 Alpha  occ. eigenvalues --   -0.76542  -0.70137  -0.69127  -0.68374  -0.66481
 Alpha  occ. eigenvalues --   -0.64225  -0.61623  -0.60456  -0.57339  -0.56388
 Alpha  occ. eigenvalues --   -0.51400  -0.49377  -0.48627  -0.45125  -0.43761
 Alpha  occ. eigenvalues --   -0.41197  -0.34604
 Alpha virt. eigenvalues --    0.02969   0.03539   0.03906   0.04864   0.06091
 Alpha virt. eigenvalues --    0.06705   0.08313   0.08899   0.09903   0.11275
 Alpha virt. eigenvalues --    0.11788   0.12352   0.12754   0.13905   0.14380

 Mulliken charges:
               1
     1  C    0.751046
     2  C    0.955415
     3  C    0.622897
     4  C    0.476475
     5  H   -0.017687
     6  H    0.187307
     7  H    0.046669
     8  H   -0.288259
     9  H   -0.179911
    10  H   -0.097278
    11  H   -0.092500
    12  N   -0.249269
    13  N   -0.386976
    14  N   -0.435177
    15  N   -0.237564
    16  N   -0.534491
    17  O   -0.520696
 Sum of Mulliken charges =  -0.00000

 Dipole moment (field-independent basis, Debye):
    X=             -1.8206    Y=             -1.0142    Z=              1.2435  Tot=              2.4268

 Test job not archived.
 1\1\GINC-SE051\SP\RHF\Aug-CC-pVDZ\C4H7N5O1\OHZDE\08-Apr-2025\0\\#t hf
 aug-cc-pvdz iop(5/13=1,5/36=2,99/5=2) pseudo=read geom=check guess=(re
 ad,tcheck) scf=(maxcycle=1)\\title\\0,1\C,0,-3.29426,-0.468183,0.07606
 18\C,0,-0.968323,0.390786,-0.0132208\C,0,1.92367,-1.52183,0.0699205\C,
 0,1.51754,0.498477,0.00339955\H,0,2.28714,2.37264,0.132446\H,0,0.49236
 1,2.25578,0.165674\H,0,-1.47631,-1.52684,0.174732\H,0,2.41536,-2.47491
 ,0.152722\H,0,-3.49493,0.601129,0.133364\H,0,-3.64525,-0.960774,0.9921
 18\H,0,-3.82297,-0.891464,-0.796532\N,0,1.4534,1.86277,-0.0820502\N,0,

 Normal termination of Gaussian 16 at Tue Apr  8 22:11:32 2025.
