 Gaussian 16, Revision C.01,

 ----------------------------------------------------------------------
 #t hf aug-cc-pvdz symm=none int=(grid=ultrafine) guess=(read,tcheck) s
 table=(opt,rrhf)
 ----------------------------------------------------------------------
 -----
 title
 -----
 Symbolic Z-matrix:
 Charge =  0 Multiplicity = 1

 SCF Done:  E(RHF) =  -380.205988017     A.U. after   11 cycles
 Normal termination of Gaussian 16 at Tue Apr  8 20:56:33 2025.
 Gaussian 16:  ES64L-G16RevC.01  3-Jul-2019

 ----------------------------------------------------------------------
 #t hf aug-cc-pvdz iop(5/13=1,5/36=2,99/5=2) pseudo=read geom=check gue
 ss=(read,tcheck) scf=(maxcycle=1)
 ----------------------------------------------------------------------
 -----
 title
 -----
 Structure from the checkpoint file:  "ANI1ccx_1843_conf144_mol1.chk"
 Charge =  0 Multiplicity = 1

                         Standard orientation:
 ---------------------------------------------------------------------
 Center     Atomic      Atomic             Coordinates (Angstroms)
 Number     Number       Type             X           Y           Z
 ---------------------------------------------------------------------
      1          1           0       -1.723161    0.063914   -0.208347
      2          1           0       -2.525471    0.876067   -1.416050
      3          1           0       -0.458279   -0.892421    0.866768
      4          1           0       -1.650571   -0.879238    1.908890
      5          1           0       -0.239861   -1.323599   -1.028880
      6          1           0        1.070989   -1.407800   -0.228416
      7          1           0        1.731609    0.699500    0.023831
      8          1           0        2.658679    0.158988   -1.025560
      9          1           0       -0.081993    1.341811    0.991235
     10          1           0       -0.054916    1.515891   -0.477595
     11          8           0       -1.689321    0.360960   -1.156010
     12          8           0       -1.026791   -0.285822    1.345110
     13          8           0        0.125616   -1.813969   -0.247753
     14          8           0        2.317529   -0.091438   -0.161321
     15          8           0        0.432088    1.811131    0.294238
 ---------------------------------------------------------------------

 SCF Done:  E(RHF) =  -380.330137633     A.U. after    2 cycles

 The electronic state is 1-A.
 Alpha  occ. eigenvalues --  -20.58878 -20.58759 -20.58445 -20.57763 -20.57639
 Alpha  occ. eigenvalues --   -1.33914  -1.31852  -1.30824  -1.29610  -1.29116
 Alpha  occ. eigenvalues --   -0.75946  -0.74037  -0.72285  -0.72036  -0.70668
 Alpha  occ. eigenvalues --   -0.65091  -0.62457  -0.61295  -0.60547  -0.58193
 Alpha  occ. eigenvalues --   -0.53962  -0.53315  -0.52536  -0.52117  -0.51825
 Alpha virt. eigenvalues --    0.02658   0.04431   0.04755   0.06962   0.07690
 Alpha virt. eigenvalues --    0.07774   0.08264   0.08799   0.09855   0.11625
 Alpha virt. eigenvalues --    0.16201   0.18536   0.18837   0.19138   0.21236

 Mulliken charges:
               1
     1  H    0.271437
     2  H    0.245752
     3  H    0.262597
     4  H    0.254636
     5  H    0.247281
     6  H    0.356430
     7  H    0.267007
     8  H    0.189760
     9  H    0.258699
    10  H    0.221963
    11  O   -0.502915
    12  O   -0.570305
    13  O   -0.586721
    14  O   -0.422969
    15  O   -0.492651
 Sum of Mulliken charges =  -0.00000

 Dipole moment (field-independent basis, Debye):
    X=             -2.7285    Y=              0.1857    Z=             -1.0189  Tot=              2.9184

 Test job not archived.
 1\1\GINC-SE097\SP\RHF\Aug-CC-pVDZ\H10O5\OHZDE\08-Apr-2025\0\\#t hf aug
 -cc-pvdz iop(5/13=1,5/36=2,99/5=2) pseudo=read geom=check guess=(read,
 tcheck) scf=(maxcycle=1)\\title\\0,1\H,0,-1.72316,0.0639122,-0.208347\
 H,0,-2.52547,0.876065,-1.41605\H,0,-0.458278,-0.892422,0.866768\H,0,-1
 .65057,-0.879239,1.90889\H,0,-0.23986,-1.3236,-1.02888\H,0,1.07099,-1.
 4078,-0.228416\H,0,1.73161,0.6995,0.0238311\H,0,2.65868,0.158988,-1.02
 556\H,0,-0.0819923,1.34181,0.991235\H,0,-0.0549161,1.51589,-0.477595\O
 ,0,-1.68932,0.360958,-1.15601\O,0,-1.02679,-0.285823,1.34511\O,0,0.125

 Normal termination of Gaussian 16 at Tue Apr  8 20:56:37 2025.
