 Gaussian 16, Revision C.01,

 ----------------------------------------------------------------------
 #t hf aug-cc-pvdz symm=none int=(grid=ultrafine) guess=(read,tcheck) s
 table=(opt,rrhf)
 ----------------------------------------------------------------------
 -----
 title
 -----
 Symbolic Z-matrix:
 Charge =  0 Multiplicity = 1

 SCF Done:  E(RHF) =  -810.431366573     A.U. after   14 cycles
 Normal termination of Gaussian 16 at Tue Apr  8 19:37:43 2025.
 Gaussian 16:  ES64L-G16RevC.01  3-Jul-2019

 ----------------------------------------------------------------------
 #t hf aug-cc-pvdz iop(5/13=1,5/36=2,99/5=2) pseudo=read geom=check gue
 ss=(read,tcheck) scf=(maxcycle=1)
 ----------------------------------------------------------------------
 -----
 title
 -----
 Structure from the checkpoint file:  "ANI1ccx_1427_conf7_mol1.chk"
 Charge =  0 Multiplicity = 1

                         Standard orientation:
 ---------------------------------------------------------------------
 Center     Atomic      Atomic             Coordinates (Angstroms)
 Number     Number       Type             X           Y           Z
 ---------------------------------------------------------------------
      1          6           0        2.255590   -0.850799    0.568189
      2          6           0        1.287529    0.298672    0.083291
      3          6           0        3.465780   -0.920705   -0.352613
      4          6           0       -1.206991    0.665877   -0.324946
      5          6           0       -1.240872    2.230200    0.237907
      6          6           0       -2.578631   -0.008725    0.017338
      7          6           0       -2.447920   -1.522261   -0.142061
      8          1           0        0.436347    2.319611   -0.545273
      9          1           0       -4.363760   -1.561662   -0.832417
     10          1           0       -3.566369   -3.095081   -0.777069
     11          1           0       -2.814101    0.350303    1.060900
     12          1           0       -3.370101    0.249318   -0.657779
     13          1           0       -1.139541    0.777504   -1.480870
     14          1           0       -0.256214   -0.856203    0.709169
     15          1           0        3.686389    0.926675   -0.500918
     16          1           0        3.164720   -1.213758   -1.337250
     17          1           0        4.069070   -1.781788    0.015461
     18          1           0        2.599350   -0.407569    1.504230
     19          1           0        0.883407   -2.451859    0.190101
     20          1           0        1.290850   -2.320519    1.704180
     21          7           0        1.591030   -2.112239    0.779583
     22          7           0       -0.023394   -0.005265    0.257840
     23          7           0       -3.572360   -2.080391   -0.645102
     24          8           0        1.670089    1.235951   -0.606012
     25          8           0        4.284129    0.244482   -0.337205
     26          8           0       -2.247982    2.542649    0.858779
     27          8           0       -1.403790   -2.113480    0.077106
     28          8           0       -0.276684    2.977490   -0.282835
 ---------------------------------------------------------------------

 SCF Done:  E(RHF) =  -810.677858882     A.U. after    2 cycles

 The electronic state is 1-A.
 Alpha  occ. eigenvalues --  -20.61878 -20.57810 -20.57793 -20.56845 -20.55986
 Alpha  occ. eigenvalues --  -15.68734 -15.66746 -15.61915 -11.41136 -11.40859
 Alpha  occ. eigenvalues --  -11.39334 -11.34030 -11.30372 -11.28863 -11.28800
 Alpha  occ. eigenvalues --   -1.41626  -1.39528  -1.38958  -1.33042  -1.32438
 Alpha  occ. eigenvalues --   -1.23342  -1.22686  -1.17542  -1.06485  -1.00272
 Alpha  occ. eigenvalues --   -0.94213  -0.87987  -0.84936  -0.83022  -0.81779
 Alpha  occ. eigenvalues --   -0.76651  -0.74641  -0.73832  -0.71710  -0.71347
 Alpha  occ. eigenvalues --   -0.70004  -0.67886  -0.67108  -0.65939  -0.65035
 Alpha  occ. eigenvalues --   -0.64183  -0.63574  -0.61499  -0.60517  -0.59970
 Alpha  occ. eigenvalues --   -0.58151  -0.57100  -0.55302  -0.53322  -0.52005
 Alpha  occ. eigenvalues --   -0.49923  -0.48698  -0.47862  -0.47398  -0.46289
 Alpha  occ. eigenvalues --   -0.45574  -0.40369  -0.39292
 Alpha virt. eigenvalues --    0.01439   0.03128   0.03526   0.03823   0.05188
 Alpha virt. eigenvalues --    0.05445   0.05879   0.07028   0.07457   0.07758
 Alpha virt. eigenvalues --    0.08730   0.08895   0.09315   0.10512   0.11445

 Mulliken charges:
               1
     1  C   -0.102556
     2  C    0.398429
     3  C    1.154013
     4  C   -0.170344
     5  C    0.864068
     6  C    0.449528
     7  C    0.701239
     8  H    0.352123
     9  H   -0.081722
    10  H    0.017351
    11  H    0.155552
    12  H   -0.218205
    13  H   -0.027733
    14  H    0.021253
    15  H    0.129789
    16  H   -0.170952
    17  H   -0.020822
    18  H   -0.004844
    19  H   -0.066444
    20  H    0.006190
    21  N   -0.056198
    22  N   -0.452219
    23  N   -0.082428
    24  O   -0.747304
    25  O   -0.505868
    26  O   -0.501790
    27  O   -0.573191
    28  O   -0.466915
 Sum of Mulliken charges =  -0.00000

 Dipole moment (field-independent basis, Debye):
    X=             -6.2335    Y=             -5.8894    Z=             -0.9032  Tot=              8.6230

 Test job not archived.
 1\1\GINC-SE087\SP\RHF\Aug-CC-pVDZ\C7H13N3O5\OHZDE\08-Apr-2025\0\\#t hf
  aug-cc-pvdz iop(5/13=1,5/36=2,99/5=2) pseudo=read geom=check guess=(r
 ead,tcheck) scf=(maxcycle=1)\\title\\0,1\C,0,2.25559,-0.8508,0.568189\
 C,0,1.28753,0.298671,0.0832915\C,0,3.46578,-0.920707,-0.352613\C,0,-1.
 20699,0.665877,-0.324946\C,0,-1.24087,2.2302,0.237907\C,0,-2.57863,-0.
 00872417,0.0173379\C,0,-2.44792,-1.52226,-0.142061\H,0,0.436349,2.3196
 1,-0.545273\H,0,-4.36376,-1.56166,-0.832417\H,0,-3.56637,-3.09508,-0.7
 77069\H,0,-2.8141,0.350304,1.0609\H,0,-3.3701,0.249319,-0.657779\H,0,-

 Normal termination of Gaussian 16 at Tue Apr  8 19:38:14 2025.
