 Gaussian 16, Revision C.01,

 ----------------------------------------------------------------------
 #t hf aug-cc-pvdz symm=none int=(grid=ultrafine) guess=(read,tcheck) s
 table=(opt,rrhf)
 ----------------------------------------------------------------------
 -----
 title
 -----
 Symbolic Z-matrix:
 Charge =  0 Multiplicity = 1

 SCF Done:  E(RHF) =  -259.163392250     A.U. after   13 cycles
 Normal termination of Gaussian 16 at Tue Apr  8 21:37:44 2025.
 Gaussian 16:  ES64L-G16RevC.01  3-Jul-2019

 ----------------------------------------------------------------------
 #t hf aug-cc-pvdz iop(5/13=1,5/36=2,99/5=2) pseudo=read geom=check gue
 ss=(read,tcheck) scf=(maxcycle=1)
 ----------------------------------------------------------------------
 -----
 title
 -----
 Structure from the checkpoint file:  "ANI1ccx_430_conf29_mol2.chk"
 Charge =  0 Multiplicity = 1

                         Standard orientation:
 ---------------------------------------------------------------------
 Center     Atomic      Atomic             Coordinates (Angstroms)
 Number     Number       Type             X           Y           Z
 ---------------------------------------------------------------------
      1          6           0       -0.507883    0.131674    0.001686
      2          1           0        2.057090    0.409367   -0.821574
      3          1           0        2.063420    0.400549    0.824794
      4          1           0        0.555585   -1.675201   -0.018039
      5          1           0       -1.718330   -1.575340    0.011210
      6          1           0       -2.533380   -0.051571    0.007376
      7          1           0        0.404696    1.790299    0.003707
      8          7           0        1.915040   -0.179397   -0.000147
      9          7           0        0.619580   -0.673841    0.001675
     10          7           0       -1.680380   -0.573744   -0.002409
     11          7           0       -0.537353    1.414390   -0.001631
 ---------------------------------------------------------------------

 SCF Done:  E(RHF) =  -259.242566086     A.U. after    2 cycles

 The electronic state is 1-A.
 Alpha  occ. eigenvalues --  -15.66911 -15.66423 -15.63610 -15.56863 -11.36067
 Alpha  occ. eigenvalues --   -1.29816  -1.20544  -1.10282  -1.02976  -0.81375
 Alpha  occ. eigenvalues --   -0.75268  -0.70842  -0.69673  -0.64554  -0.60771
 Alpha  occ. eigenvalues --   -0.55345  -0.44216  -0.41675  -0.40067  -0.34505
 Alpha virt. eigenvalues --    0.02672   0.03619   0.04609   0.05425   0.07534
 Alpha virt. eigenvalues --    0.07799   0.12121   0.12486   0.14325   0.15195
 Alpha virt. eigenvalues --    0.16887   0.17444   0.17575   0.18523   0.18617

 Mulliken charges:
               1
     1  C    1.060838
     2  H    0.061335
     3  H    0.060953
     4  H   -0.059763
     5  H   -0.070525
     6  H   -0.015490
     7  H   -0.027313
     8  N   -0.118647
     9  N   -0.268154
    10  N   -0.253535
    11  N   -0.369700
 Sum of Mulliken charges =  -0.00000

 Dipole moment (field-independent basis, Debye):
    X=              0.4999    Y=             -2.6459    Z=              0.0261  Tot=              2.6929

 Test job not archived.
 1\1\GINC-SE273\SP\RHF\Aug-CC-pVDZ\C1H6N4\OHZDE\08-Apr-2025\0\\#t hf au
 g-cc-pvdz iop(5/13=1,5/36=2,99/5=2) pseudo=read geom=check guess=(read
 ,tcheck) scf=(maxcycle=1)\\title\\0,1\C,0,-0.507883,0.131674,0.0016855
 1\H,0,2.05709,0.409368,-0.821574\H,0,2.06342,0.40055,0.824794\H,0,0.55
 5585,-1.6752,-0.0180386\H,0,-1.71833,-1.57534,0.0112103\H,0,-2.53338,-
 0.0515706,0.00737587\H,0,0.404696,1.7903,0.00370712\N,0,1.91504,-0.179
 396,-0.00014711\N,0,0.61958,-0.67384,0.0016747\N,0,-1.68038,-0.573744,
 -0.00240878\N,0,-0.537353,1.41439,-0.00163129\\Version=ES64L-G16RevC.0

 Normal termination of Gaussian 16 at Tue Apr  8 21:37:48 2025.
