 Gaussian 16, Revision C.01,

 ----------------------------------------------------------------------
 #t hf aug-cc-pvdz symm=none int=(grid=ultrafine) guess=(read,tcheck) s
 table=(opt,rrhf)
 ----------------------------------------------------------------------
 -----
 title
 -----
 Symbolic Z-matrix:
 Charge =  0 Multiplicity = 1

 SCF Done:  E(RHF) =  -563.426670965     A.U. after   14 cycles
 Normal termination of Gaussian 16 at Tue Apr  8 22:04:43 2025.
 Gaussian 16:  ES64L-G16RevC.01  3-Jul-2019

 ----------------------------------------------------------------------
 #t hf aug-cc-pvdz iop(5/13=1,5/36=2,99/5=2) pseudo=read geom=check gue
 ss=(read,tcheck) scf=(maxcycle=1)
 ----------------------------------------------------------------------
 -----
 title
 -----
 Structure from the checkpoint file:  "ANI1ccx_918_conf1_mol1.chk"
 Charge =  0 Multiplicity = 1

                         Standard orientation:
 ---------------------------------------------------------------------
 Center     Atomic      Atomic             Coordinates (Angstroms)
 Number     Number       Type             X           Y           Z
 ---------------------------------------------------------------------
      1          6           0        1.140680   -0.021863    0.011240
      2          6           0       -0.908111    1.239204   -0.082458
      3          6           0       -1.536220   -0.001806    0.450504
      4          6           0       -0.905386   -1.261276   -0.095219
      5          1           0        1.618325   -0.887302    1.795821
      6          1           0        1.912355    0.687734    1.673061
      7          1           0        2.946044   -0.741553   -0.508158
      8          1           0        2.297399    0.161406   -1.655529
      9          1           0       -1.469810   -0.065624    1.559261
     10          1           0       -2.578981    0.019973    0.089334
     11          7           0        1.241070   -0.023411    1.431831
     12          7           0        2.380399    0.087890   -0.653633
     13          8           0        0.451688    1.170193   -0.371240
     14          8           0       -1.458404    2.326671   -0.223272
     15          8           0       -1.507207   -2.268569   -0.274618
     16          8           0        0.411250   -1.147238   -0.394064
 ---------------------------------------------------------------------

 SCF Done:  E(RHF) =  -563.601655507     A.U. after    2 cycles

 The electronic state is 1-A.
 Alpha  occ. eigenvalues --  -20.65023 -20.63981 -20.58935 -20.58300 -15.65585
 Alpha  occ. eigenvalues --  -15.65174 -11.46495 -11.42877 -11.42788 -11.29851
 Alpha  occ. eigenvalues --   -1.48784  -1.42387  -1.38071  -1.33590  -1.23431
 Alpha  occ. eigenvalues --   -1.16477  -1.08004  -0.94778  -0.89577  -0.79569
 Alpha  occ. eigenvalues --   -0.78806  -0.75888  -0.73637  -0.70097  -0.69408
 Alpha  occ. eigenvalues --   -0.68171  -0.66889  -0.64270  -0.63598  -0.61165
 Alpha  occ. eigenvalues --   -0.58208  -0.57244  -0.52035  -0.51675  -0.49875
 Alpha  occ. eigenvalues --   -0.48735  -0.47220  -0.45202
 Alpha virt. eigenvalues --    0.02160   0.03373   0.04284   0.04968   0.05994
 Alpha virt. eigenvalues --    0.06711   0.09090   0.09614   0.10695   0.11124
 Alpha virt. eigenvalues --    0.11643   0.13033   0.13761   0.13913   0.14176

 Mulliken charges:
               1
     1  C    1.356701
     2  C    0.651959
     3  C   -0.041578
     4  C    0.501001
     5  H    0.011178
     6  H    0.033910
     7  H    0.019216
     8  H   -0.001600
     9  H    0.279703
    10  H    0.083167
    11  N   -0.270502
    12  N   -0.257931
    13  O   -0.717915
    14  O   -0.525392
    15  O   -0.458038
    16  O   -0.663879
 Sum of Mulliken charges =  -0.00000

 Dipole moment (field-independent basis, Debye):
    X=              3.6660    Y=             -1.8519    Z=              1.9511  Tot=              4.5471

 Test job not archived.
 1\1\GINC-SE102\SP\RHF\Aug-CC-pVDZ\C4H6N2O4\OHZDE\08-Apr-2025\0\\#t hf
 aug-cc-pvdz iop(5/13=1,5/36=2,99/5=2) pseudo=read geom=check guess=(re
 ad,tcheck) scf=(maxcycle=1)\\title\\0,1\C,0,1.14068,-0.0218694,0.01123
 9\C,0,-0.908103,1.23921,-0.0824582\C,0,-1.53622,-0.00179656,0.450503\C
 ,0,-0.905393,-1.26127,-0.0952191\H,0,1.61832,-0.887312,1.79582\H,0,1.9
 1236,0.687723,1.67306\H,0,2.94604,-0.741571,-0.508159\H,0,2.2974,0.161
 392,-1.65553\H,0,-1.46981,-0.0656146,1.55926\H,0,-2.57898,0.0199883,0.
 0893339\N,0,1.24107,-0.0234182,1.43183\N,0,2.3804,0.0878758,-0.653634\

 Normal termination of Gaussian 16 at Tue Apr  8 22:04:51 2025.
