 Gaussian 16, Revision C.01,

 ----------------------------------------------------------------------
 #t hf aug-cc-pvdz symm=none int=(grid=ultrafine) guess=(read,tcheck) s
 table=(opt,rrhf)
 ----------------------------------------------------------------------
 -----
 title
 -----
 Symbolic Z-matrix:
 Charge =  0 Multiplicity = 1

 SCF Done:  E(RHF) =  -448.359766754     A.U. after   15 cycles
 Normal termination of Gaussian 16 at Tue Apr  8 21:47:57 2025.
 Gaussian 16:  ES64L-G16RevC.01  3-Jul-2019

 ----------------------------------------------------------------------
 #t hf aug-cc-pvdz iop(5/13=1,5/36=2,99/5=2) pseudo=read geom=check gue
 ss=(read,tcheck) scf=(maxcycle=1)
 ----------------------------------------------------------------------
 -----
 title
 -----
 Structure from the checkpoint file:  "ANI1ccx_656_conf2_mol1.chk"
 Charge =  0 Multiplicity = 1

                         Standard orientation:
 ---------------------------------------------------------------------
 Center     Atomic      Atomic             Coordinates (Angstroms)
 Number     Number       Type             X           Y           Z
 ---------------------------------------------------------------------
      1          6           0        1.387610    0.020154    0.004293
      2          6           0       -0.824585    0.792127    0.006128
      3          6           0       -0.830636   -0.798068    0.040336
      4          1           0        0.932000    2.033418   -0.038778
      5          1           0        0.874764   -2.009621    0.110199
      6          7           0        0.530646    1.093829   -0.027016
      7          7           0        0.463917   -1.056221    0.177706
      8          8           0        2.595290   -0.062601   -0.082514
      9          8           0       -1.724086    1.559714    0.030352
     10          8           0       -1.766583   -1.543656   -0.126688
 ---------------------------------------------------------------------

 SCF Done:  E(RHF) =  -448.497004345     A.U. after    2 cycles

 The electronic state is 1-A.
 Alpha  occ. eigenvalues --  -20.61649 -20.61321 -20.60380 -15.72461 -15.72270
 Alpha  occ. eigenvalues --  -11.47091 -11.43300 -11.42913  -1.44958  -1.42095
 Alpha  occ. eigenvalues --   -1.40128  -1.32403  -1.22295  -0.98485  -0.91138
 Alpha  occ. eigenvalues --   -0.87264  -0.76983  -0.72204  -0.71823  -0.71604
 Alpha  occ. eigenvalues --   -0.70542  -0.68731  -0.61438  -0.60902  -0.58024
 Alpha  occ. eigenvalues --   -0.51927  -0.48869  -0.47084  -0.46915
 Alpha virt. eigenvalues --    0.02981   0.03374   0.03967   0.06389   0.07199
 Alpha virt. eigenvalues --    0.09398   0.09548   0.11288   0.11616   0.12826
 Alpha virt. eigenvalues --    0.13078   0.13568   0.13965   0.15876   0.17176

 Mulliken charges:
               1
     1  C    0.866241
     2  C    0.557767
     3  C    0.493507
     4  H   -0.025382
     5  H    0.011896
     6  N   -0.366398
     7  N   -0.375869
     8  O   -0.389356
     9  O   -0.355533
    10  O   -0.416873
 Sum of Mulliken charges =  -0.00000

 Dipole moment (field-independent basis, Debye):
    X=              2.6693    Y=              0.4397    Z=              0.3676  Tot=              2.7301

 Test job not archived.
 1\1\GINC-SE393\SP\RHF\Aug-CC-pVDZ\C3H2N2O3\OHZDE\08-Apr-2025\0\\#t hf
 aug-cc-pvdz iop(5/13=1,5/36=2,99/5=2) pseudo=read geom=check guess=(re
 ad,tcheck) scf=(maxcycle=1)\\title\\0,1\C,0,1.38761,0.0201562,0.004292
 5\C,0,-0.824587,0.792125,0.00612755\C,0,-0.830634,-0.79807,0.0403362\H
 ,0,0.931995,2.03342,-0.0387776\H,0,0.874768,-2.00962,0.110199\N,0,0.53
 0644,1.09383,-0.0270158\N,0,0.463919,-1.05622,0.177706\O,0,2.59529,-0.
 0625954,-0.0825136\O,0,-1.72409,1.55971,0.0303524\O,0,-1.76658,-1.5436
 6,-0.126688\\Version=ES64L-G16RevC.01\State=1-A\HF=-448.4970043\RMSD=3

 Normal termination of Gaussian 16 at Tue Apr  8 21:48:01 2025.
