 Gaussian 16, Revision C.01,

 ----------------------------------------------------------------------
 #t hf aug-cc-pvdz symm=none int=(grid=ultrafine) guess=(read,tcheck) s
 table=(opt,rrhf)
 ----------------------------------------------------------------------
 -----
 title
 -----
 Symbolic Z-matrix:
 Charge =  0 Multiplicity = 1

 SCF Done:  E(RHF) =  -577.538011954     A.U. after   15 cycles
 Normal termination of Gaussian 16 at Tue Apr  8 22:11:39 2025.
 Gaussian 16:  ES64L-G16RevC.01  3-Jul-2019

 ----------------------------------------------------------------------
 #t hf aug-cc-pvdz iop(5/13=1,5/36=2,99/5=2) pseudo=read geom=check gue
 ss=(read,tcheck) scf=(maxcycle=1)
 ----------------------------------------------------------------------
 -----
 title
 -----
 Structure from the checkpoint file:  "ANI1ccx_949_conf1_mol1.chk"
 Charge =  0 Multiplicity = 1

                         Standard orientation:
 ---------------------------------------------------------------------
 Center     Atomic      Atomic             Coordinates (Angstroms)
 Number     Number       Type             X           Y           Z
 ---------------------------------------------------------------------
      1          6           0        1.424159    0.757739    0.038112
      2          6           0        1.581140   -1.390140   -0.177547
      3          6           0       -1.493410   -1.013821    0.695689
      4          6           0       -2.189671   -0.105623   -0.323877
      5          1           0       -2.505921    1.781619   -0.582821
      6          1           0       -1.390180   -2.035761    0.321123
      7          1           0       -0.052988   -1.039580    2.116679
      8          1           0       -2.115600   -1.051961    1.591299
      9          1           0        1.463479    2.744800    0.352131
     10          1           0        0.029486    1.907120    0.863954
     11          1           0        1.410660   -2.454000   -0.069992
     12          7           0        0.818571    1.938370    0.236679
     13          7           0        2.513299    0.498191   -0.598197
     14          7           0        2.650770   -0.851601   -0.735391
     15          7           0        0.806158   -0.414808    0.370563
     16          7           0       -0.249208   -0.467866    1.284059
     17          8           0       -1.953411    1.219119   -0.002370
     18          8           0       -2.865260   -0.501265   -1.233961
 ---------------------------------------------------------------------

 SCF Done:  E(RHF) =  -577.709159692     A.U. after    2 cycles

 The electronic state is 1-A.
 Alpha  occ. eigenvalues --  -20.64943 -20.59995 -15.71850 -15.71404 -15.64528
 Alpha  occ. eigenvalues --  -15.64470 -15.61426 -11.43515 -11.34454 -11.32616
 Alpha  occ. eigenvalues --  -11.30888  -1.44072  -1.38726  -1.35612  -1.27234
 Alpha  occ. eigenvalues --   -1.20617  -1.11897  -1.04038  -0.99524  -0.87268
 Alpha  occ. eigenvalues --   -0.84518  -0.80766  -0.77060  -0.74888  -0.72055
 Alpha  occ. eigenvalues --   -0.69969  -0.68927  -0.67510  -0.66882  -0.62812
 Alpha  occ. eigenvalues --   -0.61810  -0.60911  -0.59350  -0.53115  -0.50438
 Alpha  occ. eigenvalues --   -0.48564  -0.47941  -0.45838  -0.41472  -0.39892
 Alpha  occ. eigenvalues --   -0.31455
 Alpha virt. eigenvalues --    0.01556   0.02575   0.03530   0.04448   0.05788
 Alpha virt. eigenvalues --    0.07004   0.07390   0.08761   0.09449   0.11315
 Alpha virt. eigenvalues --    0.11505   0.11991   0.12374   0.13024   0.13451

 Mulliken charges:
               1
     1  C    0.693289
     2  C    0.611923
     3  C    0.838825
     4  C    0.541169
     5  H    0.227832
     6  H   -0.079402
     7  H    0.054400
     8  H   -0.112619
     9  H    0.052129
    10  H    0.112181
    11  H   -0.296995
    12  N   -0.245973
    13  N   -0.422273
    14  N   -0.508306
    15  N   -0.253480
    16  N   -0.159027
    17  O   -0.617177
    18  O   -0.436498
 Sum of Mulliken charges =  -0.00000

 Dipole moment (field-independent basis, Debye):
    X=             -4.6173    Y=              0.1985    Z=              5.5681  Tot=              7.2362

 Test job not archived.
 1\1\GINC-SE332\SP\RHF\Aug-CC-pVDZ\C4H7N5O2\OHZDE\08-Apr-2025\0\\#t hf
 aug-cc-pvdz iop(5/13=1,5/36=2,99/5=2) pseudo=read geom=check guess=(re
 ad,tcheck) scf=(maxcycle=1)\\title\\0,1\C,0,1.42416,0.757739,0.0381123
 \C,0,1.58114,-1.39014,-0.177546\C,0,-1.49341,-1.01382,0.69569\C,0,-2.1
 8967,-0.105622,-0.323876\H,0,-2.50592,1.78162,-0.58282\H,0,-1.39018,-2
 .03576,0.321124\H,0,-0.0529873,-1.03958,2.11668\H,0,-2.1156,-1.05196,1
 .5913\H,0,1.46348,2.7448,0.352132\H,0,0.0294875,1.90712,0.863955\H,0,1
 .41066,-2.454,-0.0699911\N,0,0.818572,1.93837,0.23668\N,0,2.5133,0.498

 Normal termination of Gaussian 16 at Tue Apr  8 22:11:48 2025.
