 Gaussian 16, Revision C.01,

 ----------------------------------------------------------------------
 #t hf aug-cc-pvdz symm=none int=(grid=ultrafine) guess=(read,tcheck) s
 table=(opt,rrhf)
 ----------------------------------------------------------------------
 -----
 title
 -----
 Symbolic Z-matrix:
 Charge =  0 Multiplicity = 1

 SCF Done:  E(RHF) =  -408.777696842     A.U. after   13 cycles
 Normal termination of Gaussian 16 at Tue Apr  8 21:37:57 2025.
 Gaussian 16:  ES64L-G16RevC.01  3-Jul-2019

 ----------------------------------------------------------------------
 #t hf aug-cc-pvdz iop(5/13=1,5/36=2,99/5=2) pseudo=read geom=check gue
 ss=(read,tcheck) scf=(maxcycle=1)
 ----------------------------------------------------------------------
 -----
 title
 -----
 Structure from the checkpoint file:  "ANI1ccx_432_conf10_mol2.chk"
 Charge =  0 Multiplicity = 1

                         Standard orientation:
 ---------------------------------------------------------------------
 Center     Atomic      Atomic             Coordinates (Angstroms)
 Number     Number       Type             X           Y           Z
 ---------------------------------------------------------------------
      1          6           0        0.028743    0.120247    0.072318
      2          1           0       -1.628921   -2.445760   -0.721328
      3          1           0       -1.554348   -2.141418    0.926811
      4          1           0       -1.988318   -0.039229   -0.049968
      5          1           0        1.098629   -1.590905   -0.093208
      6          1           0        2.781412    0.378561    0.465318
      7          1           0       -1.057098    2.855874   -0.029937
      8          7           0       -1.114282   -1.976408    0.038662
      9          7           0       -1.108335   -0.576616   -0.209197
     10          7           0        1.190436   -0.635856    0.271773
     11          7           0        0.106246    1.381052    0.197554
     12          8           0        2.308122   -0.036416   -0.300963
     13          8           0       -1.225905    1.900940   -0.076930
 ---------------------------------------------------------------------

 SCF Done:  E(RHF) =  -408.900898545     A.U. after    2 cycles

 The electronic state is 1-A.
 Alpha  occ. eigenvalues --  -20.61249 -20.59262 -15.68481 -15.67906 -15.67771
 Alpha  occ. eigenvalues --  -15.64056 -11.34944  -1.38525  -1.34638  -1.27897
 Alpha  occ. eigenvalues --   -1.15960  -1.05755  -1.02585  -0.79676  -0.74160
 Alpha  occ. eigenvalues --   -0.72146  -0.71004  -0.69508  -0.64666  -0.63348
 Alpha  occ. eigenvalues --   -0.62042  -0.59456  -0.52685  -0.49611  -0.45845
 Alpha  occ. eigenvalues --   -0.43214  -0.41207  -0.33856
 Alpha virt. eigenvalues --    0.02637   0.03974   0.04358   0.04715   0.07018
 Alpha virt. eigenvalues --    0.07719   0.11584   0.12954   0.13931   0.15098
 Alpha virt. eigenvalues --    0.15749   0.15979   0.16925   0.18093   0.19227

 Mulliken charges:
               1
     1  C    1.266440
     2  H    0.136410
     3  H    0.079170
     4  H    0.061681
     5  H    0.111522
     6  H    0.234101
     7  H    0.198101
     8  N   -0.337902
     9  N   -0.155754
    10  N   -0.226954
    11  N   -0.273440
    12  O   -0.502141
    13  O   -0.591235
 Sum of Mulliken charges =  -0.00000

 Dipole moment (field-independent basis, Debye):
    X=             -2.1490    Y=             -2.2786    Z=              1.0712  Tot=              3.3103

 Test job not archived.
 1\1\GINC-SE455\SP\RHF\Aug-CC-pVDZ\C1H6N4O2\OHZDE\08-Apr-2025\0\\#t hf
 aug-cc-pvdz iop(5/13=1,5/36=2,99/5=2) pseudo=read geom=check guess=(re
 ad,tcheck) scf=(maxcycle=1)\\title\\0,1\C,0,0.028745,0.120247,0.072318
 4\H,0,-1.62898,-2.44572,-0.721328\H,0,-1.5544,-2.14138,0.926811\H,0,-1
 .98832,-0.0391803,-0.0499679\H,0,1.09859,-1.59093,-0.0932083\H,0,2.781
 42,0.378495,0.465318\H,0,-1.05703,2.8559,-0.0299372\N,0,-1.11433,-1.97
 638,0.0386623\N,0,-1.10835,-0.576588,-0.209197\N,0,1.19042,-0.635883,0
 .271773\N,0,0.106278,1.38105,0.197554\O,0,2.30812,-0.0364702,-0.300963

 Normal termination of Gaussian 16 at Tue Apr  8 21:38:01 2025.
