 Gaussian 16, Revision C.01,

 ----------------------------------------------------------------------
 #t hf aug-cc-pvdz symm=none int=(grid=ultrafine) guess=(read,tcheck) s
 table=(opt,rrhf)
 ----------------------------------------------------------------------
 -----
 title
 -----
 Symbolic Z-matrix:
 Charge =  0 Multiplicity = 1

 SCF Done:  E(RHF) =  -376.428703247     A.U. after   14 cycles
 Normal termination of Gaussian 16 at Tue Apr  8 21:42:34 2025.
 Gaussian 16:  ES64L-G16RevC.01  3-Jul-2019

 ----------------------------------------------------------------------
 #t hf aug-cc-pvdz iop(5/13=1,5/36=2,99/5=2) pseudo=read geom=check gue
 ss=(read,tcheck) scf=(maxcycle=1)
 ----------------------------------------------------------------------
 -----
 title
 -----
 Structure from the checkpoint file:  "ANI1ccx_494_conf3_mol1.chk"
 Charge =  0 Multiplicity = 1

                         Standard orientation:
 ---------------------------------------------------------------------
 Center     Atomic      Atomic             Coordinates (Angstroms)
 Number     Number       Type             X           Y           Z
 ---------------------------------------------------------------------
      1          6           0       -0.740221   -0.155143    0.006809
      2          6           0        0.761630    0.134899    0.052671
      3          1           0       -2.370359    0.687263   -0.194578
      4          1           0        2.364399   -0.647427   -0.326291
      5          8           0       -1.439579    0.944321   -0.307659
      6          8           0       -1.192342   -1.205220    0.320960
      7          8           0        1.401318   -0.942264   -0.303576
      8          8           0        1.215291    1.213367    0.310774
 ---------------------------------------------------------------------

 SCF Done:  E(RHF) =  -376.550607973     A.U. after    2 cycles

 The electronic state is 1-A.
 Alpha  occ. eigenvalues --  -20.66698 -20.65394 -20.60295 -20.60024 -11.43490
 Alpha  occ. eigenvalues --  -11.43245  -1.48399  -1.45301  -1.37784  -1.36201
 Alpha  occ. eigenvalues --   -0.98804  -0.86164  -0.77282  -0.75300  -0.74201
 Alpha  occ. eigenvalues --   -0.70039  -0.68342  -0.66092  -0.62653  -0.56154
 Alpha  occ. eigenvalues --   -0.53636  -0.53103  -0.48134
 Alpha virt. eigenvalues --    0.03075   0.03726   0.07560   0.08693   0.09284
 Alpha virt. eigenvalues --    0.10675   0.11307   0.11889   0.13153   0.13653
 Alpha virt. eigenvalues --    0.18349   0.19012   0.19849   0.20540   0.22232

 Mulliken charges:
               1
     1  C    0.588750
     2  C    0.554533
     3  H    0.198477
     4  H    0.252084
     5  O   -0.420230
     6  O   -0.373875
     7  O   -0.412428
     8  O   -0.387311
 Sum of Mulliken charges =   0.00000

 Dipole moment (field-independent basis, Debye):
    X=              0.1927    Y=             -0.2184    Z=             -0.9320  Tot=              0.9764

 Test job not archived.
 1\1\GINC-SE083\SP\RHF\Aug-CC-pVDZ\C2H2O4\OHZDE\08-Apr-2025\0\\#t hf au
 g-cc-pvdz iop(5/13=1,5/36=2,99/5=2) pseudo=read geom=check guess=(read
 ,tcheck) scf=(maxcycle=1)\\title\\0,1\C,0,-0.74022,-0.155143,0.0068090
 1\C,0,0.76163,0.134901,0.0526715\H,0,-2.37036,0.687261,-0.194578\H,0,2
 .3644,-0.647422,-0.326291\O,0,-1.43958,0.94432,-0.307659\O,0,-1.19234,
 -1.20522,0.32096\O,0,1.40132,-0.942261,-0.303576\O,0,1.21529,1.21337,0
 .310774\\Version=ES64L-G16RevC.01\State=1-A\HF=-376.550608\RMSD=3.421e
 -03\Dipole=0.0758217,-0.0859228,-0.3666728\Quadrupole=7.1979246,-7.273

 Normal termination of Gaussian 16 at Tue Apr  8 21:42:38 2025.
