 Gaussian 16, Revision C.01,

 ----------------------------------------------------------------------
 #t hf aug-cc-pvdz symm=none int=(grid=ultrafine) guess=(read,tcheck) s
 table=(opt,rrhf)
 ----------------------------------------------------------------------
 -----
 title
 -----
 Symbolic Z-matrix:
 Charge =  0 Multiplicity = 1

 SCF Done:  E(RHF) =  -338.343667337     a.u. after   17 cycles
 Normal termination of Gaussian 16 at Tue Apr  8 21:30:51 2025.
 Gaussian 16:  ES64L-G16RevC.01  3-Jul-2019

 ----------------------------------------------------------------------
 #t hf aug-cc-pvdz iop(5/13=1,5/36=2,99/5=2) pseudo=read geom=check gue
 ss=(read,tcheck) scf=(maxcycle=1)
 ----------------------------------------------------------------------
 -----
 title
 -----
 Structure from the checkpoint file:  "ANI1ccx_384_conf1_mol2.chk"
 Charge =  0 Multiplicity = 1

                         Standard orientation:
 ---------------------------------------------------------------------
 Center     Atomic      Atomic             Coordinates (Angstroms)
 Number     Number       Type             X           Y           Z
 ---------------------------------------------------------------------
      1          6           0       -1.679680    0.431269    0.014921
      2          1           0       -3.300570   -0.392345    0.563626
      3          1           0       -2.113900    1.337130    0.526261
      4          8           0       -2.491440   -0.648481    0.098223
      5          8           0       -0.607440    0.391656   -0.497604
      6          8           0        2.165920    0.160498    0.554498
      7          8           0        2.869530   -0.345223   -0.302544
 ---------------------------------------------------------------------

 SCF Done:  E(RHF) =  -338.452998530     A.U. after    2 cycles

 The electronic state is 1-A.
 Alpha  occ. eigenvalues --  -20.73879 -20.73610 -20.64515 -20.58407 -11.41798
 Alpha  occ. eigenvalues --   -1.57684  -1.43752  -1.35456  -1.07835  -0.87673
 Alpha  occ. eigenvalues --   -0.80517  -0.77055  -0.74174  -0.69521  -0.65686
 Alpha  occ. eigenvalues --   -0.64791  -0.62139  -0.51926  -0.49024  -0.48158
 Alpha virt. eigenvalues --    0.01372   0.02206   0.04775   0.07923   0.09862
 Alpha virt. eigenvalues --    0.12042   0.13802   0.14689   0.15625   0.17983
 Alpha virt. eigenvalues --    0.19324   0.20335   0.21703   0.22762   0.23152

 Mulliken charges:
               1
     1  C    0.707966
     2  H    0.192634
     3  H   -0.125467
     4  O   -0.428342
     5  O   -0.344728
     6  O    0.029335
     7  O   -0.031398
 Sum of Mulliken charges =  -0.00000

 Dipole moment (field-independent basis, Debye):
    X=             -3.8925    Y=              1.4399    Z=              2.1856  Tot=              4.6906

 Test job not archived.
 1\1\GINC-SE455\SP\RHF\Aug-CC-pVDZ\C1H2O4\OHZDE\08-Apr-2025\0\\#t hf au
 g-cc-pvdz iop(5/13=1,5/36=2,99/5=2) pseudo=read geom=check guess=(read
 ,tcheck) scf=(maxcycle=1)\\title\\0,1\C,0,-1.67968,0.431269,0.0149209\
 H,0,-3.30057,-0.392344,0.563626\H,0,-2.1139,1.33713,0.526261\O,0,-2.49
 144,-0.648481,0.0982229\O,0,-0.60744,0.391656,-0.497604\O,0,2.16592,0.
 160498,0.554498\O,0,2.86953,-0.345223,-0.302544\\Version=ES64L-G16RevC
 .01\State=1-A\HF=-338.4529985\RMSD=3.050e-03\Dipole=-1.5314394,0.56649
 68,0.8598759\Quadrupole=6.6804285,-3.8616517,-2.8187768,-3.0190719,-2.

 Normal termination of Gaussian 16 at Tue Apr  8 21:30:53 2025.
