 Gaussian 16, Revision C.01,

 ----------------------------------------------------------------------
 #t hf aug-cc-pvdz symm=none int=(grid=ultrafine) guess=(read,tcheck) s
 table=(opt,rrhf)
 ----------------------------------------------------------------------
 -----
 title
 -----
 Symbolic Z-matrix:
 Charge =  0 Multiplicity = 1

 SCF Done:  E(RHF) =  -404.745478774     A.U. after   16 cycles
 Normal termination of Gaussian 16 at Tue Apr  8 21:44:49 2025.
 Gaussian 16:  ES64L-G16RevC.01  3-Jul-2019

 ----------------------------------------------------------------------
 #t hf aug-cc-pvdz iop(5/13=1,5/36=2,99/5=2) pseudo=read geom=check gue
 ss=(read,tcheck) scf=(maxcycle=1)
 ----------------------------------------------------------------------
 -----
 title
 -----
 Structure from the checkpoint file:  "ANI1ccx_523_conf3_mol1.chk"
 Charge =  0 Multiplicity = 1

                         Standard orientation:
 ---------------------------------------------------------------------
 Center     Atomic      Atomic             Coordinates (Angstroms)
 Number     Number       Type             X           Y           Z
 ---------------------------------------------------------------------
      1          6           0       -1.102519   -0.272625   -0.013022
      2          6           0        1.105131   -0.275087    0.054234
      3          1           0       -3.099189   -0.234108    0.324441
      4          1           0       -2.600040   -1.828359    0.365111
      5          1           0        3.156350   -0.475513   -0.054067
      6          1           0        2.258960   -1.878150    0.196638
      7          7           0       -2.313900   -0.850987   -0.040446
      8          7           0       -1.110429    1.108561    0.071666
      9          7           0        0.071039    1.745370   -0.060578
     10          7           0        1.147081    1.089290    0.006204
     11          7           0        2.255610   -0.923372    0.069806
     12          7           0       -0.011080   -1.068519   -0.200851
 ---------------------------------------------------------------------

 SCF Done:  E(RHF) =  -404.860551860     A.U. after    2 cycles

 The electronic state is 1-A.
 Alpha  occ. eigenvalues --  -15.74950 -15.67185 -15.67155 -15.66586 -15.65206
 Alpha  occ. eigenvalues --  -15.64882 -11.40033 -11.39100  -1.38674  -1.27062
 Alpha  occ. eigenvalues --   -1.25587  -1.14467  -1.12322  -0.95761  -0.89104
 Alpha  occ. eigenvalues --   -0.79367  -0.77392  -0.70869  -0.67184  -0.63781
 Alpha  occ. eigenvalues --   -0.61680  -0.60250  -0.53763  -0.53235  -0.50254
 Alpha  occ. eigenvalues --   -0.43062  -0.40505  -0.39062  -0.36114
 Alpha virt. eigenvalues --    0.02383   0.02634   0.05142   0.06414   0.07495
 Alpha virt. eigenvalues --    0.07727   0.10476   0.11656   0.12296   0.12330
 Alpha virt. eigenvalues --    0.13899   0.14443   0.15297   0.17105   0.17524

 Mulliken charges:
               1
     1  C    1.128815
     2  C    0.986291
     3  H    0.101416
     4  H    0.094047
     5  H   -0.009782
     6  H   -0.071257
     7  N   -0.492812
     8  N   -0.522240
     9  N   -0.136202
    10  N   -0.354723
    11  N   -0.091938
    12  N   -0.631615
 Sum of Mulliken charges =  -0.00000

 Dipole moment (field-independent basis, Debye):
    X=              0.7130    Y=             -4.3370    Z=              1.5080  Tot=              4.6467

 Test job not archived.
 1\1\GINC-SE090\SP\RHF\Aug-CC-pVDZ\C2H4N6\OHZDE\08-Apr-2025\0\\#t hf au
 g-cc-pvdz iop(5/13=1,5/36=2,99/5=2) pseudo=read geom=check guess=(read
 ,tcheck) scf=(maxcycle=1)\\title\\0,1\C,0,-1.10252,-0.272626,-0.013021
 7\C,0,1.10513,-0.275087,0.0542336\H,0,-3.09919,-0.234109,0.324441\H,0,
 -2.60004,-1.82836,0.365111\H,0,3.15635,-0.475513,-0.054067\H,0,2.25896
 ,-1.87815,0.196638\N,0,-2.3139,-0.850988,-0.0404459\N,0,-1.11043,1.108
 56,0.0716657\N,0,0.0710381,1.74537,-0.0605781\N,0,1.14708,1.08929,0.00
 620353\N,0,2.25561,-0.923372,0.0698063\N,0,-0.0110805,-1.06852,-0.2008

 Normal termination of Gaussian 16 at Tue Apr  8 21:44:54 2025.
