 Gaussian 16, Revision C.01,

 ----------------------------------------------------------------------
 #t hf aug-cc-pvdz symm=none int=(grid=ultrafine) guess=(read,tcheck) s
 table=(opt,rrhf)
 ----------------------------------------------------------------------
 -----
 title
 -----
 Symbolic Z-matrix:
 Charge =  0 Multiplicity = 1

 SCF Done:  E(RHF) =  -656.186202207     A.U. after   17 cycles

 1\1\GINC-SE461\Stability\RHF\Aug-CC-pVDZ\C10H9N5\OHZDE\08-Apr-2025\0\\
 #t hf aug-cc-pvdz symm=none int=(grid=ultrafine) guess=(read,tcheck) s
 table=(opt,rrhf)\\title\\0,1\C,0,3.69081,-1.28897,0.197365\C,0,1.1853,
 -1.06239,-0.065621\C,0,-1.19425,-0.863253,-0.0812229\C,0,-2.36806,-1.6
 494,0.0211722\C,0,-3.56579,-0.996781,0.104812\C,0,-3.60387,0.411619,0.
 076451\C,0,-2.46877,1.123,-0.0904671\C,0,-1.22214,0.495198,-0.139006\C
 ,0,0.585591,2.49232,0.0495353\C,0,1.18768,0.418674,-0.121841\H,0,-0.04
 95859,3.35293,0.288121\H,0,-2.4344,2.21335,-0.023758\H,0,-4.57085,0.89

 Normal termination of Gaussian 16 at Tue Apr  8 19:25:46 2025.
 Gaussian 16:  ES64L-G16RevC.01  3-Jul-2019

 ----------------------------------------------------------------------
 #t hf aug-cc-pvdz iop(5/13=1,5/36=2,99/5=2) pseudo=read geom=check gue
 ss=(read,tcheck) scf=(maxcycle=1)
 ----------------------------------------------------------------------
 -----
 title
 -----
 Structure from the checkpoint file:  "ANI1ccx_130_conf1_mol2.chk"
 Charge =  0 Multiplicity = 1

                         Standard orientation:
 ---------------------------------------------------------------------
 Center     Atomic      Atomic             Coordinates (Angstroms)
 Number     Number       Type             X           Y           Z
 ---------------------------------------------------------------------
      1          6           0        3.690810   -1.288971    0.197365
      2          6           0        1.185300   -1.062391   -0.065621
      3          6           0       -1.194250   -0.863254   -0.081223
      4          6           0       -2.368060   -1.649400    0.021172
      5          6           0       -3.565790   -0.996781    0.104812
      6          6           0       -3.603870    0.411619    0.076451
      7          6           0       -2.468770    1.123000   -0.090467
      8          6           0       -1.222140    0.495197   -0.139006
      9          6           0        0.585591    2.492319    0.049535
     10          6           0        1.187680    0.418673   -0.121841
     11          1           0       -0.049586    3.352929    0.288121
     12          1           0       -2.434400    2.213350   -0.023758
     13          1           0       -4.570850    0.897606    0.319342
     14          1           0       -4.460590   -1.504270    0.290737
     15          1           0        3.720690   -0.780931    1.167880
     16          1           0        2.126450   -2.758471   -0.306145
     17          1           0        4.356710   -2.201251    0.253788
     18          1           0        4.149740   -0.621743   -0.502212
     19          1           0       -2.201760   -2.705280    0.070585
     20          7           0        1.859650    2.488489    0.129218
     21          7           0        2.356340   -1.783351   -0.132828
     22          7           0        0.036364   -1.646121    0.039971
     23          7           0        0.057226    1.213629   -0.138315
     24          7           0        2.262510    1.102779   -0.078818
 ---------------------------------------------------------------------

 SCF Done:  E(RHF) =  -656.374081396     A.U. after    2 cycles

 The electronic state is 1-A.
 Alpha  occ. eigenvalues --  -15.72023 -15.66525 -15.65658 -15.65410 -15.62669
 Alpha  occ. eigenvalues --  -11.35943 -11.33981 -11.33384 -11.31601 -11.29740
 Alpha  occ. eigenvalues --  -11.27446 -11.26639 -11.25991 -11.25561 -11.25331
 Alpha  occ. eigenvalues --   -1.37247  -1.26219  -1.22090  -1.15924  -1.14189
 Alpha  occ. eigenvalues --   -1.11192  -1.03295  -1.02595  -0.93880  -0.89237
 Alpha  occ. eigenvalues --   -0.87298  -0.85536  -0.82325  -0.77066  -0.74718
 Alpha  occ. eigenvalues --   -0.70651  -0.67490  -0.66738  -0.65984  -0.64725
 Alpha  occ. eigenvalues --   -0.63505  -0.61913  -0.61572  -0.59874  -0.55338
 Alpha  occ. eigenvalues --   -0.54829  -0.54014  -0.52974  -0.51102  -0.47576
 Alpha  occ. eigenvalues --   -0.45449  -0.44449  -0.42241  -0.40036  -0.39204
 Alpha  occ. eigenvalues --   -0.34714  -0.30692
 Alpha virt. eigenvalues --    0.02629   0.03192   0.03765   0.04838   0.05064
 Alpha virt. eigenvalues --    0.05679   0.06641   0.07028   0.07912   0.07971
 Alpha virt. eigenvalues --    0.09182   0.09739   0.09988   0.10644   0.11467

 Mulliken charges:
               1
     1  C    0.920383
     2  C    0.169888
     3  C    0.046004
     4  C    0.598815
     5  C    1.185857
     6  C    0.021330
     7  C    1.544756
     8  C    0.190508
     9  C    0.883948
    10  C    0.233736
    11  H   -0.283946
    12  H   -0.534590
    13  H   -0.409209
    14  H   -0.507756
    15  H   -0.120347
    16  H   -0.074543
    17  H   -0.172617
    18  H   -0.143696
    19  H   -0.564228
    20  N   -0.326135
    21  N   -0.471806
    22  N   -0.710008
    23  N   -0.845685
    24  N   -0.630660
 Sum of Mulliken charges =   0.00000

 Dipole moment (field-independent basis, Debye):
    X=             -2.5997    Y=             -0.8850    Z=              0.3617  Tot=              2.7700

 Test job not archived.
 1\1\GINC-SE461\SP\RHF\Aug-CC-pVDZ\C10H9N5\OHZDE\08-Apr-2025\0\\#t hf a
 ug-cc-pvdz iop(5/13=1,5/36=2,99/5=2) pseudo=read geom=check guess=(rea
 d,tcheck) scf=(maxcycle=1)\\title\\0,1\C,0,3.69081,-1.28897,0.197365\C
 ,0,1.1853,-1.06239,-0.065621\C,0,-1.19425,-0.863253,-0.0812229\C,0,-2.
 36806,-1.6494,0.0211722\C,0,-3.56579,-0.996781,0.104812\C,0,-3.60387,0
 .411619,0.076451\C,0,-2.46877,1.123,-0.0904671\C,0,-1.22214,0.495198,-
 0.139006\C,0,0.585591,2.49232,0.0495353\C,0,1.18768,0.418674,-0.121841
 \H,0,-0.0495859,3.35293,0.288121\H,0,-2.4344,2.21335,-0.023758\H,0,-4.

 Normal termination of Gaussian 16 at Tue Apr  8 19:26:10 2025.
