 Gaussian 16, Revision C.01,

 ----------------------------------------------------------------------
 #t hf aug-cc-pvdz symm=none int=(grid=ultrafine) guess=(read,tcheck) s
 table=(opt,rrhf)
 ----------------------------------------------------------------------
 -----
 title
 -----
 Symbolic Z-matrix:
 Charge =  0 Multiplicity = 1

 SCF Done:  E(RHF) =  -833.410532434     A.U. after   15 cycles
 Normal termination of Gaussian 16 at Tue Apr  8 20:52:05 2025.
 Gaussian 16:  ES64L-G16RevC.01  3-Jul-2019

 ----------------------------------------------------------------------
 #t hf aug-cc-pvdz iop(5/13=1,5/36=2,99/5=2) pseudo=read geom=check gue
 ss=(read,tcheck) scf=(maxcycle=1)
 ----------------------------------------------------------------------
 -----
 title
 -----
 Structure from the checkpoint file:  "ANI1ccx_1760_conf53_mol1.chk"
 Charge =  0 Multiplicity = 1

                         Standard orientation:
 ---------------------------------------------------------------------
 Center     Atomic      Atomic             Coordinates (Angstroms)
 Number     Number       Type             X           Y           Z
 ---------------------------------------------------------------------
      1          6           0        1.894291    1.040650   -0.882321
      2          6           0       -3.056119    1.791440   -0.496914
      3          6           0       -2.641579    0.848588    0.761444
      4          6           0       -1.822960   -1.099410   -0.534446
      5          6           0       -3.857300    0.050296    1.313181
      6          6           0        3.173200   -0.491164    0.552786
      7          6           0        3.288470    0.268600   -0.764296
      8          6           0        0.732268    0.144301   -0.610119
      9          6           0       -1.482510   -0.124875    0.626932
     10          1           0       -3.714579    2.570220   -0.181031
     11          1           0       -1.949820   -2.936820   -0.936489
     12          1           0       -4.019980   -0.849461    0.846608
     13          1           0       -3.515610   -0.201281    2.410751
     14          1           0       -4.701909    0.723953    1.438781
     15          1           0       -3.523179    1.027060   -1.182009
     16          1           0       -2.265689    2.410210   -0.953809
     17          1           0       -2.151819    1.636490    1.523931
     18          1           0       -0.129704    1.588520    0.412063
     19          1           0        2.046510   -0.995964    2.015381
     20          1           0        4.111031    0.917673   -0.663355
     21          1           0        3.298990   -0.513986   -1.492049
     22          1           0        1.790861    1.386040   -1.925089
     23          1           0        2.014411    2.156940    1.053111
     24          1           0        2.277361    3.055500   -0.271475
     25          1           0       -1.274040   -0.804854    1.512931
     26          7           0        1.828181    2.257770    0.042490
     27          7           0       -0.231330    0.620416    0.266645
     28          8           0       -1.817300   -0.720426   -1.710159
     29          8           0        0.858568   -0.980008   -1.041929
     30          8           0        3.992650   -1.285730    0.952468
     31          8           0        2.028700   -0.335582    1.244741
     32          8           0       -2.167290   -2.414270   -0.141325
 ---------------------------------------------------------------------

 SCF Done:  E(RHF) =  -833.662484204     A.U. after    2 cycles

 The electronic state is 1-A.
 Alpha  occ. eigenvalues --  -20.62532 -20.62522 -20.56552 -20.55719 -20.53247
 Alpha  occ. eigenvalues --  -15.64192 -15.62557 -11.40864 -11.39852 -11.36441
 Alpha  occ. eigenvalues --  -11.31827 -11.30705 -11.28047 -11.26893 -11.24338
 Alpha  occ. eigenvalues --  -11.23949  -1.42749  -1.39646  -1.35552  -1.31652
 Alpha  occ. eigenvalues --   -1.31008  -1.20331  -1.15883  -1.07640  -1.04477
 Alpha  occ. eigenvalues --   -0.97600  -0.93558  -0.91856  -0.84781  -0.83371
 Alpha  occ. eigenvalues --   -0.77532  -0.77122  -0.73733  -0.71518  -0.70598
 Alpha  occ. eigenvalues --   -0.69691  -0.68717  -0.67436  -0.66282  -0.65016
 Alpha  occ. eigenvalues --   -0.64314  -0.62586  -0.61648  -0.60854  -0.59978
 Alpha  occ. eigenvalues --   -0.58508  -0.58283  -0.57433  -0.56616  -0.55601
 Alpha  occ. eigenvalues --   -0.53447  -0.52387  -0.51355  -0.49996  -0.49654
 Alpha  occ. eigenvalues --   -0.48216  -0.47096  -0.46477  -0.43514  -0.43137
 Alpha  occ. eigenvalues --   -0.40108  -0.39869
 Alpha virt. eigenvalues --    0.02305   0.02972   0.03568   0.03872   0.05068
 Alpha virt. eigenvalues --    0.05218   0.05734   0.06149   0.06778   0.07295
 Alpha virt. eigenvalues --    0.07658   0.08080   0.08140   0.08832   0.09784

 Mulliken charges:
               1
     1  C    0.224871
     2  C    0.719039
     3  C   -1.028285
     4  C    0.872830
     5  C    0.831188
     6  C    0.539140
     7  C    0.522568
     8  C    0.698101
     9  C    0.280102
    10  H   -0.219346
    11  H    0.152295
    12  H   -0.228812
    13  H    0.229528
    14  H   -0.112351
    15  H    0.202226
    16  H   -0.143377
    17  H    0.014899
    18  H   -0.053381
    19  H    0.250434
    20  H   -0.022364
    21  H    0.075813
    22  H   -0.002109
    23  H    0.037943
    24  H   -0.131969
    25  H   -0.203587
    26  N   -0.224839
    27  N   -0.249075
    28  O   -0.601806
    29  O   -0.642809
    30  O   -0.550973
    31  O   -0.655493
    32  O   -0.580403
 Sum of Mulliken charges =  -0.00000

 Dipole moment (field-independent basis, Debye):
    X=             -0.9262    Y=              4.4309    Z=              2.3160  Tot=              5.0847

 Test job not archived.
 1\1\GINC-SE016\SP\RHF\Aug-CC-pVDZ\C9H16N2O5\OHZDE\08-Apr-2025\0\\#t hf
  aug-cc-pvdz iop(5/13=1,5/36=2,99/5=2) pseudo=read geom=check guess=(r
 ead,tcheck) scf=(maxcycle=1)\\title\\0,1\C,0,1.89429,1.04065,-0.882322
 \C,0,-3.05612,1.79144,-0.496915\C,0,-2.64158,0.848588,0.761443\C,0,-1.
 82296,-1.09941,-0.534447\C,0,-3.8573,0.050296,1.31318\C,0,3.1732,-0.49
 1164,0.552785\C,0,3.28847,0.2686,-0.764297\C,0,0.732268,0.144301,-0.61
 012\C,0,-1.48251,-0.124875,0.626931\H,0,-3.71458,2.57022,-0.181032\H,0
 ,-1.94982,-2.93682,-0.93649\H,0,-4.01998,-0.849461,0.846607\H,0,-3.515

 Normal termination of Gaussian 16 at Tue Apr  8 20:52:53 2025.
