 Gaussian 16, Revision C.01,

 ----------------------------------------------------------------------
 #t hf aug-cc-pvdz symm=none int=(grid=ultrafine) guess=(read,tcheck) s
 table=(opt,rrhf)
 ----------------------------------------------------------------------
 -----
 title
 -----
 Symbolic Z-matrix:
 Charge =  0 Multiplicity = 1

 SCF Done:  E(RHF) =  -489.691470730     A.U. after   15 cycles
 Normal termination of Gaussian 16 at Tue Apr  8 22:12:09 2025.
 Gaussian 16:  ES64L-G16RevC.01  3-Jul-2019

 ----------------------------------------------------------------------
 #t hf aug-cc-pvdz iop(5/13=1,5/36=2,99/5=2) pseudo=read geom=check gue
 ss=(read,tcheck) scf=(maxcycle=1)
 ----------------------------------------------------------------------
 -----
 title
 -----
 Structure from the checkpoint file:  "ANI1ccx_957_conf48_mol1.chk"
 Charge =  0 Multiplicity = 1

                         Standard orientation:
 ---------------------------------------------------------------------
 Center     Atomic      Atomic             Coordinates (Angstroms)
 Number     Number       Type             X           Y           Z
 ---------------------------------------------------------------------
      1          6           0        0.716829    0.316861    0.876480
      2          6           0        1.378320   -0.643293   -0.131385
      3          6           0       -0.753474   -0.100158    1.126289
      4          6           0       -1.721320   -0.135008   -0.103356
      5          1           0        2.072539    0.854675   -0.749428
      6          1           0       -2.163832    1.385158   -1.554501
      7          1           0       -0.473368    0.999917   -1.294431
      8          1           0       -1.210131    0.530970    1.863249
      9          1           0        1.190839    0.069775    1.816749
     10          1           0        0.167124    2.099791    0.093130
     11          1           0        1.339727    2.247412    1.243719
     12          1           0       -0.845146   -1.123650    1.708079
     13          7           0        1.001058    1.678782    0.479692
     14          7           0       -1.467441    0.916198   -1.030181
     15          8           0       -2.661260   -0.845770   -0.124440
     16          8           0        1.332731   -1.852248   -0.009797
     17          8           0        2.011629   -0.034396   -1.100931
 ---------------------------------------------------------------------

 SCF Done:  E(RHF) =  -489.843490292     A.U. after    2 cycles

 The electronic state is 1-A.
 Alpha  occ. eigenvalues --  -20.62563 -20.56671 -20.55606 -15.66344 -15.65621
 Alpha  occ. eigenvalues --  -11.39736 -11.38713 -11.31968 -11.28201  -1.44306
 Alpha  occ. eigenvalues --   -1.38938  -1.32930  -1.22124  -1.17398  -1.04215
 Alpha  occ. eigenvalues --   -0.93389  -0.84338  -0.80775  -0.77157  -0.73666
 Alpha  occ. eigenvalues --   -0.70758  -0.69641  -0.68363  -0.66106  -0.65256
 Alpha  occ. eigenvalues --   -0.62802  -0.60161  -0.57946  -0.56178  -0.52777
 Alpha  occ. eigenvalues --   -0.49288  -0.48745  -0.44853  -0.43764  -0.43284
 Alpha virt. eigenvalues --    0.01585   0.02808   0.03766   0.04566   0.06271
 Alpha virt. eigenvalues --    0.07172   0.07589   0.08025   0.09928   0.11121
 Alpha virt. eigenvalues --    0.11577   0.12440   0.13390   0.13896   0.14199

 Mulliken charges:
               1
     1  C    0.206651
     2  C    0.673814
     3  C    0.306359
     4  C    0.450681
     5  H    0.268909
     6  H   -0.076437
     7  H    0.119239
     8  H   -0.119576
     9  H    0.025279
    10  H    0.131082
    11  H    0.058519
    12  H    0.124782
    13  N   -0.557727
    14  N   -0.262264
    15  O   -0.392589
    16  O   -0.530593
    17  O   -0.426128
 Sum of Mulliken charges =  -0.00000

 Dipole moment (field-independent basis, Debye):
    X=              0.9744    Y=              7.4478    Z=              2.3031  Tot=              7.8565

 Test job not archived.
 1\1\GINC-SE110\SP\RHF\Aug-CC-pVDZ\C4H8N2O3\OHZDE\08-Apr-2025\0\\#t hf
 aug-cc-pvdz iop(5/13=1,5/36=2,99/5=2) pseudo=read geom=check guess=(re
 ad,tcheck) scf=(maxcycle=1)\\title\\0,1\C,0,0.71683,0.31686,0.876481\C
 ,0,1.37832,-0.643295,-0.131384\C,0,-0.753474,-0.100158,1.12629\C,0,-1.
 72132,-0.135007,-0.103355\H,0,2.07254,0.854672,-0.749427\H,0,-2.16383,
 1.38516,-1.5545\H,0,-0.473366,0.999917,-1.29443\H,0,-1.21013,0.530971,
 1.86325\H,0,1.19084,0.0697733,1.81675\H,0,0.167127,2.09979,0.0931308\H
 ,0,1.33973,2.24741,1.24372\H,0,-0.845147,-1.12365,1.70808\N,0,1.00106,

 Normal termination of Gaussian 16 at Tue Apr  8 22:12:17 2025.
