 Gaussian 16, Revision C.01,

 ----------------------------------------------------------------------
 #t hf aug-cc-pvdz symm=none int=(grid=ultrafine) guess=(read,tcheck) s
 table=(opt,rrhf)
 ----------------------------------------------------------------------
 -----
 title
 -----
 Symbolic Z-matrix:
 Charge =  0 Multiplicity = 1

 SCF Done:  E(RHF) =  -528.736581913     A.U. after   14 cycles
 Normal termination of Gaussian 16 at Tue Apr  8 22:16:17 2025.
 Gaussian 16:  ES64L-G16RevC.01  3-Jul-2019

 ----------------------------------------------------------------------
 #t hf aug-cc-pvdz iop(5/13=1,5/36=2,99/5=2) pseudo=read geom=check gue
 ss=(read,tcheck) scf=(maxcycle=1)
 ----------------------------------------------------------------------
 -----
 title
 -----
 Structure from the checkpoint file:  "ANI1ccx_998_conf3_mol1.chk"
 Charge =  0 Multiplicity = 1

                         Standard orientation:
 ---------------------------------------------------------------------
 Center     Atomic      Atomic             Coordinates (Angstroms)
 Number     Number       Type             X           Y           Z
 ---------------------------------------------------------------------
      1          6           0        0.920029    0.109761    0.366080
      2          6           0        2.321420   -0.247920   -0.072568
      3          6           0       -0.096618   -0.997719    0.126670
      4          6           0       -1.421100   -0.745339    0.885825
      5          6           0       -2.456600   -0.047399    0.059751
      6          1           0        2.763769    1.296411    0.817788
      7          1           0       -3.127251    1.694229   -0.598124
      8          1           0       -1.882950   -1.704160    1.175630
      9          1           0       -1.197190   -0.162632    1.790670
     10          1           0       -1.432281    1.748380   -0.241366
     11          1           0        1.199789    2.040840   -0.127565
     12          1           0        0.469690    1.116050   -1.342680
     13          1           0        0.974601    0.280219    1.457870
     14          1           0       -0.211014   -1.156550   -0.948716
     15          1           0        0.340385   -1.973800    0.378555
     16          7           0        0.513840    1.325710   -0.339139
     17          7           0       -2.341201    1.309609   -0.100904
     18          8           0       -3.376500   -0.673372   -0.471025
     19          8           0        2.502860   -1.126789   -0.868746
     20          8           0        3.285040    0.543346    0.405233
 ---------------------------------------------------------------------

 SCF Done:  E(RHF) =  -528.899426277     A.U. after    2 cycles

 The electronic state is 1-A.
 Alpha  occ. eigenvalues --  -20.66062 -20.57774 -20.53339 -15.66833 -15.62918
 Alpha  occ. eigenvalues --  -11.40996 -11.36036 -11.31777 -11.26359 -11.25749
 Alpha  occ. eigenvalues --   -1.45068  -1.35548  -1.33555  -1.22171  -1.16184
 Alpha  occ. eigenvalues --   -1.07120  -0.98379  -0.89308  -0.84403  -0.77997
 Alpha  occ. eigenvalues --   -0.76732  -0.73893  -0.70920  -0.69548  -0.68641
 Alpha  occ. eigenvalues --   -0.67249  -0.63864  -0.63034  -0.59627  -0.58881
 Alpha  occ. eigenvalues --   -0.58355  -0.52834  -0.52230  -0.51424  -0.51264
 Alpha  occ. eigenvalues --   -0.50538  -0.44586  -0.42652  -0.40789
 Alpha virt. eigenvalues --    0.01384   0.02893   0.03977   0.04468   0.05933
 Alpha virt. eigenvalues --    0.06409   0.06784   0.07484   0.08152   0.09132
 Alpha virt. eigenvalues --    0.10447   0.10645   0.11497   0.12164   0.12813

 Mulliken charges:
               1
     1  C    0.004700
     2  C    0.786530
     3  C    0.443103
     4  C    0.556001
     5  C    0.631021
     6  H    0.238721
     7  H   -0.015194
     8  H   -0.049020
     9  H   -0.033472
    10  H    0.108795
    11  H    0.009371
    12  H    0.140869
    13  H   -0.209724
    14  H   -0.095552
    15  H   -0.194833
    16  N   -0.538380
    17  N   -0.218190
    18  O   -0.608665
    19  O   -0.449999
    20  O   -0.506080
 Sum of Mulliken charges =  -0.00000

 Dipole moment (field-independent basis, Debye):
    X=              2.3123    Y=              4.8826    Z=              2.6504  Tot=              6.0176

 Test job not archived.
 1\1\GINC-SE221\SP\RHF\Aug-CC-pVDZ\C5H10N2O3\OHZDE\08-Apr-2025\0\\#t hf
  aug-cc-pvdz iop(5/13=1,5/36=2,99/5=2) pseudo=read geom=check guess=(r
 ead,tcheck) scf=(maxcycle=1)\\title\\0,1\C,0,0.920029,0.109761,0.36608
 \C,0,2.32142,-0.247921,-0.0725674\C,0,-0.096618,-0.997719,0.12667\C,0,
 -1.4211,-0.745339,0.885825\C,0,-2.4566,-0.0473987,0.0597514\H,0,2.7637
 7,1.29641,0.817788\H,0,-3.12725,1.69423,-0.598124\H,0,-1.88295,-1.7041
 6,1.17563\H,0,-1.19719,-0.162632,1.79067\H,0,-1.43228,1.74838,-0.24136
 6\H,0,1.19979,2.04084,-0.127565\H,0,0.469691,1.11605,-1.34268\H,0,0.97

 Normal termination of Gaussian 16 at Tue Apr  8 22:16:28 2025.
