 Gaussian 16, Revision C.01,

 ----------------------------------------------------------------------
 #t hf aug-cc-pvdz symm=none int=(grid=ultrafine) guess=(read,tcheck) s
 table=(opt,rrhf)
 ----------------------------------------------------------------------
 -----
 title
 -----
 Symbolic Z-matrix:
 Charge =  0 Multiplicity = 1

 SCF Done:  E(RHF) =  -564.587316308     A.U. after   14 cycles
 Normal termination of Gaussian 16 at Tue Apr  8 22:13:31 2025.
 Gaussian 16:  ES64L-G16RevC.01  3-Jul-2019

 ----------------------------------------------------------------------
 #t hf aug-cc-pvdz iop(5/13=1,5/36=2,99/5=2) pseudo=read geom=check gue
 ss=(read,tcheck) scf=(maxcycle=1)
 ----------------------------------------------------------------------
 -----
 title
 -----
 Structure from the checkpoint file:  "ANI1ccx_958_conf3_mol1.chk"
 Charge =  0 Multiplicity = 1

                         Standard orientation:
 ---------------------------------------------------------------------
 Center     Atomic      Atomic             Coordinates (Angstroms)
 Number     Number       Type             X           Y           Z
 ---------------------------------------------------------------------
      1          6           0       -2.324941   -1.573871    0.775231
      2          6           0       -0.409865   -0.294203    0.162429
      3          6           0        2.059949   -0.310916   -0.120464
      4          6           0       -0.950535    1.143840   -0.108130
      5          1           0       -2.159601    0.274006   -1.076840
      6          1           0        1.380098    1.345421    0.780715
      7          1           0        3.038658    0.941430    1.212640
      8          1           0        0.735943   -1.246179   -1.320540
      9          1           0       -3.010690   -2.327351    0.354879
     10          1           0       -2.844551   -0.650173    1.087000
     11          1           0       -1.747050   -1.951070    1.620330
     12          1           0       -0.250730   -0.375368    1.241990
     13          7           0        0.784617   -0.538627   -0.582045
     14          7           0        2.128909    0.663653    0.858710
     15          8           0       -1.978622    1.213050   -0.898844
     16          8           0       -1.360051   -1.248360   -0.239203
     17          8           0        3.026499   -0.918045   -0.493231
     18          8           0       -0.410878    2.118980    0.369876
 ---------------------------------------------------------------------

 SCF Done:  E(RHF) =  -564.766691188     A.U. after    2 cycles

 The electronic state is 1-A.
 Alpha  occ. eigenvalues --  -20.65495 -20.63764 -20.58132 -20.52996 -15.66602
 Alpha  occ. eigenvalues --  -15.63487 -11.41960 -11.39455 -11.38777 -11.33801
 Alpha  occ. eigenvalues --   -1.47133  -1.40490  -1.36952  -1.35693  -1.22895
 Alpha  occ. eigenvalues --   -1.15287  -1.02198  -0.95040  -0.86781  -0.83659
 Alpha  occ. eigenvalues --   -0.80846  -0.75372  -0.74325  -0.71651  -0.68640
 Alpha  occ. eigenvalues --   -0.68217  -0.66637  -0.65520  -0.64661  -0.62437
 Alpha  occ. eigenvalues --   -0.61024  -0.59115  -0.56298  -0.53733  -0.51752
 Alpha  occ. eigenvalues --   -0.48824  -0.45932  -0.42006  -0.41594
 Alpha virt. eigenvalues --    0.02180   0.03522   0.04535   0.04635   0.05445
 Alpha virt. eigenvalues --    0.06609   0.07596   0.07716   0.09844   0.10860
 Alpha virt. eigenvalues --    0.11170   0.12112   0.12616   0.13257   0.13785

 Mulliken charges:
               1
     1  C    0.691144
     2  C    0.959522
     3  C    0.686845
     4  C    0.585575
     5  H    0.270591
     6  H    0.083042
     7  H   -0.030306
     8  H   -0.038599
     9  H   -0.149636
    10  H   -0.025844
    11  H   -0.055324
    12  H   -0.158359
    13  N   -0.493532
    14  N   -0.167291
    15  O   -0.410262
    16  O   -0.779190
    17  O   -0.473379
    18  O   -0.494997
 Sum of Mulliken charges =  -0.00000

 Dipole moment (field-independent basis, Debye):
    X=             -5.0046    Y=             -2.3890    Z=              1.7908  Tot=              5.8276

 Test job not archived.
 1\1\GINC-SE051\SP\RHF\Aug-CC-pVDZ\C4H8N2O4\OHZDE\08-Apr-2025\0\\#t hf
 aug-cc-pvdz iop(5/13=1,5/36=2,99/5=2) pseudo=read geom=check guess=(re
 ad,tcheck) scf=(maxcycle=1)\\title\\0,1\C,0,-2.32494,-1.57387,0.775231
 \C,0,-0.409864,-0.294203,0.162429\C,0,2.05995,-0.310917,-0.120464\C,0,
 -0.950533,1.14384,-0.10813\H,0,-2.1596,0.274007,-1.07684\H,0,1.3801,1.
 34542,0.780715\H,0,3.03866,0.941429,1.21264\H,0,0.735944,-1.24618,-1.3
 2054\H,0,-3.01069,-2.32735,0.354879\H,0,-2.84455,-0.650172,1.087\H,0,-
 1.74705,-1.95107,1.62033\H,0,-0.250729,-0.375368,1.24199\N,0,0.784618,

 Normal termination of Gaussian 16 at Tue Apr  8 22:13:40 2025.
