 Gaussian 16, Revision C.01,

 ----------------------------------------------------------------------
 #t hf aug-cc-pvdz symm=none int=(grid=ultrafine) guess=(read,tcheck) s
 table=(opt,rrhf)
 ----------------------------------------------------------------------
 -----
 title
 -----
 Symbolic Z-matrix:
 Charge =  0 Multiplicity = 1

 SCF Done:  E(RHF) =  -276.585661493     A.U. after   15 cycles
 Normal termination of Gaussian 16 at Tue Apr  8 21:15:23 2025.
 Gaussian 16:  ES64L-G16RevC.01  3-Jul-2019

 ----------------------------------------------------------------------
 #t hf aug-cc-pvdz iop(5/13=1,5/36=2,99/5=2) pseudo=read geom=check gue
 ss=(read,tcheck) scf=(maxcycle=1)
 ----------------------------------------------------------------------
 -----
 title
 -----
 Structure from the checkpoint file:  "ANI1ccx_370_conf35_mol1.chk"
 Charge =  0 Multiplicity = 1

                         Standard orientation:
 ---------------------------------------------------------------------
 Center     Atomic      Atomic             Coordinates (Angstroms)
 Number     Number       Type             X           Y           Z
 ---------------------------------------------------------------------
      1          6           0        0.995364    0.346826    0.023436
      2          1           0        2.051691    0.645874    0.017360
      3          7           0       -0.023449    1.180219   -0.004546
      4          7           0       -1.101729    0.371289   -0.017586
      5          7           0       -0.750191   -0.857147    0.031903
      6          8           0        0.637964   -0.948421   -0.028297
 ---------------------------------------------------------------------

 SCF Done:  E(RHF) =  -276.664739445     A.U. after    2 cycles

 The electronic state is 1-A.
 Alpha  occ. eigenvalues --  -20.72914 -15.78223 -15.75901 -15.70442 -11.40886
 Alpha  occ. eigenvalues --   -1.54700  -1.33791  -1.19903  -0.92328  -0.92072
 Alpha  occ. eigenvalues --   -0.78552  -0.73916  -0.67375  -0.59283  -0.54134
 Alpha  occ. eigenvalues --   -0.51485  -0.50260  -0.44233
 Alpha virt. eigenvalues --    0.02652   0.05837   0.07451   0.09220   0.09797
 Alpha virt. eigenvalues --    0.13003   0.13208   0.15165   0.15300   0.17567
 Alpha virt. eigenvalues --    0.18459   0.20085   0.20707   0.23160   0.25516

 Mulliken charges:
               1
     1  C    0.892405
     2  H   -0.109309
     3  N   -0.331938
     4  N   -0.035085
     5  N    0.084030
     6  O   -0.500103
 Sum of Mulliken charges =  -0.00000

 Dipole moment (field-independent basis, Debye):
    X=              3.0648    Y=              0.2013    Z=              0.0608  Tot=              3.0720

 Test job not archived.
 1\1\GINC-SE015\SP\RHF\Aug-CC-pVDZ\C1H1N3O1\OHZDE\08-Apr-2025\0\\#t hf
 aug-cc-pvdz iop(5/13=1,5/36=2,99/5=2) pseudo=read geom=check guess=(re
 ad,tcheck) scf=(maxcycle=1)\\title\\0,1\C,0,0.995363,0.34683,0.0234361
 \H,0,2.05169,0.645881,0.0173602\N,0,-0.0234517,1.18022,-0.004546\N,0,-
 1.10173,0.371287,-0.0175857\N,0,-0.750188,-0.857148,0.0319029\O,0,0.63
 7967,-0.948418,-0.0282969\\Version=ES64L-G16RevC.01\State=1-A\HF=-276.
 6647394\RMSD=3.236e-03\Dipole=1.2057712,0.0792118,0.0239323\Quadrupole
 =2.3763038,-3.142591,0.7662872,1.1650912,0.0842661,0.0054471\PG=C01 [X

 Normal termination of Gaussian 16 at Tue Apr  8 21:15:25 2025.
