 Gaussian 16, Revision C.01,

 ----------------------------------------------------------------------
 #t hf aug-cc-pvdz symm=none int=(grid=ultrafine) guess=(read,tcheck) s
 table=(opt,rrhf)
 ----------------------------------------------------------------------
 -----
 title
 -----
 Symbolic Z-matrix:
 Charge =  0 Multiplicity = 1

 SCF Done:  E(RHF) =  -700.889968203     A.U. after   14 cycles
 Normal termination of Gaussian 16 at Tue Apr  8 20:18:26 2025.
 Gaussian 16:  ES64L-G16RevC.01  3-Jul-2019

 ----------------------------------------------------------------------
 #t hf aug-cc-pvdz iop(5/13=1,5/36=2,99/5=2) pseudo=read geom=check gue
 ss=(read,tcheck) scf=(maxcycle=1)
 ----------------------------------------------------------------------
 -----
 title
 -----
 Structure from the checkpoint file:  "ANI1ccx_1633_conf1_mol1.chk"
 Charge =  0 Multiplicity = 1

                         Standard orientation:
 ---------------------------------------------------------------------
 Center     Atomic      Atomic             Coordinates (Angstroms)
 Number     Number       Type             X           Y           Z
 ---------------------------------------------------------------------
      1          6           0        0.388622    0.832218    0.591115
      2          6           0       -0.969786    0.958510   -0.089449
      3          6           0        1.479721    0.921456   -0.486526
      4          6           0        2.925491    1.193820   -0.011570
      5          6           0        3.651401    0.076355    0.771085
      6          6           0        3.729491   -1.295070    0.084972
      7          6           0       -2.763719   -0.190438   -1.137080
      8          6           0       -3.748999   -0.643160   -0.082503
      9          1           0       -3.768269   -1.174439    1.672390
     10          1           0       -3.046499    0.830981   -1.403300
     11          1           0       -2.830869   -0.733946   -2.059820
     12          1           0       -1.030139   -1.074040   -0.314703
     13          1           0        4.594351   -2.128480   -1.564240
     14          1           0        4.011741   -0.664744   -1.814220
     15          1           0        4.126561   -2.014640    0.757134
     16          1           0        2.708221   -1.604400   -0.179547
     17          1           0        3.263141    0.002877    1.796890
     18          1           0        3.495721    1.486260   -0.868849
     19          1           0        2.882661    2.022340    0.679069
     20          1           0        1.474521    0.125311   -1.227280
     21          1           0        1.240331    1.782420   -1.107770
     22          1           0        0.444363    1.740610    1.230570
     23          1           0        1.334501   -0.448748    1.847390
     24          1           0       -0.357418   -0.611773    1.943980
     25          1           0        4.681871    0.406142    0.975099
     26          7           0        0.451371   -0.403739    1.348960
     27          7           0        4.550211   -1.203830   -1.123050
     28          7           0       -1.404379   -0.171407   -0.676690
     29          8           0       -4.922149   -0.769336   -0.324037
     30          8           0       -1.525629    2.029510   -0.157769
     31          8           0       -3.122039   -0.836554    1.100860
 ---------------------------------------------------------------------

 SCF Done:  E(RHF) =  -701.105856233     A.U. after    2 cycles

 The electronic state is 1-A.
 Alpha  occ. eigenvalues --  -20.64710 -20.57967 -20.54101 -15.65455 -15.62390
 Alpha  occ. eigenvalues --  -15.61288 -11.41531 -11.35849 -11.29111 -11.28366
 Alpha  occ. eigenvalues --  -11.25736 -11.24047 -11.23598 -11.23533  -1.45043
 Alpha  occ. eigenvalues --   -1.36262  -1.35279  -1.22081  -1.17230  -1.15541
 Alpha  occ. eigenvalues --   -1.05912  -1.01905  -0.98487  -0.91856  -0.87306
 Alpha  occ. eigenvalues --   -0.84918  -0.79462  -0.77723  -0.74426  -0.73952
 Alpha  occ. eigenvalues --   -0.70663  -0.68401  -0.67632  -0.66799  -0.65435
 Alpha  occ. eigenvalues --   -0.63931  -0.63343  -0.62597  -0.60076  -0.59083
 Alpha  occ. eigenvalues --   -0.58018  -0.57047  -0.56625  -0.54966  -0.53362
 Alpha  occ. eigenvalues --   -0.52571  -0.51186  -0.49517  -0.48490  -0.48020
 Alpha  occ. eigenvalues --   -0.46401  -0.43044  -0.41019  -0.40006  -0.39039
 Alpha virt. eigenvalues --    0.02420   0.02923   0.03471   0.03846   0.04857
 Alpha virt. eigenvalues --    0.05524   0.05817   0.06187   0.06534   0.07519
 Alpha virt. eigenvalues --    0.07780   0.08271   0.08359   0.09069   0.09752

 Mulliken charges:
               1
     1  C    0.618815
     2  C    0.437764
     3  C    0.118140
     4  C    0.466082
     5  C    0.250207
     6  C    0.957486
     7  C    0.522555
     8  C    0.568505
     9  H    0.152728
    10  H    0.045088
    11  H   -0.190474
    12  H    0.120224
    13  H    0.011788
    14  H    0.046081
    15  H   -0.259753
    16  H   -0.194505
    17  H   -0.207463
    18  H   -0.153566
    19  H   -0.058927
    20  H   -0.263575
    21  H   -0.092544
    22  H   -0.130122
    23  H   -0.039270
    24  H   -0.001766
    25  H   -0.102980
    26  N   -0.306795
    27  N   -0.420317
    28  N   -0.300915
    29  O   -0.497680
    30  O   -0.598786
    31  O   -0.496028
 Sum of Mulliken charges =  -0.00000

 Dipole moment (field-independent basis, Debye):
    X=              2.1322    Y=             -3.5985    Z=              1.4111  Tot=              4.4144

 Test job not archived.
 1\1\GINC-SE461\SP\RHF\Aug-CC-pVDZ\C8H17N3O3\OHZDE\08-Apr-2025\0\\#t hf
  aug-cc-pvdz iop(5/13=1,5/36=2,99/5=2) pseudo=read geom=check guess=(r
 ead,tcheck) scf=(maxcycle=1)\\title\\0,1\C,0,0.388621,0.832218,0.59111
 5\C,0,-0.969787,0.95851,-0.0894489\C,0,1.47972,0.921456,-0.486526\C,0,
 2.92549,1.19382,-0.0115695\C,0,3.6514,0.0763555,0.771085\C,0,3.72949,-
 1.29507,0.0849726\C,0,-2.76372,-0.190439,-1.13708\C,0,-3.749,-0.643161
 ,-0.0825024\H,0,-3.76827,-1.17444,1.67239\H,0,-3.0465,0.83098,-1.4033\
 H,0,-2.83087,-0.733947,-2.05982\H,0,-1.03014,-1.07404,-0.314703\H,0,4.

 Normal termination of Gaussian 16 at Tue Apr  8 20:18:59 2025.
