 Gaussian 16, Revision C.01,

 ----------------------------------------------------------------------
 #t hf aug-cc-pvdz symm=none int=(grid=ultrafine) guess=(read,tcheck) s
 table=(opt,rrhf)
 ----------------------------------------------------------------------
 -----
 title
 -----
 Symbolic Z-matrix:
 Charge =  0 Multiplicity = 1

 SCF Done:  E(RHF) =  -795.516174682     A.U. after   14 cycles
 Normal termination of Gaussian 16 at Tue Apr  8 20:16:11 2025.
 Gaussian 16:  ES64L-G16RevC.01  3-Jul-2019

 ----------------------------------------------------------------------
 #t hf aug-cc-pvdz iop(5/13=1,5/36=2,99/5=2) pseudo=read geom=check gue
 ss=(read,tcheck) scf=(maxcycle=1)
 ----------------------------------------------------------------------
 -----
 title
 -----
 Structure from the checkpoint file:  "ANI1ccx_1619_conf14_mol1.chk"
 Charge =  0 Multiplicity = 1

                         Standard orientation:
 ---------------------------------------------------------------------
 Center     Atomic      Atomic             Coordinates (Angstroms)
 Number     Number       Type             X           Y           Z
 ---------------------------------------------------------------------
      1          6           0       -2.097750   -0.300331    0.739570
      2          6           0       -0.740717   -0.693020    0.069833
      3          6           0       -3.100490    0.466683   -0.259759
      4          6           0       -3.234980   -0.144706   -1.662569
      5          6           0        1.527860   -0.042848   -0.467432
      6          6           0        2.512259   -1.146082   -0.047798
      7          6           0        2.405670    1.307348   -0.500085
      8          6           0        1.645101    2.510329   -0.784737
      9          1           0        1.054799   -2.359761   -0.364816
     10          1           0        0.815467    2.779109   -0.144925
     11          1           0        2.374412    3.420978   -0.827485
     12          1           0        1.360411    2.340989   -1.850029
     13          1           0        3.858630    0.574695    0.712580
     14          1           0        3.048110    1.071838   -1.359819
     15          1           0        1.115710   -0.228089   -1.493889
     16          1           0        0.132844    0.591347    1.072721
     17          1           0       -3.096101   -1.204589   -1.556489
     18          1           0       -4.189720    0.224118   -2.118169
     19          1           0       -2.387460    0.205489   -2.267359
     20          1           0       -4.901610    1.214592    0.701333
     21          1           0       -2.746489    1.523781   -0.375850
     22          1           0       -2.302901   -1.340929    0.979624
     23          1           0       -2.691030    0.048871    2.585291
     24          1           0       -2.076209    1.492600    1.694161
     25          7           0       -1.936150    0.458043    1.923081
     26          7           0        0.286403    0.032282    0.337591
     27          8           0       -0.725433   -1.719190   -0.592004
     28          8           0       -4.478900    0.366990    0.311332
     29          8           0        3.607319   -0.933660    0.472179
     30          8           0        3.233831    1.457248    0.649095
     31          8           0        1.947889   -2.362832   -0.057312
 ---------------------------------------------------------------------

 SCF Done:  E(RHF) =  -795.756741457     A.U. after    2 cycles

 The electronic state is 1-A.
 Alpha  occ. eigenvalues --  -20.62534 -20.59345 -20.58973 -20.55927 -20.54584
 Alpha  occ. eigenvalues --  -15.67570 -15.65211 -11.43100 -11.37695 -11.33486
 Alpha  occ. eigenvalues --  -11.33126 -11.31058 -11.30168 -11.24752 -11.23814
 Alpha  occ. eigenvalues --   -1.43501  -1.38663  -1.35185  -1.30435  -1.28383
 Alpha  occ. eigenvalues --   -1.25531  -1.18916  -1.06524  -1.02969  -0.99852
 Alpha  occ. eigenvalues --   -0.93287  -0.87597  -0.84577  -0.83565  -0.81684
 Alpha  occ. eigenvalues --   -0.77937  -0.73932  -0.72389  -0.70521  -0.69666
 Alpha  occ. eigenvalues --   -0.68192  -0.67165  -0.65544  -0.64554  -0.63542
 Alpha  occ. eigenvalues --   -0.61527  -0.60715  -0.59837  -0.58180  -0.57734
 Alpha  occ. eigenvalues --   -0.56636  -0.55608  -0.54537  -0.53386  -0.52454
 Alpha  occ. eigenvalues --   -0.51736  -0.50877  -0.50008  -0.49060  -0.47733
 Alpha  occ. eigenvalues --   -0.46828  -0.45248  -0.41798  -0.40443
 Alpha virt. eigenvalues --    0.01762   0.02920   0.03685   0.04012   0.05111
 Alpha virt. eigenvalues --    0.05594   0.05917   0.06067   0.06538   0.07412
 Alpha virt. eigenvalues --    0.07896   0.08233   0.08420   0.09151   0.09590

 Mulliken charges:
               1
     1  C    0.549027
     2  C   -0.122151
     3  C    0.372474
     4  C    0.435597
     5  C   -0.159655
     6  C    0.929081
     7  C    0.799606
     8  C    0.392727
     9  H    0.160073
    10  H   -0.106006
    11  H    0.121378
    12  H    0.123609
    13  H    0.407154
    14  H   -0.240380
    15  H   -0.054218
    16  H   -0.161775
    17  H    0.001454
    18  H    0.032355
    19  H    0.034311
    20  H    0.225774
    21  H   -0.169603
    22  H    0.028516
    23  H    0.157553
    24  H    0.166022
    25  N   -0.493221
    26  N   -0.131705
    27  O   -0.670171
    28  O   -0.747774
    29  O   -0.594633
    30  O   -0.858854
    31  O   -0.426566
 Sum of Mulliken charges =  -0.00000

 Dipole moment (field-independent basis, Debye):
    X=             -4.6484    Y=              4.1195    Z=             -1.2439  Tot=              6.3344

 Test job not archived.
 1\1\GINC-SE177\SP\RHF\Aug-CC-pVDZ\C8H16N2O5\OHZDE\08-Apr-2025\0\\#t hf
  aug-cc-pvdz iop(5/13=1,5/36=2,99/5=2) pseudo=read geom=check guess=(r
 ead,tcheck) scf=(maxcycle=1)\\title\\0,1\C,0,-2.09775,-0.300331,0.7395
 69\C,0,-0.740716,-0.69302,0.0698328\C,0,-3.10049,0.466682,-0.25976\C,0
 ,-3.23498,-0.144707,-1.66257\C,0,1.52786,-0.0428467,-0.467433\C,0,2.51
 226,-1.14608,-0.0477983\C,0,2.40567,1.30735,-0.500086\C,0,1.6451,2.510
 33,-0.784738\H,0,1.0548,-2.35976,-0.364817\H,0,0.815466,2.77911,-0.144
 926\H,0,2.37441,3.42098,-0.827486\H,0,1.36041,2.34099,-1.85003\H,0,3.8

 Normal termination of Gaussian 16 at Tue Apr  8 20:16:50 2025.
