 Gaussian 16, Revision C.01,

 ----------------------------------------------------------------------
 #t hf aug-cc-pvdz symm=none int=(grid=ultrafine) guess=(read,tcheck) s
 table=(opt,rrhf)
 ----------------------------------------------------------------------
 -----
 title
 -----
 Symbolic Z-matrix:
 Charge =  0 Multiplicity = 1

 SCF Done:  E(RHF) =  -281.817221804     A.U. after   14 cycles
 Normal termination of Gaussian 16 at Tue Apr  8 21:11:19 2025.
 Gaussian 16:  ES64L-G16RevC.01  3-Jul-2019

 ----------------------------------------------------------------------
 #t hf aug-cc-pvdz iop(5/13=1,5/36=2,99/5=2) pseudo=read geom=check gue
 ss=(read,tcheck) scf=(maxcycle=1)
 ----------------------------------------------------------------------
 -----
 title
 -----
 Structure from the checkpoint file:  "ANI1ccx_1889_conf2_mol1.chk"
 Charge =  0 Multiplicity = 1

                         Standard orientation:
 ---------------------------------------------------------------------
 Center     Atomic      Atomic             Coordinates (Angstroms)
 Number     Number       Type             X           Y           Z
 ---------------------------------------------------------------------
      1          1           0        0.729647   -0.648781   -0.186316
      2          1           0        2.736230    0.868844   -0.255518
      3          1           0       -1.428500    1.333131   -0.192758
      4          1           0       -1.896671   -0.934909    1.101150
      5          1           0       -1.692091   -1.248649   -0.458057
      6          7           0       -1.476430   -0.581449    0.231760
      7          8           0        1.646220   -0.662430   -0.273970
      8          8           0        1.967200    0.613739    0.276875
      9          8           0       -2.127620    0.636255   -0.206757
 ---------------------------------------------------------------------

 SCF Done:  E(RHF) =  -281.909186064     A.U. after    2 cycles

 The electronic state is 1-A.
 Alpha  occ. eigenvalues --  -20.63292 -20.62107 -20.61973 -15.68810  -1.42967
 Alpha  occ. eigenvalues --   -1.35407  -1.18670  -1.07820  -0.73834  -0.71078
 Alpha  occ. eigenvalues --   -0.70890  -0.69298  -0.64075  -0.63557  -0.54817
 Alpha  occ. eigenvalues --   -0.51665  -0.47319  -0.44027
 Alpha virt. eigenvalues --    0.03711   0.04227   0.05314   0.05778   0.08225
 Alpha virt. eigenvalues --    0.13576   0.15002   0.17182   0.18512   0.19821
 Alpha virt. eigenvalues --    0.20012   0.20648   0.21039   0.21972   0.23380

 Mulliken charges:
               1
     1  H    0.212357
     2  H    0.219204
     3  H    0.209608
     4  H    0.151321
     5  H    0.062723
     6  N    0.015993
     7  O   -0.138837
     8  O   -0.266263
     9  O   -0.466107
 Sum of Mulliken charges =  -0.00000

 Dipole moment (field-independent basis, Debye):
    X=             -0.3808    Y=             -0.1404    Z=             -0.3535  Tot=              0.5383

 Test job not archived.
 1\1\GINC-SE049\SP\RHF\Aug-CC-pVDZ\H5N1O3\OHZDE\08-Apr-2025\0\\#t hf au
 g-cc-pvdz iop(5/13=1,5/36=2,99/5=2) pseudo=read geom=check guess=(read
 ,tcheck) scf=(maxcycle=1)\\title\\0,1\H,0,0.729647,-0.648781,-0.186316
 \H,0,2.73623,0.868845,-0.255518\H,0,-1.4285,1.33313,-0.192758\H,0,-1.8
 9667,-0.93491,1.10115\H,0,-1.69209,-1.24865,-0.458057\N,0,-1.47643,-0.
 58145,0.23176\O,0,1.64622,-0.66243,-0.27397\O,0,1.9672,0.61374,0.27687
 5\O,0,-2.12762,0.636254,-0.206757\\Version=ES64L-G16RevC.01\State=1-A\
 HF=-281.9091861\RMSD=2.180e-03\Dipole=-0.1498327,-0.05524,-0.1390838\Q

 Normal termination of Gaussian 16 at Tue Apr  8 21:11:22 2025.
