 Gaussian 16, Revision C.01,

 ----------------------------------------------------------------------
 #t hf aug-cc-pvdz symm=none int=(grid=ultrafine) guess=(read,tcheck) s
 table=(opt,rrhf)
 ----------------------------------------------------------------------
 -----
 title
 -----
 Symbolic Z-matrix:
 Charge =  0 Multiplicity = 1

 SCF Done:  E(RHF) =  -798.774516674     A.U. after   14 cycles
 Normal termination of Gaussian 16 at Tue Apr  8 22:15:55 2025.
 Gaussian 16:  ES64L-G16RevC.01  3-Jul-2019

 ----------------------------------------------------------------------
 #t hf aug-cc-pvdz iop(5/13=1,5/36=2,99/5=2) pseudo=read geom=check gue
 ss=(read,tcheck) scf=(maxcycle=1)
 ----------------------------------------------------------------------
 -----
 title
 -----
 Structure from the checkpoint file:  "ANI1ccx_86_conf2_mol1.chk"
 Charge =  0 Multiplicity = 1

                         Standard orientation:
 ---------------------------------------------------------------------
 Center     Atomic      Atomic             Coordinates (Angstroms)
 Number     Number       Type             X           Y           Z
 ---------------------------------------------------------------------
      1          6           0       -1.772550   -0.443581   -0.643792
      2          6           0        2.193900    0.912388    0.834067
      3          6           0        2.004480   -0.986171   -0.851033
      4          6           0        1.199590    0.017956    0.010554
      5          6           0       -1.352061    2.628129   -1.125910
      6          6           0        3.139860    0.123617    1.674590
      7          6           0       -3.646870    0.187023    0.963802
      8          6           0       -2.725610    0.692317   -0.149271
      9          6           0       -0.966286   -1.073671    0.560371
     10          6           0       -1.953211    2.013719    0.130484
     11          1           0       -0.626760    2.014479   -1.660920
     12          1           0        3.093690    0.390322   -1.162600
     13          1           0        3.818660   -0.446822    1.032490
     14          1           0        3.781930    0.831887    2.213840
     15          1           0        2.657710   -0.474125    2.422750
     16          1           0        3.615049    2.257670    0.394133
     17          1           0        1.509869    1.555640    1.482210
     18          1           0        0.574634    0.652622   -0.634615
     19          1           0        0.651027   -1.101981    1.718670
     20          1           0       -0.953107    3.589419   -0.920972
     21          1           0       -1.218151    1.795919    0.866763
     22          1           0       -2.685461    2.763768    0.618902
     23          1           0       -3.131500   -0.125736    1.901200
     24          1           0       -4.252460    1.037468    1.257470
     25          1           0       -4.293730   -0.664374    0.699460
     26          1           0       -3.390890    0.887599   -1.023320
     27          1           0       -1.083300    0.021715   -1.409010
     28          1           0       -2.031989   -2.224381   -1.565790
     29          1           0       -3.127499   -1.949502   -0.441159
     30          1           0       -2.220851    2.741829   -1.846790
     31          7           0       -2.585720   -1.507992   -1.160060
     32          7           0        0.301639   -0.668662    0.881299
     33          8           0        2.924979    1.731560   -0.047106
     34          8           0       -1.562419   -1.922571    1.196890
     35          8           0        1.689781   -2.146280   -0.881039
     36          8           0        3.019440   -0.506109   -1.570570
 ---------------------------------------------------------------------

 SCF Done:  E(RHF) =  -799.018093298     A.U. after    2 cycles

 The electronic state is 1-A.
 Alpha  occ. eigenvalues --  -20.63481 -20.62743 -20.56248 -20.53577 -15.66161
 Alpha  occ. eigenvalues --  -15.58899 -11.39899 -11.36245 -11.34958 -11.32898
 Alpha  occ. eigenvalues --  -11.28341 -11.26662 -11.24561 -11.24442 -11.23859
 Alpha  occ. eigenvalues --  -11.21878  -1.43367  -1.39008  -1.35349  -1.33537
 Alpha  occ. eigenvalues --   -1.22653  -1.16249  -1.07883  -1.07038  -0.99730
 Alpha  occ. eigenvalues --   -0.98829  -0.92325  -0.88254  -0.86321  -0.83179
 Alpha  occ. eigenvalues --   -0.81958  -0.79971  -0.75116  -0.73184  -0.70704
 Alpha  occ. eigenvalues --   -0.70369  -0.68801  -0.67437  -0.66255  -0.65469
 Alpha  occ. eigenvalues --   -0.64412  -0.63689  -0.62465  -0.60928  -0.60453
 Alpha  occ. eigenvalues --   -0.58669  -0.58305  -0.57503  -0.57149  -0.55453
 Alpha  occ. eigenvalues --   -0.54052  -0.53129  -0.52158  -0.51205  -0.49884
 Alpha  occ. eigenvalues --   -0.49534  -0.48571  -0.46726  -0.46523  -0.45128
 Alpha  occ. eigenvalues --   -0.43272  -0.40838  -0.37731
 Alpha virt. eigenvalues --    0.01359   0.03250   0.03363   0.04293   0.04831
 Alpha virt. eigenvalues --    0.05327   0.05431   0.06246   0.06388   0.07028
 Alpha virt. eigenvalues --    0.07377   0.07608   0.08062   0.08986   0.09275

 Mulliken charges:
               1
     1  C    0.275325
     2  C    0.587130
     3  C    0.632395
     4  C    0.099854
     5  C    0.604703
     6  C    0.684977
     7  C    0.910193
     8  C   -0.690492
     9  C    0.522837
    10  C    0.517305
    11  H   -0.292199
    12  H    0.334332
    13  H   -0.000390
    14  H   -0.099805
    15  H   -0.095176
    16  H    0.233082
    17  H   -0.058907
    18  H   -0.125489
    19  H   -0.127772
    20  H   -0.165552
    21  H   -0.405335
    22  H    0.037206
    23  H    0.030523
    24  H   -0.137709
    25  H   -0.058511
    26  H   -0.174028
    27  H   -0.255375
    28  H   -0.045509
    29  H    0.076484
    30  H    0.095282
    31  N   -0.191344
    32  N   -0.376320
    33  O   -0.783062
    34  O   -0.589369
    35  O   -0.476484
    36  O   -0.492801
 Sum of Mulliken charges =  -0.00000

 Dipole moment (field-independent basis, Debye):
    X=              3.5999    Y=              6.8252    Z=              2.9826  Tot=              8.2728

 Test job not archived.
 1\1\GINC-SE273\SP\RHF\Aug-CC-pVDZ\C10H20N2O4\OHZDE\08-Apr-2025\0\\#t h
 f aug-cc-pvdz iop(5/13=1,5/36=2,99/5=2) pseudo=read geom=check guess=(
 read,tcheck) scf=(maxcycle=1)\\title\\0,1\C,0,-1.77255,-0.44358,-0.643
 792\C,0,2.1939,0.912388,0.834067\C,0,2.00448,-0.986171,-0.851033\C,0,1
 .19959,0.0179561,0.0105538\C,0,-1.35206,2.62813,-1.12591\C,0,3.13986,0
 .123617,1.67459\C,0,-3.64687,0.187025,0.963802\C,0,-2.72561,0.692319,-
 0.149271\C,0,-0.966286,-1.07367,0.560371\C,0,-1.95321,2.01372,0.130484
 \H,0,-0.626759,2.01448,-1.66092\H,0,3.09369,0.390322,-1.1626\H,0,3.818

 Normal termination of Gaussian 16 at Tue Apr  8 22:16:55 2025.
