 Gaussian 16, Revision C.01,

 ----------------------------------------------------------------------
 #t hf aug-cc-pvdz symm=none int=(grid=ultrafine) guess=(read,tcheck) s
 table=(opt,rrhf)
 ----------------------------------------------------------------------
 -----
 title
 -----
 Symbolic Z-matrix:
 Charge =  0 Multiplicity = 1

 SCF Done:  E(RHF) =  -544.133512015     A.U. after   14 cycles
 Normal termination of Gaussian 16 at Tue Apr  8 21:49:09 2025.
 Gaussian 16:  ES64L-G16RevC.01  3-Jul-2019

 ----------------------------------------------------------------------
 #t hf aug-cc-pvdz iop(5/13=1,5/36=2,99/5=2) pseudo=read geom=check gue
 ss=(read,tcheck) scf=(maxcycle=1)
 ----------------------------------------------------------------------
 -----
 title
 -----
 Structure from the checkpoint file:  "ANI1ccx_673_conf1_mol1.chk"
 Charge =  0 Multiplicity = 1

                         Standard orientation:
 ---------------------------------------------------------------------
 Center     Atomic      Atomic             Coordinates (Angstroms)
 Number     Number       Type             X           Y           Z
 ---------------------------------------------------------------------
      1          6           0        1.203110   -0.156146   -0.111123
      2          6           0        0.041123    1.878160    0.319173
      3          6           0       -1.261109   -0.028641   -0.059124
      4          1           0       -0.018753   -2.375629   -0.584096
      5          1           0       -0.007568    2.893710   -0.241415
      6          1           0        0.003765    1.972030    1.467910
      7          7           0       -0.024413   -0.669254    0.219235
      8          8           0       -0.029483   -2.050829    0.372872
      9          8           0        2.210856   -0.759252   -0.279952
     10          8           0        1.261699    1.218992   -0.036775
     11          8           0       -1.096491    1.230707   -0.249738
     12          8           0       -2.309743   -0.635315   -0.190233
 ---------------------------------------------------------------------

 SCF Done:  E(RHF) =  -544.306011728     A.U. after    2 cycles

 The electronic state is 1-A.
 Alpha  occ. eigenvalues --  -20.68402 -20.67468 -20.66641 -20.59275 -20.59129
 Alpha  occ. eigenvalues --  -15.77072 -11.47809 -11.46847 -11.43732  -1.52826
 Alpha  occ. eigenvalues --   -1.46416  -1.43537  -1.37447  -1.36173  -1.19307
 Alpha  occ. eigenvalues --   -1.03294  -0.95126  -0.86547  -0.82731  -0.80775
 Alpha  occ. eigenvalues --   -0.75392  -0.71028  -0.70451  -0.69290  -0.67924
 Alpha  occ. eigenvalues --   -0.67321  -0.63086  -0.61413  -0.56894  -0.53940
 Alpha  occ. eigenvalues --   -0.53526  -0.52156  -0.51259  -0.46835
 Alpha virt. eigenvalues --    0.02581   0.03906   0.04180   0.06663   0.07975
 Alpha virt. eigenvalues --    0.09132   0.10563   0.11037   0.11387   0.11965
 Alpha virt. eigenvalues --    0.12916   0.13799   0.13938   0.14989   0.15492

 Mulliken charges:
               1
     1  C    0.702192
     2  C    0.872888
     3  C    0.729568
     4  H    0.250965
     5  H   -0.057817
     6  H   -0.000662
     7  N   -0.125424
     8  O   -0.545094
     9  O   -0.337959
    10  O   -0.596000
    11  O   -0.496062
    12  O   -0.396594
 Sum of Mulliken charges =  -0.00000

 Dipole moment (field-independent basis, Debye):
    X=             -0.1664    Y=              3.0819    Z=              0.1315  Tot=              3.0892

 Test job not archived.
 1\1\GINC-SE229\SP\RHF\Aug-CC-pVDZ\C3H3N1O5\OHZDE\08-Apr-2025\0\\#t hf
 aug-cc-pvdz iop(5/13=1,5/36=2,99/5=2) pseudo=read geom=check guess=(re
 ad,tcheck) scf=(maxcycle=1)\\title\\0,1\C,0,1.20311,-0.156139,-0.11112
 3\C,0,0.0411098,1.87816,0.319173\C,0,-1.26111,-0.0286494,-0.0591242\H,
 0,-0.0187388,-2.37563,-0.584096\H,0,-0.00758743,2.89371,-0.241415\H,0,
 0.00375164,1.97203,1.46791\N,0,-0.0244098,-0.669255,0.219235\O,0,-0.02
 94711,-2.05083,0.372872\O,0,2.21086,-0.759238,-0.279952\O,0,1.26169,1.
 219,-0.0367747\O,0,-1.0965,1.2307,-0.249738\O,0,-2.30974,-0.63533,-0.1

 Normal termination of Gaussian 16 at Tue Apr  8 21:49:16 2025.
