 Gaussian 16, Revision C.01,

 ----------------------------------------------------------------------
 #t hf aug-cc-pvdz symm=none int=(grid=ultrafine) guess=(read,tcheck) s
 table=(opt,rrhf)
 ----------------------------------------------------------------------
 -----
 title
 -----
 Symbolic Z-matrix:
 Charge =  0 Multiplicity = 1

 SCF Done:  E(RHF) =  -590.484205756     A.U. after   16 cycles
 Normal termination of Gaussian 16 at Tue Apr  8 22:07:45 2025.
 Gaussian 16:  ES64L-G16RevC.01  3-Jul-2019

 ----------------------------------------------------------------------
 #t hf aug-cc-pvdz iop(5/13=1,5/36=2,99/5=2) pseudo=read geom=check gue
 ss=(read,tcheck) scf=(maxcycle=1)
 ----------------------------------------------------------------------
 -----
 title
 -----
 Structure from the checkpoint file:  "ANI1ccx_928_conf1_mol2.chk"
 Charge =  0 Multiplicity = 1

                         Standard orientation:
 ---------------------------------------------------------------------
 Center     Atomic      Atomic             Coordinates (Angstroms)
 Number     Number       Type             X           Y           Z
 ---------------------------------------------------------------------
      1          6           0        0.671408    1.730389   -0.453010
      2          6           0       -0.458026    1.752599    0.528056
      3          6           0       -1.263870   -0.625433    1.003490
      4          6           0        1.101850   -0.716694   -0.904444
      5          1           0        0.249391   -0.894451   -1.554100
      6          1           0       -0.034942    1.712409    1.578780
      7          1           0       -0.529583   -0.877073    1.740330
      8          1           0        1.346160    2.529159   -0.198304
      9          1           0        0.325915    1.888299   -1.522200
     10          1           0       -1.084651    2.661919    0.412766
     11          7           0        2.692680   -0.884425    0.490791
     12          7           0       -1.288940    0.557465    0.368659
     13          7           0       -2.237310   -1.403721    0.483613
     14          7           0       -2.719640   -0.732964   -0.565993
     15          7           0       -2.142570    0.408301   -0.730610
     16          7           0        1.358880    0.476301   -0.380709
     17          7           0        1.934760   -1.604961   -0.384578
     18          7           0        2.319220    0.346084    0.504282
 ---------------------------------------------------------------------

 SCF Done:  E(RHF) =  -590.645740418     A.U. after    2 cycles

 The electronic state is 1-A.
 Alpha  occ. eigenvalues --  -15.75981 -15.75910 -15.73783 -15.73278 -15.73252
 Alpha  occ. eigenvalues --  -15.72246 -15.68204 -15.68138 -11.36566 -11.35371
 Alpha  occ. eigenvalues --  -11.35366 -11.34496  -1.47757  -1.45184  -1.27532
 Alpha  occ. eigenvalues --   -1.23792  -1.17577  -1.16789  -1.09036  -0.97191
 Alpha  occ. eigenvalues --   -0.91187  -0.88721  -0.87155  -0.83951  -0.77908
 Alpha  occ. eigenvalues --   -0.74700  -0.73613  -0.68936  -0.67783  -0.66262
 Alpha  occ. eigenvalues --   -0.64808  -0.61742  -0.58426  -0.57692  -0.56792
 Alpha  occ. eigenvalues --   -0.48247  -0.48091  -0.47034  -0.46474  -0.45707
 Alpha  occ. eigenvalues --   -0.44355  -0.42403  -0.41030
 Alpha virt. eigenvalues --    0.01424   0.02225   0.04279   0.04607   0.06637
 Alpha virt. eigenvalues --    0.06844   0.07987   0.09241   0.09395   0.10214
 Alpha virt. eigenvalues --    0.10889   0.11626   0.11987   0.12546   0.13158

 Mulliken charges:
               1
     1  C    0.746987
     2  C    0.605569
     3  C    0.919276
     4  C    0.857586
     5  H   -0.326459
     6  H   -0.119720
     7  H   -0.360607
     8  H   -0.163021
     9  H   -0.110695
    10  H   -0.077364
    11  N   -0.259536
    12  N    0.087194
    13  N   -0.566664
    14  N   -0.185363
    15  N   -0.376190
    16  N    0.149303
    17  N   -0.486381
    18  N   -0.333914
 Sum of Mulliken charges =  -0.00000

 Dipole moment (field-independent basis, Debye):
    X=              0.1301    Y=              6.3261    Z=              0.3909  Tot=              6.3395

 Test job not archived.
 1\1\GINC-SE329\SP\RHF\Aug-CC-pVDZ\C4H6N8\OHZDE\08-Apr-2025\0\\#t hf au
 g-cc-pvdz iop(5/13=1,5/36=2,99/5=2) pseudo=read geom=check guess=(read
 ,tcheck) scf=(maxcycle=1)\\title\\0,1\C,0,0.671408,1.73039,-0.45301\C,
 0,-0.458026,1.7526,0.528056\C,0,-1.26387,-0.625432,1.00349\C,0,1.10185
 ,-0.716693,-0.904444\H,0,0.249391,-0.89445,-1.5541\H,0,-0.0349415,1.71
 241,1.57878\H,0,-0.529583,-0.877072,1.74033\H,0,1.34616,2.52916,-0.198
 304\H,0,0.325915,1.8883,-1.5222\H,0,-1.08465,2.66192,0.412766\N,0,2.69
 268,-0.884425,0.490791\N,0,-1.28894,0.557466,0.368659\N,0,-2.23731,-1.

 Normal termination of Gaussian 16 at Tue Apr  8 22:07:57 2025.
