 Gaussian 16, Revision C.01,

 ----------------------------------------------------------------------
 #t hf aug-cc-pvdz symm=none int=(grid=ultrafine) guess=(read,tcheck) s
 table=(opt,rrhf)
 ----------------------------------------------------------------------
 -----
 title
 -----
 Symbolic Z-matrix:
 Charge =  0 Multiplicity = 1

 SCF Done:  E(RHF) =  -277.903974578     A.U. after   15 cycles
 Normal termination of Gaussian 16 at Tue Apr  8 21:32:31 2025.
 Gaussian 16:  ES64L-G16RevC.01  3-Jul-2019

 ----------------------------------------------------------------------
 #t hf aug-cc-pvdz iop(5/13=1,5/36=2,99/5=2) pseudo=read geom=check gue
 ss=(read,tcheck) scf=(maxcycle=1)
 ----------------------------------------------------------------------
 -----
 title
 -----
 Structure from the checkpoint file:  "ANI1ccx_389_conf1_mol1.chk"
 Charge =  0 Multiplicity = 1

                         Standard orientation:
 ---------------------------------------------------------------------
 Center     Atomic      Atomic             Coordinates (Angstroms)
 Number     Number       Type             X           Y           Z
 ---------------------------------------------------------------------
      1          6           0        1.040658   -0.177272    0.219808
      2          1           0        1.108278    1.719419   -0.529601
      3          1           0       -0.399215    1.266529    0.210065
      4          1           0        0.328091   -0.735314    0.854446
      5          7           0        0.519060    1.014529   -0.122600
      6          7           0       -1.946092    0.235142    0.262613
      7          7           0       -2.055661   -0.705204   -0.309964
      8          8           0        2.137219   -0.624785   -0.083013
 ---------------------------------------------------------------------

 SCF Done:  E(RHF) =  -277.990197637     A.U. after    2 cycles

 The electronic state is 1-A.
 Alpha  occ. eigenvalues --  -20.54322 -15.78619 -15.78086 -15.65719 -11.36929
 Alpha  occ. eigenvalues --   -1.44940  -1.34276  -1.19419  -0.85227  -0.80775
 Alpha  occ. eigenvalues --   -0.74888  -0.68035  -0.65098  -0.63701  -0.63115
 Alpha  occ. eigenvalues --   -0.60662  -0.57466  -0.44862  -0.42449
 Alpha virt. eigenvalues --    0.03161   0.04675   0.05749   0.08443   0.09978
 Alpha virt. eigenvalues --    0.10479   0.12091   0.13277   0.13542   0.14251
 Alpha virt. eigenvalues --    0.14671   0.17124   0.18015   0.19020   0.19783

 Mulliken charges:
               1
     1  C    0.771276
     2  H   -0.041450
     3  H    0.100339
     4  H   -0.164365
     5  N   -0.100663
     6  N   -0.040058
     7  N   -0.029223
     8  O   -0.495857
 Sum of Mulliken charges =  -0.00000

 Dipole moment (field-independent basis, Debye):
    X=             -4.0027    Y=              2.5802    Z=              0.7123  Tot=              4.8152

 Test job not archived.
 1\1\GINC-SE247\SP\RHF\Aug-CC-pVDZ\C1H3N3O1\OHZDE\08-Apr-2025\0\\#t hf
 aug-cc-pvdz iop(5/13=1,5/36=2,99/5=2) pseudo=read geom=check guess=(re
 ad,tcheck) scf=(maxcycle=1)\\title\\0,1\C,0,1.04066,-0.177271,0.219808
 \H,0,1.10828,1.71942,-0.529601\H,0,-0.399213,1.26653,0.210065\H,0,0.32
 8092,-0.735313,0.854446\N,0,0.519062,1.01453,-0.1226\N,0,-1.94609,0.23
 5144,0.262613\N,0,-2.05566,-0.705202,-0.309964\O,0,2.13722,-0.624785,-
 0.0830129\\Version=ES64L-G16RevC.01\State=1-A\HF=-277.9901976\RMSD=2.1
 99e-03\Dipole=-1.5747875,1.0151213,0.2802334\Quadrupole=-4.7031482,3.0

 Normal termination of Gaussian 16 at Tue Apr  8 21:32:34 2025.
