 Gaussian 16, Revision C.01,

 ----------------------------------------------------------------------
 #t hf aug-cc-pvdz symm=none int=(grid=ultrafine) guess=(read,tcheck) s
 table=(opt,rrhf)
 ----------------------------------------------------------------------
 -----
 title
 -----
 Symbolic Z-matrix:
 Charge =  0 Multiplicity = 1

 SCF Done:  E(RHF) =  -444.038971156     A.U. after   17 cycles
 Normal termination of Gaussian 16 at Tue Apr  8 22:14:24 2025.
 Gaussian 16:  ES64L-G16RevC.01  3-Jul-2019

 ----------------------------------------------------------------------
 #t hf aug-cc-pvdz iop(5/13=1,5/36=2,99/5=2) pseudo=read geom=check gue
 ss=(read,tcheck) scf=(maxcycle=1)
 ----------------------------------------------------------------------
 -----
 title
 -----
 Structure from the checkpoint file:  "ANI1ccx_993_conf2_mol1.chk"
 Charge =  0 Multiplicity = 1

                         Standard orientation:
 ---------------------------------------------------------------------
 Center     Atomic      Atomic             Coordinates (Angstroms)
 Number     Number       Type             X           Y           Z
 ---------------------------------------------------------------------
      1          6           0        1.594838   -1.063684    0.069759
      2          6           0        0.635071   -0.028420    0.006924
      3          6           0       -0.675630    0.110763    0.141726
      4          6           0       -1.838751   -0.754050   -0.000263
      5          7           0        2.477046   -1.811897   -0.033098
      6          7           0        1.189975    1.235567   -0.076089
      7          7           0        0.261986    2.108530   -0.035447
      8          7           0       -2.638594   -1.607662   -0.072882
      9          8           0       -0.915757    1.367573    0.026717
 ---------------------------------------------------------------------

 SCF Done:  E(RHF) =  -444.166693806     A.U. after    2 cycles

 The electronic state is 1-A.
 Alpha  occ. eigenvalues --  -20.75131 -15.83427 -15.77131 -15.72539 -15.69456
 Alpha  occ. eigenvalues --  -11.44520 -11.38520 -11.36676 -11.33842  -1.59164
 Alpha  occ. eigenvalues --   -1.35188  -1.25625  -1.23883  -1.18914  -1.00483
 Alpha  occ. eigenvalues --   -0.95885  -0.90985  -0.80141  -0.78395  -0.71306
 Alpha  occ. eigenvalues --   -0.62409  -0.61254  -0.59197  -0.58449  -0.56516
 Alpha  occ. eigenvalues --   -0.55957  -0.52342  -0.51771  -0.50857  -0.43337
 Alpha virt. eigenvalues --    0.00158   0.04697   0.05982   0.06673   0.07317
 Alpha virt. eigenvalues --    0.07665   0.09670   0.09848   0.10112   0.10749
 Alpha virt. eigenvalues --    0.11442   0.12352   0.12751   0.14021   0.14087

 Mulliken charges:
               1
     1  C   -0.619443
     2  C    1.484546
     3  C    0.893436
     4  C   -0.534462
     5  N   -0.170434
     6  N   -0.528549
     7  N    0.103198
     8  N   -0.093775
     9  O   -0.534517
 Sum of Mulliken charges =  -0.00000

 Dipole moment (field-independent basis, Debye):
    X=             -1.0480    Y=              1.6453    Z=              0.4344  Tot=              1.9985

 Test job not archived.
 1\1\GINC-SE105\SP\RHF\Aug-CC-pVDZ\C4N4O1\OHZDE\08-Apr-2025\0\\#t hf au
 g-cc-pvdz iop(5/13=1,5/36=2,99/5=2) pseudo=read geom=check guess=(read
 ,tcheck) scf=(maxcycle=1)\\title\\0,1\C,0,1.59484,-1.06368,0.0697588\C
 ,0,0.63507,-0.0284187,0.00692446\C,0,-0.675632,0.110761,0.141726\C,0,-
 1.83875,-0.754056,-0.00026329\N,0,2.47705,-1.81189,-0.033098\N,0,1.189
 97,1.23557,-0.0760885\N,0,0.261978,2.10853,-0.0354467\N,0,-2.63859,-1.
 60767,-0.0728824\O,0,-0.915762,1.36757,0.0267167\\Version=ES64L-G16Rev
 C.01\State=1-A\HF=-444.1666938\RMSD=6.938e-03\Dipole=-0.41233,0.647318

 Normal termination of Gaussian 16 at Tue Apr  8 22:14:29 2025.
