 Gaussian 16, Revision C.01,

 ----------------------------------------------------------------------
 #t hf aug-cc-pvdz symm=none int=(grid=ultrafine) guess=(read,tcheck) s
 table=(opt,rrhf)
 ----------------------------------------------------------------------
 -----
 title
 -----
 Symbolic Z-matrix:
 Charge =  0 Multiplicity = 1

 SCF Done:  E(RHF) =  -908.320998875     A.U. after   15 cycles
 Normal termination of Gaussian 16 at Tue Apr  8 20:56:42 2025.
 Gaussian 16:  ES64L-G16RevC.01  3-Jul-2019

 ----------------------------------------------------------------------
 #t hf aug-cc-pvdz iop(5/13=1,5/36=2,99/5=2) pseudo=read geom=check gue
 ss=(read,tcheck) scf=(maxcycle=1)
 ----------------------------------------------------------------------
 -----
 title
 -----
 Structure from the checkpoint file:  "ANI1ccx_1761_conf39_mol1.chk"
 Charge =  0 Multiplicity = 1

                         Standard orientation:
 ---------------------------------------------------------------------
 Center     Atomic      Atomic             Coordinates (Angstroms)
 Number     Number       Type             X           Y           Z
 ---------------------------------------------------------------------
      1          6           0        1.979720   -1.021009    0.031233
      2          6           0       -3.440930    0.380740   -0.175385
      3          6           0       -2.334950    0.718461    0.898501
      4          6           0       -0.422821    1.809130   -0.227958
      5          6           0       -3.534130   -1.132840   -0.398192
      6          6           0        4.241890   -1.566239   -0.991562
      7          6           0        3.413440   -0.510804   -0.132361
      8          6           0        1.350860   -0.311433    1.321180
      9          6           0       -0.902293    0.592249    0.435279
     10          1           0       -0.908786   -0.214985   -0.240872
     11          1           0       -0.912332    3.149550   -1.464410
     12          1           0       -2.979269   -2.719040    0.491436
     13          1           0       -3.279230    0.907544   -1.096500
     14          1           0       -4.480670    0.539087    0.280120
     15          1           0       -2.473900    1.792670    1.169900
     16          1           0       -2.556320    0.174819    1.922900
     17          1           0       -0.056007    0.451586    2.390090
     18          1           0        3.924980   -1.638429   -1.981510
     19          1           0        5.282940   -1.291838   -0.960707
     20          1           0        4.207431   -2.599899   -0.511323
     21          1           0        2.738960    1.344631   -0.476770
     22          1           0        3.968310   -0.360377    0.794307
     23          1           0        1.908251   -2.144419    0.095810
     24          1           0        1.000880   -1.331519   -1.691350
     25          1           0        1.405960    0.224183   -1.550180
     26          7           0        1.104790   -0.596864   -1.053920
     27          7           0        0.084596    0.190712    1.440780
     28          8           0        2.024200   -0.150749    2.319000
     29          8           0        3.429810    0.699355   -0.844748
     30          8           0        0.744547    2.149001   -0.273915
     31          8           0       -3.756280   -1.641370   -1.465570
     32          8           0       -3.298719   -1.865630    0.684548
     33          8           0       -1.296260    2.410640   -0.974735
 ---------------------------------------------------------------------

 SCF Done:  E(RHF) =  -908.600452865     A.U. after    2 cycles

 The electronic state is 1-A.
 Alpha  occ. eigenvalues --  -20.65570 -20.63316 -20.57881 -20.57086 -20.56522
 Alpha  occ. eigenvalues --  -20.52852 -15.64497 -15.60744 -11.41788 -11.41053
 Alpha  occ. eigenvalues --  -11.35982 -11.30576 -11.29910 -11.29078 -11.28608
 Alpha  occ. eigenvalues --  -11.28335 -11.22449  -1.47440  -1.44899  -1.35624
 Alpha  occ. eigenvalues --   -1.34604  -1.34126  -1.31507  -1.20768  -1.16984
 Alpha  occ. eigenvalues --   -1.09208  -1.02310  -1.00891  -0.93122  -0.91954
 Alpha  occ. eigenvalues --   -0.88067  -0.84993  -0.82734  -0.78006  -0.76070
 Alpha  occ. eigenvalues --   -0.74847  -0.73008  -0.71713  -0.70152  -0.69695
 Alpha  occ. eigenvalues --   -0.68695  -0.67924  -0.67022  -0.66142  -0.64000
 Alpha  occ. eigenvalues --   -0.63531  -0.61892  -0.60966  -0.58800  -0.58263
 Alpha  occ. eigenvalues --   -0.56796  -0.54910  -0.54753  -0.54220  -0.53480
 Alpha  occ. eigenvalues --   -0.53038  -0.52601  -0.51395  -0.50907  -0.49416
 Alpha  occ. eigenvalues --   -0.48034  -0.46500  -0.44891  -0.44802  -0.39896
 Alpha  occ. eigenvalues --   -0.38348
 Alpha virt. eigenvalues --    0.02241   0.02696   0.03321   0.04375   0.04658
 Alpha virt. eigenvalues --    0.05391   0.05736   0.06470   0.06536   0.06980
 Alpha virt. eigenvalues --    0.07665   0.08038   0.08517   0.08809   0.09273

 Mulliken charges:
               1
     1  C   -0.080374
     2  C    0.239847
     3  C    0.559818
     4  C    0.491984
     5  C    0.637049
     6  C    0.585433
     7  C    0.950140
     8  C    0.716956
     9  C    0.234554
    10  H   -0.316895
    11  H    0.237234
    12  H    0.157211
    13  H   -0.102933
    14  H    0.207942
    15  H   -0.010264
    16  H    0.115980
    17  H   -0.145043
    18  H   -0.233106
    19  H   -0.055712
    20  H    0.090104
    21  H    0.207761
    22  H   -0.411711
    23  H   -0.185242
    24  H   -0.011200
    25  H    0.190034
    26  N   -0.307894
    27  N   -0.446361
    28  O   -0.589148
    29  O   -0.661631
    30  O   -0.537915
    31  O   -0.487879
    32  O   -0.499659
    33  O   -0.539078
 Sum of Mulliken charges =  -0.00000

 Dipole moment (field-independent basis, Debye):
    X=             -3.8684    Y=              0.2712    Z=             -0.8966  Tot=              3.9802

 Test job not archived.
 1\1\GINC-SE219\SP\RHF\Aug-CC-pVDZ\C9H16N2O6\OHZDE\08-Apr-2025\0\\#t hf
  aug-cc-pvdz iop(5/13=1,5/36=2,99/5=2) pseudo=read geom=check guess=(r
 ead,tcheck) scf=(maxcycle=1)\\title\\0,1\C,0,1.97972,-1.02101,0.031233
 3\C,0,-3.44093,0.38074,-0.175385\C,0,-2.33495,0.718461,0.898501\C,0,-0
 .422821,1.80913,-0.227958\C,0,-3.53413,-1.13284,-0.398192\C,0,4.24189,
 -1.56624,-0.991562\C,0,3.41344,-0.510805,-0.132361\C,0,1.35086,-0.3114
 34,1.32118\C,0,-0.902293,0.592249,0.435279\H,0,-0.908786,-0.214985,-0.
 240872\H,0,-0.912331,3.14955,-1.46441\H,0,-2.97927,-2.71904,0.491436\H

 Normal termination of Gaussian 16 at Tue Apr  8 20:57:32 2025.
