 Gaussian 16, Revision C.01,

 ----------------------------------------------------------------------
 #t hf aug-cc-pvdz symm=none int=(grid=ultrafine) guess=(read,tcheck) s
 table=(opt,rrhf)
 ----------------------------------------------------------------------
 -----
 title
 -----
 Symbolic Z-matrix:
 Charge =  0 Multiplicity = 1

 SCF Done:  E(RHF) =  -563.428724998     A.U. after   14 cycles
 Normal termination of Gaussian 16 at Tue Apr  8 22:04:00 2025.
 Gaussian 16:  ES64L-G16RevC.01  3-Jul-2019

 ----------------------------------------------------------------------
 #t hf aug-cc-pvdz iop(5/13=1,5/36=2,99/5=2) pseudo=read geom=check gue
 ss=(read,tcheck) scf=(maxcycle=1)
 ----------------------------------------------------------------------
 -----
 title
 -----
 Structure from the checkpoint file:  "ANI1ccx_918_conf10_mol2.chk"
 Charge =  0 Multiplicity = 1

                         Standard orientation:
 ---------------------------------------------------------------------
 Center     Atomic      Atomic             Coordinates (Angstroms)
 Number     Number       Type             X           Y           Z
 ---------------------------------------------------------------------
      1          6           0       -1.126639   -0.094280    0.025572
      2          6           0        0.951096   -1.217705   -0.066397
      3          6           0        1.518860    0.073385    0.440026
      4          6           0        0.808189    1.311564   -0.151056
      5          1           0       -1.555085    0.851601    1.767700
      6          1           0       -1.872396   -0.742708    1.759290
      7          1           0       -2.991623    0.587098   -0.560597
      8          1           0       -2.190898   -0.383133   -1.636050
      9          1           0        1.367510    0.112673    1.503040
     10          1           0        2.628450    0.062897    0.317116
     11          7           0       -1.178970   -0.036056    1.467840
     12          7           0       -2.359099   -0.234054   -0.642914
     13          8           0       -0.369807   -1.218983   -0.357619
     14          8           0        1.627912   -2.181211   -0.258895
     15          8           0        1.316727    2.386097   -0.262645
     16          8           0       -0.515896    1.134667   -0.422570
 ---------------------------------------------------------------------

 SCF Done:  E(RHF) =  -563.604461368     A.U. after    2 cycles

 The electronic state is 1-A.
 Alpha  occ. eigenvalues --  -20.65220 -20.64814 -20.58483 -20.58074 -15.66210
 Alpha  occ. eigenvalues --  -15.65553 -11.47004 -11.42681 -11.42175 -11.29180
 Alpha  occ. eigenvalues --   -1.48867  -1.43296  -1.38221  -1.34807  -1.22971
 Alpha  occ. eigenvalues --   -1.16323  -1.06746  -0.94485  -0.89449  -0.78948
 Alpha  occ. eigenvalues --   -0.78641  -0.75972  -0.73741  -0.70230  -0.68912
 Alpha  occ. eigenvalues --   -0.68406  -0.66799  -0.64078  -0.63501  -0.61888
 Alpha  occ. eigenvalues --   -0.58673  -0.57495  -0.52031  -0.51809  -0.50200
 Alpha  occ. eigenvalues --   -0.48274  -0.47233  -0.44919
 Alpha virt. eigenvalues --    0.02210   0.03409   0.04280   0.04888   0.06085
 Alpha virt. eigenvalues --    0.06842   0.09136   0.09522   0.10684   0.11641
 Alpha virt. eigenvalues --    0.11837   0.13090   0.13894   0.14055   0.14180

 Mulliken charges:
               1
     1  C    1.472683
     2  C    0.496987
     3  C    0.090291
     4  C    0.548788
     5  H    0.035393
     6  H    0.079831
     7  H    0.054824
     8  H    0.028458
     9  H    0.230946
    10  H   -0.022404
    11  N   -0.378303
    12  N   -0.352094
    13  O   -0.691673
    14  O   -0.444774
    15  O   -0.458119
    16  O   -0.690834
 Sum of Mulliken charges =  -0.00000

 Dipole moment (field-independent basis, Debye):
    X=             -3.8604    Y=              0.9413    Z=              1.9536  Tot=              4.4278

 Test job not archived.
 1\1\GINC-SE343\SP\RHF\Aug-CC-pVDZ\C4H6N2O4\OHZDE\08-Apr-2025\0\\#t hf
 aug-cc-pvdz iop(5/13=1,5/36=2,99/5=2) pseudo=read geom=check guess=(re
 ad,tcheck) scf=(maxcycle=1)\\title\\0,1\C,0,-1.12664,-0.0942732,0.0255
 724\C,0,0.951089,-1.21771,-0.0663969\C,0,1.51886,0.0733768,0.440026\C,
 0,0.808196,1.31156,-0.151056\H,0,-1.55508,0.85161,1.7677\H,0,-1.8724,-
 0.742697,1.75929\H,0,-2.99162,0.587115,-0.560597\H,0,-2.1909,-0.38312,
 -1.63605\H,0,1.36751,0.112666,1.50304\H,0,2.62845,0.0628828,0.317116\N
 ,0,-1.17897,-0.0360487,1.46784\N,0,-2.3591,-0.23404,-0.642914\O,0,-0.3

 Normal termination of Gaussian 16 at Tue Apr  8 22:04:09 2025.
