 Gaussian 16, Revision C.01,

 ----------------------------------------------------------------------
 #t hf aug-cc-pvdz symm=none int=(grid=ultrafine) guess=(read,tcheck) s
 table=(opt,rrhf)
 ----------------------------------------------------------------------
 -----
 title
 -----
 Symbolic Z-matrix:
 Charge =  0 Multiplicity = 1

 SCF Done:  E(RHF) =  -355.485371385     A.U. after   16 cycles
 Normal termination of Gaussian 16 at Tue Apr  8 21:10:18 2025.
 Gaussian 16:  ES64L-G16RevC.01  3-Jul-2019

 ----------------------------------------------------------------------
 #t hf aug-cc-pvdz iop(5/13=1,5/36=2,99/5=2) pseudo=read geom=check gue
 ss=(read,tcheck) scf=(maxcycle=1)
 ----------------------------------------------------------------------
 -----
 title
 -----
 Structure from the checkpoint file:  "ANI1ccx_1871_conf3_mol1.chk"
 Charge =  0 Multiplicity = 1

                         Standard orientation:
 ---------------------------------------------------------------------
 Center     Atomic      Atomic             Coordinates (Angstroms)
 Number     Number       Type             X           Y           Z
 ---------------------------------------------------------------------
      1          1           0        1.572930   -1.704170    0.026558
      2          1           0       -1.189900    0.578505    0.183170
      3          1           0       -3.449000   -0.151789    0.506422
      4          7           0        1.240840    0.113753    0.086566
      5          8           0        2.119450   -0.910370   -0.106316
      6          8           0        1.710880    1.155490   -0.017330
      7          8           0       -1.623950   -0.274969    0.218135
      8          8           0       -2.908870    0.089997   -0.259753
 ---------------------------------------------------------------------

 SCF Done:  E(RHF) =  -355.601395250     A.U. after    2 cycles

 The electronic state is 1-A.
 Alpha  occ. eigenvalues --  -20.67264 -20.66337 -20.64271 -20.64198 -15.85533
 Alpha  occ. eigenvalues --   -1.58308  -1.44377  -1.39421  -1.18935  -0.94292
 Alpha  occ. eigenvalues --   -0.81820  -0.75714  -0.73826  -0.73454  -0.71723
 Alpha  occ. eigenvalues --   -0.64863  -0.63944  -0.55525  -0.54202  -0.49912
 Alpha  occ. eigenvalues --   -0.46717
 Alpha virt. eigenvalues --    0.03518   0.04473   0.06632   0.09230   0.11743
 Alpha virt. eigenvalues --    0.13620   0.15413   0.16681   0.17333   0.18532
 Alpha virt. eigenvalues --    0.20071   0.21178   0.22165   0.22528   0.23806

 Mulliken charges:
               1
     1  H    0.242723
     2  H    0.250889
     3  H    0.221319
     4  N    0.544795
     5  O   -0.472642
     6  O   -0.326922
     7  O   -0.223784
     8  O   -0.236378
 Sum of Mulliken charges =   0.00000

 Dipole moment (field-independent basis, Debye):
    X=             -1.1977    Y=             -1.3398    Z=              1.6085  Tot=              2.4118

 Test job not archived.
 1\1\GINC-SE366\SP\RHF\Aug-CC-pVDZ\H3N1O4\OHZDE\08-Apr-2025\0\\#t hf au
 g-cc-pvdz iop(5/13=1,5/36=2,99/5=2) pseudo=read geom=check guess=(read
 ,tcheck) scf=(maxcycle=1)\\title\\0,1\H,0,1.57293,-1.70417,0.0265575\H
 ,0,-1.1899,0.578505,0.18317\H,0,-3.449,-0.151788,0.506422\N,0,1.24084,
 0.113753,0.0865663\O,0,2.11945,-0.91037,-0.106316\O,0,1.71088,1.15549,
 -0.0173305\O,0,-1.62395,-0.274969,0.218135\O,0,-2.90887,0.0899979,-0.2
 59753\\Version=ES64L-G16RevC.01\State=1-A\HF=-355.6013952\RMSD=2.690e-
 03\Dipole=-0.4712035,-0.5271142,0.6328326\Quadrupole=-1.3719329,1.5941

 Normal termination of Gaussian 16 at Tue Apr  8 21:10:20 2025.
