 Gaussian 16, Revision C.01,

 ----------------------------------------------------------------------
 #t hf aug-cc-pvdz symm=none int=(grid=ultrafine) guess=(read,tcheck) s
 table=(opt,rrhf)
 ----------------------------------------------------------------------
 -----
 title
 -----
 Symbolic Z-matrix:
 Charge =  0 Multiplicity = 1

 SCF Done:  E(RHF) =  -464.283181226     A.U. after   17 cycles
 Normal termination of Gaussian 16 at Tue Apr  8 21:40:52 2025.
 Gaussian 16:  ES64L-G16RevC.01  3-Jul-2019

 ----------------------------------------------------------------------
 #t hf aug-cc-pvdz iop(5/13=1,5/36=2,99/5=2) pseudo=read geom=check gue
 ss=(read,tcheck) scf=(maxcycle=1)
 ----------------------------------------------------------------------
 -----
 title
 -----
 Structure from the checkpoint file:  "ANI1ccx_474_conf43_mol1.chk"
 Charge =  0 Multiplicity = 1

                         Standard orientation:
 ---------------------------------------------------------------------
 Center     Atomic      Atomic             Coordinates (Angstroms)
 Number     Number       Type             X           Y           Z
 ---------------------------------------------------------------------
      1          6           0        1.320951   -0.256711    0.137268
      2          6           0       -0.407602    1.222399    0.023035
      3          1           0        2.687850    0.511971   -0.890188
      4          7           0        0.733456    0.993827   -0.278367
      5          7           0       -1.900269   -0.597622   -0.752705
      6          7           0       -2.151929   -1.562511    0.003509
      7          8           0        2.514581   -0.439793   -0.477185
      8          8           0       -1.484600    1.533639    0.368973
      9          8           0        0.852926   -0.861591    0.998375
 ---------------------------------------------------------------------

 SCF Done:  E(RHF) =  -464.426594788     A.U. after    2 cycles

 The electronic state is 1-A.
 Alpha  occ. eigenvalues --  -20.66954 -20.66437 -20.60055 -15.80268 -15.79739
 Alpha  occ. eigenvalues --  -15.68844 -11.47292 -11.46523  -1.48061  -1.46464
 Alpha  occ. eigenvalues --   -1.38498  -1.32516  -1.28324  -0.92135  -0.82873
 Alpha  occ. eigenvalues --   -0.81225  -0.77946  -0.73651  -0.72315  -0.69423
 Alpha  occ. eigenvalues --   -0.67736  -0.64034  -0.60524  -0.57869  -0.56251
 Alpha  occ. eigenvalues --   -0.54831  -0.54457  -0.49277  -0.48168
 Alpha virt. eigenvalues --    0.02760   0.06368   0.07085   0.07674   0.08441
 Alpha virt. eigenvalues --    0.09092   0.09961   0.10954   0.11396   0.11534
 Alpha virt. eigenvalues --    0.12593   0.13287   0.14513   0.15164   0.17280

 Mulliken charges:
               1
     1  C    0.850598
     2  C   -0.022763
     3  H    0.311458
     4  N   -0.195890
     5  N   -0.022300
     6  N   -0.023503
     7  O   -0.496633
     8  O   -0.135079
     9  O   -0.265888
 Sum of Mulliken charges =  -0.00000

 Dipole moment (field-independent basis, Debye):
    X=              1.3711    Y=              1.9293    Z=             -2.1039  Tot=              3.1668

 Test job not archived.
 1\1\GINC-SE393\SP\RHF\Aug-CC-pVDZ\C2H1N3O3\OHZDE\08-Apr-2025\0\\#t hf
 aug-cc-pvdz iop(5/13=1,5/36=2,99/5=2) pseudo=read geom=check guess=(re
 ad,tcheck) scf=(maxcycle=1)\\title\\0,1\C,0,1.32095,-0.256711,0.137268
 \C,0,-0.407602,1.2224,0.0230347\H,0,2.68785,0.511971,-0.890188\N,0,0.7
 33456,0.993827,-0.278367\N,0,-1.90027,-0.597621,-0.752705\N,0,-2.15193
 ,-1.56251,0.00350939\O,0,2.51458,-0.439793,-0.477185\O,0,-1.4846,1.533
 64,0.368973\O,0,0.852925,-0.861591,0.998375\\Version=ES64L-G16RevC.01\
 State=1-A\HF=-464.4265948\RMSD=2.538e-03\Dipole=0.5394264,0.7590398,-0

 Normal termination of Gaussian 16 at Tue Apr  8 21:40:56 2025.
