 Gaussian 16, Revision C.01,

 ----------------------------------------------------------------------
 #t hf aug-cc-pvdz symm=none int=(grid=ultrafine) guess=(read,tcheck) s
 table=(opt,rrhf)
 ----------------------------------------------------------------------
 -----
 title
 -----
 Symbolic Z-matrix:
 Charge =  0 Multiplicity = 1

 SCF Done:  E(RHF) =  -648.975553562     A.U. after   14 cycles
 Normal termination of Gaussian 16 at Tue Apr  8 22:05:35 2025.
 Gaussian 16:  ES64L-G16RevC.01  3-Jul-2019

 ----------------------------------------------------------------------
 #t hf aug-cc-pvdz iop(5/13=1,5/36=2,99/5=2) pseudo=read geom=check gue
 ss=(read,tcheck) scf=(maxcycle=1)
 ----------------------------------------------------------------------
 -----
 title
 -----
 Structure from the checkpoint file:  "ANI1ccx_84_conf1_mol1.chk"
 Charge =  0 Multiplicity = 1

                         Standard orientation:
 ---------------------------------------------------------------------
 Center     Atomic      Atomic             Coordinates (Angstroms)
 Number     Number       Type             X           Y           Z
 ---------------------------------------------------------------------
      1          6           0       -3.545322   -2.225398   -0.273779
      2          6           0        2.216929   -0.473309   -0.904237
      3          6           0        1.198280    0.657971   -0.605239
      4          6           0        1.558240    1.523939    0.531744
      5          6           0        0.520671    2.578349    0.898445
      6          6           0        2.419838   -1.564552    0.139586
      7          6           0       -1.081800    1.531670   -1.036490
      8          6           0       -0.759086   -0.371023    0.529886
      9          6           0       -3.178301   -0.756079   -0.260797
     10          6           0       -0.556698    2.811510   -0.257018
     11          1           0        0.961121    3.492169    1.203540
     12          1           0        3.899998   -2.751962    0.469716
     13          1           0        2.560559   -1.022052    1.155310
     14          1           0        1.647028   -2.280381    0.258142
     15          1           0        3.171969   -0.051618   -1.049170
     16          1           0        1.823239   -0.876421   -1.819940
     17          1           0        1.224730    1.105579   -1.665450
     18          1           0        1.665260    0.928865    1.468440
     19          1           0        2.510250    1.945318    0.292488
     20          1           0       -0.043560    2.215910    1.762500
     21          1           0       -2.144750    1.392331   -0.886192
     22          1           0       -1.331449    3.311751    0.265695
     23          1           0       -0.922128    1.733230   -2.106760
     24          1           0       -2.255271   -1.000109    1.574570
     25          1           0       -2.828111   -0.425480   -1.248250
     26          1           0       -3.981831   -0.141436   -0.010259
     27          1           0       -3.969022   -2.604338    0.758412
     28          1           0       -4.303062   -2.537638   -0.961635
     29          1           0       -2.629972   -2.739899   -0.480313
     30          1           0       -0.147411    3.528820   -1.034850
     31          7           0       -2.105861   -0.514015    0.724633
     32          7           0       -0.352914    0.287258   -0.588940
     33          8           0        0.092908   -0.782294    1.344540
     34          8           0        3.600508   -2.206932   -0.278092
 ---------------------------------------------------------------------

 SCF Done:  E(RHF) =  -649.173932905     A.U. after    2 cycles

 The electronic state is 1-A.
 Alpha  occ. eigenvalues --  -20.55100 -20.51309 -15.63821 -15.63694 -11.37817
 Alpha  occ. eigenvalues --  -11.28405 -11.28164 -11.27764 -11.25790 -11.24438
 Alpha  occ. eigenvalues --  -11.23787 -11.22616 -11.21336 -11.21305  -1.33745
 Alpha  occ. eigenvalues --   -1.30500  -1.20419  -1.17714  -1.06268  -1.03091
 Alpha  occ. eigenvalues --   -1.01931  -0.97095  -0.91092  -0.87463  -0.85549
 Alpha  occ. eigenvalues --   -0.80549  -0.79828  -0.72869  -0.69884  -0.67655
 Alpha  occ. eigenvalues --   -0.66562  -0.65425  -0.63865  -0.63671  -0.62088
 Alpha  occ. eigenvalues --   -0.61267  -0.58940  -0.58126  -0.57399  -0.56448
 Alpha  occ. eigenvalues --   -0.55337  -0.53763  -0.53352  -0.51458  -0.51267
 Alpha  occ. eigenvalues --   -0.50703  -0.49950  -0.47401  -0.46775  -0.44743
 Alpha  occ. eigenvalues --   -0.44111  -0.42857  -0.41712  -0.39547  -0.37287
 Alpha virt. eigenvalues --    0.02768   0.03472   0.03585   0.04069   0.05156
 Alpha virt. eigenvalues --    0.05455   0.05772   0.06172   0.06712   0.07146
 Alpha virt. eigenvalues --    0.07434   0.07658   0.08253   0.08606   0.09086

 Mulliken charges:
               1
     1  C    0.304747
     2  C    0.489839
     3  C   -0.462683
     4  C    0.255425
     5  C    0.377642
     6  C    1.260651
     7  C    0.744031
     8  C    0.372217
     9  C    1.083755
    10  C    0.265669
    11  H   -0.195079
    12  H    0.167767
    13  H    0.028359
    14  H   -0.323357
    15  H   -0.180246
    16  H   -0.062889
    17  H   -0.100956
    18  H    0.053902
    19  H   -0.191006
    20  H   -0.082645
    21  H   -0.476139
    22  H   -0.151873
    23  H   -0.152494
    24  H   -0.101191
    25  H   -0.256839
    26  H   -0.393550
    27  H    0.108559
    28  H   -0.161813
    29  H   -0.089838
    30  H    0.009447
    31  N   -0.454725
    32  N   -0.424145
    33  O   -0.588865
    34  O   -0.671679
 Sum of Mulliken charges =  -0.00000

 Dipole moment (field-independent basis, Debye):
    X=             -3.8802    Y=              1.5428    Z=             -0.7143  Tot=              4.2363

 Test job not archived.
 1\1\GINC-SE367\SP\RHF\Aug-CC-pVDZ\C10H20N2O2\OHZDE\08-Apr-2025\0\\#t h
 f aug-cc-pvdz iop(5/13=1,5/36=2,99/5=2) pseudo=read geom=check guess=(
 read,tcheck) scf=(maxcycle=1)\\title\\0,1\C,0,-3.54532,-2.2254,-0.2737
 79\C,0,2.21693,-0.473308,-0.904237\C,0,1.19828,0.657972,-0.605239\C,0,
 1.55824,1.52394,0.531744\C,0,0.52067,2.57835,0.898445\C,0,2.41984,-1.5
 6455,0.139586\C,0,-1.0818,1.53167,-1.03649\C,0,-0.759085,-0.371023,0.5
 29886\C,0,-3.1783,-0.756081,-0.260797\C,0,-0.556699,2.81151,-0.257018\
 H,0,0.96112,3.49217,1.20354\H,0,3.9,-2.75196,0.469716\H,0,2.56056,-1.0

 Normal termination of Gaussian 16 at Tue Apr  8 22:06:12 2025.
