 Gaussian 16, Revision C.01,

 ----------------------------------------------------------------------
 #t hf aug-cc-pvdz symm=none int=(grid=ultrafine) guess=(read,tcheck) s
 table=(opt,rrhf)
 ----------------------------------------------------------------------
 -----
 title
 -----
 Symbolic Z-matrix:
 Charge =  0 Multiplicity = 1

 SCF Done:  E(RHF) =  -849.473833440     A.U. after   14 cycles
 Normal termination of Gaussian 16 at Tue Apr  8 20:16:48 2025.
 Gaussian 16:  ES64L-G16RevC.01  3-Jul-2019

 ----------------------------------------------------------------------
 #t hf aug-cc-pvdz iop(5/13=1,5/36=2,99/5=2) pseudo=read geom=check gue
 ss=(read,tcheck) scf=(maxcycle=1)
 ----------------------------------------------------------------------
 -----
 title
 -----
 Structure from the checkpoint file:  "ANI1ccx_1611_conf3_mol1.chk"
 Charge =  0 Multiplicity = 1

                         Standard orientation:
 ---------------------------------------------------------------------
 Center     Atomic      Atomic             Coordinates (Angstroms)
 Number     Number       Type             X           Y           Z
 ---------------------------------------------------------------------
      1          6           0        2.220511    0.320031    0.822636
      2          6           0        1.077931    0.989537    0.176498
      3          6           0        3.002720   -0.624754   -0.094739
      4          6           0        2.335660   -1.748330   -0.766952
      5          6           0       -1.146879    0.490189   -0.816011
      6          6           0       -2.042029    1.522671   -0.074183
      7          6           0       -1.756920   -0.784029   -1.291130
      8          6           0       -2.041910   -1.669989   -0.071929
      9          1           0       -0.582979    2.512890   -0.206390
     10          1           0       -3.977540   -0.952918    0.175122
     11          1           0       -3.702280   -2.531409    0.850887
     12          1           0       -2.575530   -0.558532   -1.968730
     13          1           0       -0.936059   -1.375659   -1.718880
     14          1           0       -0.769360    1.152981   -1.619910
     15          1           0        0.063902   -0.738031    0.572546
     16          1           0        1.640340   -2.286200   -0.063156
     17          1           0        1.792980   -1.432270   -1.637110
     18          1           0        3.042290   -2.524290   -1.160060
     19          1           0        4.020380   -0.296568   -1.734170
     20          1           0        3.789950   -1.085580    0.541797
     21          1           0        2.874241    1.167980    1.030190
     22          1           0        2.268111    0.291405    2.856810
     23          1           0        1.052150   -0.731522    2.272090
     24          7           0        1.987700   -0.358290    2.105470
     25          7           0       -0.006748    0.166774    0.114744
     26          7           0       -3.339960   -1.707929    0.346357
     27          8           0        1.134031    2.125810   -0.282757
     28          8           0        3.615531    0.272554   -1.047480
     29          8           0       -3.149409    1.222881    0.307103
     30          8           0       -1.156240   -2.326059    0.451091
     31          8           0       -1.491669    2.668801    0.139270
 ---------------------------------------------------------------------

 SCF Done:  E(RHF) =  -849.734392415     A.U. after    2 cycles

 The electronic state is 1-A.
 Alpha  occ. eigenvalues --  -20.62441 -20.57859 -20.56966 -20.56514 -20.55962
 Alpha  occ. eigenvalues --  -15.67194 -15.65525 -15.63242 -11.40043 -11.39463
 Alpha  occ. eigenvalues --  -11.38306 -11.33153 -11.30320 -11.28565 -11.28297
 Alpha  occ. eigenvalues --  -11.24220  -1.44652  -1.37866  -1.37756  -1.33679
 Alpha  occ. eigenvalues --   -1.32444  -1.23204  -1.18591  -1.17302  -1.08157
 Alpha  occ. eigenvalues --   -1.03704  -0.97398  -0.94401  -0.85822  -0.83783
 Alpha  occ. eigenvalues --   -0.82220  -0.80081  -0.76029  -0.73877  -0.72293
 Alpha  occ. eigenvalues --   -0.71124  -0.70651  -0.70108  -0.68385  -0.67376
 Alpha  occ. eigenvalues --   -0.65643  -0.64813  -0.63818  -0.62149  -0.61610
 Alpha  occ. eigenvalues --   -0.61444  -0.59674  -0.58480  -0.57295  -0.56016
 Alpha  occ. eigenvalues --   -0.55385  -0.53833  -0.52834  -0.50984  -0.49946
 Alpha  occ. eigenvalues --   -0.49198  -0.47940  -0.46375  -0.45222  -0.42742
 Alpha  occ. eigenvalues --   -0.41954  -0.40235
 Alpha virt. eigenvalues --    0.02539   0.03276   0.03463   0.04080   0.05036
 Alpha virt. eigenvalues --    0.05435   0.06023   0.06400   0.06681   0.07451
 Alpha virt. eigenvalues --    0.08157   0.08529   0.09257   0.10144   0.10281

 Mulliken charges:
               1
     1  C    0.260726
     2  C    0.468302
     3  C    0.170803
     4  C    0.621552
     5  C    0.104074
     6  C    0.613997
     7  C    0.608491
     8  C    0.761712
     9  H    0.281777
    10  H    0.050227
    11  H    0.006419
    12  H   -0.126514
    13  H    0.165307
    14  H   -0.167643
    15  H    0.055009
    16  H    0.081650
    17  H   -0.064689
    18  H   -0.130691
    19  H    0.177550
    20  H   -0.095562
    21  H    0.040334
    22  H    0.043010
    23  H    0.020658
    24  N   -0.205576
    25  N   -0.682185
    26  N   -0.221210
    27  O   -0.637119
    28  O   -0.641872
    29  O   -0.520888
    30  O   -0.608153
    31  O   -0.429495
 Sum of Mulliken charges =  -0.00000

 Dipole moment (field-independent basis, Debye):
    X=             -0.1457    Y=             -4.2999    Z=             -1.9495  Tot=              4.7235

 Test job not archived.
 1\1\GINC-SE252\SP\RHF\Aug-CC-pVDZ\C8H15N3O5\OHZDE\08-Apr-2025\0\\#t hf
  aug-cc-pvdz iop(5/13=1,5/36=2,99/5=2) pseudo=read geom=check guess=(r
 ead,tcheck) scf=(maxcycle=1)\\title\\0,1\C,0,2.22051,0.320031,0.822636
 \C,0,1.07793,0.989537,0.176498\C,0,3.00272,-0.624754,-0.0947396\C,0,2.
 33566,-1.74833,-0.766952\C,0,-1.14688,0.490188,-0.816011\C,0,-2.04203,
 1.52267,-0.074183\C,0,-1.75692,-0.78403,-1.29113\C,0,-2.04191,-1.66999
 ,-0.0719292\H,0,-0.58298,2.51289,-0.20639\H,0,-3.97754,-0.952919,0.175
 122\H,0,-3.70228,-2.53141,0.850887\H,0,-2.57553,-0.558533,-1.96873\H,0

 Normal termination of Gaussian 16 at Tue Apr  8 20:17:30 2025.
