 Gaussian 16, Revision C.01,

 ----------------------------------------------------------------------
 #t hf aug-cc-pvdz symm=none int=(grid=ultrafine) guess=(read,tcheck) s
 table=(opt,rrhf)
 ----------------------------------------------------------------------
 -----
 title
 -----
 Symbolic Z-matrix:
 Charge =  0 Multiplicity = 1

 SCF Done:  E(RHF) =  -522.609292185     A.U. after   14 cycles
 Normal termination of Gaussian 16 at Tue Apr  8 22:06:12 2025.
 Gaussian 16:  ES64L-G16RevC.01  3-Jul-2019

 ----------------------------------------------------------------------
 #t hf aug-cc-pvdz iop(5/13=1,5/36=2,99/5=2) pseudo=read geom=check gue
 ss=(read,tcheck) scf=(maxcycle=1)
 ----------------------------------------------------------------------
 -----
 title
 -----
 Structure from the checkpoint file:  "ANI1ccx_922_conf14_mol1.chk"
 Charge =  0 Multiplicity = 1

                         Standard orientation:
 ---------------------------------------------------------------------
 Center     Atomic      Atomic             Coordinates (Angstroms)
 Number     Number       Type             X           Y           Z
 ---------------------------------------------------------------------
      1          6           0       -1.900071    0.002090    0.321906
      2          6           0       -0.024590   -0.780587   -0.920901
      3          6           0        1.909139   -0.025818    0.281606
      4          6           0       -0.009932    0.821764   -0.923016
      5          1           0       -1.510911   -1.989420   -0.006866
      6          1           0        0.162098   -1.228220   -1.899960
      7          1           0        1.529319   -2.072050   -0.097514
      8          1           0        1.557960    2.031280   -0.182903
      9          1           0        0.134789    1.268060   -1.878190
     10          1           0       -1.409590    1.985140    0.196283
     11          7           0       -1.313551   -1.099040   -0.386337
     12          7           0        1.183229   -1.084640   -0.131619
     13          7           0        1.177600    1.118070   -0.114765
     14          7           0       -1.319720    1.108710   -0.325831
     15          8           0       -2.654591   -0.025575    1.235470
     16          8           0        2.854109   -0.024572    1.017210
 ---------------------------------------------------------------------

 SCF Done:  E(RHF) =  -522.767106518     A.U. after    2 cycles

 The electronic state is 1-A.
 Alpha  occ. eigenvalues --  -20.56578 -20.54145 -15.66689 -15.66355 -15.66083
 Alpha  occ. eigenvalues --  -15.65687 -11.41345 -11.40624 -11.36023 -11.35708
 Alpha  occ. eigenvalues --   -1.39718  -1.37987  -1.30213  -1.22524  -1.19508
 Alpha  occ. eigenvalues --   -1.12978  -0.99495  -0.87813  -0.86339  -0.82536
 Alpha  occ. eigenvalues --   -0.74981  -0.73955  -0.71205  -0.67523  -0.67244
 Alpha  occ. eigenvalues --   -0.64416  -0.64022  -0.63539  -0.61632  -0.59371
 Alpha  occ. eigenvalues --   -0.54253  -0.49755  -0.46926  -0.45102  -0.43248
 Alpha  occ. eigenvalues --   -0.41350  -0.40846
 Alpha virt. eigenvalues --    0.01859   0.02463   0.03842   0.04710   0.06184
 Alpha virt. eigenvalues --    0.06565   0.08866   0.10163   0.10973   0.11535
 Alpha virt. eigenvalues --    0.11591   0.12054   0.12914   0.13005   0.13442

 Mulliken charges:
               1
     1  C    0.807070
     2  C    0.984140
     3  C    0.716628
     4  C    1.110705
     5  H   -0.111566
     6  H   -0.180239
     7  H   -0.031818
     8  H   -0.135122
     9  H   -0.240368
    10  H   -0.009147
    11  N   -0.452061
    12  N   -0.554924
    13  N   -0.548259
    14  N   -0.525239
    15  O   -0.403052
    16  O   -0.426748
 Sum of Mulliken charges =  -0.00000

 Dipole moment (field-independent basis, Debye):
    X=              0.1894    Y=             -0.2315    Z=             -5.0727  Tot=              5.0815

 Test job not archived.
 1\1\GINC-SE334\SP\RHF\Aug-CC-pVDZ\C4H6N4O2\OHZDE\08-Apr-2025\0\\#t hf
 aug-cc-pvdz iop(5/13=1,5/36=2,99/5=2) pseudo=read geom=check guess=(re
 ad,tcheck) scf=(maxcycle=1)\\title\\0,1\C,0,-1.90007,0.00208944,0.3219
 06\C,0,-0.0245892,-0.780587,-0.920901\C,0,1.90914,-0.0258176,0.281606\
 C,0,-0.00993206,0.821764,-0.923016\H,0,-1.51091,-1.98942,-0.00686647\H
 ,0,0.162099,-1.22822,-1.89996\H,0,1.52932,-2.07205,-0.0975137\H,0,1.55
 796,2.03128,-0.182903\H,0,0.134789,1.26806,-1.87819\H,0,-1.40959,1.985
 14,0.196283\N,0,-1.31355,-1.09904,-0.386337\N,0,1.18323,-1.08464,-0.13

 Normal termination of Gaussian 16 at Tue Apr  8 22:06:20 2025.
