 Gaussian 16, Revision C.01,

 ----------------------------------------------------------------------
 #t hf aug-cc-pvdz symm=none int=(grid=ultrafine) guess=(read,tcheck) s
 table=(opt,rrhf)
 ----------------------------------------------------------------------
 -----
 title
 -----
 Symbolic Z-matrix:
 Charge =  0 Multiplicity = 1

 SCF Done:  E(RHF) =  -674.238157496     A.U. after   17 cycles
 Normal termination of Gaussian 16 at Tue Apr  8 19:25:42 2025.
 Gaussian 16:  ES64L-G16RevC.01  3-Jul-2019

 ----------------------------------------------------------------------
 #t hf aug-cc-pvdz iop(5/13=1,5/36=2,99/5=2) pseudo=read geom=check gue
 ss=(read,tcheck) scf=(maxcycle=1)
 ----------------------------------------------------------------------
 -----
 title
 -----
 Structure from the checkpoint file:  "ANI1ccx_1351_conf3_mol1.chk"
 Charge =  0 Multiplicity = 1

                         Standard orientation:
 ---------------------------------------------------------------------
 Center     Atomic      Atomic             Coordinates (Angstroms)
 Number     Number       Type             X           Y           Z
 ---------------------------------------------------------------------
      1          6           0       -3.467459    0.513428    0.451248
      2          6           0       -1.136119    0.028177   -0.068968
      3          6           0        0.370056    1.789159   -0.180891
      4          6           0        1.227650   -0.303844    0.138508
      5          6           0        3.538300   -0.527320    0.249963
      6          6           0       -0.097293   -0.855779    0.058489
      7          1           0        3.772951   -0.074830   -0.719719
      8          1           0        4.125949   -1.422644    0.394839
      9          1           0        3.659591    0.155619    1.117640
     10          1           0        1.471333    3.451858   -0.555782
     11          1           0       -3.816799    0.840194   -0.539293
     12          1           0       -4.222729   -0.092892    0.947101
     13          1           0       -3.147608    1.414602    1.022100
     14          1           0       -0.252927    3.680339   -0.625515
     15          7           0       -0.929589    1.370190   -0.125979
     16          7           0        0.501302    3.161369   -0.241047
     17          7           0        1.480881    1.038958   -0.050514
     18          7           0       -0.182708   -2.303011   -0.052787
     19          8           0        2.206920   -1.141853    0.245001
     20          8           0       -2.371950   -0.415103    0.203670
     21          8           0       -1.121192   -2.779010   -0.653569
 ---------------------------------------------------------------------

 SCF Done:  E(RHF) =  -674.441799380     A.U. after    2 cycles

 The electronic state is 1-A.
 Alpha  occ. eigenvalues --  -20.63945 -20.61693 -20.61523 -15.75291 -15.66161
 Alpha  occ. eigenvalues --  -15.63778 -15.62659 -11.39931 -11.39365 -11.38622
 Alpha  occ. eigenvalues --  -11.31470 -11.30607 -11.26604  -1.44149  -1.42956
 Alpha  occ. eigenvalues --   -1.39141  -1.29141  -1.17772  -1.15098  -1.08775
 Alpha  occ. eigenvalues --   -1.00103  -0.97268  -0.91758  -0.85796  -0.84241
 Alpha  occ. eigenvalues --   -0.77259  -0.76235  -0.71384  -0.71074  -0.69876
 Alpha  occ. eigenvalues --   -0.67901  -0.67225  -0.64934  -0.63380  -0.61822
 Alpha  occ. eigenvalues --   -0.60096  -0.58625  -0.57658  -0.56056  -0.54689
 Alpha  occ. eigenvalues --   -0.53989  -0.52322  -0.50252  -0.44253  -0.42912
 Alpha  occ. eigenvalues --   -0.40305  -0.38619  -0.34254
 Alpha virt. eigenvalues --    0.02510   0.03159   0.04013   0.04789   0.05578
 Alpha virt. eigenvalues --    0.06513   0.06799   0.07333   0.07877   0.07985
 Alpha virt. eigenvalues --    0.09714   0.10481   0.11747   0.12107   0.12660

 Mulliken charges:
               1
     1  C    0.698427
     2  C    0.541563
     3  C    1.007654
     4  C    0.342358
     5  C    0.680792
     6  C    1.007634
     7  H    0.005621
     8  H   -0.297194
     9  H    0.034390
    10  H    0.097523
    11  H   -0.095819
    12  H   -0.222120
    13  H    0.010014
    14  H   -0.038499
    15  N   -0.597893
    16  N   -0.360542
    17  N   -0.652241
    18  N   -0.546213
    19  O   -0.563126
    20  O   -0.630246
    21  O   -0.422086
 Sum of Mulliken charges =   0.00000

 Dipole moment (field-independent basis, Debye):
    X=              2.0029    Y=              5.4700    Z=             -0.0347  Tot=              5.8253

 Test job not archived.
 1\1\GINC-SE365\SP\RHF\Aug-CC-pVDZ\C6H8N4O3\OHZDE\08-Apr-2025\0\\#t hf
 aug-cc-pvdz iop(5/13=1,5/36=2,99/5=2) pseudo=read geom=check guess=(re
 ad,tcheck) scf=(maxcycle=1)\\title\\0,1\C,0,-3.46746,0.513426,0.451248
 \C,0,-1.13612,0.028177,-0.0689676\C,0,0.370054,1.78916,-0.180891\C,0,1
 .22765,-0.303842,0.138508\C,0,3.5383,-0.527316,0.249963\C,0,-0.0972927
 ,-0.855778,0.0584888\H,0,3.77295,-0.0748265,-0.719719\H,0,4.12595,-1.4
 2264,0.394839\H,0,3.65959,0.155623,1.11764\H,0,1.47133,3.45186,-0.5557
 82\H,0,-3.8168,0.840192,-0.539293\H,0,-4.22273,-0.0928952,0.947101\H,0

 Normal termination of Gaussian 16 at Tue Apr  8 19:25:54 2025.
