 Gaussian 16, Revision C.01,

 ----------------------------------------------------------------------
 #t hf aug-cc-pvdz symm=none int=(grid=ultrafine) guess=(read,tcheck) s
 table=(opt,rrhf)
 ----------------------------------------------------------------------
 -----
 title
 -----
 Symbolic Z-matrix:
 Charge =  0 Multiplicity = 1

 SCF Done:  E(RHF) =  -598.343639547     A.U. after   15 cycles
 Normal termination of Gaussian 16 at Tue Apr  8 19:21:57 2025.
 Gaussian 16:  ES64L-G16RevC.01  3-Jul-2019

 ----------------------------------------------------------------------
 #t hf aug-cc-pvdz iop(5/13=1,5/36=2,99/5=2) pseudo=read geom=check gue
 ss=(read,tcheck) scf=(maxcycle=1)
 ----------------------------------------------------------------------
 -----
 title
 -----
 Structure from the checkpoint file:  "ANI1ccx_1320_conf5_mol1.chk"
 Charge =  0 Multiplicity = 1

                         Standard orientation:
 ---------------------------------------------------------------------
 Center     Atomic      Atomic             Coordinates (Angstroms)
 Number     Number       Type             X           Y           Z
 ---------------------------------------------------------------------
      1          6           0       -1.618291   -2.161260    0.041842
      2          6           0        0.364022   -0.796935   -0.052616
      3          6           0        2.482869   -1.281262   -0.020199
      4          6           0        1.040800    0.400197   -0.032024
      5          6           0        0.345853    1.658759    0.023518
      6          6           0       -1.728770    0.303423   -0.026846
      7          1           0       -1.584029    2.368400   -0.043952
      8          1           0        3.099520    0.754397   -0.147125
      9          1           0        3.466279   -1.778093   -0.072427
     10          1           0       -2.682951   -1.958419    0.155557
     11          1           0       -1.392451   -2.771630    0.934838
     12          1           0       -1.408431   -2.755590   -0.882735
     13          7           0       -1.004630   -0.869793    0.064308
     14          7           0        1.293299   -1.829591    0.042707
     15          7           0        2.367490    0.099253   -0.041587
     16          7           0       -1.012079    1.524390    0.041268
     17          8           0        0.917196    2.741319    0.064139
     18          8           0       -2.957870    0.375380   -0.100774
 ---------------------------------------------------------------------

 SCF Done:  E(RHF) =  -598.521694919     A.U. after    2 cycles

 The electronic state is 1-A.
 Alpha  occ. eigenvalues --  -20.55688 -20.55377 -15.71351 -15.70585 -15.69604
 Alpha  occ. eigenvalues --  -15.65251 -11.43490 -11.39468 -11.36208 -11.34749
 Alpha  occ. eigenvalues --  -11.29194 -11.28926  -1.39335  -1.36319  -1.34568
 Alpha  occ. eigenvalues --   -1.27377  -1.22056  -1.16611  -1.05992  -0.98147
 Alpha  occ. eigenvalues --   -0.92099  -0.88691  -0.84662  -0.81603  -0.76653
 Alpha  occ. eigenvalues --   -0.71635  -0.69960  -0.69424  -0.66563  -0.65525
 Alpha  occ. eigenvalues --   -0.64180  -0.62961  -0.61511  -0.60901  -0.56369
 Alpha  occ. eigenvalues --   -0.55499  -0.50144  -0.48107  -0.47661  -0.45360
 Alpha  occ. eigenvalues --   -0.44136  -0.41890  -0.32992
 Alpha virt. eigenvalues --    0.02058   0.03591   0.04301   0.04716   0.05761
 Alpha virt. eigenvalues --    0.07086   0.07599   0.08479   0.09131   0.09868
 Alpha virt. eigenvalues --    0.10505   0.10920   0.11777   0.12704   0.13546

 Mulliken charges:
               1
     1  C    0.706738
     2  C    0.281936
     3  C    0.808902
     4  C    0.515338
     5  C    0.664993
     6  C    0.762100
     7  H    0.002563
     8  H   -0.113168
     9  H   -0.163310
    10  H   -0.265835
    11  H   -0.045671
    12  H    0.012722
    13  N   -0.482783
    14  N   -0.612406
    15  N   -0.531847
    16  N   -0.460481
    17  O   -0.561988
    18  O   -0.517801
 Sum of Mulliken charges =  -0.00000

 Dipole moment (field-independent basis, Debye):
    X=              3.7653    Y=             -2.8193    Z=             -0.3439  Tot=              4.7163

 Test job not archived.
 1\1\GINC-SE179\SP\RHF\Aug-CC-pVDZ\C6H6N4O2\OHZDE\08-Apr-2025\0\\#t hf
 aug-cc-pvdz iop(5/13=1,5/36=2,99/5=2) pseudo=read geom=check guess=(re
 ad,tcheck) scf=(maxcycle=1)\\title\\0,1\C,0,-1.61829,-2.16126,0.041842
 2\C,0,0.364022,-0.796934,-0.0526156\C,0,2.48287,-1.28126,-0.0201988\C,
 0,1.0408,0.400198,-0.0320241\C,0,0.345852,1.65876,0.0235183\C,0,-1.728
 77,0.303423,-0.0268462\H,0,-1.58403,2.3684,-0.0439523\H,0,3.09952,0.75
 4399,-0.147125\H,0,3.46628,-1.77809,-0.0724273\H,0,-2.68295,-1.95842,0
 .155557\H,0,-1.39245,-2.77163,0.934838\H,0,-1.40843,-2.75559,-0.882735

 Normal termination of Gaussian 16 at Tue Apr  8 19:22:09 2025.
