 Gaussian 16, Revision C.01,

 ----------------------------------------------------------------------
 #t hf aug-cc-pvdz symm=none int=(grid=ultrafine) guess=(read,tcheck) s
 table=(opt,rrhf)
 ----------------------------------------------------------------------
 -----
 title
 -----
 Symbolic Z-matrix:
 Charge =  0 Multiplicity = 1

 SCF Done:  E(RHF) =  -489.663807516     A.U. after   14 cycles
 Normal termination of Gaussian 16 at Tue Apr  8 22:11:03 2025.
 Gaussian 16:  ES64L-G16RevC.01  3-Jul-2019

 ----------------------------------------------------------------------
 #t hf aug-cc-pvdz iop(5/13=1,5/36=2,99/5=2) pseudo=read geom=check gue
 ss=(read,tcheck) scf=(maxcycle=1)
 ----------------------------------------------------------------------
 -----
 title
 -----
 Structure from the checkpoint file:  "ANI1ccx_957_conf111_mol1.chk"
 Charge =  0 Multiplicity = 1

                         Standard orientation:
 ---------------------------------------------------------------------
 Center     Atomic      Atomic             Coordinates (Angstroms)
 Number     Number       Type             X           Y           Z
 ---------------------------------------------------------------------
      1          6           0        0.566653   -0.743252   -0.300757
      2          6           0        1.150970    0.740485   -0.259803
      3          6           0       -0.444809   -0.841632    0.842587
      4          6           0       -1.740761    0.008645    0.325482
      5          1           0        2.750129   -0.056287    0.336932
      6          1           0       -3.272511   -0.462769   -1.021210
      7          1           0        0.009058   -0.337810    1.704360
      8          1           0       -0.657529   -1.850960    1.179330
      9          1           0       -1.973561   -1.537250   -1.131000
     10          1           0        1.801769   -2.281950   -0.681214
     11          1           0        1.618939   -1.946160    0.765378
     12          1           0        0.089836   -0.792086   -1.251300
     13          7           0        1.809929   -1.473700   -0.136301
     14          7           0       -2.358031   -0.708522   -0.684822
     15          8           0       -2.102710    1.117520    0.587709
     16          8           0        0.494113    1.749490   -0.600106
     17          8           0        2.393380    0.827410    0.287590
 ---------------------------------------------------------------------

 SCF Done:  E(RHF) =  -489.812797772     A.U. after    2 cycles

 The electronic state is 1-A.
 Alpha  occ. eigenvalues --  -20.60709 -20.55163 -20.54943 -15.66635 -15.65125
 Alpha  occ. eigenvalues --  -11.39594 -11.38709 -11.32289 -11.29128  -1.39892
 Alpha  occ. eigenvalues --   -1.36680  -1.29651  -1.23163  -1.17708  -1.05062
 Alpha  occ. eigenvalues --   -0.92137  -0.82577  -0.81591  -0.76423  -0.72592
 Alpha  occ. eigenvalues --   -0.70004  -0.68177  -0.67014  -0.64204  -0.62068
 Alpha  occ. eigenvalues --   -0.60902  -0.59515  -0.56976  -0.55916  -0.54340
 Alpha  occ. eigenvalues --   -0.50224  -0.47079  -0.44206  -0.42945  -0.41875
 Alpha virt. eigenvalues --    0.01017   0.02688   0.03359   0.04688   0.05966
 Alpha virt. eigenvalues --    0.06508   0.06842   0.07760   0.10385   0.10854
 Alpha virt. eigenvalues --    0.11326   0.12664   0.12963   0.13550   0.14430

 Mulliken charges:
               1
     1  C    0.321098
     2  C    0.681951
     3  C    0.400635
     4  C    0.791614
     5  H    0.250984
     6  H   -0.059435
     7  H    0.076650
     8  H   -0.232687
     9  H    0.021449
    10  H   -0.011665
    11  H    0.168825
    12  H   -0.204414
    13  N   -0.499154
    14  N   -0.200524
    15  O   -0.470831
    16  O   -0.547281
    17  O   -0.487212
 Sum of Mulliken charges =   0.00000

 Dipole moment (field-independent basis, Debye):
    X=              0.4341    Y=             -9.8441    Z=             -0.6485  Tot=              9.8750

 Test job not archived.
 1\1\GINC-SE458\SP\RHF\Aug-CC-pVDZ\C4H8N2O3\OHZDE\08-Apr-2025\0\\#t hf
 aug-cc-pvdz iop(5/13=1,5/36=2,99/5=2) pseudo=read geom=check guess=(re
 ad,tcheck) scf=(maxcycle=1)\\title\\0,1\C,0,0.566654,-0.743252,-0.3007
 57\C,0,1.15097,0.740485,-0.259803\C,0,-0.444808,-0.841632,0.842587\C,0
 ,-1.74076,0.00864475,0.325482\H,0,2.75013,-0.0562864,0.336932\H,0,-3.2
 7251,-0.462769,-1.02121\H,0,0.00905868,-0.33781,1.70436\H,0,-0.657528,
 -1.85096,1.17933\H,0,-1.97356,-1.53725,-1.131\H,0,1.80177,-2.28195,-0.
 681214\H,0,1.61894,-1.94616,0.765378\H,0,0.0898371,-0.792086,-1.2513\N

 Normal termination of Gaussian 16 at Tue Apr  8 22:11:10 2025.
