 Gaussian 16, Revision C.01,

 ----------------------------------------------------------------------
 #t hf aug-cc-pvdz symm=none int=(grid=ultrafine) guess=(read,tcheck) s
 table=(opt,rrhf)
 ----------------------------------------------------------------------
 -----
 title
 -----
 Symbolic Z-matrix:
 Charge =  0 Multiplicity = 1

 SCF Done:  E(RHF) =  -486.381329909     A.U. after   14 cycles
 Normal termination of Gaussian 16 at Tue Apr  8 21:43:57 2025.
 Gaussian 16:  ES64L-G16RevC.01  3-Jul-2019

 ----------------------------------------------------------------------
 #t hf aug-cc-pvdz iop(5/13=1,5/36=2,99/5=2) pseudo=read geom=check gue
 ss=(read,tcheck) scf=(maxcycle=1)
 ----------------------------------------------------------------------
 -----
 title
 -----
 Structure from the checkpoint file:  "ANI1ccx_517_conf2_mol1.chk"
 Charge =  0 Multiplicity = 1

                         Standard orientation:
 ---------------------------------------------------------------------
 Center     Atomic      Atomic             Coordinates (Angstroms)
 Number     Number       Type             X           Y           Z
 ---------------------------------------------------------------------
      1          6           0       -0.707505    0.334913   -0.036626
      2          6           0        0.688915   -0.293546   -0.042457
      3          1           0       -2.912460    0.750043    0.122229
      4          1           0       -1.469450   -1.580659    0.050085
      5          1           0        1.524100    1.615601   -0.107289
      6          1           0        2.855820   -0.807434    0.160437
      7          7           0       -1.655800   -0.594482   -0.098340
      8          7           0        1.658880    0.613145    0.028963
      9          8           0       -2.963280   -0.246995    0.115889
     10          8           0       -0.864488    1.556541   -0.044406
     11          8           0        0.874677   -1.516469   -0.038059
     12          8           0        2.964590    0.162374    0.058410
 ---------------------------------------------------------------------

 SCF Done:  E(RHF) =  -486.531854401     A.U. after    2 cycles

 The electronic state is 1-A.
 Alpha  occ. eigenvalues --  -20.65714 -20.65286 -20.58709 -20.58334 -15.74408
 Alpha  occ. eigenvalues --  -15.74403 -11.41457 -11.41203  -1.45145  -1.43964
 Alpha  occ. eigenvalues --   -1.37452  -1.35994  -1.17073  -1.16519  -0.92860
 Alpha  occ. eigenvalues --   -0.87914  -0.83458  -0.74676  -0.73542  -0.70298
 Alpha  occ. eigenvalues --   -0.69541  -0.67241  -0.64855  -0.64594  -0.62499
 Alpha  occ. eigenvalues --   -0.59404  -0.55752  -0.55252  -0.47243  -0.42562
 Alpha  occ. eigenvalues --   -0.41742
 Alpha virt. eigenvalues --    0.03511   0.04349   0.04556   0.06308   0.07402
 Alpha virt. eigenvalues --    0.08741   0.10913   0.11432   0.12159   0.12545
 Alpha virt. eigenvalues --    0.14943   0.15644   0.16087   0.16890   0.17887

 Mulliken charges:
               1
     1  C    0.640643
     2  C    0.656697
     3  H    0.210473
     4  H    0.082813
     5  H    0.081594
     6  H    0.193949
     7  N    0.167361
     8  N    0.159147
     9  O   -0.533993
    10  O   -0.560105
    11  O   -0.583318
    12  O   -0.515260
 Sum of Mulliken charges =  -0.00000

 Dipole moment (field-independent basis, Debye):
    X=             -0.1405    Y=              0.1525    Z=              0.2377  Tot=              0.3155

 Test job not archived.
 1\1\GINC-SE250\SP\RHF\Aug-CC-pVDZ\C2H4N2O4\OHZDE\08-Apr-2025\0\\#t hf
 aug-cc-pvdz iop(5/13=1,5/36=2,99/5=2) pseudo=read geom=check guess=(re
 ad,tcheck) scf=(maxcycle=1)\\title\\0,1\C,0,-0.707505,0.334912,-0.0366
 263\C,0,0.688915,-0.293547,-0.0424566\H,0,-2.91246,0.750042,0.122229\H
 ,0,-1.46945,-1.58066,0.0500848\H,0,1.5241,1.6156,-0.107289\H,0,2.85582
 ,-0.807435,0.160437\N,0,-1.6558,-0.594483,-0.0983405\N,0,1.65888,0.613
 144,0.0289633\O,0,-2.96328,-0.246996,0.115889\O,0,-0.864488,1.55654,-0
 .0444059\O,0,0.874677,-1.51647,-0.0380591\O,0,2.96459,0.162373,0.05841

 Normal termination of Gaussian 16 at Tue Apr  8 21:44:01 2025.
