 Gaussian 16, Revision C.01,

 ----------------------------------------------------------------------
 #t hf aug-cc-pvdz symm=none int=(grid=ultrafine) guess=(read,tcheck) s
 table=(opt,rrhf)
 ----------------------------------------------------------------------
 -----
 title
 -----
 Symbolic Z-matrix:
 Charge =  0 Multiplicity = 1

 SCF Done:  E(RHF) =  -962.292669214     A.U. after   14 cycles
 Normal termination of Gaussian 16 at Tue Apr  8 20:50:59 2025.
 Gaussian 16:  ES64L-G16RevC.01  3-Jul-2019

 ----------------------------------------------------------------------
 #t hf aug-cc-pvdz iop(5/13=1,5/36=2,99/5=2) pseudo=read geom=check gue
 ss=(read,tcheck) scf=(maxcycle=1)
 ----------------------------------------------------------------------
 -----
 title
 -----
 Structure from the checkpoint file:  "ANI1ccx_1756_conf22_mol2.chk"
 Charge =  0 Multiplicity = 1

                         Standard orientation:
 ---------------------------------------------------------------------
 Center     Atomic      Atomic             Coordinates (Angstroms)
 Number     Number       Type             X           Y           Z
 ---------------------------------------------------------------------
      1          6           0        1.474802   -1.757189    0.529987
      2          6           0        0.354490   -0.751960    0.818108
      3          6           0        2.005442   -1.617769   -0.882573
      4          6           0        2.314811   -0.166805   -1.308060
      5          6           0        3.212940    0.572185   -0.306751
      6          6           0       -1.977599   -0.095644    0.167507
      7          6           0       -3.211249   -0.850035   -0.234752
      8          6           0       -1.787410    1.138918   -0.783554
      9          6           0       -0.972124    2.221309   -0.123696
     10          1           0       -5.066979   -0.776601   -0.237891
     11          1           0       -0.992681    3.456499    1.228580
     12          1           0       -2.799490    1.541647   -1.042510
     13          1           0       -1.268870    0.870579   -1.732240
     14          1           0       -2.161620    0.273790    1.179710
     15          1           0       -0.944218   -1.849531   -0.365204
     16          1           0        1.993639    2.228261   -0.446446
     17          1           0        3.449369    2.408052    0.547300
     18          1           0        2.889331   -0.207950   -2.254270
     19          1           0        1.380970    0.390050   -1.453700
     20          1           0        1.384222   -2.065970   -1.664520
     21          1           0        3.006092   -2.075388   -0.940611
     22          1           0        2.260652   -1.591949    1.296350
     23          1           0        0.714870   -3.198630    1.708550
     24          1           0        1.648893   -3.771999    0.519579
     25          7           0        0.911351   -3.090670    0.704967
     26          7           0        2.951819    1.885262   -0.173475
     27          7           0       -0.793594   -0.970019    0.096942
     28          8           0        0.465178    0.206745    1.572900
     29          8           0        4.129851   -0.008947    0.243585
     30          8           0       -3.205208   -1.894923   -0.838185
     31          8           0        0.124021    2.553610   -0.462995
     32          8           0       -1.589011    2.768788    0.920273
     33          8           0       -4.358059   -0.195388    0.064549
 ---------------------------------------------------------------------

 SCF Done:  E(RHF) =  -962.586138821     A.U. after    2 cycles

 The electronic state is 1-A.
 Alpha  occ. eigenvalues --  -20.65529 -20.64345 -20.59743 -20.58554 -20.54933
 Alpha  occ. eigenvalues --  -20.51536 -15.65857 -15.62552 -15.62479 -11.43192
 Alpha  occ. eigenvalues --  -11.42263 -11.37189 -11.34486 -11.33427 -11.29290
 Alpha  occ. eigenvalues --  -11.28286 -11.24441 -11.24373  -1.46023  -1.45803
 Alpha  occ. eigenvalues --   -1.35981  -1.35729  -1.35536  -1.32913  -1.21768
 Alpha  occ. eigenvalues --   -1.17889  -1.15451  -1.08306  -1.05059  -0.99016
 Alpha  occ. eigenvalues --   -0.93975  -0.87709  -0.85862  -0.83420  -0.79981
 Alpha  occ. eigenvalues --   -0.77137  -0.75316  -0.75117  -0.73529  -0.72390
 Alpha  occ. eigenvalues --   -0.69682  -0.69133  -0.68616  -0.67221  -0.66940
 Alpha  occ. eigenvalues --   -0.66300  -0.65378  -0.64122  -0.63357  -0.62596
 Alpha  occ. eigenvalues --   -0.61251  -0.60281  -0.58213  -0.57759  -0.56468
 Alpha  occ. eigenvalues --   -0.55407  -0.54143  -0.53100  -0.52785  -0.52232
 Alpha  occ. eigenvalues --   -0.51691  -0.49880  -0.48963  -0.48520  -0.44345
 Alpha  occ. eigenvalues --   -0.42008  -0.41719  -0.40341  -0.39539
 Alpha virt. eigenvalues --    0.02474   0.03507   0.03555   0.03681   0.05147
 Alpha virt. eigenvalues --    0.05447   0.05823   0.06169   0.06966   0.07248
 Alpha virt. eigenvalues --    0.07830   0.08572   0.08869   0.09696   0.10151

 Mulliken charges:
               1
     1  C    0.444824
     2  C    0.562585
     3  C    0.398237
     4  C    0.276350
     5  C    0.599887
     6  C    0.067684
     7  C    0.897886
     8  C    0.344827
     9  C    0.734950
    10  H    0.236060
    11  H    0.192150
    12  H    0.034143
    13  H   -0.035252
    14  H   -0.162442
    15  H   -0.016173
    16  H    0.175349
    17  H   -0.019735
    18  H    0.080012
    19  H   -0.398719
    20  H   -0.086765
    21  H   -0.027785
    22  H   -0.074956
    23  H    0.053683
    24  H    0.019408
    25  N   -0.216457
    26  N   -0.223031
    27  N   -0.466968
    28  O   -0.637512
    29  O   -0.597831
    30  O   -0.523333
    31  O   -0.563696
    32  O   -0.519685
    33  O   -0.547694
 Sum of Mulliken charges =  -0.00000

 Dipole moment (field-independent basis, Debye):
    X=             -5.6100    Y=              0.5004    Z=             -1.1424  Tot=              5.7469

 Test job not archived.
 1\1\GINC-SE092\SP\RHF\Aug-CC-pVDZ\C9H15N3O6\OHZDE\08-Apr-2025\0\\#t hf
  aug-cc-pvdz iop(5/13=1,5/36=2,99/5=2) pseudo=read geom=check guess=(r
 ead,tcheck) scf=(maxcycle=1)\\title\\0,1\C,0,1.4748,-1.75719,0.529987\
 C,0,0.354489,-0.75196,0.818108\C,0,2.00544,-1.61777,-0.882573\C,0,2.31
 481,-0.166806,-1.30806\C,0,3.21294,0.572183,-0.306751\C,0,-1.9776,-0.0
 956424,0.167507\C,0,-3.21125,-0.850032,-0.234752\C,0,-1.78741,1.13892,
 -0.783554\C,0,-0.972123,2.22131,-0.123696\H,0,-5.06698,-0.776597,-0.23
 7891\H,0,-0.992679,3.4565,1.22858\H,0,-2.79949,1.54165,-1.04251\H,0,-1

 Normal termination of Gaussian 16 at Tue Apr  8 20:51:56 2025.
