 Gaussian 16, Revision C.01,

 ----------------------------------------------------------------------
 #t hf aug-cc-pvdz symm=none int=(grid=ultrafine) guess=(read,tcheck) s
 table=(opt,rrhf)
 ----------------------------------------------------------------------
 -----
 title
 -----
 Symbolic Z-matrix:
 Charge =  0 Multiplicity = 1

 SCF Done:  E(RHF) =  -509.536197143     A.U. after   14 cycles
 Normal termination of Gaussian 16 at Tue Apr  8 22:09:59 2025.
 Gaussian 16:  ES64L-G16RevC.01  3-Jul-2019

 ----------------------------------------------------------------------
 #t hf aug-cc-pvdz iop(5/13=1,5/36=2,99/5=2) pseudo=read geom=check gue
 ss=(read,tcheck) scf=(maxcycle=1)
 ----------------------------------------------------------------------
 -----
 title
 -----
 Structure from the checkpoint file:  "ANI1ccx_939_conf43_mol1.chk"
 Charge =  0 Multiplicity = 1

                         Standard orientation:
 ---------------------------------------------------------------------
 Center     Atomic      Atomic             Coordinates (Angstroms)
 Number     Number       Type             X           Y           Z
 ---------------------------------------------------------------------
      1          6           0       -0.958298    0.561644   -0.723775
      2          6           0       -1.165751   -0.598326    0.196727
      3          6           0        0.478505    0.506042   -1.131290
      4          6           0        1.455489   -0.001764   -0.089173
      5          1           0       -1.664010    1.801311    0.693299
      6          1           0       -0.310632    2.273770    0.173283
      7          1           0       -1.531551    0.319068   -1.600180
      8          1           0        0.549349   -0.102390   -2.014860
      9          1           0        0.791780    1.474380   -1.293640
     10          1           0        2.030439    0.400782    1.696040
     11          1           0       -1.087402   -2.514199    0.016008
     12          7           0       -1.185440    1.906311   -0.121695
     13          8           0       -1.338831   -0.586823    1.417320
     14          8           0        2.269829   -0.925114   -0.175486
     15          8           0        1.452319    0.767778    0.997857
     16          8           0       -1.050762   -1.731149   -0.531317
 ---------------------------------------------------------------------

 SCF Done:  E(RHF) =  -509.694408478     A.U. after    2 cycles

 The electronic state is 1-A.
 Alpha  occ. eigenvalues --  -20.64252 -20.63760 -20.58347 -20.57268 -15.61858
 Alpha  occ. eigenvalues --  -11.41941 -11.41654 -11.30981 -11.27336  -1.44204
 Alpha  occ. eigenvalues --   -1.43523  -1.33472  -1.32076  -1.20044  -1.07658
 Alpha  occ. eigenvalues --   -0.97775  -0.87649  -0.82585  -0.74792  -0.73935
 Alpha  occ. eigenvalues --   -0.72799  -0.70519  -0.67923  -0.67228  -0.64258
 Alpha  occ. eigenvalues --   -0.63730  -0.61863  -0.58944  -0.56883  -0.55267
 Alpha  occ. eigenvalues --   -0.51726  -0.49883  -0.48968  -0.47789  -0.42223
 Alpha virt. eigenvalues --    0.03231   0.03787   0.04369   0.05166   0.05716
 Alpha virt. eigenvalues --    0.06832   0.07930   0.09789   0.10620   0.11622
 Alpha virt. eigenvalues --    0.12188   0.12481   0.13794   0.14030   0.14284

 Mulliken charges:
               1
     1  C    0.403272
     2  C    0.746026
     3  C    0.272505
     4  C    0.732913
     5  H   -0.028608
     6  H    0.078873
     7  H   -0.005438
     8  H   -0.071302
     9  H   -0.098786
    10  H    0.198557
    11  H    0.175602
    12  N   -0.267768
    13  O   -0.558987
    14  O   -0.551412
    15  O   -0.515929
    16  O   -0.509518
 Sum of Mulliken charges =  -0.00000

 Dipole moment (field-independent basis, Debye):
    X=             -0.4026    Y=              0.5195    Z=             -0.7202  Tot=              0.9751

 Test job not archived.
 1\1\GINC-SE086\SP\RHF\Aug-CC-pVDZ\C4H7N1O4\OHZDE\08-Apr-2025\0\\#t hf
 aug-cc-pvdz iop(5/13=1,5/36=2,99/5=2) pseudo=read geom=check guess=(re
 ad,tcheck) scf=(maxcycle=1)\\title\\0,1\C,0,-0.958297,0.561644,-0.7237
 75\C,0,-1.16575,-0.598327,0.196727\C,0,0.478506,0.506042,-1.13129\C,0,
 1.45549,-0.00176403,-0.0891726\H,0,-1.66401,1.80131,0.693299\H,0,-0.31
 0632,2.27377,0.173283\H,0,-1.53155,0.319067,-1.60018\H,0,0.54935,-0.10
 239,-2.01486\H,0,0.791781,1.47438,-1.29364\H,0,2.03044,0.400782,1.6960
 4\H,0,-1.0874,-2.5142,0.0160086\N,0,-1.18544,1.90631,-0.121695\O,0,-1.

 Normal termination of Gaussian 16 at Tue Apr  8 22:10:07 2025.
