 Gaussian 16, Revision C.01,

 ----------------------------------------------------------------------
 #t hf aug-cc-pvdz symm=none int=(grid=ultrafine) guess=(read,tcheck) s
 table=(opt,rrhf)
 ----------------------------------------------------------------------
 -----
 title
 -----
 Symbolic Z-matrix:
 Charge =  0 Multiplicity = 1

 SCF Done:  E(RHF) =  -318.603719696     A.U. after   17 cycles
 Normal termination of Gaussian 16 at Tue Apr  8 21:31:35 2025.
 Gaussian 16:  ES64L-G16RevC.01  3-Jul-2019

 ----------------------------------------------------------------------
 #t hf aug-cc-pvdz iop(5/13=1,5/36=2,99/5=2) pseudo=read geom=check gue
 ss=(read,tcheck) scf=(maxcycle=1)
 ----------------------------------------------------------------------
 -----
 title
 -----
 Structure from the checkpoint file:  "ANI1ccx_387_conf4_mol2.chk"
 Charge =  0 Multiplicity = 1

                         Standard orientation:
 ---------------------------------------------------------------------
 Center     Atomic      Atomic             Coordinates (Angstroms)
 Number     Number       Type             X           Y           Z
 ---------------------------------------------------------------------
      1          6           0        1.676950   -0.223247   -0.061301
      2          1           0        0.298376    1.079970    0.030350
      3          1           0        0.855857   -0.967969   -0.113815
      4          1           0       -2.429910   -1.099300    0.899980
      5          7           0       -2.243820   -0.232881    0.300322
      6          8           0        1.260050    1.015630    0.114356
      7          8           0        2.824670   -0.563222   -0.097246
      8          8           0       -3.219630    0.042209   -0.335981
 ---------------------------------------------------------------------

 SCF Done:  E(RHF) =  -318.707096200     A.U. after    2 cycles

 The electronic state is 1-A.
 Alpha  occ. eigenvalues --  -20.69917 -20.64104 -20.57061 -15.80918 -11.40653
 Alpha  occ. eigenvalues --   -1.51865  -1.43840  -1.34494  -0.99932  -0.88110
 Alpha  occ. eigenvalues --   -0.80598  -0.78506  -0.70704  -0.68603  -0.65730
 Alpha  occ. eigenvalues --   -0.63888  -0.60900  -0.50728  -0.47948  -0.46073
 Alpha virt. eigenvalues --    0.02327   0.03369   0.04676   0.05853   0.07794
 Alpha virt. eigenvalues --    0.10844   0.11329   0.13059   0.15161   0.15848
 Alpha virt. eigenvalues --    0.16574   0.17461   0.18820   0.19930   0.21177

 Mulliken charges:
               1
     1  C    0.774746
     2  H    0.198921
     3  H   -0.160362
     4  H    0.158275
     5  N    0.175741
     6  O   -0.401009
     7  O   -0.410437
     8  O   -0.335875
 Sum of Mulliken charges =  -0.00000

 Dipole moment (field-independent basis, Debye):
    X=             -4.5994    Y=             -1.3459    Z=              1.2498  Tot=              4.9526

 Test job not archived.
 1\1\GINC-SE364\SP\RHF\Aug-CC-pVDZ\C1H3N1O3\OHZDE\08-Apr-2025\0\\#t hf
 aug-cc-pvdz iop(5/13=1,5/36=2,99/5=2) pseudo=read geom=check guess=(re
 ad,tcheck) scf=(maxcycle=1)\\title\\0,1\C,0,1.67695,-0.223247,-0.06130
 12\H,0,0.298376,1.07997,0.0303498\H,0,0.855857,-0.967969,-0.113815\H,0
 ,-2.42991,-1.0993,0.89998\N,0,-2.24382,-0.232881,0.300322\O,0,1.26005,
 1.01563,0.114356\O,0,2.82467,-0.563222,-0.0972462\O,0,-3.21963,0.04220
 93,-0.335981\\Version=ES64L-G16RevC.01\State=1-A\HF=-318.7070962\RMSD=
 2.527e-03\Dipole=-1.8095575,-0.5295241,0.4917225\Quadrupole=-9.4291912

 Normal termination of Gaussian 16 at Tue Apr  8 21:31:37 2025.
