 Gaussian 16, Revision C.01,

 ----------------------------------------------------------------------
 #t hf aug-cc-pvdz symm=none int=(grid=ultrafine) guess=(read,tcheck) s
 table=(opt,rrhf)
 ----------------------------------------------------------------------
 -----
 title
 -----
 Symbolic Z-matrix:
 Charge =  0 Multiplicity = 1

 SCF Done:  E(RHF) =  -431.399213514     A.U. after   15 cycles
 Normal termination of Gaussian 16 at Tue Apr  8 21:42:50 2025.
 Gaussian 16:  ES64L-G16RevC.01  3-Jul-2019

 ----------------------------------------------------------------------
 #t hf aug-cc-pvdz iop(5/13=1,5/36=2,99/5=2) pseudo=read geom=check gue
 ss=(read,tcheck) scf=(maxcycle=1)
 ----------------------------------------------------------------------
 -----
 title
 -----
 Structure from the checkpoint file:  "ANI1ccx_499_conf2_mol1.chk"
 Charge =  0 Multiplicity = 1

                         Standard orientation:
 ---------------------------------------------------------------------
 Center     Atomic      Atomic             Coordinates (Angstroms)
 Number     Number       Type             X           Y           Z
 ---------------------------------------------------------------------
      1          6           0        0.039373    0.720994   -0.034645
      2          6           0       -0.765865   -0.586368    0.020068
      3          1           0        1.563930   -1.259931   -0.131814
      4          1           0        1.990032    1.454729    0.069050
      5          1           0       -2.264179    0.596235    0.027366
      6          7           0        1.359361    0.622250    0.117396
      7          8           0        2.147440   -0.501021   -0.050004
      8          8           0       -0.634378    1.765930   -0.053617
      9          8           0       -2.034800   -0.331517    0.018714
     10          8           0       -0.284057   -1.677710   -0.002457
 ---------------------------------------------------------------------

 SCF Done:  E(RHF) =  -431.535896918     A.U. after    2 cycles

 The electronic state is 1-A.
 Alpha  occ. eigenvalues --  -20.65166 -20.65033 -20.60863 -20.58680 -15.75465
 Alpha  occ. eigenvalues --  -11.44290 -11.42109  -1.48144  -1.43456  -1.39041
 Alpha  occ. eigenvalues --   -1.36582  -1.16748  -0.96476  -0.90308  -0.83659
 Alpha  occ. eigenvalues --   -0.74312  -0.72456  -0.70922  -0.69893  -0.66601
 Alpha  occ. eigenvalues --   -0.64551  -0.62274  -0.58044  -0.56484  -0.53948
 Alpha  occ. eigenvalues --   -0.47730  -0.42345
 Alpha virt. eigenvalues --    0.03390   0.04492   0.05184   0.06096   0.08452
 Alpha virt. eigenvalues --    0.09671   0.10673   0.11686   0.12178   0.14287
 Alpha virt. eigenvalues --    0.14786   0.16597   0.17273   0.18070   0.18867

 Mulliken charges:
               1
     1  C    0.694565
     2  C    0.528327
     3  H    0.192376
     4  H    0.101367
     5  H    0.220714
     6  N    0.103903
     7  O   -0.471090
     8  O   -0.561590
     9  O   -0.394354
    10  O   -0.414218
 Sum of Mulliken charges =   0.00000

 Dipole moment (field-independent basis, Debye):
    X=              1.0156    Y=              1.2024    Z=             -0.0930  Tot=              1.5767

 Test job not archived.
 1\1\GINC-SE095\SP\RHF\Aug-CC-pVDZ\C2H3N1O4\OHZDE\08-Apr-2025\0\\#t hf
 aug-cc-pvdz iop(5/13=1,5/36=2,99/5=2) pseudo=read geom=check guess=(re
 ad,tcheck) scf=(maxcycle=1)\\title\\0,1\C,0,0.0393715,0.720994,-0.0346
 451\C,0,-0.765865,-0.586368,0.0200684\H,0,1.56393,-1.25993,-0.131814\H
 ,0,1.99003,1.45473,0.0690505\H,0,-2.26418,0.596234,0.0273659\N,0,1.359
 36,0.622251,0.117396\O,0,2.14744,-0.50102,-0.0500039\O,0,-0.63438,1.76
 593,-0.0536173\O,0,-2.0348,-0.331518,0.0187139\O,0,-0.284057,-1.67771,
 -0.00245667\\Version=ES64L-G16RevC.01\State=1-A\HF=-431.5358969\RMSD=3

 Normal termination of Gaussian 16 at Tue Apr  8 21:42:54 2025.
