 Gaussian 16, Revision C.01,

 ----------------------------------------------------------------------
 #t hf aug-cc-pvdz symm=none int=(grid=ultrafine) guess=(read,tcheck) s
 table=(opt,rrhf)
 ----------------------------------------------------------------------
 -----
 title
 -----
 Symbolic Z-matrix:
 Charge =  0 Multiplicity = 1

 SCF Done:  E(RHF) =  -456.250384519     A.U. after   11 cycles
 Normal termination of Gaussian 16 at Tue Apr  8 21:06:41 2025.
 Gaussian 16:  ES64L-G16RevC.01  3-Jul-2019

 ----------------------------------------------------------------------
 #t hf aug-cc-pvdz iop(5/13=1,5/36=2,99/5=2) pseudo=read geom=check gue
 ss=(read,tcheck) scf=(maxcycle=1)
 ----------------------------------------------------------------------
 -----
 title
 -----
 Structure from the checkpoint file:  "ANI1ccx_1844_conf320_mol1.chk"
 Charge =  0 Multiplicity = 1

                         Standard orientation:
 ---------------------------------------------------------------------
 Center     Atomic      Atomic             Coordinates (Angstroms)
 Number     Number       Type             X           Y           Z
 ---------------------------------------------------------------------
      1          1           0       -2.169962    0.673318   -0.077220
      2          1           0       -0.421042    1.836540   -0.220140
      3          1           0        0.379785    1.980780    1.111850
      4          1           0        2.883108    0.933703   -1.248520
      5          1           0        2.003398    1.259380   -0.069716
      6          1           0       -0.587024   -2.513750   -0.948911
      7          1           0       -2.164702    1.974300    0.716537
      8          1           0        0.333266   -1.626990   -0.290222
      9          1           0        2.306079   -1.621249    1.469190
     10          1           0        2.478129   -0.742450    0.125783
     11          1           0       -1.970211   -1.323380    0.240590
     12          1           0       -3.170461   -1.038861   -0.639674
     13          8           0        2.887748    0.792128   -0.325418
     14          8           0        2.090939   -1.604179    0.466298
     15          8           0        0.485493    1.784170    0.165288
     16          8           0       -0.580993   -1.739420   -0.479671
     17          8           0       -2.032212    1.677580   -0.124219
     18          8           0       -2.838521   -0.884196    0.276528
 ---------------------------------------------------------------------

 SCF Done:  E(RHF) =  -456.401645894     A.U. after    2 cycles

 The electronic state is 1-A.
 Alpha  occ. eigenvalues --  -20.58034 -20.57463 -20.57331 -20.57162 -20.56557
 Alpha  occ. eigenvalues --  -20.56220  -1.35561  -1.33708  -1.31491  -1.30410
 Alpha  occ. eigenvalues --   -1.29630  -1.26829  -0.76659  -0.75217  -0.74652
 Alpha  occ. eigenvalues --   -0.73838  -0.71809  -0.70209  -0.65374  -0.64295
 Alpha  occ. eigenvalues --   -0.62106  -0.59152  -0.57746  -0.56598  -0.54893
 Alpha  occ. eigenvalues --   -0.53474  -0.52111  -0.51307  -0.51034  -0.50535
 Alpha virt. eigenvalues --    0.02789   0.04076   0.04798   0.05359   0.06489
 Alpha virt. eigenvalues --    0.07192   0.07983   0.08241   0.09315   0.10085
 Alpha virt. eigenvalues --    0.10576   0.12029   0.17444   0.18169   0.18709

 Mulliken charges:
               1
     1  H    0.345270
     2  H    0.311129
     3  H    0.194317
     4  H    0.138796
     5  H    0.356271
     6  H    0.109057
     7  H    0.080433
     8  H    0.213441
     9  H    0.247425
    10  H    0.293321
    11  H    0.282223
    12  H    0.205444
    13  O   -0.504487
    14  O   -0.518651
    15  O   -0.520236
    16  O   -0.322237
    17  O   -0.418539
    18  O   -0.492977
 Sum of Mulliken charges =  -0.00000

 Dipole moment (field-independent basis, Debye):
    X=             -0.7023    Y=             -0.4308    Z=              0.1676  Tot=              0.8408

 Test job not archived.
 1\1\GINC-SE221\SP\RHF\Aug-CC-pVDZ\H12O6\OHZDE\08-Apr-2025\0\\#t hf aug
 -cc-pvdz iop(5/13=1,5/36=2,99/5=2) pseudo=read geom=check guess=(read,
 tcheck) scf=(maxcycle=1)\\title\\0,1\H,0,-2.16996,0.673318,-0.0772198\
 H,0,-0.42104,1.83654,-0.22014\H,0,0.379787,1.98078,1.11185\H,0,2.88311
 ,0.933702,-1.24852\H,0,2.0034,1.25938,-0.0697157\H,0,-0.587023,-2.5137
 5,-0.948911\H,0,-2.1647,1.9743,0.716537\H,0,0.333267,-1.62699,-0.29022
 2\H,0,2.30608,-1.62125,1.46919\H,0,2.47813,-0.742451,0.125783\H,0,-1.9
 7021,-1.32338,0.24059\H,0,-3.17046,-1.03886,-0.639674\O,0,2.88775,0.79

 Normal termination of Gaussian 16 at Tue Apr  8 21:06:46 2025.
