 Gaussian 16, Revision C.01,

 ----------------------------------------------------------------------
 #t hf aug-cc-pvdz symm=none int=(grid=ultrafine) guess=(read,tcheck) s
 table=(opt,rrhf)
 ----------------------------------------------------------------------
 -----
 title
 -----
 Symbolic Z-matrix:
 Charge =  0 Multiplicity = 1

 SCF Done:  E(RHF) =  -752.415658299     A.U. after   16 cycles
 Normal termination of Gaussian 16 at Tue Apr  8 19:57:47 2025.
 Gaussian 16:  ES64L-G16RevC.01  3-Jul-2019

 ----------------------------------------------------------------------
 #t hf aug-cc-pvdz iop(5/13=1,5/36=2,99/5=2) pseudo=read geom=check gue
 ss=(read,tcheck) scf=(maxcycle=1)
 ----------------------------------------------------------------------
 -----
 title
 -----
 Structure from the checkpoint file:  "ANI1ccx_1572_conf2_mol1.chk"
 Charge =  0 Multiplicity = 1

                         Standard orientation:
 ---------------------------------------------------------------------
 Center     Atomic      Atomic             Coordinates (Angstroms)
 Number     Number       Type             X           Y           Z
 ---------------------------------------------------------------------
      1          6           0        2.160460   -1.662980   -1.037700
      2          6           0        2.782360   -0.690196   -0.069933
      3          6           0        0.638741    0.710401    0.061773
      4          6           0        0.488713    2.222540   -0.120476
      5          6           0       -0.298079    0.077237    1.056260
      6          6           0       -1.667230   -0.341092    0.463783
      7          6           0       -2.579100   -1.280049    0.992876
      8          6           0       -3.521490   -0.200642   -0.751339
      9          1           0       -1.187279    1.745871   -0.919220
     10          1           0       -4.674510   -1.557199    0.430212
     11          1           0       -4.291560    0.143450   -1.393040
     12          1           0       -2.553310   -2.049859    1.746950
     13          1           0       -0.451358    0.777635    1.911680
     14          1           0        0.146547   -0.806383    1.481370
     15          1           0        0.455356    0.243370   -0.928964
     16          1           0        2.494540    0.946587    0.991630
     17          1           0        2.980490   -2.267420   -1.422920
     18          1           0        1.743110   -1.313640   -1.994410
     19          1           0        1.472510   -3.013610    0.284429
     20          1           0        0.595414   -2.919380   -1.106270
     21          7           0        1.092510   -2.409230   -0.408636
     22          7           0        2.021650    0.390316    0.300655
     23          7           0       -2.260440    0.270697   -0.623258
     24          7           0       -3.743700   -1.146749    0.233605
     25          8           0        3.860890   -0.949976    0.473066
     26          8           0        1.240951    3.037690    0.344101
     27          8           0       -0.667635    2.577790   -0.713353
 ---------------------------------------------------------------------

 SCF Done:  E(RHF) =  -752.639472059     A.U. after    2 cycles

 The electronic state is 1-A.
 Alpha  occ. eigenvalues --  -20.60108 -20.55378 -20.53778 -15.72089 -15.65292
 Alpha  occ. eigenvalues --  -15.64360 -15.62623 -11.39107 -11.36846 -11.34824
 Alpha  occ. eigenvalues --  -11.30866 -11.30316 -11.30106 -11.28005 -11.26888
 Alpha  occ. eigenvalues --   -1.40376  -1.33935  -1.32186  -1.31576  -1.21224
 Alpha  occ. eigenvalues --   -1.17798  -1.15757  -1.06658  -1.01115  -0.95296
 Alpha  occ. eigenvalues --   -0.91952  -0.85231  -0.82183  -0.79433  -0.78589
 Alpha  occ. eigenvalues --   -0.77096  -0.75004  -0.72595  -0.67708  -0.66123
 Alpha  occ. eigenvalues --   -0.65730  -0.64571  -0.63754  -0.62990  -0.62314
 Alpha  occ. eigenvalues --   -0.61446  -0.60080  -0.59352  -0.57826  -0.56596
 Alpha  occ. eigenvalues --   -0.55354  -0.53172  -0.52284  -0.48450  -0.47137
 Alpha  occ. eigenvalues --   -0.45644  -0.44441  -0.42365  -0.41021  -0.39136
 Alpha  occ. eigenvalues --   -0.33478
 Alpha virt. eigenvalues --    0.01041   0.02418   0.02752   0.04324   0.04808
 Alpha virt. eigenvalues --    0.05199   0.06229   0.06752   0.07511   0.08062
 Alpha virt. eigenvalues --    0.08866   0.09396   0.10094   0.10525   0.11037

 Mulliken charges:
               1
     1  C    0.883040
     2  C    0.496668
     3  C    0.252895
     4  C    0.757356
     5  C    0.177097
     6  C   -0.286771
     7  C    1.484904
     8  C    0.898259
     9  H    0.309867
    10  H   -0.029238
    11  H   -0.331651
    12  H   -0.407530
    13  H    0.095821
    14  H    0.026856
    15  H   -0.198099
    16  H   -0.062426
    17  H   -0.169099
    18  H   -0.202914
    19  H    0.045572
    20  H   -0.014063
    21  N   -0.296357
    22  N   -0.389792
    23  N   -0.752738
    24  N   -0.686965
    25  O   -0.610397
    26  O   -0.489440
    27  O   -0.500855
 Sum of Mulliken charges =   0.00000

 Dipole moment (field-independent basis, Debye):
    X=             -9.1450    Y=             -7.2161    Z=             -1.0630  Tot=             11.6976

 Test job not archived.
 1\1\GINC-SE460\SP\RHF\Aug-CC-pVDZ\C8H12N4O3\OHZDE\08-Apr-2025\0\\#t hf
  aug-cc-pvdz iop(5/13=1,5/36=2,99/5=2) pseudo=read geom=check guess=(r
 ead,tcheck) scf=(maxcycle=1)\\title\\0,1\C,0,2.16046,-1.66298,-1.0377\
 C,0,2.78236,-0.690196,-0.0699328\C,0,0.638741,0.710401,0.061773\C,0,0.
 488712,2.22254,-0.120476\C,0,-0.298079,0.0772363,1.05626\C,0,-1.66723,
 -0.341093,0.463783\C,0,-2.5791,-1.28005,0.992876\C,0,-3.52149,-0.20064
 3,-0.751339\H,0,-1.18728,1.74587,-0.91922\H,0,-4.67451,-1.5572,0.43021
 2\H,0,-4.29156,0.143449,-1.39304\H,0,-2.55331,-2.04986,1.74695\H,0,-0.

 Normal termination of Gaussian 16 at Tue Apr  8 19:58:17 2025.
