 Gaussian 16, Revision C.01,

 ----------------------------------------------------------------------
 #t hf aug-cc-pvdz symm=none int=(grid=ultrafine) guess=(read,tcheck) s
 table=(opt,rrhf)
 ----------------------------------------------------------------------
 -----
 title
 -----
 Symbolic Z-matrix:
 Charge =  0 Multiplicity = 1

 SCF Done:  E(RHF) =  -380.189403973     A.U. after   11 cycles
 Normal termination of Gaussian 16 at Tue Apr  8 21:02:25 2025.
 Gaussian 16:  ES64L-G16RevC.01  3-Jul-2019

 ----------------------------------------------------------------------
 #t hf aug-cc-pvdz iop(5/13=1,5/36=2,99/5=2) pseudo=read geom=check gue
 ss=(read,tcheck) scf=(maxcycle=1)
 ----------------------------------------------------------------------
 -----
 title
 -----
 Structure from the checkpoint file:  "ANI1ccx_1843_conf481_mol1.chk"
 Charge =  0 Multiplicity = 1

                         Standard orientation:
 ---------------------------------------------------------------------
 Center     Atomic      Atomic             Coordinates (Angstroms)
 Number     Number       Type             X           Y           Z
 ---------------------------------------------------------------------
      1          1           0       -1.518449   -1.876509    0.092490
      2          1           0       -0.861643   -0.511340   -0.216069
      3          1           0       -2.621288    0.266382    0.482718
      4          1           0       -3.008048    0.770176   -0.832562
      5          1           0        0.411221    1.490550    0.722668
      6          1           0       -0.975505    1.936110    1.281770
      7          1           0        1.981823    2.451829   -0.086411
      8          1           0        2.045932    0.923497   -0.055678
      9          1           0        1.374481   -1.790491    0.309064
     10          1           0        2.450261   -1.801071   -0.614346
     11          8           0       -0.628932   -1.455810   -0.068069
     12          8           0       -2.924269   -0.111531   -0.411853
     13          8           0       -0.591560    1.231460    0.741797
     14          8           0        1.935352    1.676109   -0.644096
     15          8           0        2.299561   -1.572621    0.246765
 ---------------------------------------------------------------------

 SCF Done:  E(RHF) =  -380.315833857     A.U. after    2 cycles

 The electronic state is 1-A.
 Alpha  occ. eigenvalues --  -20.60980 -20.59511 -20.59390 -20.55404 -20.55119
 Alpha  occ. eigenvalues --   -1.33513  -1.32348  -1.31382  -1.31180  -1.27301
 Alpha  occ. eigenvalues --   -0.75209  -0.73947  -0.72024  -0.70763  -0.69356
 Alpha  occ. eigenvalues --   -0.63515  -0.62334  -0.61271  -0.60039  -0.57448
 Alpha  occ. eigenvalues --   -0.55768  -0.53798  -0.52628  -0.51171  -0.49946
 Alpha virt. eigenvalues --    0.01676   0.04264   0.05219   0.05710   0.06759
 Alpha virt. eigenvalues --    0.07556   0.08160   0.09631   0.10242   0.10953
 Alpha virt. eigenvalues --    0.15658   0.18409   0.18737   0.19567   0.20772

 Mulliken charges:
               1
     1  H    0.219381
     2  H    0.271851
     3  H    0.220792
     4  H    0.171234
     5  H    0.224121
     6  H    0.178567
     7  H    0.160716
     8  H    0.171745
     9  H    0.177905
    10  H    0.113371
    11  O   -0.453947
    12  O   -0.409468
    13  O   -0.447360
    14  O   -0.303933
    15  O   -0.294975
 Sum of Mulliken charges =  -0.00000

 Dipole moment (field-independent basis, Debye):
    X=             -1.7958    Y=              4.3006    Z=              2.0492  Tot=              5.0911

 Test job not archived.
 1\1\GINC-SE044\SP\RHF\Aug-CC-pVDZ\H10O5\OHZDE\08-Apr-2025\0\\#t hf aug
 -cc-pvdz iop(5/13=1,5/36=2,99/5=2) pseudo=read geom=check guess=(read,
 tcheck) scf=(maxcycle=1)\\title\\0,1\H,0,-1.51845,-1.87651,0.0924905\H
 ,0,-0.861644,-0.51134,-0.216069\H,0,-2.62129,0.266381,0.482718\H,0,-3.
 00805,0.770175,-0.832562\H,0,0.411219,1.49055,0.722668\H,0,-0.975507,1
 .93611,1.28177\H,0,1.98182,2.45183,-0.0864112\H,0,2.04593,0.923498,-0.
 0556779\H,0,1.37448,-1.79049,0.309064\H,0,2.45026,-1.80107,-0.614346\O
 ,0,-0.628933,-1.45581,-0.0680685\O,0,-2.92427,-0.111532,-0.411853\O,0,

 Normal termination of Gaussian 16 at Tue Apr  8 21:02:28 2025.
