 Gaussian 16, Revision C.01,

 ----------------------------------------------------------------------
 #t hf aug-cc-pvdz symm=none int=(grid=ultrafine) guess=(read,tcheck) s
 table=(opt,rrhf)
 ----------------------------------------------------------------------
 -----
 title
 -----
 Symbolic Z-matrix:
 Charge =  0 Multiplicity = 1

 SCF Done:  E(RHF) =  -528.723327612     A.U. after   14 cycles
 Normal termination of Gaussian 16 at Tue Apr  8 22:16:24 2025.
 Gaussian 16:  ES64L-G16RevC.01  3-Jul-2019

 ----------------------------------------------------------------------
 #t hf aug-cc-pvdz iop(5/13=1,5/36=2,99/5=2) pseudo=read geom=check gue
 ss=(read,tcheck) scf=(maxcycle=1)
 ----------------------------------------------------------------------
 -----
 title
 -----
 Structure from the checkpoint file:  "ANI1ccx_998_conf23_mol1.chk"
 Charge =  0 Multiplicity = 1

                         Standard orientation:
 ---------------------------------------------------------------------
 Center     Atomic      Atomic             Coordinates (Angstroms)
 Number     Number       Type             X           Y           Z
 ---------------------------------------------------------------------
      1          6           0        0.964456    0.120238    0.472075
      2          6           0        2.345940   -0.319562   -0.129415
      3          6           0       -0.030414   -0.873382    0.022486
      4          6           0       -1.409320   -0.859640    0.710863
      5          6           0       -2.558410   -0.046120    0.015278
      6          1           0        2.864900    1.505050    0.299710
      7          1           0       -2.767250    1.593821   -1.211810
      8          1           0       -1.688200   -1.872159    0.810917
      9          1           0       -1.287780   -0.428619    1.761040
     10          1           0       -1.315950    1.486141   -0.283015
     11          1           0        1.029850    2.188891    0.629787
     12          1           0        0.796054    1.673601   -0.854823
     13          1           0        1.142820    0.085988    1.567870
     14          1           0       -0.039931   -0.718471   -1.055550
     15          1           0        0.395286   -1.897539   -0.047962
     16          7           0        0.506344    1.482171    0.081101
     17          7           0       -2.313570    1.262231   -0.381161
     18          8           0       -3.601260   -0.616908   -0.218719
     19          8           0        2.528550   -1.366800   -0.664953
     20          8           0        3.278620    0.614118    0.125739
 ---------------------------------------------------------------------

 SCF Done:  E(RHF) =  -528.885781241     A.U. after    2 cycles

 The electronic state is 1-A.
 Alpha  occ. eigenvalues --  -20.65253 -20.59075 -20.53100 -15.67857 -15.62700
 Alpha  occ. eigenvalues --  -11.42018 -11.36054 -11.32152 -11.25901 -11.25255
 Alpha  occ. eigenvalues --   -1.44574  -1.36453  -1.34141  -1.22181  -1.15753
 Alpha  occ. eigenvalues --   -1.07302  -0.97897  -0.88802  -0.84313  -0.77732
 Alpha  occ. eigenvalues --   -0.76956  -0.73041  -0.70716  -0.69901  -0.68090
 Alpha  occ. eigenvalues --   -0.66510  -0.63474  -0.62090  -0.60460  -0.59723
 Alpha  occ. eigenvalues --   -0.56826  -0.53559  -0.53109  -0.51738  -0.50974
 Alpha  occ. eigenvalues --   -0.50342  -0.44681  -0.42053  -0.40695
 Alpha virt. eigenvalues --    0.01067   0.02728   0.04024   0.04235   0.05902
 Alpha virt. eigenvalues --    0.06297   0.06787   0.07108   0.08313   0.09526
 Alpha virt. eigenvalues --    0.10500   0.10800   0.11406   0.12206   0.12611

 Mulliken charges:
               1
     1  C    0.006243
     2  C    0.729313
     3  C    0.566596
     4  C    0.507897
     5  C    0.574158
     6  H    0.221810
     7  H   -0.021606
     8  H   -0.169889
     9  H    0.089576
    10  H    0.137944
    11  H    0.047883
    12  H    0.082944
    13  H   -0.093619
    14  H   -0.231825
    15  H   -0.139699
    16  N   -0.653081
    17  N   -0.226958
    18  O   -0.526924
    19  O   -0.392694
    20  O   -0.508068
 Sum of Mulliken charges =  -0.00000

 Dipole moment (field-independent basis, Debye):
    X=              3.7105    Y=              5.0890    Z=              1.2042  Tot=              6.4121

 Test job not archived.
 1\1\GINC-SE127\SP\RHF\Aug-CC-pVDZ\C5H10N2O3\OHZDE\08-Apr-2025\0\\#t hf
  aug-cc-pvdz iop(5/13=1,5/36=2,99/5=2) pseudo=read geom=check guess=(r
 ead,tcheck) scf=(maxcycle=1)\\title\\0,1\C,0,0.964456,0.120237,0.47207
 5\C,0,2.34594,-0.319562,-0.129415\C,0,-0.0304143,-0.873383,0.0224858\C
 ,0,-1.40932,-0.859641,0.710863\C,0,-2.55841,-0.0461209,0.0152783\H,0,2
 .8649,1.50505,0.29971\H,0,-2.76725,1.59382,-1.21181\H,0,-1.6882,-1.872
 16,0.810917\H,0,-1.28778,-0.42862,1.76104\H,0,-1.31595,1.48614,-0.2830
 15\H,0,1.02985,2.18889,0.629787\H,0,0.796054,1.6736,-0.854823\H,0,1.14

 Normal termination of Gaussian 16 at Tue Apr  8 22:16:36 2025.
