 Gaussian 16, Revision C.01,

 ----------------------------------------------------------------------
 #t hf aug-cc-pvdz symm=none int=(grid=ultrafine) guess=(read,tcheck) s
 table=(opt,rrhf)
 ----------------------------------------------------------------------
 -----
 title
 -----
 Symbolic Z-matrix:
 Charge =  0 Multiplicity = 1

 SCF Done:  E(RHF) =  -755.411025217     A.U. after   14 cycles
 Normal termination of Gaussian 16 at Tue Apr  8 19:33:21 2025.
 Gaussian 16:  ES64L-G16RevC.01  3-Jul-2019

 ----------------------------------------------------------------------
 #t hf aug-cc-pvdz iop(5/13=1,5/36=2,99/5=2) pseudo=read geom=check gue
 ss=(read,tcheck) scf=(maxcycle=1)
 ----------------------------------------------------------------------
 -----
 title
 -----
 Structure from the checkpoint file:  "ANI1ccx_1405_conf7_mol1.chk"
 Charge =  0 Multiplicity = 1

                         Standard orientation:
 ---------------------------------------------------------------------
 Center     Atomic      Atomic             Coordinates (Angstroms)
 Number     Number       Type             X           Y           Z
 ---------------------------------------------------------------------
      1          6           0       -1.333118    1.662021    0.265604
      2          6           0       -0.083070    0.884035    0.567149
      3          6           0       -2.262899    0.838722   -0.720468
      4          6           0       -2.747220   -0.539078   -0.172042
      5          6           0       -1.818051   -1.698358   -0.017436
      6          6           0        2.365601    0.860917    0.354141
      7          6           0        2.927280   -0.438650   -0.209130
      8          1           0        1.220210   -0.858969   -0.747795
      9          1           0        3.068052    1.694367    0.062198
     10          1           0        2.334701    0.775701    1.399730
     11          1           0        0.926384    1.935489   -0.833455
     12          1           0       -0.227582   -2.317430   -0.245759
     13          1           0       -3.108640   -0.379568    0.844682
     14          1           0       -3.612690   -0.901796   -0.821296
     15          1           0       -3.098838    1.501563   -0.891601
     16          1           0       -1.742639    0.762595   -1.724940
     17          1           0       -1.889678    1.754672    1.211320
     18          1           0       -0.611679    3.557440    0.384244
     19          1           0       -1.887976    3.365852   -0.668080
     20          7           0       -1.024047    2.994061   -0.365013
     21          7           0        1.022802    1.246639   -0.157427
     22          8           0       -0.021945    0.069936    1.484490
     23          8           0       -2.123482   -2.667408    0.656663
     24          8           0       -0.717558   -1.642059   -0.772644
     25          8           0        4.132820   -0.672884   -0.087259
     26          8           0        2.023659   -1.336642   -0.621136
 ---------------------------------------------------------------------

 SCF Done:  E(RHF) =  -755.640898872     A.U. after    2 cycles

 The electronic state is 1-A.
 Alpha  occ. eigenvalues --  -20.64547 -20.63184 -20.56967 -20.56651 -20.56221
 Alpha  occ. eigenvalues --  -15.67816 -15.65626 -11.41280 -11.40891 -11.39247
 Alpha  occ. eigenvalues --  -11.31727 -11.31694 -11.28762 -11.28069  -1.44913
 Alpha  occ. eigenvalues --   -1.42933  -1.37658  -1.33338  -1.32349  -1.23363
 Alpha  occ. eigenvalues --   -1.19207  -1.08161  -1.02443  -0.97667  -0.90525
 Alpha  occ. eigenvalues --   -0.85699  -0.82656  -0.81684  -0.76557  -0.74377
 Alpha  occ. eigenvalues --   -0.73309  -0.71130  -0.70107  -0.68918  -0.68410
 Alpha  occ. eigenvalues --   -0.67077  -0.65734  -0.63359  -0.62799  -0.61617
 Alpha  occ. eigenvalues --   -0.60448  -0.59577  -0.58911  -0.57471  -0.57344
 Alpha  occ. eigenvalues --   -0.52785  -0.51789  -0.49688  -0.49132  -0.48547
 Alpha  occ. eigenvalues --   -0.47909  -0.46340  -0.44460  -0.42824
 Alpha virt. eigenvalues --    0.01552   0.02553   0.03006   0.03990   0.05539
 Alpha virt. eigenvalues --    0.05585   0.06192   0.06620   0.07379   0.07941
 Alpha virt. eigenvalues --    0.08440   0.08858   0.10296   0.10571   0.11655

 Mulliken charges:
               1
     1  C    0.408823
     2  C    0.650260
     3  C    0.584593
     4  C   -0.134343
     5  C    0.524335
     6  C    0.538748
     7  C    0.549172
     8  H    0.246479
     9  H    0.003847
    10  H   -0.102509
    11  H   -0.073867
    12  H    0.287919
    13  H    0.095440
    14  H    0.185265
    15  H   -0.196247
    16  H    0.038916
    17  H   -0.143455
    18  H    0.063992
    19  H   -0.028107
    20  N   -0.269531
    21  N   -0.569693
    22  O   -0.580019
    23  O   -0.546091
    24  O   -0.630078
    25  O   -0.523845
    26  O   -0.380004
 Sum of Mulliken charges =  -0.00000

 Dipole moment (field-independent basis, Debye):
    X=             -4.8726    Y=              8.0691    Z=             -2.1900  Tot=              9.6772

 Test job not archived.
 1\1\GINC-SE035\SP\RHF\Aug-CC-pVDZ\C7H12N2O5\OHZDE\08-Apr-2025\0\\#t hf
  aug-cc-pvdz iop(5/13=1,5/36=2,99/5=2) pseudo=read geom=check guess=(r
 ead,tcheck) scf=(maxcycle=1)\\title\\0,1\C,0,-1.33312,1.66202,0.265604
 \C,0,-0.0830718,0.884035,0.567149\C,0,-2.2629,0.83872,-0.720468\C,0,-2
 .74722,-0.539081,-0.172042\C,0,-1.81805,-1.69836,-0.0174364\C,0,2.3656
 ,0.860919,0.354141\C,0,2.92728,-0.438647,-0.20913\H,0,1.22021,-0.85896
 8,-0.747795\H,0,3.06805,1.69437,0.0621975\H,0,2.3347,0.775703,1.39973\
 H,0,0.926382,1.93549,-0.833455\H,0,-0.22758,-2.31743,-0.245759\H,0,-3.

 Normal termination of Gaussian 16 at Tue Apr  8 19:33:50 2025.
