 Gaussian 16, Revision C.01,

 ----------------------------------------------------------------------
 #t hf aug-cc-pvdz symm=none int=(grid=ultrafine) guess=(read,tcheck) s
 table=(opt,rrhf)
 ----------------------------------------------------------------------
 -----
 title
 -----
 Symbolic Z-matrix:
 Charge =  0 Multiplicity = 1

 SCF Done:  E(RHF) =  -469.354524883     A.U. after   13 cycles
 Normal termination of Gaussian 16 at Tue Apr  8 21:49:02 2025.
 Gaussian 16:  ES64L-G16RevC.01  3-Jul-2019

 ----------------------------------------------------------------------
 #t hf aug-cc-pvdz iop(5/13=1,5/36=2,99/5=2) pseudo=read geom=check gue
 ss=(read,tcheck) scf=(maxcycle=1)
 ----------------------------------------------------------------------
 -----
 title
 -----
 Structure from the checkpoint file:  "ANI1ccx_672_conf2_mol2.chk"
 Charge =  0 Multiplicity = 1

                         Standard orientation:
 ---------------------------------------------------------------------
 Center     Atomic      Atomic             Coordinates (Angstroms)
 Number     Number       Type             X           Y           Z
 ---------------------------------------------------------------------
      1          6           0       -1.249359   -0.358254   -0.028177
      2          6           0        1.247611   -0.335353   -0.029021
      3          6           0        0.010553    1.538710    0.294341
      4          1           0       -0.019779   -1.877150    0.487156
      5          1           0        0.092301    1.411810    1.361320
      6          1           0       -0.034724    2.565330   -0.037935
      7          7           0        0.021529   -0.893584    0.286119
      8          8           0       -2.230510   -1.040817   -0.132966
      9          8           0        2.248520   -1.020853   -0.062367
     10          8           0        1.172192    0.970990   -0.308610
     11          8           0       -1.220368    0.976239   -0.150586
 ---------------------------------------------------------------------

 SCF Done:  E(RHF) =  -469.505289570     A.U. after    2 cycles

 The electronic state is 1-A.
 Alpha  occ. eigenvalues --  -20.67789 -20.67556 -20.59265 -20.58599 -15.71384
 Alpha  occ. eigenvalues --  -11.47197 -11.47033 -11.41823  -1.51302  -1.45609
 Alpha  occ. eigenvalues --   -1.38960  -1.36484  -1.24561  -1.03666  -0.93232
 Alpha  occ. eigenvalues --   -0.85876  -0.84646  -0.79817  -0.73737  -0.70372
 Alpha  occ. eigenvalues --   -0.69135  -0.68140  -0.67185  -0.63171  -0.61645
 Alpha  occ. eigenvalues --   -0.54563  -0.53826  -0.53796  -0.50505  -0.46880
 Alpha virt. eigenvalues --    0.02600   0.03893   0.04757   0.06745   0.07967
 Alpha virt. eigenvalues --    0.10201   0.10681   0.11199   0.11256   0.12493
 Alpha virt. eigenvalues --    0.13560   0.13594   0.14169   0.15301   0.16129

 Mulliken charges:
               1
     1  C    0.730572
     2  C    0.748842
     3  C    1.144002
     4  H   -0.050263
     5  H   -0.082453
     6  H   -0.266840
     7  N   -0.321546
     8  O   -0.388309
     9  O   -0.424285
    10  O   -0.556555
    11  O   -0.533164
 Sum of Mulliken charges =  -0.00000

 Dipole moment (field-independent basis, Debye):
    X=             -0.1525    Y=              2.6540    Z=              1.9428  Tot=              3.2926

 Test job not archived.
 1\1\GINC-SE179\SP\RHF\Aug-CC-pVDZ\C3H3N1O4\OHZDE\08-Apr-2025\0\\#t hf
 aug-cc-pvdz iop(5/13=1,5/36=2,99/5=2) pseudo=read geom=check guess=(re
 ad,tcheck) scf=(maxcycle=1)\\title\\0,1\C,0,-1.24936,-0.358256,-0.0281
 77\C,0,1.24761,-0.335351,-0.0290208\C,0,0.0105498,1.53871,0.294341\H,0
 ,-0.019777,-1.87715,0.487156\H,0,0.0922981,1.41181,1.36132\H,0,-0.0347
 284,2.56533,-0.0379351\N,0,0.0215293,-0.893584,0.286119\O,0,-2.23051,-
 1.04082,-0.132966\O,0,2.24852,-1.02085,-0.0623675\O,0,1.17219,0.970991
 ,-0.30861\O,0,-1.22037,0.976237,-0.150586\\Version=ES64L-G16RevC.01\St

 Normal termination of Gaussian 16 at Tue Apr  8 21:49:08 2025.
