 Gaussian 16, Revision C.01,

 ----------------------------------------------------------------------
 #t hf aug-cc-pvdz symm=none int=(grid=ultrafine) guess=(read,tcheck) s
 table=(opt,rrhf)
 ----------------------------------------------------------------------
 -----
 title
 -----
 Symbolic Z-matrix:
 Charge =  0 Multiplicity = 1

 SCF Done:  E(RHF) =  -681.672797588     A.U. after   14 cycles
 Normal termination of Gaussian 16 at Tue Apr  8 19:34:16 2025.
 Gaussian 16:  ES64L-G16RevC.01  3-Jul-2019

 ----------------------------------------------------------------------
 #t hf aug-cc-pvdz iop(5/13=1,5/36=2,99/5=2) pseudo=read geom=check gue
 ss=(read,tcheck) scf=(maxcycle=1)
 ----------------------------------------------------------------------
 -----
 title
 -----
 Structure from the checkpoint file:  "ANI1ccx_1434_conf2_mol2.chk"
 Charge =  0 Multiplicity = 1

                         Standard orientation:
 ---------------------------------------------------------------------
 Center     Atomic      Atomic             Coordinates (Angstroms)
 Number     Number       Type             X           Y           Z
 ---------------------------------------------------------------------
      1          6           0        1.926419    0.653445    0.106389
      2          6           0        0.513509    1.191750    0.034930
      3          6           0        2.051469   -0.683298   -0.563647
      4          6           0        3.481089   -1.018909   -0.944491
      5          6           0       -1.819491    0.551914    0.004980
      6          6           0       -2.680831   -0.685791    0.310772
      7          6           0       -2.326802    1.289820   -1.271741
      8          1           0       -1.552231   -1.599870   -0.969379
      9          1           0       -3.392972    1.464520   -1.127881
     10          1           0       -1.911832    2.309430   -1.326941
     11          1           0       -2.177231    0.683736   -2.149351
     12          1           0       -1.999952    1.275320    0.824094
     13          1           0       -0.097553   -0.646264    0.486473
     14          1           0        3.434789   -2.061799   -1.367721
     15          1           0        3.861109   -0.311569   -1.644941
     16          1           0        4.095159   -1.022669   -0.054240
     17          1           0        1.904559   -1.307870    1.156269
     18          1           0        1.454499   -0.627871   -1.451141
     19          1           0        2.441268    1.460521   -0.436729
     20          1           0        3.473449    0.853934    1.373249
     21          1           0        2.044218    1.288951    2.071849
     22          7           0        2.478429    0.570158    1.509639
     23          7           0       -0.438213    0.178502   -0.043146
     24          8           0        0.288595    2.358860   -0.012730
     25          8           0        1.549939   -1.662370    0.302592
     26          8           0       -3.605341   -0.735859    1.088809
     27          8           0       -2.324561   -1.809720   -0.342701
 ---------------------------------------------------------------------

 SCF Done:  E(RHF) =  -681.883167786     A.U. after    2 cycles

 The electronic state is 1-A.
 Alpha  occ. eigenvalues --  -20.63184 -20.59246 -20.57343 -20.56188 -15.66497
 Alpha  occ. eigenvalues --  -15.66236 -11.40186 -11.38357 -11.30958 -11.30713
 Alpha  occ. eigenvalues --  -11.30046 -11.24850 -11.24438  -1.41942  -1.39922
 Alpha  occ. eigenvalues --   -1.36255  -1.32227  -1.22950  -1.18809  -1.06214
 Alpha  occ. eigenvalues --   -1.03887  -0.96806  -0.90809  -0.84866  -0.82908
 Alpha  occ. eigenvalues --   -0.78982  -0.77994  -0.73915  -0.71163  -0.69582
 Alpha  occ. eigenvalues --   -0.68583  -0.67259  -0.66060  -0.64529  -0.63611
 Alpha  occ. eigenvalues --   -0.63364  -0.60584  -0.59641  -0.58570  -0.56754
 Alpha  occ. eigenvalues --   -0.56171  -0.55689  -0.54863  -0.53483  -0.50831
 Alpha  occ. eigenvalues --   -0.49274  -0.49212  -0.47039  -0.45070  -0.44423
 Alpha  occ. eigenvalues --   -0.41832
 Alpha virt. eigenvalues --    0.02176   0.03034   0.03900   0.03995   0.05266
 Alpha virt. eigenvalues --    0.05289   0.06562   0.06717   0.06818   0.07627
 Alpha virt. eigenvalues --    0.07841   0.08614   0.09330   0.10154   0.10594

 Mulliken charges:
               1
     1  C    0.704114
     2  C   -0.236467
     3  C    0.463578
     4  C    0.536437
     5  C   -0.129387
     6  C    0.719042
     7  C    0.735297
     8  H    0.270989
     9  H   -0.073402
    10  H    0.012244
    11  H   -0.104613
    12  H   -0.196750
    13  H    0.091417
    14  H    0.171283
    15  H   -0.013814
    16  H   -0.096085
    17  H    0.311273
    18  H   -0.318886
    19  H   -0.101391
    20  H    0.151350
    21  H    0.040004
    22  N   -0.582614
    23  N   -0.222007
    24  O   -0.448034
    25  O   -0.661840
    26  O   -0.487167
    27  O   -0.534570
 Sum of Mulliken charges =  -0.00000

 Dipole moment (field-independent basis, Debye):
    X=              6.0881    Y=              1.6675    Z=             -2.0439  Tot=              6.6350

 Test job not archived.
 1\1\GINC-SE125\SP\RHF\Aug-CC-pVDZ\C7H14N2O4\OHZDE\08-Apr-2025\0\\#t hf
  aug-cc-pvdz iop(5/13=1,5/36=2,99/5=2) pseudo=read geom=check guess=(r
 ead,tcheck) scf=(maxcycle=1)\\title\\0,1\C,0,1.92642,0.653444,0.10639\
 C,0,0.513511,1.19175,0.0349306\C,0,2.05147,-0.683299,-0.563646\C,0,3.4
 8109,-1.01891,-0.94449\C,0,-1.81949,0.551914,0.00498012\C,0,-2.68083,-
 0.685791,0.310773\C,0,-2.3268,1.28982,-1.27174\H,0,-1.55223,-1.59987,-
 0.969378\H,0,-3.39297,1.46452,-1.12788\H,0,-1.91183,2.30943,-1.32694\H
 ,0,-2.17723,0.683736,-2.14935\H,0,-1.99995,1.27532,0.824095\H,0,-0.097

 Normal termination of Gaussian 16 at Tue Apr  8 19:34:46 2025.
