 Gaussian 16, Revision C.01,

 ----------------------------------------------------------------------
 #t hf aug-cc-pvdz symm=none int=(grid=ultrafine) guess=(read,tcheck) s
 table=(opt,rrhf)
 ----------------------------------------------------------------------
 -----
 title
 -----
 Symbolic Z-matrix:
 Charge =  0 Multiplicity = 1

 SCF Done:  E(RHF) =  -911.508218876     A.U. after   15 cycles
 Normal termination of Gaussian 16 at Tue Apr  8 21:40:17 2025.
 Gaussian 16:  ES64L-G16RevC.01  3-Jul-2019

 ----------------------------------------------------------------------
 #t hf aug-cc-pvdz iop(5/13=1,5/36=2,99/5=2) pseudo=read geom=check gue
 ss=(read,tcheck) scf=(maxcycle=1)
 ----------------------------------------------------------------------
 -----
 title
 -----
 Structure from the checkpoint file:  "ANI1ccx_191_conf23_mol1.chk"
 Charge =  0 Multiplicity = 1

                         Standard orientation:
 ---------------------------------------------------------------------
 Center     Atomic      Atomic             Coordinates (Angstroms)
 Number     Number       Type             X           Y           Z
 ---------------------------------------------------------------------
      1          6           0       -1.553184    2.097766    0.269548
      2          6           0        1.716135   -2.240757    0.610466
      3          6           0        1.033161   -0.532605    2.414530
      4          6           0        1.906132   -0.822841    1.187010
      5          6           0        2.581440    0.168055   -0.961741
      6          6           0        0.341503   -2.689340    0.055229
      7          6           0       -2.539297   -1.557786   -0.543606
      8          6           0       -2.366039   -0.217755    0.218044
      9          6           0       -2.185202    1.042235   -0.634497
     10          6           0       -0.076965    2.001659    0.435477
     11          6           0        1.767240    0.355054    0.280982
     12          1           0        1.208613   -1.188168    3.204010
     13          1           0        2.843549    0.775851   -2.804730
     14          1           0       -0.518750   -2.316472    0.585165
     15          1           0        0.287249   -2.452650   -1.021880
     16          1           0        0.348155   -3.728400    0.205697
     17          1           0        2.534605   -2.535276   -0.007501
     18          1           0        1.904306   -2.903017    1.520010
     19          1           0        1.282249    0.391059    2.922390
     20          1           0       -0.047105   -0.469143    2.252560
     21          1           0        2.858162   -0.824002    1.691080
     22          1           0       -2.913433   -3.364107    0.048381
     23          1           0       -0.283733    0.120915   -0.314607
     24          1           0       -3.337319   -0.238367    0.813805
     25          1           0       -1.564329   -0.425329    0.963388
     26          1           0       -3.231582    1.352053   -0.911346
     27          1           0       -1.584601    0.791981   -1.441430
     28          1           0       -1.927913    1.906395    1.224130
     29          1           0       -1.757497    3.539396   -1.104760
     30          1           0       -1.353288    4.107687    0.425254
     31          1           0        2.282928    1.285414    0.839533
     32          7           0       -1.908086    3.412405   -0.089804
     33          7           0        0.426854    0.773306   -0.077751
     34          8           0        3.560331   -0.551690   -1.118390
     35          8           0        0.598575    2.841310    0.973372
     36          8           0       -2.125056   -1.824675   -1.653340
     37          8           0       -3.056085   -2.487657    0.338194
     38          8           0        2.220838    0.929224   -2.027950
 ---------------------------------------------------------------------

 SCF Done:  E(RHF) =  -911.787024323     A.U. after    2 cycles

 The electronic state is 1-A.
 Alpha  occ. eigenvalues --  -20.63709 -20.61784 -20.58922 -20.56018 -20.55914
 Alpha  occ. eigenvalues --  -15.65565 -15.61647 -11.42523 -11.39930 -11.37425
 Alpha  occ. eigenvalues --  -11.31129 -11.28856 -11.28297 -11.26472 -11.25127
 Alpha  occ. eigenvalues --  -11.23690 -11.22892 -11.22741  -1.43257  -1.41297
 Alpha  occ. eigenvalues --   -1.37537  -1.34579  -1.30409  -1.22372  -1.19119
 Alpha  occ. eigenvalues --   -1.10153  -1.08146  -1.01625  -0.99024  -0.96720
 Alpha  occ. eigenvalues --   -0.90618  -0.89090  -0.83881  -0.83124  -0.79508
 Alpha  occ. eigenvalues --   -0.78471  -0.74562  -0.73572  -0.71246  -0.70562
 Alpha  occ. eigenvalues --   -0.69700  -0.68574  -0.67960  -0.66667  -0.65426
 Alpha  occ. eigenvalues --   -0.64165  -0.63831  -0.62744  -0.61844  -0.60834
 Alpha  occ. eigenvalues --   -0.60300  -0.59577  -0.57264  -0.56045  -0.55168
 Alpha  occ. eigenvalues --   -0.54521  -0.53826  -0.53264  -0.52742  -0.52090
 Alpha  occ. eigenvalues --   -0.51624  -0.49643  -0.48619  -0.48061  -0.47472
 Alpha  occ. eigenvalues --   -0.46952  -0.46536  -0.45766  -0.40876  -0.39329
 Alpha virt. eigenvalues --    0.02562   0.03399   0.03555   0.03784   0.04973
 Alpha virt. eigenvalues --    0.05189   0.05507   0.05766   0.06440   0.07310
 Alpha virt. eigenvalues --    0.07432   0.07929   0.08196   0.08460   0.08554

 Mulliken charges:
               1
     1  C    0.549862
     2  C    0.202673
     3  C    1.532261
     4  C    0.128569
     5  C    1.072042
     6  C    0.924436
     7  C    0.576008
     8  C    0.335944
     9  C    0.978327
    10  C    0.521816
    11  C   -1.190433
    12  H   -0.317423
    13  H    0.274452
    14  H   -0.492915
    15  H    0.036774
    16  H   -0.218712
    17  H   -0.268700
    18  H   -0.008007
    19  H   -0.069066
    20  H   -0.415030
    21  H   -0.142835
    22  H    0.155038
    23  H   -0.188241
    24  H    0.015364
    25  H   -0.544670
    26  H   -0.043680
    27  H   -0.111866
    28  H   -0.219322
    29  H    0.054371
    30  H    0.031193
    31  H    0.385403
    32  N   -0.372523
    33  N   -0.238081
    34  O   -0.587912
    35  O   -0.568593
    36  O   -0.543762
    37  O   -0.530956
    38  O   -0.701805
 Sum of Mulliken charges =  -0.00000

 Dipole moment (field-independent basis, Debye):
    X=             -2.5687    Y=             -1.8626    Z=              1.0784  Tot=              3.3512

 Test job not archived.
 1\1\GINC-SE252\SP\RHF\Aug-CC-pVDZ\C11H20N2O5\OHZDE\08-Apr-2025\0\\#t h
 f aug-cc-pvdz iop(5/13=1,5/36=2,99/5=2) pseudo=read geom=check guess=(
 read,tcheck) scf=(maxcycle=1)\\title\\0,1\C,0,-1.55318,2.09777,0.26954
 8\C,0,1.71613,-2.24076,0.610466\C,0,1.03316,-0.532606,2.41453\C,0,1.90
 613,-0.822844,1.18701\C,0,2.58144,0.168051,-0.961741\C,0,0.341497,-2.6
 8934,0.0552288\C,0,-2.5393,-1.55778,-0.543606\C,0,-2.36604,-0.21775,0.
 218044\C,0,-2.1852,1.04224,-0.634497\C,0,-0.0769615,2.00166,0.435477\C
 ,0,1.76724,0.355051,0.280982\H,0,1.20861,-1.18817,3.20401\H,0,2.84355,

 Normal termination of Gaussian 16 at Tue Apr  8 21:41:32 2025.
