 Gaussian 16, Revision C.01,

 ----------------------------------------------------------------------
 #t hf aug-cc-pvdz symm=none int=(grid=ultrafine) guess=(read,tcheck) s
 table=(opt,rrhf)
 ----------------------------------------------------------------------
 -----
 title
 -----
 Symbolic Z-matrix:
 Charge =  0 Multiplicity = 1

 SCF Done:  E(RHF) =  -531.409523586     A.U. after   14 cycles
 Normal termination of Gaussian 16 at Tue Apr  8 19:25:18 2025.
 Gaussian 16:  ES64L-G16RevC.01  3-Jul-2019

 ----------------------------------------------------------------------
 #t hf aug-cc-pvdz iop(5/13=1,5/36=2,99/5=2) pseudo=read geom=check gue
 ss=(read,tcheck) scf=(maxcycle=1)
 ----------------------------------------------------------------------
 -----
 title
 -----
 Structure from the checkpoint file:  "ANI1ccx_1356_conf2_mol2.chk"
 Charge =  0 Multiplicity = 1

                         Standard orientation:
 ---------------------------------------------------------------------
 Center     Atomic      Atomic             Coordinates (Angstroms)
 Number     Number       Type             X           Y           Z
 ---------------------------------------------------------------------
      1          6           0       -2.680781   -0.125838   -0.382044
      2          6           0       -1.204531   -0.041196    0.036901
      3          6           0       -0.505200    1.131519   -0.605306
      4          6           0        0.917768    1.233409   -0.135355
      5          6           0        1.044119   -1.171701   -0.124731
      6          6           0       -0.438410   -1.299041   -0.446274
      7          1           0       -0.567196   -1.437461   -1.528909
      8          1           0       -0.796500   -2.157881    0.134981
      9          1           0       -0.487544    0.955236   -1.671729
     10          1           0       -0.992183    2.092289   -0.372914
     11          1           0       -3.116121   -1.038621   -0.037474
     12          1           0       -3.336121    0.651611    0.052085
     13          1           0       -2.759061   -0.092227   -1.454759
     14          1           0       -1.149181    0.934477    1.788531
     15          8           0        1.631859    0.070716    0.020857
     16          8           0       -1.074991   -0.018389    1.501591
     17          8           0        1.473279    2.269629    0.030597
     18          8           0        1.770619   -2.105751    0.075838
 ---------------------------------------------------------------------

 SCF Done:  E(RHF) =  -531.573361315     A.U. after    2 cycles

 The electronic state is 1-A.
 Alpha  occ. eigenvalues --  -20.65435 -20.61322 -20.58619 -20.57991 -11.42199
 Alpha  occ. eigenvalues --  -11.42164 -11.35030 -11.29223 -11.28982 -11.26066
 Alpha  occ. eigenvalues --   -1.46681  -1.39779  -1.34648  -1.34021  -1.13089
 Alpha  occ. eigenvalues --   -1.03391  -1.00332  -0.91573  -0.84867  -0.77737
 Alpha  occ. eigenvalues --   -0.74281  -0.72270  -0.70899  -0.70155  -0.67682
 Alpha  occ. eigenvalues --   -0.65695  -0.63444  -0.61943  -0.60310  -0.58638
 Alpha  occ. eigenvalues --   -0.58552  -0.56474  -0.55099  -0.52045  -0.51748
 Alpha  occ. eigenvalues --   -0.49896  -0.47796  -0.47211
 Alpha virt. eigenvalues --    0.01991   0.03406   0.03864   0.04537   0.05958
 Alpha virt. eigenvalues --    0.06221   0.06574   0.07508   0.08771   0.10795
 Alpha virt. eigenvalues --    0.11479   0.11900   0.12095   0.12597   0.12984

 Mulliken charges:
               1
     1  C    1.391820
     2  C   -2.104763
     3  C    0.647892
     4  C    0.659475
     5  C    0.632275
     6  C    0.607998
     7  H    0.101068
     8  H    0.004207
     9  H    0.082428
    10  H   -0.055609
    11  H   -0.042428
    12  H   -0.002558
    13  H    0.014292
    14  H    0.191934
    15  O   -0.627993
    16  O   -0.620909
    17  O   -0.416231
    18  O   -0.462899
 Sum of Mulliken charges =  -0.00000

 Dipole moment (field-independent basis, Debye):
    X=             -6.6091    Y=              0.8838    Z=             -2.6982  Tot=              7.1932

 Test job not archived.
 1\1\GINC-SE102\SP\RHF\Aug-CC-pVDZ\C6H8O4\OHZDE\08-Apr-2025\0\\#t hf au
 g-cc-pvdz iop(5/13=1,5/36=2,99/5=2) pseudo=read geom=check guess=(read
 ,tcheck) scf=(maxcycle=1)\\title\\0,1\C,0,-2.68078,-0.125837,-0.382045
 \C,0,-1.20453,-0.0411951,0.0369\C,0,-0.505199,1.13152,-0.605307\C,0,0.
 917769,1.23341,-0.135356\C,0,1.04412,-1.1717,-0.124732\C,0,-0.438409,-
 1.29904,-0.446275\H,0,-0.567195,-1.43746,-1.52891\H,0,-0.796499,-2.157
 88,0.13498\H,0,-0.487543,0.955237,-1.67173\H,0,-0.992182,2.09229,-0.37
 2915\H,0,-3.11612,-1.03862,-0.0374748\H,0,-3.33612,0.651612,0.0520844\

 Normal termination of Gaussian 16 at Tue Apr  8 19:25:27 2025.
