 Gaussian 16, Revision C.01,

 ----------------------------------------------------------------------
 #t hf aug-cc-pvdz symm=none int=(grid=ultrafine) guess=(read,tcheck) s
 table=(opt,rrhf)
 ----------------------------------------------------------------------
 -----
 title
 -----
 Symbolic Z-matrix:
 Charge =  0 Multiplicity = 1

 SCF Done:  E(RHF) =  -355.484368061     A.U. after   16 cycles
 Normal termination of Gaussian 16 at Tue Apr  8 21:10:19 2025.
 Gaussian 16:  ES64L-G16RevC.01  3-Jul-2019

 ----------------------------------------------------------------------
 #t hf aug-cc-pvdz iop(5/13=1,5/36=2,99/5=2) pseudo=read geom=check gue
 ss=(read,tcheck) scf=(maxcycle=1)
 ----------------------------------------------------------------------
 -----
 title
 -----
 Structure from the checkpoint file:  "ANI1ccx_1871_conf1_mol2.chk"
 Charge =  0 Multiplicity = 1

                         Standard orientation:
 ---------------------------------------------------------------------
 Center     Atomic      Atomic             Coordinates (Angstroms)
 Number     Number       Type             X           Y           Z
 ---------------------------------------------------------------------
      1          1           0        3.099550   -0.044044    0.916687
      2          1           0        0.924905    0.062105   -0.031147
      3          1           0       -1.463989    1.646952    0.559042
      4          7           0       -1.936410   -0.127332    0.429606
      5          8           0        2.736430   -0.475671    0.136193
      6          8           0        1.764800    0.455272   -0.302147
      7          8           0       -1.330889    0.981717   -0.133732
      8          8           0       -1.796041   -1.058028   -0.256793
 ---------------------------------------------------------------------

 SCF Done:  E(RHF) =  -355.599339045     A.U. after    2 cycles

 The electronic state is 1-A.
 Alpha  occ. eigenvalues --  -20.68423 -20.67409 -20.63814 -20.63598 -15.87133
 Alpha  occ. eigenvalues --   -1.58043  -1.43603  -1.39606  -1.18398  -0.95201
 Alpha  occ. eigenvalues --   -0.82102  -0.76060  -0.74790  -0.72294  -0.71507
 Alpha  occ. eigenvalues --   -0.65324  -0.63258  -0.56357  -0.52153  -0.50357
 Alpha  occ. eigenvalues --   -0.48608
 Alpha virt. eigenvalues --    0.02772   0.04587   0.07193   0.08234   0.11166
 Alpha virt. eigenvalues --    0.11702   0.15039   0.15265   0.17182   0.18222
 Alpha virt. eigenvalues --    0.19476   0.20058   0.21460   0.23209   0.23678

 Mulliken charges:
               1
     1  H    0.205741
     2  H    0.238275
     3  H    0.267833
     4  N    0.494787
     5  O   -0.230050
     6  O   -0.197662
     7  O   -0.478922
     8  O   -0.300002
 Sum of Mulliken charges =  -0.00000

 Dipole moment (field-independent basis, Debye):
    X=             -1.4027    Y=              2.1163    Z=              3.5570  Tot=              4.3702

 Test job not archived.
 1\1\GINC-SE097\SP\RHF\Aug-CC-pVDZ\H3N1O4\OHZDE\08-Apr-2025\0\\#t hf au
 g-cc-pvdz iop(5/13=1,5/36=2,99/5=2) pseudo=read geom=check guess=(read
 ,tcheck) scf=(maxcycle=1)\\title\\0,1\H,0,3.09955,-0.0440426,0.916687\
 H,0,0.924905,0.0621048,-0.0311471\H,0,-1.46399,1.64695,0.559042\N,0,-1
 .93641,-0.127334,0.429606\O,0,2.73643,-0.47567,0.136193\O,0,1.7648,0.4
 55272,-0.302147\O,0,-1.33089,0.981715,-0.133732\O,0,-1.79604,-1.05803,
 -0.256793\\Version=ES64L-G16RevC.01\State=1-A\HF=-355.599339\RMSD=2.57
 0e-03\Dipole=-0.5518494,0.8326323,1.3994135\Quadrupole=-0.0507781,-0.1

 Normal termination of Gaussian 16 at Tue Apr  8 21:10:21 2025.
