 Gaussian 16, Revision C.01,

 ----------------------------------------------------------------------
 #t hf aug-cc-pvdz symm=none int=(grid=ultrafine) guess=(read,tcheck) s
 table=(opt,rrhf)
 ----------------------------------------------------------------------
 -----
 title
 -----
 Symbolic Z-matrix:
 Charge =  0 Multiplicity = 1

 SCF Done:  E(RHF) =  -583.222332898     A.U. after   14 cycles
 Normal termination of Gaussian 16 at Tue Apr  8 22:01:55 2025.
 Gaussian 16:  ES64L-G16RevC.01  3-Jul-2019

 ----------------------------------------------------------------------
 #t hf aug-cc-pvdz iop(5/13=1,5/36=2,99/5=2) pseudo=read geom=check gue
 ss=(read,tcheck) scf=(maxcycle=1)
 ----------------------------------------------------------------------
 -----
 title
 -----
 Structure from the checkpoint file:  "ANI1ccx_900_conf7_mol1.chk"
 Charge =  0 Multiplicity = 1

                         Standard orientation:
 ---------------------------------------------------------------------
 Center     Atomic      Atomic             Coordinates (Angstroms)
 Number     Number       Type             X           Y           Z
 ---------------------------------------------------------------------
      1          6           0        2.109100   -0.016241    0.111082
      2          6           0        1.167160   -0.510971   -0.925310
      3          6           0       -1.219120   -0.722606   -0.125212
      4          6           0       -1.375909    0.827848   -0.132145
      5          1           0        0.883665   -0.870738    1.337900
      6          1           0        0.919583    0.438008   -1.511800
      7          1           0        1.667020   -1.229071   -1.646430
      8          1           0        0.095919   -2.282040   -0.629781
      9          1           0       -2.947660    0.173370    0.043430
     10          7           0       -0.028483   -1.245290   -0.559212
     11          8           0        1.744450   -0.328674    1.394670
     12          8           0        2.984531    0.805258   -0.202892
     13          8           0       -2.137050   -1.374460    0.371296
     14          8           0       -2.632989    1.084521    0.121159
     15          8           0       -0.522257    1.690770   -0.090397
 ---------------------------------------------------------------------

 SCF Done:  E(RHF) =  -583.401952179     A.U. after    2 cycles

 The electronic state is 1-A.
 Alpha  occ. eigenvalues --  -20.65371 -20.65259 -20.62872 -20.60731 -20.57985
 Alpha  occ. eigenvalues --  -15.73395 -11.45488 -11.44809 -11.42891 -11.34334
 Alpha  occ. eigenvalues --   -1.48702  -1.42190  -1.41773  -1.37147  -1.33014
 Alpha  occ. eigenvalues --   -1.27065  -1.04156  -0.96276  -0.86140  -0.85518
 Alpha  occ. eigenvalues --   -0.82294  -0.77199  -0.74929  -0.71771  -0.71288
 Alpha  occ. eigenvalues --   -0.69207  -0.66945  -0.65828  -0.63582  -0.63294
 Alpha  occ. eigenvalues --   -0.60379  -0.59049  -0.57697  -0.52645  -0.50974
 Alpha  occ. eigenvalues --   -0.50353  -0.48857  -0.45917
 Alpha virt. eigenvalues --    0.01346   0.03258   0.03739   0.04090   0.05079
 Alpha virt. eigenvalues --    0.06475   0.08077   0.09331   0.10000   0.10537
 Alpha virt. eigenvalues --    0.11476   0.11789   0.12208   0.13004   0.13682

 Mulliken charges:
               1
     1  C    0.684677
     2  C    0.320907
     3  C    0.617390
     4  C    0.474999
     5  H    0.275192
     6  H    0.199273
     7  H    0.003899
     8  H    0.023431
     9  H    0.269319
    10  N   -0.441699
    11  O   -0.541991
    12  O   -0.530647
    13  O   -0.554243
    14  O   -0.424081
    15  O   -0.376425
 Sum of Mulliken charges =  -0.00000

 Dipole moment (field-independent basis, Debye):
    X=             -2.0789    Y=             -5.9206    Z=             -2.8806  Tot=              6.9046

 Test job not archived.
 1\1\GINC-SE102\SP\RHF\Aug-CC-pVDZ\C4H5N1O5\OHZDE\08-Apr-2025\0\\#t hf
 aug-cc-pvdz iop(5/13=1,5/36=2,99/5=2) pseudo=read geom=check guess=(re
 ad,tcheck) scf=(maxcycle=1)\\title\\0,1\C,0,2.1091,-0.0162404,0.111082
 \C,0,1.16716,-0.51097,-0.92531\C,0,-1.21912,-0.722606,-0.125212\C,0,-1
 .37591,0.827848,-0.132145\H,0,0.883665,-0.870737,1.3379\H,0,0.919583,0
 .438009,-1.5118\H,0,1.66702,-1.22907,-1.64643\H,0,0.0959192,-2.28204,-
 0.629781\H,0,-2.94766,0.173369,0.0434301\N,0,-0.0284833,-1.24529,-0.55
 9212\O,0,1.74445,-0.328673,1.39467\O,0,2.98453,0.805259,-0.202892\O,0,

 Normal termination of Gaussian 16 at Tue Apr  8 22:02:03 2025.
