 Gaussian 16, Revision C.01,

 ----------------------------------------------------------------------
 #t hf aug-cc-pvdz symm=none int=(grid=ultrafine) guess=(read,tcheck) s
 table=(opt,rrhf)
 ----------------------------------------------------------------------
 -----
 title
 -----
 Symbolic Z-matrix:
 Charge =  0 Multiplicity = 1

 SCF Done:  E(RHF) =  -428.560667803     A.U. after   14 cycles
 Normal termination of Gaussian 16 at Tue Apr  8 21:36:49 2025.
 Gaussian 16:  ES64L-G16RevC.01  3-Jul-2019

 ----------------------------------------------------------------------
 #t hf aug-cc-pvdz iop(5/13=1,5/36=2,99/5=2) pseudo=read geom=check gue
 ss=(read,tcheck) scf=(maxcycle=1)
 ----------------------------------------------------------------------
 -----
 title
 -----
 Structure from the checkpoint file:  "ANI1ccx_419_conf8_mol1.chk"
 Charge =  0 Multiplicity = 1

                         Standard orientation:
 ---------------------------------------------------------------------
 Center     Atomic      Atomic             Coordinates (Angstroms)
 Number     Number       Type             X           Y           Z
 ---------------------------------------------------------------------
      1          6           0       -0.165707   -0.257683    0.022282
      2          1           0        1.943241    0.941385    0.003841
      3          1           0       -0.701337    1.679730   -0.180430
      4          1           0       -1.555282   -1.606589   -0.096038
      5          1           0       -3.165920    0.227830    0.430420
      6          1           0        2.569478   -1.566044    0.191994
      7          7           0        0.083177    1.083469   -0.298237
      8          7           0       -1.449241   -0.677490    0.394206
      9          7           0        0.683819   -1.244922   -0.039407
     10          8           0        1.217922    1.638978    0.269971
     11          8           0       -2.393860    0.152601   -0.239814
     12          8           0        2.010909   -0.823780   -0.140084
 ---------------------------------------------------------------------

 SCF Done:  E(RHF) =  -428.689243775     A.U. after    2 cycles

 The electronic state is 1-A.
 Alpha  occ. eigenvalues --  -20.64296 -20.62383 -20.60914 -15.72067 -15.69481
 Alpha  occ. eigenvalues --  -15.66831 -11.37348  -1.41220  -1.38970  -1.36266
 Alpha  occ. eigenvalues --   -1.20516  -1.07999  -1.04955  -0.82462  -0.77242
 Alpha  occ. eigenvalues --   -0.74555  -0.71119  -0.69236  -0.66422  -0.64557
 Alpha  occ. eigenvalues --   -0.63524  -0.62317  -0.56909  -0.53929  -0.50119
 Alpha  occ. eigenvalues --   -0.44461  -0.41619  -0.34872
 Alpha virt. eigenvalues --    0.02774   0.03780   0.04638   0.06467   0.07791
 Alpha virt. eigenvalues --    0.08989   0.13006   0.13356   0.14266   0.15265
 Alpha virt. eigenvalues --    0.16180   0.16829   0.18131   0.18254   0.19349

 Mulliken charges:
               1
     1  C    1.200136
     2  H    0.322361
     3  H    0.060527
     4  H    0.217688
     5  H    0.295200
     6  H    0.221486
     7  N   -0.073811
     8  N   -0.155836
     9  N   -0.257143
    10  O   -0.564092
    11  O   -0.635800
    12  O   -0.630717
 Sum of Mulliken charges =  -0.00000

 Dipole moment (field-independent basis, Debye):
    X=             -1.7641    Y=             -1.2975    Z=              0.9629  Tot=              2.3923

 Test job not archived.
 1\1\GINC-SE457\SP\RHF\Aug-CC-pVDZ\C1H5N3O3\OHZDE\08-Apr-2025\0\\#t hf
 aug-cc-pvdz iop(5/13=1,5/36=2,99/5=2) pseudo=read geom=check guess=(re
 ad,tcheck) scf=(maxcycle=1)\\title\\0,1\C,0,-0.165707,-0.257683,0.0222
 815\H,0,1.94324,0.941388,0.003841\H,0,-0.701339,1.67973,-0.18043\H,0,-
 1.55528,-1.60659,-0.0960385\H,0,-3.16592,0.227826,0.43042\H,0,2.56948,
 -1.56604,0.191994\N,0,0.0831758,1.08347,-0.298237\N,0,-1.44924,-0.6774
 91,0.394206\N,0,0.68382,-1.24492,-0.0394068\O,0,1.21792,1.63898,0.2699
 71\O,0,-2.39386,0.152598,-0.239814\O,0,2.01091,-0.823777,-0.140084\\Ve

 Normal termination of Gaussian 16 at Tue Apr  8 21:36:54 2025.
