 Gaussian 16, Revision C.01,

 ----------------------------------------------------------------------
 #t hf aug-cc-pvdz symm=none int=(grid=ultrafine) guess=(read,tcheck) s
 table=(opt,rrhf)
 ----------------------------------------------------------------------
 -----
 title
 -----
 Symbolic Z-matrix:
 Charge =  0 Multiplicity = 1

 SCF Done:  E(RHF) =  -464.384124798     A.U. after   15 cycles
 Normal termination of Gaussian 16 at Tue Apr  8 21:40:51 2025.
 Gaussian 16:  ES64L-G16RevC.01  3-Jul-2019

 ----------------------------------------------------------------------
 #t hf aug-cc-pvdz iop(5/13=1,5/36=2,99/5=2) pseudo=read geom=check gue
 ss=(read,tcheck) scf=(maxcycle=1)
 ----------------------------------------------------------------------
 -----
 title
 -----
 Structure from the checkpoint file:  "ANI1ccx_474_conf14_mol1.chk"
 Charge =  0 Multiplicity = 1

                         Standard orientation:
 ---------------------------------------------------------------------
 Center     Atomic      Atomic             Coordinates (Angstroms)
 Number     Number       Type             X           Y           Z
 ---------------------------------------------------------------------
      1          6           0        1.271329   -0.540140    0.160641
      2          6           0        0.108551    1.489421   -0.000046
      3          1           0        2.792299   -0.238299   -0.920471
      4          7           0        1.069931    0.760541   -0.195331
      5          7           0       -2.364121   -0.413180   -0.356752
      6          7           0       -2.889882   -1.338216   -0.145867
      7          8           0        2.398739   -0.979627   -0.448566
      8          8           0       -0.637705    2.361562    0.193922
      9          8           0        0.516081   -1.197110    0.859963
 ---------------------------------------------------------------------

 SCF Done:  E(RHF) =  -464.530898420     A.U. after    2 cycles

 The electronic state is 1-A.
 Alpha  occ. eigenvalues --  -20.68691 -20.65369 -20.58697 -15.75163 -15.74775
 Alpha  occ. eigenvalues --  -15.69852 -11.48354 -11.47514  -1.48598  -1.45632
 Alpha  occ. eigenvalues --   -1.43493  -1.36079  -1.28291  -0.96649  -0.84945
 Alpha  occ. eigenvalues --   -0.79227  -0.75336  -0.72826  -0.72224  -0.68858
 Alpha  occ. eigenvalues --   -0.66918  -0.64531  -0.62514  -0.61344  -0.61288
 Alpha  occ. eigenvalues --   -0.55970  -0.54022  -0.49173  -0.48245
 Alpha virt. eigenvalues --    0.02731   0.06308   0.07185   0.08963   0.09096
 Alpha virt. eigenvalues --    0.10044   0.10419   0.10877   0.12138   0.12837
 Alpha virt. eigenvalues --    0.13404   0.13995   0.14923   0.16172   0.16553

 Mulliken charges:
               1
     1  C    0.890405
     2  C    0.015771
     3  H    0.198268
     4  N   -0.149845
     5  N    0.017674
     6  N   -0.027783
     7  O   -0.406385
     8  O   -0.141333
     9  O   -0.396771
 Sum of Mulliken charges =  -0.00000

 Dipole moment (field-independent basis, Debye):
    X=              1.7322    Y=              2.1765    Z=             -2.0738  Tot=              3.4696

 Test job not archived.
 1\1\GINC-SE110\SP\RHF\Aug-CC-pVDZ\C2H1N3O3\OHZDE\08-Apr-2025\0\\#t hf
 aug-cc-pvdz iop(5/13=1,5/36=2,99/5=2) pseudo=read geom=check guess=(re
 ad,tcheck) scf=(maxcycle=1)\\title\\0,1\C,0,1.27133,-0.54014,0.160641\
 C,0,0.10855,1.48942,-0.0000459\H,0,2.7923,-0.238297,-0.920471\N,0,1.06
 993,0.760541,-0.195331\N,0,-2.36412,-0.413184,-0.356752\N,0,-2.88988,-
 1.33822,-0.145867\O,0,2.39874,-0.979625,-0.448566\O,0,-0.637707,2.3615
 6,0.193922\O,0,0.516083,-1.19711,0.859963\\Version=ES64L-G16RevC.01\St
 ate=1-A\HF=-464.5308984\RMSD=2.606e-03\Dipole=0.6815,0.8562898,-0.8159

 Normal termination of Gaussian 16 at Tue Apr  8 21:40:54 2025.
