 Gaussian 16, Revision C.01,

 ----------------------------------------------------------------------
 #t hf aug-cc-pvdz symm=none int=(grid=ultrafine) guess=(read,tcheck) s
 table=(opt,rrhf)
 ----------------------------------------------------------------------
 -----
 title
 -----
 Symbolic Z-matrix:
 Charge =  0 Multiplicity = 1

 SCF Done:  E(RHF) =  -532.274691728     A.U. after   11 cycles
 Normal termination of Gaussian 16 at Tue Apr  8 21:09:11 2025.
 Gaussian 16:  ES64L-G16RevC.01  3-Jul-2019

 ----------------------------------------------------------------------
 #t hf aug-cc-pvdz iop(5/13=1,5/36=2,99/5=2) pseudo=read geom=check gue
 ss=(read,tcheck) scf=(maxcycle=1)
 ----------------------------------------------------------------------
 -----
 title
 -----
 Structure from the checkpoint file:  "ANI1ccx_1845_conf455_mol1.chk"
 Charge =  0 Multiplicity = 1

                         Standard orientation:
 ---------------------------------------------------------------------
 Center     Atomic      Atomic             Coordinates (Angstroms)
 Number     Number       Type             X           Y           Z
 ---------------------------------------------------------------------
      1          1           0       -3.396331    0.875252    0.311254
      2          1           0       -0.974477   -1.643511   -0.952628
      3          1           0        0.005198   -0.419950   -1.303370
      4          1           0       -2.842729   -1.321553    0.090805
      5          1           0       -1.794058   -2.034052    0.972345
      6          1           0       -2.092851    1.107728   -0.471746
      7          1           0       -1.735623    3.153559    0.335778
      8          1           0        0.535610    0.255422    0.806795
      9          1           0       -0.577422    2.146090    0.355787
     10          1           0        2.544832   -2.144597    0.950242
     11          1           0        2.140421   -1.442468   -0.310697
     12          1           0        3.964719    1.163834   -1.029310
     13          1           0        3.535080   -0.053948   -0.012153
     14          1           0        1.734959    1.192172    1.215190
     15          8           0       -2.755281    0.357230   -0.222680
     16          8           0        0.724129    1.164651    1.168760
     17          8           0       -2.357848   -2.171122    0.177302
     18          8           0        2.302951   -1.272348    0.565764
     19          8           0       -0.138333   -1.162630   -0.742173
     20          8           0       -1.256953    2.513099   -0.292541
     21          8           0        3.350419    0.466873   -0.774219
 ---------------------------------------------------------------------

 SCF Done:  E(RHF) =  -532.450368658     A.U. after    2 cycles

 The electronic state is 1-A.
 Alpha  occ. eigenvalues --  -20.59438 -20.58334 -20.57742 -20.56348 -20.56308
 Alpha  occ. eigenvalues --  -20.55230 -20.54311  -1.34135  -1.31477  -1.30072
 Alpha  occ. eigenvalues --   -1.29582  -1.28894  -1.28044  -1.26490  -0.77898
 Alpha  occ. eigenvalues --   -0.74528  -0.73206  -0.72155  -0.71007  -0.69804
 Alpha  occ. eigenvalues --   -0.69177  -0.63369  -0.62376  -0.60941  -0.58634
 Alpha  occ. eigenvalues --   -0.57621  -0.57136  -0.56490  -0.53469  -0.52622
 Alpha  occ. eigenvalues --   -0.51988  -0.51676  -0.51314  -0.50569  -0.48454
 Alpha virt. eigenvalues --    0.02741   0.03603   0.04566   0.05905   0.06389
 Alpha virt. eigenvalues --    0.06678   0.07285   0.08438   0.08883   0.09433
 Alpha virt. eigenvalues --    0.09788   0.10912   0.11334   0.11421   0.17242

 Mulliken charges:
               1
     1  H    0.173775
     2  H    0.272012
     3  H    0.166892
     4  H    0.241936
     5  H    0.216817
     6  H    0.328364
     7  H    0.227319
     8  H    0.254570
     9  H    0.284538
    10  H    0.223948
    11  H    0.182761
    12  H    0.152508
    13  H    0.206711
    14  H    0.276368
    15  O   -0.517983
    16  O   -0.499163
    17  O   -0.461372
    18  O   -0.447265
    19  O   -0.466496
    20  O   -0.489301
    21  O   -0.326941
 Sum of Mulliken charges =  -0.00000

 Dipole moment (field-independent basis, Debye):
    X=              2.8107    Y=              2.1047    Z=              2.1170  Tot=              4.1002

 Test job not archived.
 1\1\GINC-SE455\SP\RHF\Aug-CC-pVDZ\H14O7\OHZDE\08-Apr-2025\0\\#t hf aug
 -cc-pvdz iop(5/13=1,5/36=2,99/5=2) pseudo=read geom=check guess=(read,
 tcheck) scf=(maxcycle=1)\\title\\0,1\H,0,-3.39633,0.875255,0.311254\H,
 0,-0.974478,-1.64351,-0.952628\H,0,0.00519747,-0.41995,-1.30337\H,0,-2
 .84273,-1.32155,0.0908046\H,0,-1.79406,-2.03405,0.972345\H,0,-2.09285,
 1.10773,-0.471746\H,0,-1.73562,3.15356,0.335778\H,0,0.53561,0.255421,0
 .806795\H,0,-0.57742,2.14609,0.355787\H,0,2.54483,-2.1446,0.950242\H,0
 ,2.14042,-1.44247,-0.310697\H,0,3.96472,1.16383,-1.02931\H,0,3.53508,-

 Normal termination of Gaussian 16 at Tue Apr  8 21:09:19 2025.
