 Gaussian 16, Revision C.01,

 ----------------------------------------------------------------------
 #t hf aug-cc-pvdz symm=none int=(grid=ultrafine) guess=(read,tcheck) s
 table=(opt,rrhf)
 ----------------------------------------------------------------------
 -----
 title
 -----
 Symbolic Z-matrix:
 Charge =  0 Multiplicity = 1

 SCF Done:  E(RHF) =  -456.243311193     A.U. after   11 cycles
 Normal termination of Gaussian 16 at Tue Apr  8 21:06:45 2025.
 Gaussian 16:  ES64L-G16RevC.01  3-Jul-2019

 ----------------------------------------------------------------------
 #t hf aug-cc-pvdz iop(5/13=1,5/36=2,99/5=2) pseudo=read geom=check gue
 ss=(read,tcheck) scf=(maxcycle=1)
 ----------------------------------------------------------------------
 -----
 title
 -----
 Structure from the checkpoint file:  "ANI1ccx_1844_conf344_mol1.chk"
 Charge =  0 Multiplicity = 1

                         Standard orientation:
 ---------------------------------------------------------------------
 Center     Atomic      Atomic             Coordinates (Angstroms)
 Number     Number       Type             X           Y           Z
 ---------------------------------------------------------------------
      1          1           0       -1.241644   -1.875758    1.619170
      2          1           0       -2.369371    0.794466   -0.111414
      3          1           0       -3.444002   -0.110895   -0.606480
      4          1           0        1.873270    1.006738    0.562280
      5          1           0        1.300241    2.088909    1.616140
      6          1           0       -0.295526    1.970631   -0.229921
      7          1           0       -1.887683   -1.263798    0.364767
      8          1           0       -1.523108    2.840552   -0.946943
      9          1           0        1.148215   -2.703741   -0.716808
     10          1           0        0.173542   -1.528090   -0.193130
     11          1           0        2.517727   -0.955586   -0.253565
     12          1           0        3.402999    0.348726   -0.691268
     13          8           0        1.346151    1.891399    0.640396
     14          8           0        0.856072   -1.775881   -0.888221
     15          8           0       -3.002351    0.099366    0.204541
     16          8           0       -1.066139    1.920011   -0.768657
     17          8           0       -1.191194   -1.954058    0.634582
     18          8           0        3.100628   -0.257356    0.125756
 ---------------------------------------------------------------------

 SCF Done:  E(RHF) =  -456.394038095     A.U. after    2 cycles

 The electronic state is 1-A.
 Alpha  occ. eigenvalues --  -20.58593 -20.58317 -20.58007 -20.57975 -20.57896
 Alpha  occ. eigenvalues --  -20.55320  -1.32545  -1.30300  -1.30076  -1.29236
 Alpha  occ. eigenvalues --   -1.27998  -1.26748  -0.74306  -0.72979  -0.72040
 Alpha  occ. eigenvalues --   -0.71414  -0.70544  -0.70116  -0.63655  -0.61700
 Alpha  occ. eigenvalues --   -0.60694  -0.58732  -0.57394  -0.56344  -0.52911
 Alpha  occ. eigenvalues --   -0.52659  -0.52351  -0.51927  -0.51509  -0.49918
 Alpha virt. eigenvalues --    0.02770   0.04307   0.04746   0.05194   0.06182
 Alpha virt. eigenvalues --    0.06845   0.08171   0.08852   0.09868   0.10464
 Alpha virt. eigenvalues --    0.10871   0.11922   0.17263   0.17801   0.18102

 Mulliken charges:
               1
     1  H    0.214201
     2  H    0.260110
     3  H    0.165283
     4  H    0.295629
     5  H    0.210102
     6  H    0.189670
     7  H    0.299424
     8  H    0.269489
     9  H    0.194665
    10  H    0.299728
    11  H    0.222706
    12  H    0.286575
    13  O   -0.508903
    14  O   -0.468727
    15  O   -0.426173
    16  O   -0.444813
    17  O   -0.530632
    18  O   -0.528336
 Sum of Mulliken charges =  -0.00000

 Dipole moment (field-independent basis, Debye):
    X=             -0.9838    Y=              1.4657    Z=              0.9153  Tot=              1.9884

 Test job not archived.
 1\1\GINC-SE364\SP\RHF\Aug-CC-pVDZ\H12O6\OHZDE\08-Apr-2025\0\\#t hf aug
 -cc-pvdz iop(5/13=1,5/36=2,99/5=2) pseudo=read geom=check guess=(read,
 tcheck) scf=(maxcycle=1)\\title\\0,1\H,0,-1.24164,-1.87576,1.61917\H,0
 ,-2.36937,0.794463,-0.111414\H,0,-3.444,-0.110899,-0.60648\H,0,1.87327
 ,1.00674,0.56228\H,0,1.30024,2.08891,1.61614\H,0,-0.295527,1.97063,-0.
 229921\H,0,-1.88768,-1.2638,0.364767\H,0,-1.52311,2.84055,-0.946943\H,
 0,1.14822,-2.70374,-0.716808\H,0,0.173545,-1.52809,-0.19313\H,0,2.5177
 3,-0.955583,-0.253565\H,0,3.403,0.34873,-0.691268\O,0,1.34615,1.8914,0

 Normal termination of Gaussian 16 at Tue Apr  8 21:06:49 2025.
