 Gaussian 16, Revision C.01,

 ----------------------------------------------------------------------
 #t hf aug-cc-pvdz symm=none int=(grid=ultrafine) guess=(read,tcheck) s
 table=(opt,rrhf)
 ----------------------------------------------------------------------
 -----
 title
 -----
 Symbolic Z-matrix:
 Charge =  0 Multiplicity = 1

 SCF Done:  E(RHF) =  -434.656657699     A.U. after   14 cycles
 Normal termination of Gaussian 16 at Tue Apr  8 22:08:12 2025.
 Gaussian 16:  ES64L-G16RevC.01  3-Jul-2019

 ----------------------------------------------------------------------
 #t hf aug-cc-pvdz iop(5/13=1,5/36=2,99/5=2) pseudo=read geom=check gue
 ss=(read,tcheck) scf=(maxcycle=1)
 ----------------------------------------------------------------------
 -----
 title
 -----
 Structure from the checkpoint file:  "ANI1ccx_938_conf2_mol2.chk"
 Charge =  0 Multiplicity = 1

                         Standard orientation:
 ---------------------------------------------------------------------
 Center     Atomic      Atomic             Coordinates (Angstroms)
 Number     Number       Type             X           Y           Z
 ---------------------------------------------------------------------
      1          6           0        1.054990    1.490151   -0.205121
      2          6           0       -0.510938   -0.385196   -0.798881
      3          6           0       -1.716149   -0.142471    0.041763
      4          6           0        1.738501   -0.795141    0.015996
      5          1           0        0.141556    2.018960    0.034374
      6          1           0        1.802270    1.712691    0.569763
      7          1           0        1.406470    1.839821   -1.204010
      8          1           0       -0.667308    0.141131   -1.753420
      9          1           0       -0.378447   -1.395300   -1.037630
     10          1           0       -0.594541    0.064881    1.506530
     11          1           0        1.486261   -1.871769   -0.014187
     12          7           0        0.738633    0.079926   -0.280562
     13          8           0       -1.505329    0.061960    1.342140
     14          8           0       -2.818199   -0.132464   -0.444295
     15          8           0        2.852891   -0.438740    0.294650
 ---------------------------------------------------------------------

 SCF Done:  E(RHF) =  -434.796012879     A.U. after    2 cycles

 The electronic state is 1-A.
 Alpha  occ. eigenvalues --  -20.64453 -20.57569 -20.56412 -15.68718 -11.41647
 Alpha  occ. eigenvalues --  -11.38502 -11.32054 -11.29846  -1.45409  -1.38421
 Alpha  occ. eigenvalues --   -1.35427  -1.26159  -1.04562  -0.98323  -0.88088
 Alpha  occ. eigenvalues --   -0.81792  -0.78887  -0.75185  -0.71501  -0.68274
 Alpha  occ. eigenvalues --   -0.66964  -0.65304  -0.62931  -0.60577  -0.59151
 Alpha  occ. eigenvalues --   -0.57877  -0.56690  -0.51110  -0.49872  -0.47085
 Alpha  occ. eigenvalues --   -0.41131
 Alpha virt. eigenvalues --    0.02726   0.03420   0.03736   0.05312   0.06496
 Alpha virt. eigenvalues --    0.06821   0.07599   0.08777   0.10023   0.11770
 Alpha virt. eigenvalues --    0.12430   0.13113   0.13511   0.13855   0.14281

 Mulliken charges:
               1
     1  C    0.788666
     2  C    0.663501
     3  C    0.474267
     4  C    0.578021
     5  H   -0.213503
     6  H   -0.092056
     7  H   -0.054927
     8  H   -0.017621
     9  H   -0.246137
    10  H    0.189192
    11  H   -0.271039
    12  N   -0.492706
    13  O   -0.389770
    14  O   -0.464282
    15  O   -0.451605
 Sum of Mulliken charges =  -0.00000

 Dipole moment (field-independent basis, Debye):
    X=              1.2654    Y=             -0.1305    Z=             -0.9686  Tot=              1.5989

 Test job not archived.
 1\1\GINC-SE038\SP\RHF\Aug-CC-pVDZ\C4H7N1O3\OHZDE\08-Apr-2025\0\\#t hf
 aug-cc-pvdz iop(5/13=1,5/36=2,99/5=2) pseudo=read geom=check guess=(re
 ad,tcheck) scf=(maxcycle=1)\\title\\0,1\C,0,1.05499,1.49015,-0.205121\
 C,0,-0.510939,-0.385196,-0.798881\C,0,-1.71615,-0.142471,0.0417624\C,0
 ,1.7385,-0.795142,0.0159961\H,0,0.141556,2.01896,0.0343741\H,0,1.80227
 ,1.71269,0.569763\H,0,1.40647,1.83982,-1.20401\H,0,-0.667309,0.141131,
 -1.75342\H,0,-0.378448,-1.3953,-1.03763\H,0,-0.594542,0.0648811,1.5065
 3\H,0,1.48626,-1.87177,-0.0141875\N,0,0.738632,0.0799251,-0.280562\O,0

 Normal termination of Gaussian 16 at Tue Apr  8 22:08:18 2025.
