 Gaussian 16, Revision C.01,

 ----------------------------------------------------------------------
 #t hf aug-cc-pvdz symm=none int=(grid=ultrafine) guess=(read,tcheck) s
 table=(opt,rrhf)
 ----------------------------------------------------------------------
 -----
 title
 -----
 Symbolic Z-matrix:
 Charge =  0 Multiplicity = 1

 SCF Done:  E(RHF) =  -406.420060462     A.U. after   16 cycles
 Normal termination of Gaussian 16 at Tue Apr  8 21:26:40 2025.
 Gaussian 16:  ES64L-G16RevC.01  3-Jul-2019

 ----------------------------------------------------------------------
 #t hf aug-cc-pvdz iop(5/13=1,5/36=2,99/5=2) pseudo=read geom=check gue
 ss=(read,tcheck) scf=(maxcycle=1)
 ----------------------------------------------------------------------
 -----
 title
 -----
 Structure from the checkpoint file:  "ANI1ccx_379_conf13_mol1.chk"
 Charge =  0 Multiplicity = 1

                         Standard orientation:
 ---------------------------------------------------------------------
 Center     Atomic      Atomic             Coordinates (Angstroms)
 Number     Number       Type             X           Y           Z
 ---------------------------------------------------------------------
      1          6           0        0.126091    0.758156   -0.003640
      2          1           0        1.838831   -0.514997    1.117340
      3          1           0        2.118171   -0.575427   -0.429567
      4          7           0        1.648071   -1.131839    0.176248
      5          7           0        0.294068   -0.619502   -0.194473
      6          7           0       -0.785285   -1.275430   -0.217989
      7          7           0       -1.611769   -0.368771    0.107464
      8          8           0       -1.130500    0.865115    0.180073
      9          8           0        0.939358    1.673670   -0.150658
 ---------------------------------------------------------------------

 SCF Done:  E(RHF) =  -406.539554956     A.U. after    2 cycles

 The electronic state is 1-A.
 Alpha  occ. eigenvalues --  -20.73600 -20.59147 -15.79692 -15.78036 -15.77365
 Alpha  occ. eigenvalues --  -15.73239 -11.46847  -1.62561  -1.43002  -1.38262
 Alpha  occ. eigenvalues --   -1.26059  -1.13396  -0.98010  -0.95455  -0.81180
 Alpha  occ. eigenvalues --   -0.78373  -0.71236  -0.69775  -0.68759  -0.62152
 Alpha  occ. eigenvalues --   -0.59662  -0.57115  -0.55196  -0.51799  -0.49588
 Alpha  occ. eigenvalues --   -0.41236
 Alpha virt. eigenvalues --    0.02877   0.04540   0.07397   0.08611   0.09323
 Alpha virt. eigenvalues --    0.10264   0.10551   0.12056   0.12839   0.14262
 Alpha virt. eigenvalues --    0.15905   0.17748   0.17948   0.18987   0.20021

 Mulliken charges:
               1
     1  C    0.761813
     2  H    0.269076
     3  H    0.077531
     4  N   -0.142600
     5  N   -0.133512
     6  N   -0.039730
     7  N    0.051459
     8  O   -0.404924
     9  O   -0.439113
 Sum of Mulliken charges =   0.00000

 Dipole moment (field-independent basis, Debye):
    X=              1.4080    Y=             -1.3976    Z=              0.6670  Tot=              2.0930

 Test job not archived.
 1\1\GINC-SE080\SP\RHF\Aug-CC-pVDZ\C1H2N4O2\OHZDE\08-Apr-2025\0\\#t hf
 aug-cc-pvdz iop(5/13=1,5/36=2,99/5=2) pseudo=read geom=check guess=(re
 ad,tcheck) scf=(maxcycle=1)\\title\\0,1\C,0,0.126091,0.758156,-0.00363
 95\H,0,1.83883,-0.514998,1.11734\H,0,2.11817,-0.575428,-0.429567\N,0,1
 .64807,-1.13184,0.176248\N,0,0.294067,-0.619502,-0.194473\N,0,-0.78528
 6,-1.27543,-0.217989\N,0,-1.61177,-0.36877,0.107464\O,0,-1.1305,0.8651
 15,0.180073\O,0,0.939358,1.67367,-0.150658\\Version=ES64L-G16RevC.01\S
 tate=1-A\HF=-406.539555\RMSD=3.351e-03\Dipole=0.5539417,-0.5498717,0.2

 Normal termination of Gaussian 16 at Tue Apr  8 21:26:43 2025.
