 Gaussian 16, Revision C.01,

 ----------------------------------------------------------------------
 #t hf aug-cc-pvdz symm=none int=(grid=ultrafine) guess=(read,tcheck) s
 table=(opt,rrhf)
 ----------------------------------------------------------------------
 -----
 title
 -----
 Symbolic Z-matrix:
 Charge =  0 Multiplicity = 1

 SCF Done:  E(RHF) =  -486.731087702     A.U. after   15 cycles
 Normal termination of Gaussian 16 at Tue Apr  8 19:14:20 2025.
 Gaussian 16:  ES64L-G16RevC.01  3-Jul-2019

 ----------------------------------------------------------------------
 #t hf aug-cc-pvdz iop(5/13=1,5/36=2,99/5=2) pseudo=read geom=check gue
 ss=(read,tcheck) scf=(maxcycle=1)
 ----------------------------------------------------------------------
 -----
 title
 -----
 Structure from the checkpoint file:  "ANI1ccx_1154_conf1_mol1.chk"
 Charge =  0 Multiplicity = 1

                         Standard orientation:
 ---------------------------------------------------------------------
 Center     Atomic      Atomic             Coordinates (Angstroms)
 Number     Number       Type             X           Y           Z
 ---------------------------------------------------------------------
      1          6           0        3.325370    0.032603    0.000895
      2          6           0        0.900756   -0.263962   -0.045912
      3          6           0        0.580824    1.048370    0.006825
      4          6           0       -0.851569    1.464680   -0.007059
      5          6           0       -1.394420   -0.833240   -0.049160
      6          1           0        0.146730   -2.098270   -0.557834
      7          1           0       -3.212130   -1.409641    0.238077
      8          1           0       -2.062149   -2.535751    0.658313
      9          1           0        1.346810    1.798370    0.160923
     10          1           0        2.167600   -1.592159    0.687649
     11          1           0        3.144210    0.772966   -0.806334
     12          1           0        4.203860   -0.538331   -0.319076
     13          1           0        3.456420    0.541549    0.981610
     14          7           0        2.156640   -0.841395    0.012053
     15          7           0       -1.809870    0.417124   -0.011737
     16          7           0       -2.346599   -1.839871   -0.034715
     17          7           0       -0.095998   -1.248200   -0.056762
     18          8           0       -1.235791    2.619620    0.020158
 ---------------------------------------------------------------------

 SCF Done:  E(RHF) =  -486.875701425     A.U. after    2 cycles

 The electronic state is 1-A.
 Alpha  occ. eigenvalues --  -20.51587 -15.70047 -15.66642 -15.66350 -15.60871
 Alpha  occ. eigenvalues --  -11.39550 -11.36011 -11.34756 -11.29496 -11.23714
 Alpha  occ. eigenvalues --   -1.33779  -1.31168  -1.25323  -1.17970  -1.13987
 Alpha  occ. eigenvalues --   -1.03378  -0.96151  -0.86315  -0.84579  -0.77733
 Alpha  occ. eigenvalues --   -0.75998  -0.69287  -0.68235  -0.67698  -0.65886
 Alpha  occ. eigenvalues --   -0.62064  -0.61364  -0.60207  -0.58250  -0.55612
 Alpha  occ. eigenvalues --   -0.53119  -0.51566  -0.45104  -0.44021  -0.40457
 Alpha  occ. eigenvalues --   -0.37422  -0.34061
 Alpha virt. eigenvalues --    0.01319   0.02624   0.03538   0.04227   0.05290
 Alpha virt. eigenvalues --    0.06425   0.06893   0.08311   0.09898   0.10571
 Alpha virt. eigenvalues --    0.11369   0.11866   0.12627   0.13247   0.13468

 Mulliken charges:
               1
     1  C    0.757131
     2  C    0.351534
     3  C    1.038853
     4  C    0.374455
     5  C    0.772445
     6  H   -0.035069
     7  H    0.065824
     8  H    0.017767
     9  H   -0.604036
    10  H   -0.074951
    11  H   -0.051984
    12  H   -0.223011
    13  H   -0.048313
    14  N   -0.347773
    15  N   -0.602354
    16  N   -0.317600
    17  N   -0.560751
    18  O   -0.512166
 Sum of Mulliken charges =  -0.00000

 Dipole moment (field-independent basis, Debye):
    X=              4.8387    Y=             -7.8589    Z=              1.4205  Tot=              9.3377

 Test job not archived.
 1\1\GINC-SE128\SP\RHF\Aug-CC-pVDZ\C5H8N4O1\OHZDE\08-Apr-2025\0\\#t hf
 aug-cc-pvdz iop(5/13=1,5/36=2,99/5=2) pseudo=read geom=check guess=(re
 ad,tcheck) scf=(maxcycle=1)\\title\\0,1\C,0,3.32537,0.0326019,0.000894
 62\C,0,0.900756,-0.263962,-0.0459118\C,0,0.580824,1.04837,0.00682534\C
 ,0,-0.851569,1.46468,-0.00705903\C,0,-1.39442,-0.83324,-0.0491604\H,0,
 0.146729,-2.09827,-0.557834\H,0,-3.21213,-1.40964,0.238077\H,0,-2.0621
 5,-2.53575,0.658313\H,0,1.34681,1.79837,0.160923\H,0,2.1676,-1.59216,0
 .687649\H,0,3.14421,0.772965,-0.806334\H,0,4.20386,-0.538332,-0.319076

 Normal termination of Gaussian 16 at Tue Apr  8 19:14:29 2025.
