 Gaussian 16, Revision C.01,

 ----------------------------------------------------------------------
 #t hf aug-cc-pvdz symm=none int=(grid=ultrafine) guess=(read,tcheck) s
 table=(opt,rrhf)
 ----------------------------------------------------------------------
 -----
 title
 -----
 Symbolic Z-matrix:
 Charge =  0 Multiplicity = 1

 SCF Done:  E(RHF) =  -428.539338012     A.U. after   15 cycles
 Normal termination of Gaussian 16 at Tue Apr  8 21:48:59 2025.
 Gaussian 16:  ES64L-G16RevC.01  3-Jul-2019

 ----------------------------------------------------------------------
 #t hf aug-cc-pvdz iop(5/13=1,5/36=2,99/5=2) pseudo=read geom=check gue
 ss=(read,tcheck) scf=(maxcycle=1)
 ----------------------------------------------------------------------
 -----
 title
 -----
 Structure from the checkpoint file:  "ANI1ccx_676_conf3_mol2.chk"
 Charge =  0 Multiplicity = 1

                         Standard orientation:
 ---------------------------------------------------------------------
 Center     Atomic      Atomic             Coordinates (Angstroms)
 Number     Number       Type             X           Y           Z
 ---------------------------------------------------------------------
      1          6           0        2.536499   -0.711801   -0.445133
      2          6           0        1.251410   -0.344778    0.179073
      3          6           0       -0.195512    1.505530   -0.032575
      4          1           0        2.444649   -0.729028   -1.502130
      5          1           0        3.313391    0.025511   -0.266579
      6          1           0        2.910887   -1.669215   -0.090888
      7          7           0        0.811238    0.908379   -0.349564
      8          7           0       -2.063381   -0.727831   -0.410722
      9          7           0       -2.604883   -1.645965   -0.154301
     10          8           0       -1.052545    2.232112    0.226130
     11          8           0        0.649528   -0.989994    1.030560
 ---------------------------------------------------------------------

 SCF Done:  E(RHF) =  -428.673222844     A.U. after    2 cycles

 The electronic state is 1-A.
 Alpha  occ. eigenvalues --  -20.66389 -20.58802 -15.75328 -15.74974 -15.67323
 Alpha  occ. eigenvalues --  -11.45260 -11.41719 -11.25952  -1.47268  -1.42496
 Alpha  occ. eigenvalues --   -1.38263  -1.25918  -1.05274  -0.88692  -0.77616
 Alpha  occ. eigenvalues --   -0.75706  -0.72453  -0.70036  -0.69881  -0.65432
 Alpha  occ. eigenvalues --   -0.63371  -0.62198  -0.60674  -0.60631  -0.58422
 Alpha  occ. eigenvalues --   -0.54357  -0.52159  -0.47046  -0.46217
 Alpha virt. eigenvalues --    0.03006   0.04973   0.05398   0.06701   0.09075
 Alpha virt. eigenvalues --    0.09456   0.09508   0.10096   0.11217   0.12692
 Alpha virt. eigenvalues --    0.12884   0.13448   0.13740   0.14508   0.15451

 Mulliken charges:
               1
     1  C    0.425358
     2  C    0.519766
     3  C   -0.152336
     4  H   -0.035685
     5  H    0.019081
     6  H   -0.018201
     7  N   -0.142121
     8  N    0.029419
     9  N   -0.045203
    10  O   -0.135996
    11  O   -0.464081
 Sum of Mulliken charges =  -0.00000

 Dipole moment (field-independent basis, Debye):
    X=              2.5893    Y=             -0.0032    Z=             -2.0682  Tot=              3.3139

 Test job not archived.
 1\1\GINC-SE402\SP\RHF\Aug-CC-pVDZ\C3H3N3O2\OHZDE\08-Apr-2025\0\\#t hf
 aug-cc-pvdz iop(5/13=1,5/36=2,99/5=2) pseudo=read geom=check guess=(re
 ad,tcheck) scf=(maxcycle=1)\\title\\0,1\C,0,2.5365,-0.711796,-0.445133
 \C,0,1.25141,-0.344776,0.179073\C,0,-0.195515,1.50553,-0.0325754\H,0,2
 .44465,-0.729023,-1.50213\H,0,3.31339,0.0255167,-0.266579\H,0,2.91089,
 -1.66921,-0.0908879\N,0,0.811236,0.90838,-0.349564\N,0,-2.06338,-0.727
 835,-0.410722\N,0,-2.60488,-1.64597,-0.154301\O,0,-1.05255,2.23211,0.2
 2613\O,0,0.649529,-0.989993,1.03056\\Version=ES64L-G16RevC.01\State=1-

 Normal termination of Gaussian 16 at Tue Apr  8 21:49:04 2025.
