 Gaussian 16, Revision C.01,

 ----------------------------------------------------------------------
 #t hf aug-cc-pvdz symm=none int=(grid=ultrafine) guess=(read,tcheck) s
 table=(opt,rrhf)
 ----------------------------------------------------------------------
 -----
 title
 -----
 Symbolic Z-matrix:
 Charge =  0 Multiplicity = 1

 SCF Done:  E(RHF) =  -489.704085901     A.U. after   14 cycles
 Normal termination of Gaussian 16 at Tue Apr  8 22:11:42 2025.
 Gaussian 16:  ES64L-G16RevC.01  3-Jul-2019

 ----------------------------------------------------------------------
 #t hf aug-cc-pvdz iop(5/13=1,5/36=2,99/5=2) pseudo=read geom=check gue
 ss=(read,tcheck) scf=(maxcycle=1)
 ----------------------------------------------------------------------
 -----
 title
 -----
 Structure from the checkpoint file:  "ANI1ccx_957_conf18_mol1.chk"
 Charge =  0 Multiplicity = 1

                         Standard orientation:
 ---------------------------------------------------------------------
 Center     Atomic      Atomic             Coordinates (Angstroms)
 Number     Number       Type             X           Y           Z
 ---------------------------------------------------------------------
      1          6           0       -0.790733    0.603993   -0.712517
      2          6           0       -1.451490   -0.448471    0.096438
      3          6           0        0.626800    0.197567   -1.187440
      4          6           0        1.587680   -0.357199   -0.125952
      5          1           0       -0.953927    0.607401    1.630280
      6          1           0        2.504420    0.333897    1.523230
      7          1           0        1.635450    1.489881    0.693430
      8          1           0        1.051440    1.087581   -1.629660
      9          1           0       -1.286390    0.766152   -1.642090
     10          1           0        0.001972    2.447320   -0.059692
     11          1           0       -1.665820    2.369840   -0.196623
     12          1           0        0.525728   -0.544527   -1.998260
     13          7           0       -0.815893    1.822940    0.023261
     14          7           0        2.185170    0.669559    0.630690
     15          8           0        1.785000   -1.496829    0.042657
     16          8           0       -1.822630   -1.480740   -0.362439
     17          8           0       -1.366290   -0.269979    1.404600
 ---------------------------------------------------------------------

 SCF Done:  E(RHF) =  -489.857972653     A.U. after    2 cycles

 The electronic state is 1-A.
 Alpha  occ. eigenvalues --  -20.61685 -20.56297 -20.55308 -15.66164 -15.65558
 Alpha  occ. eigenvalues --  -11.38786 -11.37799 -11.31115 -11.27754  -1.42694
 Alpha  occ. eigenvalues --   -1.39654  -1.33022  -1.22141  -1.18959  -1.04789
 Alpha  occ. eigenvalues --   -0.94250  -0.84068  -0.80456  -0.76286  -0.72923
 Alpha  occ. eigenvalues --   -0.71573  -0.69668  -0.68977  -0.65571  -0.64632
 Alpha  occ. eigenvalues --   -0.62151  -0.60599  -0.57869  -0.56970  -0.54180
 Alpha  occ. eigenvalues --   -0.49143  -0.47720  -0.46009  -0.44441  -0.42729
 Alpha virt. eigenvalues --    0.01449   0.02890   0.03650   0.04495   0.06196
 Alpha virt. eigenvalues --    0.06759   0.07394   0.07893   0.09599   0.10850
 Alpha virt. eigenvalues --    0.11515   0.12962   0.13198   0.13480   0.14295

 Mulliken charges:
               1
     1  C    0.494957
     2  C    0.702896
     3  C    0.116663
     4  C    0.745004
     5  H    0.276198
     6  H    0.018671
     7  H   -0.019986
     8  H   -0.056948
     9  H   -0.131223
    10  H    0.078044
    11  H    0.072527
    12  H   -0.027562
    13  N   -0.555163
    14  N   -0.234097
    15  O   -0.444222
    16  O   -0.501881
    17  O   -0.533880
 Sum of Mulliken charges =  -0.00000

 Dipole moment (field-independent basis, Debye):
    X=              0.7188    Y=              8.4282    Z=             -0.6805  Tot=              8.4861

 Test job not archived.
 1\1\GINC-SE220\SP\RHF\Aug-CC-pVDZ\C4H8N2O3\OHZDE\08-Apr-2025\0\\#t hf
 aug-cc-pvdz iop(5/13=1,5/36=2,99/5=2) pseudo=read geom=check guess=(re
 ad,tcheck) scf=(maxcycle=1)\\title\\0,1\C,0,-0.790733,0.603993,-0.7125
 17\C,0,-1.45149,-0.448471,0.0964382\C,0,0.6268,0.197567,-1.18744\C,0,1
 .58768,-0.3572,-0.125952\H,0,-0.953927,0.607401,1.63028\H,0,2.50442,0.
 333896,1.52323\H,0,1.63545,1.48988,0.69343\H,0,1.05144,1.08758,-1.6296
 6\H,0,-1.28639,0.766152,-1.64209\H,0,0.001972,2.44732,-0.0596923\H,0,-
 1.66582,2.36984,-0.196623\H,0,0.525728,-0.544527,-1.99826\N,0,-0.81589

 Normal termination of Gaussian 16 at Tue Apr  8 22:11:50 2025.
