 Gaussian 16, Revision C.01,

 ----------------------------------------------------------------------
 #t hf aug-cc-pvdz symm=none int=(grid=ultrafine) guess=(read,tcheck) s
 table=(opt,rrhf)
 ----------------------------------------------------------------------
 -----
 title
 -----
 Symbolic Z-matrix:
 Charge =  0 Multiplicity = 1

 SCF Done:  E(RHF) =  -509.541757960     A.U. after   14 cycles
 Normal termination of Gaussian 16 at Tue Apr  8 22:08:54 2025.
 Gaussian 16:  ES64L-G16RevC.01  3-Jul-2019

 ----------------------------------------------------------------------
 #t hf aug-cc-pvdz iop(5/13=1,5/36=2,99/5=2) pseudo=read geom=check gue
 ss=(read,tcheck) scf=(maxcycle=1)
 ----------------------------------------------------------------------
 -----
 title
 -----
 Structure from the checkpoint file:  "ANI1ccx_939_conf22_mol1.chk"
 Charge =  0 Multiplicity = 1

                         Standard orientation:
 ---------------------------------------------------------------------
 Center     Atomic      Atomic             Coordinates (Angstroms)
 Number     Number       Type             X           Y           Z
 ---------------------------------------------------------------------
      1          6           0       -0.783353   -0.583586    0.711362
      2          6           0       -1.086930    0.722058   -0.011916
      3          6           0        0.672821   -0.628979    1.153310
      4          6           0        1.551371   -0.094163   -0.032496
      5          1           0       -2.295467   -1.708323    0.095196
      6          1           0       -1.151917   -1.741051   -0.963288
      7          1           0       -1.289928   -0.545430    1.706100
      8          1           0        0.818349    0.014685    2.019600
      9          1           0        0.996383   -1.652778    1.430610
     10          1           0        1.573882   -0.703651   -1.914470
     11          1           0       -0.717005    2.548379   -0.075236
     12          7           0       -1.306647   -1.764652    0.028093
     13          8           0       -1.841810    0.820878   -0.963440
     14          8           0        2.425650    0.710441   -0.145411
     15          8           0        1.045102   -0.883053   -1.077280
     16          8           0       -0.492844    1.807829    0.509040
 ---------------------------------------------------------------------

 SCF Done:  E(RHF) =  -509.698092943     A.U. after    2 cycles

 The electronic state is 1-A.
 Alpha  occ. eigenvalues --  -20.64044 -20.62991 -20.58948 -20.57432 -15.61611
 Alpha  occ. eigenvalues --  -11.41772 -11.41132 -11.31226 -11.27898  -1.44248
 Alpha  occ. eigenvalues --   -1.42103  -1.33782  -1.33205  -1.18226  -1.05674
 Alpha  occ. eigenvalues --   -0.94015  -0.85230  -0.80827  -0.74058  -0.73660
 Alpha  occ. eigenvalues --   -0.72422  -0.69127  -0.67435  -0.65971  -0.64129
 Alpha  occ. eigenvalues --   -0.62548  -0.60648  -0.58770  -0.55550  -0.53480
 Alpha  occ. eigenvalues --   -0.52651  -0.50373  -0.48756  -0.46501  -0.41844
 Alpha virt. eigenvalues --    0.03147   0.03821   0.04423   0.04794   0.05981
 Alpha virt. eigenvalues --    0.06704   0.08305   0.09904   0.10110   0.11087
 Alpha virt. eigenvalues --    0.12446   0.13135   0.13836   0.14232   0.14408

 Mulliken charges:
               1
     1  C    0.137732
     2  C    0.808545
     3  C    0.299803
     4  C    0.711798
     5  H   -0.021119
     6  H    0.048128
     7  H    0.074148
     8  H   -0.069773
     9  H    0.042321
    10  H    0.231839
    11  H    0.207473
    12  N   -0.287069
    13  O   -0.535292
    14  O   -0.456601
    15  O   -0.645920
    16  O   -0.546013
 Sum of Mulliken charges =  -0.00000

 Dipole moment (field-independent basis, Debye):
    X=             -0.5193    Y=             -0.4772    Z=              0.8952  Tot=              1.1396

 Test job not archived.
 1\1\GINC-SE252\SP\RHF\Aug-CC-pVDZ\C4H7N1O4\OHZDE\08-Apr-2025\0\\#t hf
 aug-cc-pvdz iop(5/13=1,5/36=2,99/5=2) pseudo=read geom=check guess=(re
 ad,tcheck) scf=(maxcycle=1)\\title\\0,1\C,0,-0.783355,-0.583585,0.7113
 62\C,0,-1.08693,0.722059,-0.0119158\C,0,0.672819,-0.62898,1.15331\C,0,
 1.55137,-0.0941655,-0.0324963\H,0,-2.29547,-1.70832,0.095196\H,0,-1.15
 192,-1.74105,-0.963288\H,0,-1.28993,-0.545428,1.7061\H,0,0.818348,0.01
 46837,2.0196\H,0,0.99638,-1.65278,1.43061\H,0,1.57388,-0.703653,-1.914
 47\H,0,-0.717002,2.54838,-0.0752356\N,0,-1.30665,-1.76465,0.0280934\O,

 Normal termination of Gaussian 16 at Tue Apr  8 22:09:01 2025.
