 Gaussian 16, Revision C.01,

 ----------------------------------------------------------------------
 #t hf aug-cc-pvdz symm=none int=(grid=ultrafine) guess=(read,tcheck) s
 table=(opt,rrhf)
 ----------------------------------------------------------------------
 -----
 title
 -----
 Symbolic Z-matrix:
 Charge =  0 Multiplicity = 1

 SCF Done:  E(RHF) =  -484.053539591     A.U. after   16 cycles
 Normal termination of Gaussian 16 at Tue Apr  8 21:46:52 2025.
 Gaussian 16:  ES64L-G16RevC.01  3-Jul-2019

 ----------------------------------------------------------------------
 #t hf aug-cc-pvdz iop(5/13=1,5/36=2,99/5=2) pseudo=read geom=check gue
 ss=(read,tcheck) scf=(maxcycle=1)
 ----------------------------------------------------------------------
 -----
 title
 -----
 Structure from the checkpoint file:  "ANI1ccx_606_conf4_mol1.chk"
 Charge =  0 Multiplicity = 1

                         Standard orientation:
 ---------------------------------------------------------------------
 Center     Atomic      Atomic             Coordinates (Angstroms)
 Number     Number       Type             X           Y           Z
 ---------------------------------------------------------------------
      1          6           0       -1.217469   -0.385979   -0.001133
      2          6           0        1.218861   -0.307069    0.005189
      3          7           0       -1.109612    1.029038   -0.268099
      4          7           0       -0.071601    1.631980   -0.136482
      5          8           0       -2.219358   -0.911510    0.205985
      6          8           0        1.023108    0.975359    0.396719
      7          8           0        2.206002   -0.892538   -0.099684
      8          8           0        0.022766   -0.979914   -0.152054
 ---------------------------------------------------------------------

 SCF Done:  E(RHF) =  -484.206294624     A.U. after    2 cycles

 The electronic state is 1-A.
 Alpha  occ. eigenvalues --  -20.72722 -20.70314 -20.65400 -20.63435 -15.85773
 Alpha  occ. eigenvalues --  -15.77136 -11.51957 -11.50373  -1.58296  -1.50142
 Alpha  occ. eigenvalues --   -1.48258  -1.42234  -1.36843  -1.05660  -1.00178
 Alpha  occ. eigenvalues --   -0.91334  -0.81301  -0.80310  -0.77432  -0.74794
 Alpha  occ. eigenvalues --   -0.70372  -0.67210  -0.66611  -0.64227  -0.60156
 Alpha  occ. eigenvalues --   -0.57075  -0.56378  -0.54636  -0.49026
 Alpha virt. eigenvalues --    0.01949   0.05863   0.06431   0.07104   0.07869
 Alpha virt. eigenvalues --    0.10712   0.10858   0.11117   0.12357   0.13124
 Alpha virt. eigenvalues --    0.14917   0.15466   0.18696   0.19147   0.20269

 Mulliken charges:
               1
     1  C    0.836277
     2  C    0.727527
     3  N   -0.163149
     4  N    0.155276
     5  O   -0.223098
     6  O   -0.548477
     7  O   -0.243966
     8  O   -0.540389
 Sum of Mulliken charges =  -0.00000

 Dipole moment (field-independent basis, Debye):
    X=             -0.3486    Y=              1.3324    Z=             -0.0330  Tot=              1.3776

 Test job not archived.
 1\1\GINC-SE402\SP\RHF\Aug-CC-pVDZ\C2N2O4\OHZDE\08-Apr-2025\0\\#t hf au
 g-cc-pvdz iop(5/13=1,5/36=2,99/5=2) pseudo=read geom=check guess=(read
 ,tcheck) scf=(maxcycle=1)\\title\\0,1\C,0,-1.21747,-0.385977,-0.001133
 02\C,0,1.21886,-0.307071,0.00518909\N,0,-1.10961,1.02904,-0.268099\N,0
 ,-0.0715983,1.63198,-0.136482\O,0,-2.21936,-0.911506,0.205985\O,0,1.02
 311,0.975358,0.396719\O,0,2.206,-0.892542,-0.0996835\O,0,0.0227647,-0.
 979914,-0.152054\\Version=ES64L-G16RevC.01\State=1-A\HF=-484.2062946\R
 MSD=3.143e-03\Dipole=-0.1371333,0.5241909,-0.0129776\Quadrupole=-4.904

 Normal termination of Gaussian 16 at Tue Apr  8 21:46:55 2025.
