 Gaussian 16, Revision C.01,

 ----------------------------------------------------------------------
 #t hf aug-cc-pvdz symm=none int=(grid=ultrafine) guess=(read,tcheck) s
 table=(opt,rrhf)
 ----------------------------------------------------------------------
 -----
 title
 -----
 Symbolic Z-matrix:
 Charge =  0 Multiplicity = 1

 SCF Done:  E(RHF) =  -759.734325847     A.U. after   15 cycles
 Normal termination of Gaussian 16 at Tue Apr  8 20:57:30 2025.
 Gaussian 16:  ES64L-G16RevC.01  3-Jul-2019

 ----------------------------------------------------------------------
 #t hf aug-cc-pvdz iop(5/13=1,5/36=2,99/5=2) pseudo=read geom=check gue
 ss=(read,tcheck) scf=(maxcycle=1)
 ----------------------------------------------------------------------
 -----
 title
 -----
 Structure from the checkpoint file:  "ANI1ccx_1777_conf4_mol1.chk"
 Charge =  0 Multiplicity = 1

                         Standard orientation:
 ---------------------------------------------------------------------
 Center     Atomic      Atomic             Coordinates (Angstroms)
 Number     Number       Type             X           Y           Z
 ---------------------------------------------------------------------
      1          6           0        2.687851    0.153697   -0.185011
      2          6           0       -3.189209   -1.124439    0.467954
      3          6           0       -1.979319    0.182132    2.201680
      4          6           0       -1.805389   -0.747871    0.982553
      5          6           0       -3.192440   -1.721509   -0.963250
      6          6           0       -1.029949    0.023033   -0.134683
      7          6           0        3.851901   -0.778768    0.044499
      8          6           0        1.317061   -0.542373   -0.119048
      9          6           0       -1.776348    1.286991   -0.628638
     10          1           0       -2.449749   -0.363120    3.012350
     11          1           0       -3.306618    1.917301   -1.377900
     12          1           0       -2.783449   -0.979399   -1.690760
     13          1           0       -4.212220   -2.024428   -1.216780
     14          1           0       -2.538120   -2.617409   -0.885098
     15          1           0       -3.844889   -0.276656    0.502250
     16          1           0       -3.603630   -1.889729    1.090320
     17          1           0       -0.965336    0.587238    2.472460
     18          1           0       -2.529708    1.015951    1.767780
     19          1           0       -0.974721   -0.772553   -0.955008
     20          1           0        0.407960    1.229580    0.583371
     21          1           0        5.711651   -0.349320    0.133763
     22          1           0        4.041131   -1.020252    1.087010
     23          1           0        3.683470   -1.778301   -0.480691
     24          1           0        2.738221    0.582889   -1.150600
     25          1           0        2.935162    1.128919    1.674540
     26          1           0        3.341392    2.031649    0.387523
     27          1           0       -1.189459   -1.622080    1.284630
     28          7           0        2.656452    1.336339    0.688564
     29          7           0        0.286599    0.296466    0.267622
     30          8           0       -1.333418    2.414870   -0.509113
     31          8           0        1.162531   -1.634950   -0.589942
     32          8           0        5.023531   -0.156660   -0.540020
     33          8           0       -2.898568    1.049831   -1.227030
 ---------------------------------------------------------------------

 SCF Done:  E(RHF) =  -759.968126584     A.U. after    2 cycles

 The electronic state is 1-A.
 Alpha  occ. eigenvalues --  -20.64420 -20.58405 -20.56922 -20.54522 -15.63545
 Alpha  occ. eigenvalues --  -15.62389 -11.40890 -11.36558 -11.29882 -11.29014
 Alpha  occ. eigenvalues --  -11.28272 -11.24213 -11.22805 -11.21851 -11.21797
 Alpha  occ. eigenvalues --   -1.46351  -1.36731  -1.33606  -1.32236  -1.21548
 Alpha  occ. eigenvalues --   -1.16520  -1.08472  -0.99683  -0.98181  -0.96586
 Alpha  occ. eigenvalues --   -0.88831  -0.86154  -0.83962  -0.80587  -0.76277
 Alpha  occ. eigenvalues --   -0.75227  -0.73979  -0.70436  -0.69104  -0.68330
 Alpha  occ. eigenvalues --   -0.66741  -0.66226  -0.63416  -0.63076  -0.61391
 Alpha  occ. eigenvalues --   -0.60392  -0.59642  -0.58535  -0.58033  -0.56740
 Alpha  occ. eigenvalues --   -0.55544  -0.53521  -0.52220  -0.51361  -0.50959
 Alpha  occ. eigenvalues --   -0.50263  -0.48535  -0.47679  -0.46884  -0.46504
 Alpha  occ. eigenvalues --   -0.45145  -0.44384  -0.40051  -0.38078
 Alpha virt. eigenvalues --    0.02656   0.03192   0.03807   0.04327   0.04971
 Alpha virt. eigenvalues --    0.05322   0.05443   0.06569   0.06880   0.06965
 Alpha virt. eigenvalues --    0.07619   0.08039   0.08093   0.08338   0.09213

 Mulliken charges:
               1
     1  C    0.652350
     2  C    0.674607
     3  C    0.810902
     4  C   -0.990521
     5  C    0.437968
     6  C    0.013020
     7  C    1.119878
     8  C   -0.095231
     9  C    0.696293
    10  H   -0.056234
    11  H    0.266843
    12  H    0.143417
    13  H   -0.190432
    14  H    0.059182
    15  H   -0.095941
    16  H   -0.193181
    17  H    0.076173
    18  H   -0.060820
    19  H    0.027717
    20  H    0.010834
    21  H    0.209645
    22  H   -0.171019
    23  H   -0.065145
    24  H   -0.081849
    25  H    0.044556
    26  H    0.052393
    27  H   -0.193958
    28  N   -0.429402
    29  N   -0.406759
    30  O   -0.570313
    31  O   -0.483762
    32  O   -0.640803
    33  O   -0.570404
 Sum of Mulliken charges =  -0.00000

 Dipole moment (field-independent basis, Debye):
    X=             -0.0160    Y=              0.6562    Z=              2.7557  Tot=              2.8328

 Test job not archived.
 1\1\GINC-SE110\SP\RHF\Aug-CC-pVDZ\C9H18N2O4\OHZDE\08-Apr-2025\0\\#t hf
  aug-cc-pvdz iop(5/13=1,5/36=2,99/5=2) pseudo=read geom=check guess=(r
 ead,tcheck) scf=(maxcycle=1)\\title\\0,1\C,0,2.68785,0.153698,-0.18501
 1\C,0,-3.18921,-1.12444,0.467954\C,0,-1.97932,0.182131,2.20168\C,0,-1.
 80539,-0.747872,0.982553\C,0,-3.19244,-1.72151,-0.96325\C,0,-1.02995,0
 .0230327,-0.134683\C,0,3.8519,-0.778767,0.044499\C,0,1.31706,-0.542372
 ,-0.119048\C,0,-1.77635,1.28699,-0.628638\H,0,-2.44975,-0.363121,3.012
 35\H,0,-3.30662,1.9173,-1.3779\H,0,-2.78345,-0.9794,-1.69076\H,0,-4.21

 Normal termination of Gaussian 16 at Tue Apr  8 20:58:13 2025.
