 Gaussian 16, Revision C.01,

 ----------------------------------------------------------------------
 #t hf aug-cc-pvdz symm=none int=(grid=ultrafine) guess=(read,tcheck) s
 table=(opt,rrhf)
 ----------------------------------------------------------------------
 -----
 title
 -----
 Symbolic Z-matrix:
 Charge =  0 Multiplicity = 1

 SCF Done:  E(RHF) =  -443.094979472     A.U. after   18 cycles
 Normal termination of Gaussian 16 at Tue Apr  8 21:46:53 2025.
 Gaussian 16:  ES64L-G16RevC.01  3-Jul-2019

 ----------------------------------------------------------------------
 #t hf aug-cc-pvdz iop(5/13=1,5/36=2,99/5=2) pseudo=read geom=check gue
 ss=(read,tcheck) scf=(maxcycle=1)
 ----------------------------------------------------------------------
 -----
 title
 -----
 Structure from the checkpoint file:  "ANI1ccx_609_conf12_mol2.chk"
 Charge =  0 Multiplicity = 1

                         Standard orientation:
 ---------------------------------------------------------------------
 Center     Atomic      Atomic             Coordinates (Angstroms)
 Number     Number       Type             X           Y           Z
 ---------------------------------------------------------------------
      1          6           0       -0.002265   -0.679425   -0.025101
      2          6           0        0.005110    0.759197   -0.003181
      3          7           0        2.149759   -0.349218    0.027247
      4          7           0        1.265560   -1.126241    0.001759
      5          7           0       -1.258650   -1.146802   -0.009627
      6          7           0       -2.138431   -0.336065    0.011042
      7          8           0       -1.169711    1.250978    0.015915
      8          8           0        1.151619    1.277729   -0.021322
 ---------------------------------------------------------------------

 SCF Done:  E(RHF) =  -443.221589610     A.U. after    2 cycles

 The electronic state is 1-A.
 Alpha  occ. eigenvalues --  -20.62744 -20.61949 -15.84584 -15.84002 -15.82334
 Alpha  occ. eigenvalues --  -15.81527 -11.41752 -11.36629  -1.49956  -1.46486
 Alpha  occ. eigenvalues --   -1.39781  -1.32886  -1.15151  -0.97961  -0.90118
 Alpha  occ. eigenvalues --   -0.81996  -0.74769  -0.73697  -0.71456  -0.68601
 Alpha  occ. eigenvalues --   -0.65452  -0.65155  -0.62353  -0.57795  -0.52143
 Alpha  occ. eigenvalues --   -0.51250  -0.48247  -0.39647
 Alpha virt. eigenvalues --    0.03364   0.03785   0.05516   0.06007   0.07718
 Alpha virt. eigenvalues --    0.08067   0.08344   0.10611   0.11382   0.11863
 Alpha virt. eigenvalues --    0.12536   0.13415   0.16105   0.16442   0.17180

 Mulliken charges:
               1
     1  C    0.467012
     2  C    0.753396
     3  N   -0.063864
     4  N   -0.004129
     5  N   -0.028460
     6  N   -0.071300
     7  O   -0.531736
     8  O   -0.520919
 Sum of Mulliken charges =   0.00000

 Dipole moment (field-independent basis, Debye):
    X=              0.2379    Y=             -4.2553    Z=              0.0232  Tot=              4.2620

 Test job not archived.
 1\1\GINC-SE393\SP\RHF\Aug-CC-pVDZ\C2N4O2\OHZDE\08-Apr-2025\0\\#t hf au
 g-cc-pvdz iop(5/13=1,5/36=2,99/5=2) pseudo=read geom=check guess=(read
 ,tcheck) scf=(maxcycle=1)\\title\\0,1\C,0,-0.00226461,-0.679423,-0.025
 1008\C,0,0.00511108,0.759199,-0.0031813\N,0,2.14976,-0.349217,0.027246
 6\N,0,1.26556,-1.12624,0.00175855\N,0,-1.25865,-1.1468,-0.00962651\N,0
 ,-2.13843,-0.336063,0.0110417\O,0,-1.16971,1.25098,0.0159155\O,0,1.151
 62,1.27773,-0.0213217\\Version=ES64L-G16RevC.01\State=1-A\HF=-443.2215
 896\RMSD=4.377e-03\Dipole=0.0935997,-1.6741725,0.00911\Quadrupole=-0.7

 Normal termination of Gaussian 16 at Tue Apr  8 21:46:57 2025.
