 Gaussian 16, Revision C.01,

 ----------------------------------------------------------------------
 #t hf aug-cc-pvdz symm=none int=(grid=ultrafine) guess=(read,tcheck) s
 table=(opt,rrhf)
 ----------------------------------------------------------------------
 -----
 title
 -----
 Symbolic Z-matrix:
 Charge =  0 Multiplicity = 1

 SCF Done:  E(RHF) =  -398.813941250     A.U. after   14 cycles
 Normal termination of Gaussian 16 at Tue Apr  8 19:14:42 2025.
 Gaussian 16:  ES64L-G16RevC.01  3-Jul-2019

 ----------------------------------------------------------------------
 #t hf aug-cc-pvdz iop(5/13=1,5/36=2,99/5=2) pseudo=read geom=check gue
 ss=(read,tcheck) scf=(maxcycle=1)
 ----------------------------------------------------------------------
 -----
 title
 -----
 Structure from the checkpoint file:  "ANI1ccx_1166_conf11_mol2.chk"
 Charge =  0 Multiplicity = 1

                         Standard orientation:
 ---------------------------------------------------------------------
 Center     Atomic      Atomic             Coordinates (Angstroms)
 Number     Number       Type             X           Y           Z
 ---------------------------------------------------------------------
      1          6           0       -0.113328    0.243794    0.726460
      2          6           0       -1.462630    0.067901   -0.012026
      3          6           0        0.739902    1.371430    0.004932
      4          6           0        2.034220    0.602944   -0.320969
      5          6           0        1.654400   -0.874461   -0.479407
      6          1           0       -0.888394   -1.679570   -0.033612
      7          1           0        2.466360   -1.590880   -0.338496
      8          1           0        1.198310   -1.080670   -1.447860
      9          1           0        2.650640    1.026910   -1.123810
     10          1           0        0.966560    2.232510    0.642425
     11          1           0        0.141370    1.769540   -0.829766
     12          1           0       -0.263146    0.409903    1.801420
     13          1           0        1.093140   -1.238390    1.491380
     14          1           0        2.658560    0.656037    0.595930
     15          7           0        0.636965   -1.023650    0.605695
     16          8           0       -2.251440    0.949096   -0.215856
     17          8           0       -1.698250   -1.175280   -0.348071
 ---------------------------------------------------------------------

 SCF Done:  E(RHF) =  -398.935952912     A.U. after    2 cycles

 The electronic state is 1-A.
 Alpha  occ. eigenvalues --  -20.60195 -20.54064 -15.64856 -11.37952 -11.30081
 Alpha  occ. eigenvalues --  -11.28809 -11.25653 -11.25582  -1.41543  -1.31530
 Alpha  occ. eigenvalues --   -1.22366  -1.03738  -1.01220  -0.87157  -0.82579
 Alpha  occ. eigenvalues --   -0.80788  -0.73411  -0.71741  -0.66874  -0.64722
 Alpha  occ. eigenvalues --   -0.63472  -0.61353  -0.57982  -0.56067  -0.53514
 Alpha  occ. eigenvalues --   -0.52318  -0.50119  -0.49320  -0.47418  -0.45391
 Alpha  occ. eigenvalues --   -0.40894
 Alpha virt. eigenvalues --    0.02160   0.03376   0.03842   0.04712   0.06231
 Alpha virt. eigenvalues --    0.06480   0.07037   0.07291   0.08030   0.11432
 Alpha virt. eigenvalues --    0.11995   0.12589   0.13102   0.13410   0.13888

 Mulliken charges:
               1
     1  C    0.230133
     2  C    0.637850
     3  C    0.389129
     4  C    0.160801
     5  C    0.855618
     6  H    0.328130
     7  H   -0.159844
     8  H   -0.256203
     9  H   -0.108816
    10  H   -0.095845
    11  H   -0.157358
    12  H   -0.129283
    13  H    0.025312
    14  H   -0.063048
    15  N   -0.684570
    16  O   -0.496749
    17  O   -0.475256
 Sum of Mulliken charges =  -0.00000

 Dipole moment (field-independent basis, Debye):
    X=              6.1787    Y=             -1.3012    Z=              1.9244  Tot=              6.6009

 Test job not archived.
 1\1\GINC-SE100\SP\RHF\Aug-CC-pVDZ\C5H9N1O2\OHZDE\08-Apr-2025\0\\#t hf
 aug-cc-pvdz iop(5/13=1,5/36=2,99/5=2) pseudo=read geom=check guess=(re
 ad,tcheck) scf=(maxcycle=1)\\title\\0,1\C,0,-0.113328,0.243794,0.72646
 \C,0,-1.46263,0.0679016,-0.0120258\C,0,0.739902,1.37143,0.00493255\C,0
 ,2.03422,0.602944,-0.320969\C,0,1.6544,-0.874461,-0.479407\H,0,-0.8883
 94,-1.67957,-0.033612\H,0,2.46636,-1.59088,-0.338496\H,0,1.19831,-1.08
 067,-1.44786\H,0,2.65064,1.02691,-1.12381\H,0,0.96656,2.23251,0.642425
 \H,0,0.14137,1.76954,-0.829766\H,0,-0.263146,0.409903,1.80142\H,0,1.09

 Normal termination of Gaussian 16 at Tue Apr  8 19:14:49 2025.
