 Gaussian 16, Revision C.01,

 ----------------------------------------------------------------------
 #t hf aug-cc-pvdz symm=none int=(grid=ultrafine) guess=(read,tcheck) s
 table=(opt,rrhf)
 ----------------------------------------------------------------------
 -----
 title
 -----
 Symbolic Z-matrix:
 Charge =  0 Multiplicity = 1

 SCF Done:  E(RHF) =  -743.675769739     A.U. after   14 cycles
 Normal termination of Gaussian 16 at Tue Apr  8 22:07:16 2025.
 Gaussian 16:  ES64L-G16RevC.01  3-Jul-2019

 ----------------------------------------------------------------------
 #t hf aug-cc-pvdz iop(5/13=1,5/36=2,99/5=2) pseudo=read geom=check gue
 ss=(read,tcheck) scf=(maxcycle=1)
 ----------------------------------------------------------------------
 -----
 title
 -----
 Structure from the checkpoint file:  "ANI1ccx_77_conf1_mol2.chk"
 Charge =  0 Multiplicity = 1

                         Standard orientation:
 ---------------------------------------------------------------------
 Center     Atomic      Atomic             Coordinates (Angstroms)
 Number     Number       Type             X           Y           Z
 ---------------------------------------------------------------------
      1          6           0        3.530350    1.410080   -0.322399
      2          6           0        0.009582   -1.994270   -0.083620
      3          6           0       -2.293370   -1.836990    0.430518
      4          6           0       -2.849320   -1.176640   -0.851744
      5          6           0       -2.889330    1.055840   -0.015895
      6          6           0        1.414850   -1.699400    0.468112
      7          6           0        0.180637    1.413260   -0.111843
      8          6           0        1.095480    0.724469    0.943643
      9          6           0        3.091160   -0.025633   -0.264041
     10          6           0       -2.038180    2.332010   -0.042790
     11          1           0       -2.416180   -1.723840   -1.744540
     12          1           0        1.352570   -2.052890    1.518050
     13          1           0        2.159930   -2.271490   -0.089700
     14          1           0       -0.036798   -3.106050   -0.220048
     15          1           0       -0.072179   -1.511310   -1.075750
     16          1           0       -2.400660   -2.906680    0.295941
     17          1           0       -2.864250   -1.545490    1.330120
     18          1           0       -3.928050   -1.289900   -0.838341
     19          1           0       -2.718420    0.595645    0.975719
     20          1           0       -0.307330    0.725295   -0.766451
     21          1           0       -2.046900    2.683700   -1.082600
     22          1           0       -2.612330    3.072240    0.519417
     23          1           0        0.821860    2.054770   -0.730084
     24          1           0        0.447443    0.357446    1.702830
     25          1           0        1.683110    1.515430    1.426790
     26          1           0        3.628490    1.818130    0.710515
     27          1           0        2.887300    2.084700   -0.858296
     28          1           0        4.560830    1.431850   -0.773075
     29          1           0       -3.936860    1.332710   -0.163526
     30          7           0        1.876870   -0.330741    0.370299
     31          8           0       -2.423930    0.183406   -1.000850
     32          8           0        3.748440   -0.888652   -0.852820
     33          8           0       -0.731901    2.255040    0.583490
     34          8           0       -0.948962   -1.570470    0.816594
 ---------------------------------------------------------------------

 SCF Done:  E(RHF) =  -743.906476170     A.U. after    2 cycles

 The electronic state is 1-A.
 Alpha  occ. eigenvalues --  -20.58557 -20.58425 -20.57368 -20.52701 -15.64380
 Alpha  occ. eigenvalues --  -11.36167 -11.31059 -11.30229 -11.29426 -11.29320
 Alpha  occ. eigenvalues --  -11.29259 -11.27251 -11.26798 -11.26137 -11.24525
 Alpha  occ. eigenvalues --   -1.36425  -1.34728  -1.33070  -1.32033  -1.20866
 Alpha  occ. eigenvalues --   -1.05586  -1.02429  -1.00867  -0.98866  -0.94167
 Alpha  occ. eigenvalues --   -0.89206  -0.85397  -0.82997  -0.81580  -0.74432
 Alpha  occ. eigenvalues --   -0.72148  -0.70771  -0.69700  -0.68162  -0.67852
 Alpha  occ. eigenvalues --   -0.66006  -0.65400  -0.64156  -0.63823  -0.61613
 Alpha  occ. eigenvalues --   -0.60784  -0.59818  -0.58123  -0.57350  -0.56316
 Alpha  occ. eigenvalues --   -0.55130  -0.53376  -0.52707  -0.52269  -0.51332
 Alpha  occ. eigenvalues --   -0.50776  -0.49700  -0.48735  -0.47836  -0.46549
 Alpha  occ. eigenvalues --   -0.43524  -0.42775  -0.42445  -0.35947
 Alpha virt. eigenvalues --    0.02738   0.03685   0.04018   0.04123   0.04834
 Alpha virt. eigenvalues --    0.05328   0.05566   0.05835   0.06062   0.07319
 Alpha virt. eigenvalues --    0.07391   0.07883   0.08565   0.08744   0.09518

 Mulliken charges:
               1
     1  C    0.256535
     2  C    0.599858
     3  C    0.606900
     4  C    0.682851
     5  C    0.575512
     6  C    0.565615
     7  C    1.388252
     8  C    0.624849
     9  C    0.239879
    10  C    0.678571
    11  H   -0.090897
    12  H   -0.141141
    13  H   -0.200962
    14  H   -0.149575
    15  H   -0.226426
    16  H   -0.188649
    17  H   -0.334986
    18  H   -0.155607
    19  H   -0.077496
    20  H   -0.411416
    21  H   -0.051712
    22  H   -0.222838
    23  H   -0.338272
    24  H   -0.386871
    25  H   -0.144965
    26  H    0.165883
    27  H   -0.056599
    28  H   -0.046051
    29  H   -0.215214
    30  N   -0.249568
    31  O   -0.708403
    32  O   -0.601039
    33  O   -0.821875
    34  O   -0.564146
 Sum of Mulliken charges =  -0.00000

 Dipole moment (field-independent basis, Debye):
    X=             -5.0471    Y=              0.3002    Z=              0.6653  Tot=              5.0996

 Test job not archived.
 1\1\GINC-SE009\SP\RHF\Aug-CC-pVDZ\C10H19N1O4\OHZDE\08-Apr-2025\0\\#t h
 f aug-cc-pvdz iop(5/13=1,5/36=2,99/5=2) pseudo=read geom=check guess=(
 read,tcheck) scf=(maxcycle=1)\\title\\0,1\C,0,3.53035,1.41008,-0.32239
 9\C,0,0.00958162,-1.99427,-0.0836198\C,0,-2.29337,-1.83699,0.430518\C,
 0,-2.84932,-1.17664,-0.851744\C,0,-2.88933,1.05584,-0.0158945\C,0,1.41
 485,-1.6994,0.468112\C,0,0.180637,1.41326,-0.111843\C,0,1.09548,0.7244
 69,0.943643\C,0,3.09116,-0.0256329,-0.264041\C,0,-2.03818,2.33201,-0.0
 427894\H,0,-2.41618,-1.72384,-1.74454\H,0,1.35257,-2.05289,1.51805\H,0

 Normal termination of Gaussian 16 at Tue Apr  8 22:08:03 2025.
