 Gaussian 16, Revision C.01,

 ----------------------------------------------------------------------
 #t hf aug-cc-pvdz symm=none int=(grid=ultrafine) guess=(read,tcheck) s
 table=(opt,rrhf)
 ----------------------------------------------------------------------
 -----
 title
 -----
 Symbolic Z-matrix:
 Charge =  0 Multiplicity = 1

 SCF Done:  E(RHF) =  -435.806206755     A.U. after   14 cycles
 Normal termination of Gaussian 16 at Tue Apr  8 22:12:53 2025.
 Gaussian 16:  ES64L-G16RevC.01  3-Jul-2019

 ----------------------------------------------------------------------
 #t hf aug-cc-pvdz iop(5/13=1,5/36=2,99/5=2) pseudo=read geom=check gue
 ss=(read,tcheck) scf=(maxcycle=1)
 ----------------------------------------------------------------------
 -----
 title
 -----
 Structure from the checkpoint file:  "ANI1ccx_976_conf5_mol1.chk"
 Charge =  0 Multiplicity = 1

                         Standard orientation:
 ---------------------------------------------------------------------
 Center     Atomic      Atomic             Coordinates (Angstroms)
 Number     Number       Type             X           Y           Z
 ---------------------------------------------------------------------
      1          6           0        0.047142   -0.681554   -0.167965
      2          6           0        1.410141    0.054289   -0.245566
      3          6           0       -1.107309    0.291022   -0.471948
      4          6           0       -2.395389   -0.367509   -0.618790
      5          1           0        0.554970    1.585090    0.505985
      6          1           0       -3.122509    0.454755   -0.661625
      7          1           0       -2.526289   -1.049241    0.235424
      8          1           0       -2.366749   -0.919880   -1.537700
      9          1           0       -1.712729    0.839351    1.266510
     10          1           0       -1.005869    0.867060   -1.340210
     11          1           0        0.067054   -1.444120   -1.004870
     12          1           0        0.557018   -2.186920    1.025210
     13          1           0        0.305359   -0.847354    1.829880
     14          7           0       -0.075466   -1.434700    1.068120
     15          8           0        2.434591   -0.453616   -0.636564
     16          8           0       -1.151289    1.251740    0.566217
     17          8           0        1.473011    1.322710    0.224116
 ---------------------------------------------------------------------

 SCF Done:  E(RHF) =  -435.941895399     A.U. after    2 cycles

 The electronic state is 1-A.
 Alpha  occ. eigenvalues --  -20.61533 -20.60693 -20.55162 -15.64455 -11.38931
 Alpha  occ. eigenvalues --  -11.31146 -11.30785 -11.24573  -1.40845  -1.37243
 Alpha  occ. eigenvalues --   -1.31064  -1.19728  -1.07004  -0.96462  -0.85880
 Alpha  occ. eigenvalues --   -0.81984  -0.76455  -0.72946  -0.68841  -0.68284
 Alpha  occ. eigenvalues --   -0.65532  -0.65383  -0.62469  -0.60129  -0.58155
 Alpha  occ. eigenvalues --   -0.56250  -0.54088  -0.52343  -0.49597  -0.49256
 Alpha  occ. eigenvalues --   -0.47797  -0.41393
 Alpha virt. eigenvalues --    0.02699   0.03492   0.03975   0.04774   0.06005
 Alpha virt. eigenvalues --    0.06464   0.07052   0.07604   0.08729   0.10660
 Alpha virt. eigenvalues --    0.12568   0.12756   0.13875   0.13892   0.14269

 Mulliken charges:
               1
     1  C    0.374191
     2  C    0.688442
     3  C    0.431596
     4  C    0.422659
     5  H    0.295617
     6  H    0.115176
     7  H    0.031681
     8  H   -0.000398
     9  H    0.250076
    10  H   -0.497052
    11  H   -0.025168
    12  H    0.003889
    13  H    0.101390
    14  N   -0.453766
    15  O   -0.476534
    16  O   -0.729293
    17  O   -0.532506
 Sum of Mulliken charges =   0.00000

 Dipole moment (field-independent basis, Debye):
    X=             -5.2304    Y=             -1.0099    Z=              1.0514  Tot=              5.4297

 Test job not archived.
 1\1\GINC-SE252\SP\RHF\Aug-CC-pVDZ\C4H9N1O3\OHZDE\08-Apr-2025\0\\#t hf
 aug-cc-pvdz iop(5/13=1,5/36=2,99/5=2) pseudo=read geom=check guess=(re
 ad,tcheck) scf=(maxcycle=1)\\title\\0,1\C,0,0.0471404,-0.681554,-0.167
 965\C,0,1.41014,0.0542885,-0.245566\C,0,-1.10731,0.291022,-0.471948\C,
 0,-2.39539,-0.367508,-0.61879\H,0,0.55497,1.58509,0.505985\H,0,-3.1225
 1,0.454756,-0.661625\H,0,-2.52629,-1.04924,0.235424\H,0,-2.36675,-0.91
 9879,-1.5377\H,0,-1.71273,0.839352,1.26651\H,0,-1.00587,0.86706,-1.340
 21\H,0,0.0670525,-1.44412,-1.00487\H,0,0.557016,-2.18692,1.02521\H,0,0

 Normal termination of Gaussian 16 at Tue Apr  8 22:13:00 2025.
