 Gaussian 16, Revision C.01,

 ----------------------------------------------------------------------
 #t hf aug-cc-pvdz symm=none int=(grid=ultrafine) guess=(read,tcheck) s
 table=(opt,rrhf)
 ----------------------------------------------------------------------
 -----
 title
 -----
 Symbolic Z-matrix:
 Charge =  0 Multiplicity = 1

 SCF Done:  E(RHF) =  -259.156572191     A.U. after   13 cycles
 Normal termination of Gaussian 16 at Tue Apr  8 21:37:43 2025.
 Gaussian 16:  ES64L-G16RevC.01  3-Jul-2019

 ----------------------------------------------------------------------
 #t hf aug-cc-pvdz iop(5/13=1,5/36=2,99/5=2) pseudo=read geom=check gue
 ss=(read,tcheck) scf=(maxcycle=1)
 ----------------------------------------------------------------------
 -----
 title
 -----
 Structure from the checkpoint file:  "ANI1ccx_430_conf33_mol1.chk"
 Charge =  0 Multiplicity = 1

                         Standard orientation:
 ---------------------------------------------------------------------
 Center     Atomic      Atomic             Coordinates (Angstroms)
 Number     Number       Type             X           Y           Z
 ---------------------------------------------------------------------
      1          6           0       -0.497733    0.131484    0.004716
      2          1           0        2.150631    0.463779   -0.712789
      3          1           0        2.031581    0.232135    0.957630
      4          1           0        0.412682   -1.673840    0.036206
      5          1           0       -1.807619   -1.551800    0.037197
      6          1           0       -2.570649   -0.017636    0.043898
      7          1           0        0.476401    1.760430   -0.094769
      8          7           0        1.892891   -0.208222    0.028148
      9          7           0        0.598614   -0.697286   -0.089495
     10          7           0       -1.698399   -0.527866    0.014352
     11          7           0       -0.465480    1.433090    0.004757
 ---------------------------------------------------------------------

 SCF Done:  E(RHF) =  -259.236138107     A.U. after    2 cycles

 The electronic state is 1-A.
 Alpha  occ. eigenvalues --  -15.67280 -15.66708 -15.64276 -15.56490 -11.36067
 Alpha  occ. eigenvalues --   -1.29746  -1.19714  -1.09497  -1.03126  -0.81074
 Alpha  occ. eigenvalues --   -0.74317  -0.71405  -0.69199  -0.64443  -0.60636
 Alpha  occ. eigenvalues --   -0.55191  -0.43562  -0.41249  -0.40213  -0.34049
 Alpha virt. eigenvalues --    0.02553   0.03600   0.04619   0.05426   0.07512
 Alpha virt. eigenvalues --    0.07815   0.12044   0.12574   0.14208   0.15212
 Alpha virt. eigenvalues --    0.16794   0.17372   0.17614   0.18273   0.18921

 Mulliken charges:
               1
     1  C    1.083206
     2  H    0.075389
     3  H    0.072093
     4  H   -0.053226
     5  H   -0.032526
     6  H   -0.012509
     7  H   -0.049446
     8  N   -0.178544
     9  N   -0.201293
    10  N   -0.308425
    11  N   -0.394717
 Sum of Mulliken charges =  -0.00000

 Dipole moment (field-independent basis, Debye):
    X=              0.3381    Y=             -2.8790    Z=              0.3856  Tot=              2.9243

 Test job not archived.
 1\1\GINC-SE454\SP\RHF\Aug-CC-pVDZ\C1H6N4\OHZDE\08-Apr-2025\0\\#t hf au
 g-cc-pvdz iop(5/13=1,5/36=2,99/5=2) pseudo=read geom=check guess=(read
 ,tcheck) scf=(maxcycle=1)\\title\\0,1\C,0,-0.497734,0.131484,0.0047157
 8\H,0,2.15063,0.463779,-0.712789\H,0,2.03158,0.232135,0.95763\H,0,0.41
 2681,-1.67384,0.0362056\H,0,-1.80762,-1.5518,0.0371966\H,0,-2.57065,-0
 .0176364,0.0438985\H,0,0.4764,1.76043,-0.0947686\N,0,1.89289,-0.208222
 ,0.0281476\N,0,0.598613,-0.697286,-0.0894951\N,0,-1.6984,-0.527866,0.0
 143522\N,0,-0.465481,1.43309,0.00475718\\Version=ES64L-G16RevC.01\Stat

 Normal termination of Gaussian 16 at Tue Apr  8 21:37:46 2025.
