 Gaussian 16, Revision C.01,

 ----------------------------------------------------------------------
 #t hf aug-cc-pvdz symm=none int=(grid=ultrafine) guess=(read,tcheck) s
 table=(opt,rrhf)
 ----------------------------------------------------------------------
 -----
 title
 -----
 Symbolic Z-matrix:
 Charge =  0 Multiplicity = 1

 SCF Done:  E(RHF) =  -540.215866444     A.U. after   15 cycles
 Normal termination of Gaussian 16 at Tue Apr  8 21:43:04 2025.
 Gaussian 16:  ES64L-G16RevC.01  3-Jul-2019

 ----------------------------------------------------------------------
 #t hf aug-cc-pvdz iop(5/13=1,5/36=2,99/5=2) pseudo=read geom=check gue
 ss=(read,tcheck) scf=(maxcycle=1)
 ----------------------------------------------------------------------
 -----
 title
 -----
 Structure from the checkpoint file:  "ANI1ccx_504_conf3_mol1.chk"
 Charge =  0 Multiplicity = 1

                         Standard orientation:
 ---------------------------------------------------------------------
 Center     Atomic      Atomic             Coordinates (Angstroms)
 Number     Number       Type             X           Y           Z
 ---------------------------------------------------------------------
      1          6           0        1.143629   -0.645657    0.097338
      2          6           0       -1.118432   -0.736002    0.126214
      3          1           0       -2.131893    1.901956    0.351583
      4          1           0        1.963407    1.989573    0.382057
      5          1           0        0.073194   -2.428151   -0.285702
      6          7           0       -0.716237    0.593652    0.384179
      7          7           0        0.686709    0.651364    0.440193
      8          7           0        0.042921   -1.522851    0.175210
      9          8           0       -1.442804    1.613404   -0.282810
     10          8           0        1.357826    1.626405   -0.290244
     11          8           0        2.220277   -1.024708   -0.263057
     12          8           0       -2.154003   -1.118674   -0.262178
 ---------------------------------------------------------------------

 SCF Done:  E(RHF) =  -540.383229356     A.U. after    2 cycles

 The electronic state is 1-A.
 Alpha  occ. eigenvalues --  -20.67311 -20.66923 -20.58388 -20.58310 -15.77543
 Alpha  occ. eigenvalues --  -15.76592 -15.70067 -11.43674 -11.43532  -1.48340
 Alpha  occ. eigenvalues --   -1.42976  -1.40494  -1.38737  -1.29786  -1.18756
 Alpha  occ. eigenvalues --   -1.05745  -0.90017  -0.85345  -0.80553  -0.76936
 Alpha  occ. eigenvalues --   -0.75469  -0.71441  -0.70371  -0.69663  -0.67814
 Alpha  occ. eigenvalues --   -0.66465  -0.60747  -0.58432  -0.57900  -0.53252
 Alpha  occ. eigenvalues --   -0.52445  -0.49026  -0.46112  -0.39203
 Alpha virt. eigenvalues --    0.02644   0.03863   0.04124   0.06978   0.08931
 Alpha virt. eigenvalues --    0.11044   0.11958   0.12021   0.12629   0.13057
 Alpha virt. eigenvalues --    0.13437   0.13662   0.15661   0.17048   0.17446

 Mulliken charges:
               1
     1  C    0.951840
     2  C    0.846266
     3  H    0.238102
     4  H    0.243404
     5  H   -0.014992
     6  N   -0.050790
     7  N   -0.161245
     8  N   -0.384836
     9  O   -0.479947
    10  O   -0.458945
    11  O   -0.391933
    12  O   -0.336925
 Sum of Mulliken charges =  -0.00000

 Dipole moment (field-independent basis, Debye):
    X=             -0.3094    Y=              1.8099    Z=              2.6382  Tot=              3.2143

 Test job not archived.
 1\1\GINC-SE366\SP\RHF\Aug-CC-pVDZ\C2H3N3O4\OHZDE\08-Apr-2025\0\\#t hf
 aug-cc-pvdz iop(5/13=1,5/36=2,99/5=2) pseudo=read geom=check guess=(re
 ad,tcheck) scf=(maxcycle=1)\\title\\0,1\C,0,1.14363,-0.645653,0.097338
 \C,0,-1.11843,-0.736005,0.126214\H,0,-2.1319,1.90195,0.351583\H,0,1.96
 34,1.98958,0.382057\H,0,0.0732012,-2.42815,-0.285702\N,0,-0.71624,0.59
 365,0.384179\N,0,0.686706,0.651367,0.440193\N,0,0.0429251,-1.52285,0.1
 7521\O,0,-1.44281,1.6134,-0.28281\O,0,1.35782,1.62641,-0.290244\O,0,2.
 22028,-1.0247,-0.263057\O,0,-2.154,-1.11868,-0.262178\\Version=ES64L-G

 Normal termination of Gaussian 16 at Tue Apr  8 21:43:09 2025.
