 Gaussian 16, Revision C.01,

 ----------------------------------------------------------------------
 #t hf aug-cc-pvdz symm=none int=(grid=ultrafine) guess=(read,tcheck) s
 table=(opt,rrhf)
 ----------------------------------------------------------------------
 -----
 title
 -----
 Symbolic Z-matrix:
 Charge =  0 Multiplicity = 1

 SCF Done:  E(RHF) =  -460.250382530     A.U. after   16 cycles
 Normal termination of Gaussian 16 at Tue Apr  8 21:19:35 2025.
 Gaussian 16:  ES64L-G16RevC.01  3-Jul-2019

 ----------------------------------------------------------------------
 #t hf aug-cc-pvdz iop(5/13=1,5/36=2,99/5=2) pseudo=read geom=check gue
 ss=(read,tcheck) scf=(maxcycle=1)
 ----------------------------------------------------------------------
 -----
 title
 -----
 Structure from the checkpoint file:  "ANI1ccx_373_conf15_mol1.chk"
 Charge =  0 Multiplicity = 1

                         Standard orientation:
 ---------------------------------------------------------------------
 Center     Atomic      Atomic             Coordinates (Angstroms)
 Number     Number       Type             X           Y           Z
 ---------------------------------------------------------------------
      1          6           0        0.034305    0.050134    0.045464
      2          1           0        2.928509    1.063229    0.228014
      3          7           0       -1.457392   -0.015416   -0.065405
      4          7           0        0.799715   -1.104511   -0.062120
      5          7           0        1.988078   -0.752425   -0.092311
      6          7           0        1.971829    0.527463   -0.018210
      7          7           0        0.798193    1.165379    0.142198
      8          8           0       -1.952132   -1.055631    0.148947
      9          8           0       -2.027531    1.042199   -0.127680
 ---------------------------------------------------------------------

 SCF Done:  E(RHF) =  -460.381130307     A.U. after    2 cycles

 The electronic state is 1-A.
 Alpha  occ. eigenvalues --  -20.64879 -20.63489 -15.95536 -15.81540 -15.77857
 Alpha  occ. eigenvalues --  -15.76691 -15.72369 -11.41168  -1.61327  -1.52962
 Alpha  occ. eigenvalues --   -1.41867  -1.28828  -1.20589  -1.03738  -0.91882
 Alpha  occ. eigenvalues --   -0.88050  -0.83259  -0.78195  -0.77040  -0.75418
 Alpha  occ. eigenvalues --   -0.72519  -0.62116  -0.56509  -0.54666  -0.53834
 Alpha  occ. eigenvalues --   -0.50089  -0.49292  -0.48882  -0.45384
 Alpha virt. eigenvalues --    0.01502   0.03025   0.06912   0.07700   0.08149
 Alpha virt. eigenvalues --    0.09998   0.11482   0.12167   0.12997   0.14728
 Alpha virt. eigenvalues --    0.15597   0.16861   0.16946   0.17788   0.18959

 Mulliken charges:
               1
     1  C    1.203317
     2  H    0.189709
     3  N    0.365561
     4  N   -0.339985
     5  N   -0.045040
     6  N    0.021051
     7  N   -0.378034
     8  O   -0.468181
     9  O   -0.548397
 Sum of Mulliken charges =  -0.00000

 Dipole moment (field-independent basis, Debye):
    X=              5.1012    Y=              1.7758    Z=              0.2603  Tot=              5.4077

 Test job not archived.
 1\1\GINC-SE058\SP\RHF\Aug-CC-pVDZ\C1H1N5O2\OHZDE\08-Apr-2025\0\\#t hf
 aug-cc-pvdz iop(5/13=1,5/36=2,99/5=2) pseudo=read geom=check guess=(re
 ad,tcheck) scf=(maxcycle=1)\\title\\0,1\C,0,0.0343069,0.0501347,0.0454
 636\H,0,2.92851,1.06323,0.228014\N,0,-1.45739,-0.0154155,-0.0654051\N,
 0,0.799717,-1.10451,-0.0621202\N,0,1.98808,-0.752424,-0.0923106\N,0,1.
 97183,0.527464,-0.0182096\N,0,0.798194,1.16538,0.142198\O,0,-1.95213,-
 1.05563,0.148947\O,0,-2.02753,1.0422,-0.12768\\Version=ES64L-G16RevC.0
 1\State=1-A\HF=-460.3811303\RMSD=3.666e-03\Dipole=2.0069546,0.6986675,

 Normal termination of Gaussian 16 at Tue Apr  8 21:19:39 2025.
