 Gaussian 16, Revision C.01,

 ----------------------------------------------------------------------
 #t hf aug-cc-pvdz symm=none int=(grid=ultrafine) guess=(read,tcheck) s
 table=(opt,rrhf)
 ----------------------------------------------------------------------
 -----
 title
 -----
 Symbolic Z-matrix:
 Charge =  0 Multiplicity = 1

 SCF Done:  E(RHF) =  -487.415909107     A.U. after   15 cycles
 Normal termination of Gaussian 16 at Tue Apr  8 21:56:31 2025.
 Gaussian 16:  ES64L-G16RevC.01  3-Jul-2019

 ----------------------------------------------------------------------
 #t hf aug-cc-pvdz iop(5/13=1,5/36=2,99/5=2) pseudo=read geom=check gue
 ss=(read,tcheck) scf=(maxcycle=1)
 ----------------------------------------------------------------------
 -----
 title
 -----
 Structure from the checkpoint file:  "ANI1ccx_877_conf3_mol1.chk"
 Charge =  0 Multiplicity = 1

                         Standard orientation:
 ---------------------------------------------------------------------
 Center     Atomic      Atomic             Coordinates (Angstroms)
 Number     Number       Type             X           Y           Z
 ---------------------------------------------------------------------
      1          6           0        1.440132   -0.054334   -0.013127
      2          6           0        0.707787    1.257373    0.126164
      3          6           0       -0.751255    1.209998   -0.079807
      4          6           0       -0.728903   -1.212762    0.019779
      5          1           0        0.866204    1.407964    1.179150
      6          1           0        1.237964    2.048305   -0.297225
      7          1           0       -2.296228   -0.071042   -0.214687
      8          1           0        1.194369   -2.024695   -0.113990
      9          7           0       -1.338518   -0.028870   -0.102192
     10          7           0        0.696001   -1.166307   -0.007725
     11          8           0        2.660721   -0.013453   -0.086300
     12          8           0       -1.380277    2.229725   -0.008513
     13          8           0       -1.344350   -2.240765    0.082078
 ---------------------------------------------------------------------

 SCF Done:  E(RHF) =  -487.567383420     A.U. after    2 cycles

 The electronic state is 1-A.
 Alpha  occ. eigenvalues --  -20.59225 -20.58916 -20.57474 -15.71618 -15.71576
 Alpha  occ. eigenvalues --  -11.46001 -11.41883 -11.41096 -11.28867  -1.44140
 Alpha  occ. eigenvalues --   -1.40893  -1.38741  -1.29295  -1.24273  -1.09057
 Alpha  occ. eigenvalues --   -0.94624  -0.91370  -0.85136  -0.80208  -0.72617
 Alpha  occ. eigenvalues --   -0.72388  -0.71189  -0.68521  -0.65887  -0.64836
 Alpha  occ. eigenvalues --   -0.63895  -0.62292  -0.54840  -0.53043  -0.51261
 Alpha  occ. eigenvalues --   -0.47377  -0.46703  -0.46326
 Alpha virt. eigenvalues --    0.02912   0.04127   0.04274   0.04561   0.07354
 Alpha virt. eigenvalues --    0.09270   0.09376   0.09624   0.10187   0.11307
 Alpha virt. eigenvalues --    0.12963   0.13067   0.13806   0.13951   0.14342

 Mulliken charges:
               1
     1  C    0.416778
     2  C    0.241312
     3  C    0.600446
     4  C    0.799552
     5  H    0.170424
     6  H   -0.075138
     7  H   -0.093918
     8  H   -0.051274
     9  N   -0.221371
    10  N   -0.387882
    11  O   -0.516130
    12  O   -0.470947
    13  O   -0.411852
 Sum of Mulliken charges =  -0.00000

 Dipole moment (field-independent basis, Debye):
    X=             -0.5088    Y=             -0.2849    Z=             -0.0523  Tot=              0.5855

 Test job not archived.
 1\1\GINC-SE073\SP\RHF\Aug-CC-pVDZ\C4H4N2O3\OHZDE\08-Apr-2025\0\\#t hf
 aug-cc-pvdz iop(5/13=1,5/36=2,99/5=2) pseudo=read geom=check guess=(re
 ad,tcheck) scf=(maxcycle=1)\\title\\0,1\C,0,1.44013,-0.0543394,-0.0131
 272\C,0,0.70779,1.25737,0.126164\C,0,-0.751252,1.21,-0.079807\C,0,-0.7
 28909,-1.21276,0.019779\H,0,0.866208,1.40796,1.17915\H,0,1.23797,2.048
 3,-0.297225\H,0,-2.29623,-0.0710343,-0.214687\H,0,1.19436,-2.0247,-0.1
 1399\N,0,-1.33852,-0.0288651,-0.102192\N,0,0.695995,-1.16631,-0.007724
 69\O,0,2.66072,-0.0134638,-0.0863001\O,0,-1.38027,2.22973,-0.00851316\

 Normal termination of Gaussian 16 at Tue Apr  8 21:56:36 2025.
