 Gaussian 16, Revision C.01,

 ----------------------------------------------------------------------
 #t hf aug-cc-pvdz symm=none int=(grid=ultrafine) guess=(read,tcheck) s
 table=(opt,rrhf)
 ----------------------------------------------------------------------
 -----
 title
 -----
 Symbolic Z-matrix:
 Charge =  0 Multiplicity = 1

 SCF Done:  E(RHF) =  -456.272402977     A.U. after   11 cycles
 Normal termination of Gaussian 16 at Tue Apr  8 21:08:45 2025.
 Gaussian 16:  ES64L-G16RevC.01  3-Jul-2019

 ----------------------------------------------------------------------
 #t hf aug-cc-pvdz iop(5/13=1,5/36=2,99/5=2) pseudo=read geom=check gue
 ss=(read,tcheck) scf=(maxcycle=1)
 ----------------------------------------------------------------------
 -----
 title
 -----
 Structure from the checkpoint file:  "ANI1ccx_1844_conf92_mol1.chk"
 Charge =  0 Multiplicity = 1

                         Standard orientation:
 ---------------------------------------------------------------------
 Center     Atomic      Atomic             Coordinates (Angstroms)
 Number     Number       Type             X           Y           Z
 ---------------------------------------------------------------------
      1          1           0       -0.731438   -1.927471    1.586140
      2          1           0       -2.257050    0.356439   -0.124842
      3          1           0       -3.309770   -0.700729   -0.793651
      4          1           0        1.414280    1.628179    0.140023
      5          1           0        0.885295    2.119879    1.521410
      6          1           0       -0.618222    2.000859   -0.191847
      7          1           0       -1.532080   -1.636031    0.281150
      8          1           0       -1.927730    2.709749   -0.624530
      9          1           0        2.081910   -2.615081   -0.417746
     10          1           0        0.710932   -1.955341   -0.207032
     11          1           0        2.254030   -0.409836   -0.250869
     12          1           0        3.301550    0.671306   -0.641742
     13          8           0        0.775224    2.255699    0.557845
     14          8           0        1.546610   -1.869601   -0.724355
     15          8           0       -2.765610   -0.506864    0.020058
     16          8           0       -1.516970    1.825689   -0.630125
     17          8           0       -0.753626   -2.172531    0.658697
     18          8           0        2.680410    0.437368    0.083322
 ---------------------------------------------------------------------

 SCF Done:  E(RHF) =  -456.424278520     A.U. after    2 cycles

 The electronic state is 1-A.
 Alpha  occ. eigenvalues --  -20.57862 -20.57521 -20.57363 -20.57289 -20.56802
 Alpha  occ. eigenvalues --  -20.56562  -1.32053  -1.31351  -1.30363  -1.29092
 Alpha  occ. eigenvalues --   -1.28908  -1.27755  -0.73526  -0.73069  -0.72545
 Alpha  occ. eigenvalues --   -0.72220  -0.71934  -0.71795  -0.64491  -0.62562
 Alpha  occ. eigenvalues --   -0.62106  -0.58118  -0.58029  -0.55790  -0.52599
 Alpha  occ. eigenvalues --   -0.52497  -0.52019  -0.51697  -0.51462  -0.51090
 Alpha virt. eigenvalues --    0.03014   0.04373   0.05034   0.05081   0.06173
 Alpha virt. eigenvalues --    0.07072   0.08271   0.09490   0.09926   0.10115
 Alpha virt. eigenvalues --    0.10748   0.11547   0.17202   0.18148   0.18908

 Mulliken charges:
               1
     1  H    0.181273
     2  H    0.327660
     3  H    0.198669
     4  H    0.277755
     5  H    0.206361
     6  H    0.340021
     7  H    0.319205
     8  H    0.164871
     9  H    0.173192
    10  H    0.280132
    11  H    0.306633
    12  H    0.184228
    13  O   -0.521171
    14  O   -0.442530
    15  O   -0.504073
    16  O   -0.482302
    17  O   -0.538349
    18  O   -0.471575
 Sum of Mulliken charges =  -0.00000

 Dipole moment (field-independent basis, Debye):
    X=              0.6466    Y=              0.5794    Z=              0.6432  Tot=              1.0804

 Test job not archived.
 1\1\GINC-SE015\SP\RHF\Aug-CC-pVDZ\H12O6\OHZDE\08-Apr-2025\0\\#t hf aug
 -cc-pvdz iop(5/13=1,5/36=2,99/5=2) pseudo=read geom=check guess=(read,
 tcheck) scf=(maxcycle=1)\\title\\0,1\H,0,-0.731438,-1.92747,1.58614\H,
 0,-2.25705,0.35644,-0.124842\H,0,-3.30977,-0.700728,-0.793651\H,0,1.41
 428,1.62818,0.140023\H,0,0.885295,2.11988,1.52141\H,0,-0.618222,2.0008
 6,-0.191847\H,0,-1.53208,-1.63603,0.28115\H,0,-1.92773,2.70975,-0.6245
 3\H,0,2.08191,-2.61508,-0.417746\H,0,0.710932,-1.95534,-0.207032\H,0,2
 .25403,-0.409835,-0.250869\H,0,3.30155,0.671307,-0.641742\O,0,0.775224

 Normal termination of Gaussian 16 at Tue Apr  8 21:08:50 2025.
