 Gaussian 16, Revision C.01,

 ----------------------------------------------------------------------
 #t hf aug-cc-pvdz symm=none int=(grid=ultrafine) guess=(read,tcheck) s
 table=(opt,rrhf)
 ----------------------------------------------------------------------
 -----
 title
 -----
 Symbolic Z-matrix:
 Charge =  0 Multiplicity = 1

 SCF Done:  E(RHF) =  -908.386228111     A.U. after   14 cycles
 Normal termination of Gaussian 16 at Tue Apr  8 20:55:03 2025.
 Gaussian 16:  ES64L-G16RevC.01  3-Jul-2019

 ----------------------------------------------------------------------
 #t hf aug-cc-pvdz iop(5/13=1,5/36=2,99/5=2) pseudo=read geom=check gue
 ss=(read,tcheck) scf=(maxcycle=1)
 ----------------------------------------------------------------------
 -----
 title
 -----
 Structure from the checkpoint file:  "ANI1ccx_1761_conf17_mol2.chk"
 Charge =  0 Multiplicity = 1

                         Standard orientation:
 ---------------------------------------------------------------------
 Center     Atomic      Atomic             Coordinates (Angstroms)
 Number     Number       Type             X           Y           Z
 ---------------------------------------------------------------------
      1          6           0        2.242319   -0.102119   -0.687529
      2          6           0       -2.934221    0.890069    0.900341
      3          6           0       -2.097951   -0.158961    1.577580
      4          6           0       -1.902172   -1.533119   -0.545730
      5          6           0       -2.214950    1.973191    0.095817
      6          6           0        3.978789   -0.702712    1.076740
      7          6           0        3.217419    0.393936    0.400478
      8          6           0        1.167508   -1.026150   -0.130999
      9          6           0       -1.178682   -1.054890    0.714471
     10          1           0       -0.901107   -1.958960    1.280910
     11          1           0       -3.146642   -2.709009   -1.161340
     12          1           0       -0.666996    2.997560    0.003719
     13          1           0       -3.580361    0.352940    0.188708
     14          1           0       -3.548801    1.459541    1.619220
     15          1           0       -2.767101   -0.881297    2.091720
     16          1           0       -1.448671    0.308978    2.339830
     17          1           0       -0.006896    0.538891    0.029259
     18          1           0        4.766349   -0.390522    1.781330
     19          1           0        4.515928   -1.297472    0.323090
     20          1           0        3.321088   -1.370851    1.640180
     21          1           0        4.722639    0.787999   -0.753184
     22          1           0        2.638929    0.978408    1.150880
     23          1           0        2.876959   -0.703357   -1.387030
     24          1           0        2.339109    1.728039   -1.551500
     25          1           0        1.092889    0.781931   -2.175190
     26          7           0        1.595669    1.083739   -1.340440
     27          7           0        0.054146   -0.384341    0.355862
     28          8           0        1.253568   -2.238910   -0.020139
     29          8           0        4.140419    1.330159   -0.195169
     30          8           0       -1.763622   -1.164399   -1.658870
     31          8           0       -2.711110    2.572161   -0.811564
     32          8           0       -1.010970    2.275190    0.581515
     33          8           0       -2.836332   -2.473459   -0.262714
 ---------------------------------------------------------------------

 SCF Done:  E(RHF) =  -908.664783591     A.U. after    2 cycles

 The electronic state is 1-A.
 Alpha  occ. eigenvalues --  -20.63995 -20.62992 -20.59092 -20.57840 -20.57004
 Alpha  occ. eigenvalues --  -20.54274 -15.63901 -15.62897 -11.40672 -11.40349
 Alpha  occ. eigenvalues --  -11.36789 -11.31350 -11.31217 -11.29834 -11.27441
 Alpha  occ. eigenvalues --  -11.27134 -11.23698  -1.44747  -1.44548  -1.35556
 Alpha  occ. eigenvalues --   -1.34117  -1.34046  -1.33799  -1.21443  -1.16641
 Alpha  occ. eigenvalues --   -1.09339  -1.04158  -1.01026  -0.93928  -0.90548
 Alpha  occ. eigenvalues --   -0.85920  -0.84210  -0.81188  -0.78785  -0.74252
 Alpha  occ. eigenvalues --   -0.73174  -0.72893  -0.71630  -0.69480  -0.68656
 Alpha  occ. eigenvalues --   -0.68325  -0.67724  -0.67014  -0.66246  -0.64072
 Alpha  occ. eigenvalues --   -0.63001  -0.61641  -0.61043  -0.60614  -0.59892
 Alpha  occ. eigenvalues --   -0.58976  -0.56111  -0.55589  -0.55028  -0.53629
 Alpha  occ. eigenvalues --   -0.53177  -0.52783  -0.51625  -0.50534  -0.49496
 Alpha  occ. eigenvalues --   -0.48352  -0.47865  -0.46853  -0.44289  -0.41418
 Alpha  occ. eigenvalues --   -0.40197
 Alpha virt. eigenvalues --    0.02808   0.03123   0.03745   0.03896   0.04826
 Alpha virt. eigenvalues --    0.05211   0.05985   0.06249   0.06500   0.07211
 Alpha virt. eigenvalues --    0.07467   0.07820   0.08314   0.09304   0.10105

 Mulliken charges:
               1
     1  C    0.660103
     2  C    0.075238
     3  C    0.485787
     4  C    0.770884
     5  C    0.617415
     6  C    0.693082
     7  C    0.038481
     8  C    0.481215
     9  C   -0.052386
    10  H   -0.140705
    11  H    0.207676
    12  H    0.271685
    13  H    0.101597
    14  H    0.074569
    15  H    0.009087
    16  H   -0.009724
    17  H   -0.097774
    18  H   -0.034156
    19  H   -0.070101
    20  H   -0.030079
    21  H    0.194495
    22  H   -0.180898
    23  H   -0.037939
    24  H    0.038855
    25  H    0.083333
    26  N   -0.425621
    27  N   -0.218361
    28  O   -0.607169
    29  O   -0.633701
    30  O   -0.485432
    31  O   -0.509334
    32  O   -0.664826
    33  O   -0.605295
 Sum of Mulliken charges =  -0.00000

 Dipole moment (field-independent basis, Debye):
    X=              0.7767    Y=              0.4944    Z=              1.7245  Tot=              1.9549

 Test job not archived.
 1\1\GINC-SE340\SP\RHF\Aug-CC-pVDZ\C9H16N2O6\OHZDE\08-Apr-2025\0\\#t hf
  aug-cc-pvdz iop(5/13=1,5/36=2,99/5=2) pseudo=read geom=check guess=(r
 ead,tcheck) scf=(maxcycle=1)\\title\\0,1\C,0,2.24232,-0.102118,-0.6875
 29\C,0,-2.93422,0.890068,0.900341\C,0,-2.09795,-0.158962,1.57758\C,0,-
 1.90217,-1.53312,-0.54573\C,0,-2.21495,1.97319,0.095817\C,0,3.97879,-0
 .702711,1.07674\C,0,3.21742,0.393937,0.400478\C,0,1.16751,-1.02615,-0.
 130999\C,0,-1.17868,-1.05489,0.714471\H,0,-0.901105,-1.95896,1.28091\H
 ,0,-3.14664,-2.70901,-1.16134\H,0,-0.666996,2.99756,0.00371943\H,0,-3.

 Normal termination of Gaussian 16 at Tue Apr  8 20:55:45 2025.
