 Gaussian 16, Revision C.01,

 ----------------------------------------------------------------------
 #t hf aug-cc-pvdz symm=none int=(grid=ultrafine) guess=(read,tcheck) s
 table=(opt,rrhf)
 ----------------------------------------------------------------------
 -----
 title
 -----
 Symbolic Z-matrix:
 Charge =  0 Multiplicity = 1

 SCF Done:  E(RHF) =  -334.012598991     A.U. after   14 cycles
 Normal termination of Gaussian 16 at Tue Apr  8 21:37:47 2025.
 Gaussian 16:  ES64L-G16RevC.01  3-Jul-2019

 ----------------------------------------------------------------------
 #t hf aug-cc-pvdz iop(5/13=1,5/36=2,99/5=2) pseudo=read geom=check gue
 ss=(read,tcheck) scf=(maxcycle=1)
 ----------------------------------------------------------------------
 -----
 title
 -----
 Structure from the checkpoint file:  "ANI1ccx_431_conf10_mol2.chk"
 Charge =  0 Multiplicity = 1

                         Standard orientation:
 ---------------------------------------------------------------------
 Center     Atomic      Atomic             Coordinates (Angstroms)
 Number     Number       Type             X           Y           Z
 ---------------------------------------------------------------------
      1          6           0        0.447657   -0.592392    0.012239
      2          1           0       -1.861987    0.335212    1.206570
      3          1           0       -2.149779    0.862589   -0.333788
      4          1           0       -1.149856   -1.682052   -0.460138
      5          1           0        2.043189    0.506162    0.288362
      6          1           0       -0.133980    2.259984    0.351832
      7          1           0        0.308241    1.747599   -1.163530
      8          7           0       -1.942616    0.068173    0.221921
      9          7           0       -0.925908   -0.699061   -0.343594
     10          7           0        1.034822    0.600113    0.316564
     11          7           0        0.591192    1.837399   -0.207381
     12          8           0        1.119476   -1.640189    0.015586
 ---------------------------------------------------------------------

 SCF Done:  E(RHF) =  -334.114809789     A.U. after    2 cycles

 The electronic state is 1-A.
 Alpha  occ. eigenvalues --  -20.53480 -15.68802 -15.68191 -15.67127 -15.66576
 Alpha  occ. eigenvalues --  -11.40025  -1.36048  -1.26482  -1.25450  -1.06696
 Alpha  occ. eigenvalues --   -1.03880  -0.83533  -0.73853  -0.71868  -0.70759
 Alpha  occ. eigenvalues --   -0.69624  -0.65551  -0.62092  -0.58306  -0.48218
 Alpha  occ. eigenvalues --   -0.46384  -0.42523  -0.41456  -0.40979
 Alpha virt. eigenvalues --    0.02346   0.03625   0.04267   0.04699   0.07421
 Alpha virt. eigenvalues --    0.07436   0.11688   0.12050   0.12473   0.15014
 Alpha virt. eigenvalues --    0.15392   0.16169   0.17019   0.17831   0.18568

 Mulliken charges:
               1
     1  C    0.843922
     2  H    0.016248
     3  H    0.024260
     4  H    0.028997
     5  H    0.042357
     6  H    0.057654
     7  H    0.005884
     8  N    0.026268
     9  N   -0.284645
    10  N   -0.200278
    11  N   -0.008331
    12  O   -0.552337
 Sum of Mulliken charges =  -0.00000

 Dipole moment (field-independent basis, Debye):
    X=             -2.4767    Y=              3.8264    Z=             -0.0706  Tot=              4.5585

 Test job not archived.
 1\1\GINC-SE339\SP\RHF\Aug-CC-pVDZ\C1H6N4O1\OHZDE\08-Apr-2025\0\\#t hf
 aug-cc-pvdz iop(5/13=1,5/36=2,99/5=2) pseudo=read geom=check guess=(re
 ad,tcheck) scf=(maxcycle=1)\\title\\0,1\C,0,0.447676,-0.592376,0.01223
 85\H,0,-1.862,0.335149,1.20657\H,0,-2.14981,0.862517,-0.333788\H,0,-1.
 1498,-1.68209,-0.460138\H,0,2.04317,0.506232,0.288362\H,0,-0.134058,2.
 25998,0.351832\H,0,0.30818,1.74761,-1.16353\N,0,-1.94262,0.0681076,0.2
 21921\N,0,-0.925886,-0.699092,-0.343594\N,0,1.0348,0.600149,0.316564\N
 ,0,0.591128,1.83742,-0.207381\O,0,1.11953,-1.64015,0.0155859\\Version=

 Normal termination of Gaussian 16 at Tue Apr  8 21:37:51 2025.
