 Gaussian 16, Revision C.01,

 ----------------------------------------------------------------------
 #t hf aug-cc-pvdz symm=none int=(grid=ultrafine) guess=(read,tcheck) s
 table=(opt,rrhf)
 ----------------------------------------------------------------------
 -----
 title
 -----
 Symbolic Z-matrix:
 Charge =  0 Multiplicity = 1

 SCF Done:  E(RHF) =  -758.533056011     A.U. after   14 cycles
 Normal termination of Gaussian 16 at Tue Apr  8 20:42:05 2025.
 Gaussian 16:  ES64L-G16RevC.01  3-Jul-2019

 ----------------------------------------------------------------------
 #t hf aug-cc-pvdz iop(5/13=1,5/36=2,99/5=2) pseudo=read geom=check gue
 ss=(read,tcheck) scf=(maxcycle=1)
 ----------------------------------------------------------------------
 -----
 title
 -----
 Structure from the checkpoint file:  "ANI1ccx_1759_conf27_mol1.chk"
 Charge =  0 Multiplicity = 1

                         Standard orientation:
 ---------------------------------------------------------------------
 Center     Atomic      Atomic             Coordinates (Angstroms)
 Number     Number       Type             X           Y           Z
 ---------------------------------------------------------------------
      1          6           0       -1.820411   -0.607674    0.081672
      2          6           0        2.155599   -2.100310   -0.675611
      3          6           0        2.760029   -1.259510    0.448868
      4          6           0        2.425019    1.268720    0.035440
      5          6           0        0.931033   -1.367270   -1.225270
      6          6           0       -2.656061    1.832690   -0.753909
      7          6           0       -2.925441    0.395414    0.016049
      8          6           0       -0.455492   -0.093170    0.488998
      9          6           0        1.840339   -0.078991    0.639556
     10          1           0        2.784139   -1.720280    1.438970
     11          1           0        0.588401    1.936930    0.594931
     12          1           0       -0.001283   -1.934090   -1.471870
     13          1           0        1.173619   -0.911996   -2.159780
     14          1           0        1.716969   -2.975770   -0.250761
     15          1           0        2.872759   -2.370330   -1.472400
     16          1           0        3.841929   -1.032010    0.203456
     17          1           0        1.495429    0.238824    1.586480
     18          1           0       -2.348721    1.652320   -1.808310
     19          1           0       -1.790591    2.495040   -0.427637
     20          1           0       -4.295921   -0.858177   -0.308288
     21          1           0       -3.340321    0.537943    0.981288
     22          1           0       -1.559301   -1.022950   -0.923411
     23          1           0       -1.714161   -2.593190    0.698987
     24          1           0       -2.220681   -1.346540    1.864160
     25          1           0       -3.600511    2.434259   -0.761817
     26          7           0       -2.248761   -1.728880    0.941039
     27          7           0        0.689328   -0.378813   -0.197034
     28          8           0        3.416579    1.477390   -0.614532
     29          8           0       -0.464952    0.640009    1.467620
     30          8           0       -3.976851   -0.100087   -0.755343
     31          8           0        1.498549    2.268250    0.236407
 ---------------------------------------------------------------------

 SCF Done:  E(RHF) =  -758.763182558     A.U. after    2 cycles

 The electronic state is 1-A.
 Alpha  occ. eigenvalues --  -20.59796 -20.57119 -20.56824 -20.56401 -15.68860
 Alpha  occ. eigenvalues --  -15.64765 -11.39416 -11.38903 -11.30944 -11.30889
 Alpha  occ. eigenvalues --  -11.30540 -11.29926 -11.26320 -11.26176 -11.24844
 Alpha  occ. eigenvalues --   -1.40280  -1.38709  -1.34897  -1.30580  -1.27191
 Alpha  occ. eigenvalues --   -1.18763  -1.08450  -1.04859  -1.01395  -0.94853
 Alpha  occ. eigenvalues --   -0.90972  -0.85441  -0.85257  -0.80453  -0.78559
 Alpha  occ. eigenvalues --   -0.75436  -0.74193  -0.73410  -0.70299  -0.69097
 Alpha  occ. eigenvalues --   -0.67331  -0.65927  -0.64352  -0.63453  -0.61438
 Alpha  occ. eigenvalues --   -0.60070  -0.59196  -0.58610  -0.57383  -0.57275
 Alpha  occ. eigenvalues --   -0.55630  -0.54210  -0.53571  -0.53120  -0.51872
 Alpha  occ. eigenvalues --   -0.50007  -0.48987  -0.48495  -0.47578  -0.47405
 Alpha  occ. eigenvalues --   -0.45704  -0.41445  -0.40290
 Alpha virt. eigenvalues --    0.01893   0.03079   0.03568   0.04029   0.05152
 Alpha virt. eigenvalues --    0.05508   0.05740   0.06258   0.06679   0.07348
 Alpha virt. eigenvalues --    0.07630   0.07981   0.08484   0.09200   0.09821

 Mulliken charges:
               1
     1  C   -0.169397
     2  C    0.249007
     3  C    0.462809
     4  C    0.741620
     5  C    0.897860
     6  C    0.473253
     7  C    1.198934
     8  C    0.210861
     9  C    0.122068
    10  H    0.046348
    11  H    0.294722
    12  H   -0.291616
    13  H   -0.360238
    14  H   -0.117457
    15  H   -0.002840
    16  H   -0.060881
    17  H   -0.230337
    18  H   -0.023229
    19  H   -0.093849
    20  H    0.140543
    21  H   -0.303020
    22  H   -0.049627
    23  H    0.117174
    24  H    0.099660
    25  H    0.000353
    26  N   -0.514870
    27  N   -0.508658
    28  O   -0.475793
    29  O   -0.671635
    30  O   -0.560763
    31  O   -0.621003
 Sum of Mulliken charges =  -0.00000

 Dipole moment (field-independent basis, Debye):
    X=             -1.3928    Y=             -6.5795    Z=              0.9646  Tot=              6.7941

 Test job not archived.
 1\1\GINC-SE366\SP\RHF\Aug-CC-pVDZ\C9H16N2O4\OHZDE\08-Apr-2025\0\\#t hf
  aug-cc-pvdz iop(5/13=1,5/36=2,99/5=2) pseudo=read geom=check guess=(r
 ead,tcheck) scf=(maxcycle=1)\\title\\0,1\C,0,-1.82041,-0.607674,0.0816
 719\C,0,2.1556,-2.10031,-0.675611\C,0,2.76003,-1.25951,0.448868\C,0,2.
 42502,1.26872,0.0354399\C,0,0.931034,-1.36727,-1.22527\C,0,-2.65606,1.
 83269,-0.753909\C,0,-2.92544,0.395414,0.0160491\C,0,-0.455491,-0.09317
 01,0.488998\C,0,1.84034,-0.0789909,0.639556\H,0,2.78414,-1.72028,1.438
 97\H,0,0.588402,1.93693,0.594931\H,0,-0.00128245,-1.93409,-1.47187\H,0

 Normal termination of Gaussian 16 at Tue Apr  8 20:42:38 2025.
