 Gaussian 16, Revision C.01,

 ----------------------------------------------------------------------
 #t hf aug-cc-pvdz symm=none int=(grid=ultrafine) guess=(read,tcheck) s
 table=(opt,rrhf)
 ----------------------------------------------------------------------
 -----
 title
 -----
 Symbolic Z-matrix:
 Charge =  0 Multiplicity = 1

 SCF Done:  E(RHF) =  -371.976479100     A.U. after   13 cycles
 Normal termination of Gaussian 16 at Tue Apr  8 21:46:07 2025.
 Gaussian 16:  ES64L-G16RevC.01  3-Jul-2019

 ----------------------------------------------------------------------
 #t hf aug-cc-pvdz iop(5/13=1,5/36=2,99/5=2) pseudo=read geom=check gue
 ss=(read,tcheck) scf=(maxcycle=1)
 ----------------------------------------------------------------------
 -----
 title
 -----
 Structure from the checkpoint file:  "ANI1ccx_554_conf2_mol2.chk"
 Charge =  0 Multiplicity = 1

                         Standard orientation:
 ---------------------------------------------------------------------
 Center     Atomic      Atomic             Coordinates (Angstroms)
 Number     Number       Type             X           Y           Z
 ---------------------------------------------------------------------
      1          6           0        1.182869    0.078053   -0.054373
      2          6           0       -1.319491   -0.166213    0.004384
      3          1           0        3.126510   -0.473978    0.196914
      4          1           0        1.986750   -1.709439    0.563121
      5          1           0        2.205948    1.629691   -0.296071
      6          1           0        0.098366   -1.554430   -0.125083
      7          1           0       -2.321012    1.527679   -0.016043
      8          1           0       -0.593856    1.723269    0.016562
      9          7           0        2.176320   -0.867302    0.068182
     10          7           0        1.216539    1.342640   -0.199060
     11          7           0       -0.021400   -0.589870    0.022715
     12          7           0       -1.416341    1.179929    0.291899
     13          8           0       -2.171100   -1.008951   -0.165702
 ---------------------------------------------------------------------

 SCF Done:  E(RHF) =  -372.091238044     A.U. after    2 cycles

 The electronic state is 1-A.
 Alpha  occ. eigenvalues --  -20.53346 -15.67486 -15.65979 -15.63125 -15.61140
 Alpha  occ. eigenvalues --  -11.39472 -11.39293  -1.37277  -1.30330  -1.19480
 Alpha  occ. eigenvalues --   -1.15099  -1.14085  -0.89617  -0.80253  -0.76521
 Alpha  occ. eigenvalues --   -0.73501  -0.69170  -0.66416  -0.64019  -0.62397
 Alpha  occ. eigenvalues --   -0.61874  -0.56320  -0.46632  -0.46237  -0.43606
 Alpha  occ. eigenvalues --   -0.41893  -0.38706
 Alpha virt. eigenvalues --    0.01846   0.03386   0.04542   0.05999   0.06584
 Alpha virt. eigenvalues --    0.08783   0.09416   0.11407   0.12462   0.13155
 Alpha virt. eigenvalues --    0.14360   0.14719   0.15455   0.16110   0.16556

 Mulliken charges:
               1
     1  C    0.976012
     2  C    0.600040
     3  H    0.063383
     4  H   -0.042590
     5  H    0.005047
     6  H   -0.099474
     7  H    0.057725
     8  H    0.141819
     9  N   -0.243744
    10  N   -0.349829
    11  N   -0.420654
    12  N   -0.207452
    13  O   -0.480283
 Sum of Mulliken charges =  -0.00000

 Dipole moment (field-independent basis, Debye):
    X=              5.3183    Y=              0.0637    Z=              0.4508  Tot=              5.3378

 Test job not archived.
 1\1\GINC-SE044\SP\RHF\Aug-CC-pVDZ\C2H6N4O1\OHZDE\08-Apr-2025\0\\#t hf
 aug-cc-pvdz iop(5/13=1,5/36=2,99/5=2) pseudo=read geom=check guess=(re
 ad,tcheck) scf=(maxcycle=1)\\title\\0,1\C,0,1.18287,0.0780522,-0.05437
 31\C,0,-1.31949,-0.166212,0.00438363\H,0,3.12651,-0.47398,0.196914\H,0
 ,1.98675,-1.70944,0.563121\H,0,2.20595,1.62969,-0.296071\H,0,0.0983658
 ,-1.55443,-0.125083\H,0,-2.32101,1.52768,-0.0160433\H,0,-0.593854,1.72
 327,0.016562\N,0,2.17632,-0.867303,0.0681822\N,0,1.21654,1.34264,-0.19
 906\N,0,-0.0213994,-0.58987,0.0227146\N,0,-1.41634,1.17993,0.291899\O,

 Normal termination of Gaussian 16 at Tue Apr  8 21:46:11 2025.
