 Gaussian 16, Revision C.01,

 ----------------------------------------------------------------------
 #t hf aug-cc-pvdz symm=none int=(grid=ultrafine) guess=(read,tcheck) s
 table=(opt,rrhf)
 ----------------------------------------------------------------------
 -----
 title
 -----
 Symbolic Z-matrix:
 Charge =  0 Multiplicity = 1

 SCF Done:  E(RHF) =  -380.218938480     A.U. after   11 cycles
 Normal termination of Gaussian 16 at Tue Apr  8 21:04:24 2025.
 Gaussian 16:  ES64L-G16RevC.01  3-Jul-2019

 ----------------------------------------------------------------------
 #t hf aug-cc-pvdz iop(5/13=1,5/36=2,99/5=2) pseudo=read geom=check gue
 ss=(read,tcheck) scf=(maxcycle=1)
 ----------------------------------------------------------------------
 -----
 title
 -----
 Structure from the checkpoint file:  "ANI1ccx_1843_conf92_mol1.chk"
 Charge =  0 Multiplicity = 1

                         Standard orientation:
 ---------------------------------------------------------------------
 Center     Atomic      Atomic             Coordinates (Angstroms)
 Number     Number       Type             X           Y           Z
 ---------------------------------------------------------------------
      1          1           0       -1.055868   -1.215431   -0.135772
      2          1           0       -0.655950   -2.627641    0.084169
      3          1           0       -1.766279    0.758525   -0.463290
      4          1           0       -2.721029    0.255574    0.542319
      5          1           0       -0.081878    2.719100   -0.034370
      6          1           0        0.154078    1.183630    0.642031
      7          1           0        1.665092    0.039868    0.582736
      8          1           0        0.630001   -0.665047    1.575600
      9          1           0        1.279541    0.549794   -1.271880
     10          1           0        1.235712   -0.896959   -0.978517
     11          8           0       -0.292913   -1.758780    0.124383
     12          8           0       -2.360558   -0.007024   -0.308456
     13          8           0       -0.235079    1.755700   -0.128587
     14          8           0        1.169772    0.190482    1.422810
     15          8           0        1.883352   -0.193054   -1.178030
 ---------------------------------------------------------------------

 SCF Done:  E(RHF) =  -380.343818409     A.U. after    2 cycles

 The electronic state is 1-A.
 Alpha  occ. eigenvalues --  -20.59013 -20.58975 -20.57959 -20.57573 -20.57560
 Alpha  occ. eigenvalues --   -1.34267  -1.32453  -1.32065  -1.30077  -1.28326
 Alpha  occ. eigenvalues --   -0.75830  -0.74749  -0.72918  -0.71836  -0.71734
 Alpha  occ. eigenvalues --   -0.65850  -0.62894  -0.60861  -0.60620  -0.57685
 Alpha  occ. eigenvalues --   -0.54649  -0.53803  -0.53050  -0.51868  -0.51292
 Alpha virt. eigenvalues --    0.02718   0.04189   0.05151   0.06589   0.07255
 Alpha virt. eigenvalues --    0.07925   0.08215   0.08759   0.09377   0.10723
 Alpha virt. eigenvalues --    0.16222   0.18253   0.19360   0.20669   0.22011

 Mulliken charges:
               1
     1  H    0.264938
     2  H    0.212597
     3  H    0.250610
     4  H    0.189338
     5  H    0.221432
     6  H    0.368487
     7  H    0.279692
     8  H    0.301421
     9  H    0.209260
    10  H    0.247460
    11  O   -0.495831
    12  O   -0.434030
    13  O   -0.612733
    14  O   -0.572344
    15  O   -0.430297
 Sum of Mulliken charges =  -0.00000

 Dipole moment (field-independent basis, Debye):
    X=             -2.8037    Y=              0.0244    Z=              1.2356  Tot=              3.0640

 Test job not archived.
 1\1\GINC-SE366\SP\RHF\Aug-CC-pVDZ\H10O5\OHZDE\08-Apr-2025\0\\#t hf aug
 -cc-pvdz iop(5/13=1,5/36=2,99/5=2) pseudo=read geom=check guess=(read,
 tcheck) scf=(maxcycle=1)\\title\\0,1\H,0,-1.05587,-1.21543,-0.135772\H
 ,0,-0.655953,-2.62764,0.084169\H,0,-1.76628,0.758526,-0.46329\H,0,-2.7
 2103,0.255576,0.542319\H,0,-0.0818779,2.7191,-0.0343704\H,0,0.154077,1
 .18363,0.642031\H,0,1.66509,0.0398667,0.582736\H,0,0.629999,-0.665047,
 1.5756\H,0,1.27954,0.549793,-1.27188\H,0,1.23571,-0.89696,-0.978517\O,
 0,-0.292916,-1.75878,0.124383\O,0,-2.36056,-0.00702193,-0.308456\O,0,-

 Normal termination of Gaussian 16 at Tue Apr  8 21:04:27 2025.
