 Gaussian 16, Revision C.01,

 ----------------------------------------------------------------------
 #t hf aug-cc-pvdz symm=none int=(grid=ultrafine) guess=(read,tcheck) s
 table=(opt,rrhf)
 ----------------------------------------------------------------------
 -----
 title
 -----
 Symbolic Z-matrix:
 Charge =  0 Multiplicity = 1

 SCF Done:  E(RHF) =  -406.480296881     A.U. after   16 cycles
 Normal termination of Gaussian 16 at Tue Apr  8 21:28:36 2025.
 Gaussian 16:  ES64L-G16RevC.01  3-Jul-2019

 ----------------------------------------------------------------------
 #t hf aug-cc-pvdz iop(5/13=1,5/36=2,99/5=2) pseudo=read geom=check gue
 ss=(read,tcheck) scf=(maxcycle=1)
 ----------------------------------------------------------------------
 -----
 title
 -----
 Structure from the checkpoint file:  "ANI1ccx_379_conf8_mol1.chk"
 Charge =  0 Multiplicity = 1

                         Standard orientation:
 ---------------------------------------------------------------------
 Center     Atomic      Atomic             Coordinates (Angstroms)
 Number     Number       Type             X           Y           Z
 ---------------------------------------------------------------------
      1          6           0        0.033444    0.779321    0.022697
      2          1           0        2.105369   -0.631749    0.992515
      3          1           0        2.227679   -0.596361   -0.695789
      4          7           0        1.751099   -0.913139    0.070418
      5          7           0        0.459150   -0.475261   -0.113700
      6          7           0       -0.555525   -1.309689   -0.045933
      7          7           0       -1.661811   -0.649274   -0.012174
      8          8           0       -1.289650    0.742646    0.096838
      9          8           0        0.729137    1.755320   -0.062236
 ---------------------------------------------------------------------

 SCF Done:  E(RHF) =  -406.601469599     A.U. after    2 cycles

 The electronic state is 1-A.
 Alpha  occ. eigenvalues --  -20.70080 -20.57595 -15.80047 -15.79705 -15.78264
 Alpha  occ. eigenvalues --  -15.70895 -11.45260  -1.55890  -1.39583  -1.39063
 Alpha  occ. eigenvalues --   -1.27140  -1.13990  -0.97614  -0.90253  -0.80522
 Alpha  occ. eigenvalues --   -0.78675  -0.73014  -0.70871  -0.67983  -0.59449
 Alpha  occ. eigenvalues --   -0.58840  -0.57338  -0.57011  -0.50486  -0.48159
 Alpha  occ. eigenvalues --   -0.42598
 Alpha virt. eigenvalues --    0.02717   0.04017   0.07739   0.08136   0.09126
 Alpha virt. eigenvalues --    0.10467   0.10685   0.12288   0.13086   0.15189
 Alpha virt. eigenvalues --    0.16780   0.17701   0.18618   0.18804   0.19751

 Mulliken charges:
               1
     1  C    0.688056
     2  H    0.119185
     3  H    0.042541
     4  N    0.183797
     5  N   -0.128754
     6  N   -0.061368
     7  N    0.068266
     8  O   -0.515398
     9  O   -0.396324
 Sum of Mulliken charges =   0.00000

 Dipole moment (field-independent basis, Debye):
    X=              2.3036    Y=             -2.1768    Z=              0.4245  Tot=              3.1977

 Test job not archived.
 1\1\GINC-SE094\SP\RHF\Aug-CC-pVDZ\C1H2N4O2\OHZDE\08-Apr-2025\0\\#t hf
 aug-cc-pvdz iop(5/13=1,5/36=2,99/5=2) pseudo=read geom=check guess=(re
 ad,tcheck) scf=(maxcycle=1)\\title\\0,1\C,0,0.0334438,0.77932,0.022696
 6\H,0,2.10537,-0.631749,0.992515\H,0,2.22768,-0.59636,-0.695789\N,0,1.
 7511,-0.913139,0.070418\N,0,0.459151,-0.475262,-0.1137\N,0,-0.555523,-
 1.30969,-0.0459327\N,0,-1.66181,-0.649276,-0.0121741\O,0,-1.28965,0.74
 2644,0.0968381\O,0,0.729137,1.75532,-0.0622365\\Version=ES64L-G16RevC.
 01\State=1-A\HF=-406.6014696\RMSD=3.223e-03\Dipole=0.9062932,-0.856408

 Normal termination of Gaussian 16 at Tue Apr  8 21:28:39 2025.
