 Gaussian 16, Revision C.01,

 ----------------------------------------------------------------------
 #t hf aug-cc-pvdz symm=none int=(grid=ultrafine) guess=(read,tcheck) s
 table=(opt,rrhf)
 ----------------------------------------------------------------------
 -----
 title
 -----
 Symbolic Z-matrix:
 Charge =  0 Multiplicity = 1

 SCF Done:  E(RHF) =  -453.851418748     A.U. after   14 cycles
 Normal termination of Gaussian 16 at Tue Apr  8 22:15:19 2025.
 Gaussian 16:  ES64L-G16RevC.01  3-Jul-2019

 ----------------------------------------------------------------------
 #t hf aug-cc-pvdz iop(5/13=1,5/36=2,99/5=2) pseudo=read geom=check gue
 ss=(read,tcheck) scf=(maxcycle=1)
 ----------------------------------------------------------------------
 -----
 title
 -----
 Structure from the checkpoint file:  "ANI1ccx_997_conf1_mol2.chk"
 Charge =  0 Multiplicity = 1

                         Standard orientation:
 ---------------------------------------------------------------------
 Center     Atomic      Atomic             Coordinates (Angstroms)
 Number     Number       Type             X           Y           Z
 ---------------------------------------------------------------------
      1          6           0       -1.810151    0.160428    0.090418
      2          6           0       -0.881376   -0.598946    0.976884
      3          6           0        0.048692   -1.517100    0.199215
      4          6           0        0.888746   -0.762526   -0.793543
      5          6           0        1.869499    0.181348   -0.167109
      6          1           0        0.407655    1.456940   -0.129315
      7          1           0        0.220664   -0.213934   -1.454200
      8          1           0        1.425089   -1.470900   -1.432350
      9          1           0       -0.570297   -2.234079   -0.379976
     10          1           0        0.664162   -2.162450    0.854876
     11          1           0       -0.299217    0.134593    1.571720
     12          1           0       -1.390071   -1.153579    1.787820
     13          1           0       -2.856711   -1.314598   -0.428673
     14          1           0       -1.342800    2.038481    0.884116
     15          1           0       -2.208700    1.933971   -0.519323
     16          7           0       -1.441170    1.473931    0.021345
     17          7           0       -2.806451   -0.341716   -0.581809
     18          8           0        1.388700    1.415770   -0.031516
     19          8           0        2.985189   -0.130666    0.198185
 ---------------------------------------------------------------------

 SCF Done:  E(RHF) =  -453.990269366     A.U. after    2 cycles

 The electronic state is 1-A.
 Alpha  occ. eigenvalues --  -20.60781 -20.54987 -15.68169 -15.62166 -11.38931
 Alpha  occ. eigenvalues --  -11.35776 -11.27095 -11.26967 -11.25618  -1.41005
 Alpha  occ. eigenvalues --   -1.31491  -1.27044  -1.14284  -1.10307  -1.00124
 Alpha  occ. eigenvalues --   -0.88989  -0.83742  -0.81284  -0.73409  -0.71553
 Alpha  occ. eigenvalues --   -0.68900  -0.67182  -0.65893  -0.65318  -0.61575
 Alpha  occ. eigenvalues --   -0.60660  -0.56447  -0.55533  -0.53506  -0.51278
 Alpha  occ. eigenvalues --   -0.50870  -0.47967  -0.45174  -0.44071  -0.40294
 Alpha virt. eigenvalues --    0.02235   0.02956   0.03681   0.04899   0.06031
 Alpha virt. eigenvalues --    0.06252   0.06807   0.07565   0.07990   0.09015
 Alpha virt. eigenvalues --    0.10879   0.11710   0.12380   0.12813   0.13591

 Mulliken charges:
               1
     1  C    0.880797
     2  C    0.240281
     3  C    0.097977
     4  C    0.367080
     5  C    0.682136
     6  H    0.350044
     7  H   -0.145001
     8  H   -0.083933
     9  H   -0.049521
    10  H   -0.089878
    11  H   -0.186399
    12  H   -0.081352
    13  H   -0.032371
    14  H    0.116556
    15  H    0.087527
    16  N   -0.609574
    17  N   -0.537621
    18  O   -0.480545
    19  O   -0.526205
 Sum of Mulliken charges =  -0.00000

 Dipole moment (field-independent basis, Debye):
    X=             -4.5648    Y=             -0.3400    Z=              1.0227  Tot=              4.6903

 Test job not archived.
 1\1\GINC-SE334\SP\RHF\Aug-CC-pVDZ\C5H10N2O2\OHZDE\08-Apr-2025\0\\#t hf
  aug-cc-pvdz iop(5/13=1,5/36=2,99/5=2) pseudo=read geom=check guess=(r
 ead,tcheck) scf=(maxcycle=1)\\title\\0,1\C,0,-1.81015,0.160427,0.09041
 75\C,0,-0.881375,-0.598947,0.976884\C,0,0.0486937,-1.5171,0.199215\C,0
 ,0.888747,-0.762526,-0.793543\C,0,1.8695,0.181348,-0.167109\H,0,0.4076
 55,1.45694,-0.129315\H,0,0.220665,-0.213934,-1.4542\H,0,1.42509,-1.470
 9,-1.43235\H,0,-0.570295,-2.23408,-0.379976\H,0,0.664164,-2.16245,0.85
 4876\H,0,-0.299216,0.134592,1.57172\H,0,-1.39007,-1.15358,1.78782\H,0,

 Normal termination of Gaussian 16 at Tue Apr  8 22:15:28 2025.
