 Gaussian 16, Revision C.01,

 ----------------------------------------------------------------------
 #t hf aug-cc-pvdz symm=none int=(grid=ultrafine) guess=(read,tcheck) s
 table=(opt,rrhf)
 ----------------------------------------------------------------------
 -----
 title
 -----
 Symbolic Z-matrix:
 Charge =  0 Multiplicity = 1

 SCF Done:  E(RHF) =  -276.594876719     A.U. after   15 cycles
 Normal termination of Gaussian 16 at Tue Apr  8 21:15:23 2025.
 Gaussian 16:  ES64L-G16RevC.01  3-Jul-2019

 ----------------------------------------------------------------------
 #t hf aug-cc-pvdz iop(5/13=1,5/36=2,99/5=2) pseudo=read geom=check gue
 ss=(read,tcheck) scf=(maxcycle=1)
 ----------------------------------------------------------------------
 -----
 title
 -----
 Structure from the checkpoint file:  "ANI1ccx_370_conf35_mol2.chk"
 Charge =  0 Multiplicity = 1

                         Standard orientation:
 ---------------------------------------------------------------------
 Center     Atomic      Atomic             Coordinates (Angstroms)
 Number     Number       Type             X           Y           Z
 ---------------------------------------------------------------------
      1          6           0       -1.061061    0.057768    0.007249
      2          1           0       -2.132531   -0.019821    0.010662
      3          7           0       -0.333233    1.131827   -0.001465
      4          7           0        0.960181    0.633637   -0.006051
      5          7           0        0.987270   -0.612509    0.011280
      6          8           0       -0.350079   -1.049684   -0.010063
 ---------------------------------------------------------------------

 SCF Done:  E(RHF) =  -276.674928246     A.U. after    2 cycles

 The electronic state is 1-A.
 Alpha  occ. eigenvalues --  -20.71598 -15.78652 -15.75723 -15.70003 -11.40190
 Alpha  occ. eigenvalues --   -1.55071  -1.33295  -1.21530  -0.93090  -0.90913
 Alpha  occ. eigenvalues --   -0.78876  -0.74079  -0.67084  -0.59842  -0.53793
 Alpha  occ. eigenvalues --   -0.50930  -0.50736  -0.45499
 Alpha virt. eigenvalues --    0.02673   0.06440   0.07504   0.09284   0.10335
 Alpha virt. eigenvalues --    0.12955   0.13105   0.15116   0.15330   0.17662
 Alpha virt. eigenvalues --    0.18576   0.20096   0.20823   0.23226   0.25315

 Mulliken charges:
               1
     1  C    0.922265
     2  H   -0.169084
     3  N   -0.336745
     4  N   -0.039815
     5  N    0.106633
     6  O   -0.483254
 Sum of Mulliken charges =  -0.00000

 Dipole moment (field-independent basis, Debye):
    X=             -2.8664    Y=             -0.7916    Z=              0.0258  Tot=              2.9739

 Test job not archived.
 1\1\GINC-SE099\SP\RHF\Aug-CC-pVDZ\C1H1N3O1\OHZDE\08-Apr-2025\0\\#t hf
 aug-cc-pvdz iop(5/13=1,5/36=2,99/5=2) pseudo=read geom=check guess=(re
 ad,tcheck) scf=(maxcycle=1)\\title\\0,1\C,0,-1.06106,0.0577764,0.00724
 852\H,0,-2.13253,-0.0198068,0.0106622\N,0,-0.333225,1.13183,-0.0014645
 1\N,0,0.960186,0.633632,-0.00605106\N,0,0.987267,-0.612514,0.0112802\O
 ,0,-0.350085,-1.04968,-0.0100632\\Version=ES64L-G16RevC.01\State=1-A\H
 F=-276.6749282\RMSD=3.251e-03\Dipole=-1.127748,-0.3114427,0.0101421\Qu
 adrupole=2.7295944,-3.519498,0.7899036,0.5077063,-0.0357241,-0.0089235

 Normal termination of Gaussian 16 at Tue Apr  8 21:15:25 2025.
