 Gaussian 16, Revision C.01,

 ----------------------------------------------------------------------
 #t hf aug-cc-pvdz symm=none int=(grid=ultrafine) guess=(read,tcheck) s
 table=(opt,rrhf)
 ----------------------------------------------------------------------
 -----
 title
 -----
 Symbolic Z-matrix:
 Charge =  0 Multiplicity = 1

 SCF Done:  E(RHF) =  -466.562127552     A.U. after   14 cycles
 Normal termination of Gaussian 16 at Tue Apr  8 21:45:13 2025.
 Gaussian 16:  ES64L-G16RevC.01  3-Jul-2019

 ----------------------------------------------------------------------
 #t hf aug-cc-pvdz iop(5/13=1,5/36=2,99/5=2) pseudo=read geom=check gue
 ss=(read,tcheck) scf=(maxcycle=1)
 ----------------------------------------------------------------------
 -----
 title
 -----
 Structure from the checkpoint file:  "ANI1ccx_540_conf24_mol1.chk"
 Charge =  0 Multiplicity = 1

                         Standard orientation:
 ---------------------------------------------------------------------
 Center     Atomic      Atomic             Coordinates (Angstroms)
 Number     Number       Type             X           Y           Z
 ---------------------------------------------------------------------
      1          6           0       -1.745609    0.006296    0.003122
      2          6           0        0.874976   -0.545253    0.011668
      3          1           0       -0.482279    1.546850   -0.761768
      4          1           0       -2.218779    1.864610   -0.335927
      5          1           0       -0.818735   -1.775640    0.535685
      6          1           0        0.742981    1.182990    0.830362
      7          1           0        2.763181   -0.014102    0.080502
      8          7           0       -1.429169    1.373040   -0.178973
      9          7           0       -0.492738   -0.764931    0.517721
     10          7           0        1.163631    0.744466    0.045625
     11          8           0       -2.841559   -0.554745   -0.074135
     12          8           0        1.684400   -1.474530   -0.422211
     13          8           0        2.475331    0.899402    0.105320
 ---------------------------------------------------------------------

 SCF Done:  E(RHF) =  -466.702900498     A.U. after    2 cycles

 The electronic state is 1-A.
 Alpha  occ. eigenvalues --  -20.63706 -20.59595 -20.59472 -15.74381 -15.70305
 Alpha  occ. eigenvalues --  -15.68240 -11.45778 -11.45489  -1.48926  -1.38635
 Alpha  occ. eigenvalues --   -1.33724  -1.23585  -1.18840  -1.13073  -0.90574
 Alpha  occ. eigenvalues --   -0.84857  -0.79221  -0.76370  -0.75590  -0.69745
 Alpha  occ. eigenvalues --   -0.68514  -0.65448  -0.64369  -0.61412  -0.60268
 Alpha  occ. eigenvalues --   -0.56681  -0.53365  -0.49002  -0.46960  -0.45759
 Alpha  occ. eigenvalues --   -0.43642
 Alpha virt. eigenvalues --    0.02564   0.03960   0.04611   0.04852   0.06805
 Alpha virt. eigenvalues --    0.09859   0.10522   0.10642   0.11199   0.11648
 Alpha virt. eigenvalues --    0.13458   0.14354   0.14737   0.15059   0.15713

 Mulliken charges:
               1
     1  C    0.867250
     2  C    0.909939
     3  H    0.354237
     4  H   -0.148232
     5  H    0.042575
     6  H    0.184474
     7  H    0.183961
     8  N   -0.221182
     9  N   -0.694844
    10  N    0.043781
    11  O   -0.443730
    12  O   -0.610377
    13  O   -0.467852
 Sum of Mulliken charges =  -0.00000

 Dipole moment (field-independent basis, Debye):
    X=             -0.1488    Y=              3.1574    Z=              0.8142  Tot=              3.2641

 Test job not archived.
 1\1\GINC-SE398\SP\RHF\Aug-CC-pVDZ\C2H5N3O3\OHZDE\08-Apr-2025\0\\#t hf
 aug-cc-pvdz iop(5/13=1,5/36=2,99/5=2) pseudo=read geom=check guess=(re
 ad,tcheck) scf=(maxcycle=1)\\title\\0,1\C,0,-1.74561,0.00629625,0.0031
 2146\C,0,0.874975,-0.545253,0.0116676\H,0,-0.48228,1.54685,-0.761768\H
 ,0,-2.21878,1.86461,-0.335927\H,0,-0.818735,-1.77564,0.535685\H,0,0.74
 298,1.18299,0.830362\H,0,2.76318,-0.0141018,0.0805018\N,0,-1.42917,1.3
 7304,-0.178973\N,0,-0.492739,-0.764931,0.517721\N,0,1.16363,0.744466,0
 .045625\O,0,-2.84156,-0.554745,-0.0741346\O,0,1.6844,-1.47453,-0.42221

 Normal termination of Gaussian 16 at Tue Apr  8 21:45:17 2025.
