 Gaussian 16, Revision C.01,

 ----------------------------------------------------------------------
 #t hf aug-cc-pvdz symm=none int=(grid=ultrafine) guess=(read,tcheck) s
 table=(opt,rrhf)
 ----------------------------------------------------------------------
 -----
 title
 -----
 Symbolic Z-matrix:
 Charge =  0 Multiplicity = 1

 SCF Done:  E(RHF) =  -532.293312536     A.U. after   11 cycles
 Normal termination of Gaussian 16 at Tue Apr  8 21:09:04 2025.
 Gaussian 16:  ES64L-G16RevC.01  3-Jul-2019

 ----------------------------------------------------------------------
 #t hf aug-cc-pvdz iop(5/13=1,5/36=2,99/5=2) pseudo=read geom=check gue
 ss=(read,tcheck) scf=(maxcycle=1)
 ----------------------------------------------------------------------
 -----
 title
 -----
 Structure from the checkpoint file:  "ANI1ccx_1845_conf212_mol1.chk"
 Charge =  0 Multiplicity = 1

                         Standard orientation:
 ---------------------------------------------------------------------
 Center     Atomic      Atomic             Coordinates (Angstroms)
 Number     Number       Type             X           Y           Z
 ---------------------------------------------------------------------
      1          1           0       -1.886137   -2.962425    0.662013
      2          1           0        1.153255   -2.271283   -1.484360
      3          1           0       -0.014021   -2.073750   -0.512632
      4          1           0       -2.617048    0.425158    0.122369
      5          1           0       -3.881170   -0.349393   -0.299698
      6          1           0       -2.130804   -1.552125   -0.046076
      7          1           0       -0.989230    2.545372    0.041319
      8          1           0        2.525262    0.447603   -0.174249
      9          1           0       -2.207944    2.272766    0.980438
     10          1           0        2.204027   -1.412926    0.679640
     11          1           0        2.972818   -1.057868    2.131530
     12          1           0        1.143210    3.417097   -0.452732
     13          1           0        1.171816    1.908347   -0.009637
     14          1           0        1.401411    0.041112   -1.127670
     15          8           0       -1.592516   -2.394956   -0.045209
     16          8           0        2.072003    0.774561   -1.019040
     17          8           0       -3.145831   -0.419318    0.330911
     18          8           0        3.083578   -1.040388    1.108520
     19          8           0        0.891419   -1.792963   -0.695191
     20          8           0       -1.938184    2.128755    0.018356
     21          8           0        0.773851    2.822098    0.237874
 ---------------------------------------------------------------------

 SCF Done:  E(RHF) =  -532.468605603     A.U. after    2 cycles

 The electronic state is 1-A.
 Alpha  occ. eigenvalues --  -20.60052 -20.58444 -20.58277 -20.58249 -20.57379
 Alpha  occ. eigenvalues --  -20.57167 -20.56526  -1.33493  -1.32712  -1.30117
 Alpha  occ. eigenvalues --   -1.29527  -1.28863  -1.27836  -1.27061  -0.75837
 Alpha  occ. eigenvalues --   -0.75013  -0.73773  -0.70907  -0.70744  -0.69803
 Alpha  occ. eigenvalues --   -0.69048  -0.64969  -0.62767  -0.62476  -0.59904
 Alpha  occ. eigenvalues --   -0.58909  -0.58094  -0.56565  -0.53677  -0.53428
 Alpha  occ. eigenvalues --   -0.52512  -0.52269  -0.51596  -0.51522  -0.50744
 Alpha virt. eigenvalues --    0.02735   0.04243   0.04623   0.05127   0.05762
 Alpha virt. eigenvalues --    0.06185   0.08370   0.08432   0.08994   0.09588
 Alpha virt. eigenvalues --    0.10034   0.10376   0.11237   0.11492   0.17320

 Mulliken charges:
               1
     1  H    0.128094
     2  H    0.206562
     3  H    0.315532
     4  H    0.295892
     5  H    0.177574
     6  H    0.308127
     7  H    0.317888
     8  H    0.291662
     9  H    0.216222
    10  H    0.300786
    11  H    0.237279
    12  H    0.186284
    13  H    0.301893
    14  H    0.250420
    15  O   -0.442550
    16  O   -0.543864
    17  O   -0.471056
    18  O   -0.508774
    19  O   -0.539092
    20  O   -0.551269
    21  O   -0.477609
 Sum of Mulliken charges =  -0.00000

 Dipole moment (field-independent basis, Debye):
    X=             -2.9607    Y=             -1.4181    Z=              0.9378  Tot=              3.4141

 Test job not archived.
 1\1\GINC-SE221\SP\RHF\Aug-CC-pVDZ\H14O7\OHZDE\08-Apr-2025\0\\#t hf aug
 -cc-pvdz iop(5/13=1,5/36=2,99/5=2) pseudo=read geom=check guess=(read,
 tcheck) scf=(maxcycle=1)\\title\\0,1\H,0,-1.88613,-2.96243,0.662013\H,
 0,1.15326,-2.27128,-1.48436\H,0,-0.0140157,-2.07375,-0.512632\H,0,-2.6
 1705,0.425151,0.122369\H,0,-3.88117,-0.349403,-0.299698\H,0,-2.1308,-1
 .55213,-0.0460753\H,0,-0.989237,2.54537,0.0413189\H,0,2.52526,0.44761,
 -0.174249\H,0,-2.20795,2.27276,0.980438\H,0,2.20403,-1.41292,0.67964\H
 ,0,2.97282,-1.05786,2.13153\H,0,1.1432,3.4171,-0.452732\H,0,1.17181,1.

 Normal termination of Gaussian 16 at Tue Apr  8 21:09:11 2025.
