 Gaussian 16, Revision C.01,

 ----------------------------------------------------------------------
 #t hf aug-cc-pvdz symm=none int=(grid=ultrafine) guess=(read,tcheck) s
 table=(opt,rrhf)
 ----------------------------------------------------------------------
 -----
 title
 -----
 Symbolic Z-matrix:
 Charge =  0 Multiplicity = 1

 SCF Done:  E(RHF) =  -848.840395353     A.U. after   15 cycles
 Normal termination of Gaussian 16 at Tue Apr  8 21:16:52 2025.
 Gaussian 16:  ES64L-G16RevC.01  3-Jul-2019

 ----------------------------------------------------------------------
 #t hf aug-cc-pvdz iop(5/13=1,5/36=2,99/5=2) pseudo=read geom=check gue
 ss=(read,tcheck) scf=(maxcycle=1)
 ----------------------------------------------------------------------
 -----
 title
 -----
 Structure from the checkpoint file:  "ANI1ccx_1786_conf16_mol2.chk"
 Charge =  0 Multiplicity = 1

                         Standard orientation:
 ---------------------------------------------------------------------
 Center     Atomic      Atomic             Coordinates (Angstroms)
 Number     Number       Type             X           Y           Z
 ---------------------------------------------------------------------
      1          6           0        2.121467   -1.259247    0.554035
      2          6           0       -2.192612   -0.794526   -0.641181
      3          6           0       -1.688674   -1.515666    0.653464
      4          6           0       -0.392604    2.500040    0.051130
      5          6           0       -2.539503   -1.180603    1.866190
      6          6           0        2.609124    1.284641   -0.051785
      7          6           0        2.392651    0.220285    1.059650
      8          6           0        0.712855   -1.656693    0.182273
      9          6           0        1.509815    1.447565   -1.083230
     10          1           0       -2.366954    1.902936   -0.465872
     11          1           0       -0.923605   -1.941998   -1.475060
     12          1           0       -2.152164   -1.639355    2.796030
     13          1           0       -3.601264   -1.429370    1.777760
     14          1           0       -2.452910   -0.099970    2.036420
     15          1           0       -1.674527   -2.601686    0.498657
     16          1           0       -0.159401   -0.116281    1.049740
     17          1           0       -2.070700    3.429685    0.201081
     18          1           0        1.062629    3.037036    1.188830
     19          1           0        1.657067    2.336864   -1.748380
     20          1           0        3.995835   -1.653243   -0.117458
     21          1           0        1.622482    0.560459   -1.748180
     22          1           0        3.556544    1.130909   -0.609642
     23          1           0        2.719937    2.287561    0.423889
     24          1           0        1.630352    0.541868    1.786620
     25          1           0        3.363761    0.172132    1.592340
     26          1           0        2.380555   -1.926238    1.417970
     27          1           0        2.754193   -2.493769   -0.899435
     28          1           0       -0.471649    1.029980   -1.327420
     29          7           0        3.057846   -1.608180   -0.516845
     30          7           0        0.131324    1.401759   -0.598530
     31          7           0        0.108882    3.286599    0.916872
     32          7           0       -1.706012    2.692014   -0.382508
     33          7           0       -0.283479   -1.123540    0.949065
     34          8           0       -2.985569    0.119201   -0.629212
     35          8           0        0.444061   -2.509252   -0.688130
     36          8           0       -1.611643   -1.277806   -1.744850
 ---------------------------------------------------------------------

 SCF Done:  E(RHF) =  -849.093283505     A.U. after    2 cycles

 The electronic state is 1-A.
 Alpha  occ. eigenvalues --  -20.62258 -20.58552 -20.57996 -15.67772 -15.64292
 Alpha  occ. eigenvalues --  -15.62842 -15.60919 -15.58059 -11.41661 -11.40665
 Alpha  occ. eigenvalues --  -11.35167 -11.32031 -11.31413 -11.28296 -11.27458
 Alpha  occ. eigenvalues --  -11.25553 -11.25085  -1.43034  -1.38676  -1.34246
 Alpha  occ. eigenvalues --   -1.26984  -1.23239  -1.18556  -1.15231  -1.09778
 Alpha  occ. eigenvalues --   -1.06463  -1.04813  -0.97608  -0.92493  -0.90118
 Alpha  occ. eigenvalues --   -0.84847  -0.82888  -0.79742  -0.77301  -0.76845
 Alpha  occ. eigenvalues --   -0.73225  -0.72800  -0.70477  -0.69927  -0.68502
 Alpha  occ. eigenvalues --   -0.67451  -0.66652  -0.64803  -0.63106  -0.62704
 Alpha  occ. eigenvalues --   -0.61754  -0.61065  -0.59725  -0.58751  -0.57479
 Alpha  occ. eigenvalues --   -0.56413  -0.55667  -0.54968  -0.53183  -0.53054
 Alpha  occ. eigenvalues --   -0.51571  -0.51086  -0.50768  -0.49629  -0.48691
 Alpha  occ. eigenvalues --   -0.47564  -0.43776  -0.41581  -0.40411  -0.39694
 Alpha  occ. eigenvalues --   -0.35429
 Alpha virt. eigenvalues --    0.01883   0.02920   0.03520   0.03982   0.05081
 Alpha virt. eigenvalues --    0.05355   0.05676   0.06066   0.06417   0.07073
 Alpha virt. eigenvalues --    0.07698   0.07963   0.08438   0.08750   0.09002

 Mulliken charges:
               1
     1  C   -0.064079
     2  C    0.765454
     3  C   -0.030154
     4  C    0.502396
     5  C    0.859644
     6  C    0.273343
     7  C    0.476041
     8  C    0.615504
     9  C    0.515343
    10  H    0.079447
    11  H    0.315911
    12  H   -0.022143
    13  H   -0.110232
    14  H   -0.095907
    15  H   -0.273251
    16  H    0.054607
    17  H    0.024653
    18  H   -0.003137
    19  H   -0.142557
    20  H    0.050702
    21  H   -0.155874
    22  H   -0.055956
    23  H   -0.044392
    24  H   -0.066777
    25  H   -0.081801
    26  H    0.042641
    27  H    0.017989
    28  H   -0.046107
    29  N   -0.197784
    30  N   -0.365581
    31  N   -0.337764
    32  N   -0.237150
    33  N   -0.337802
    34  O   -0.605430
    35  O   -0.772566
    36  O   -0.547231
 Sum of Mulliken charges =  -0.00000

 Dipole moment (field-independent basis, Debye):
    X=              3.8490    Y=             -3.8953    Z=              3.0394  Tot=              6.2632

 Test job not archived.
 1\1\GINC-SE058\SP\RHF\Aug-CC-pVDZ\C9H19N5O3\OHZDE\08-Apr-2025\0\\#t hf
  aug-cc-pvdz iop(5/13=1,5/36=2,99/5=2) pseudo=read geom=check guess=(r
 ead,tcheck) scf=(maxcycle=1)\\title\\0,1\C,0,2.12147,-1.25924,0.554035
 \C,0,-2.19261,-0.794531,-0.641181\C,0,-1.68867,-1.51567,0.653464\C,0,-
 0.392612,2.50004,0.0511304\C,0,-2.5395,-1.18061,1.86619\C,0,2.60912,1.
 28465,-0.0517852\C,0,2.39265,0.220293,1.05965\C,0,0.71286,-1.65669,0.1
 82273\C,0,1.50981,1.44757,-1.08323\H,0,-2.36696,1.90293,-0.465872\H,0,
 -0.9236,-1.942,-1.47506\H,0,-2.15216,-1.63936,2.79603\H,0,-3.60126,-1.

 Normal termination of Gaussian 16 at Tue Apr  8 21:17:57 2025.
