 Gaussian 16, Revision C.01,

 ----------------------------------------------------------------------
 #t hf aug-cc-pvdz symm=none int=(grid=ultrafine) guess=(read,tcheck) s
 table=(opt,rrhf)
 ----------------------------------------------------------------------
 -----
 title
 -----
 Symbolic Z-matrix:
 Charge =  0 Multiplicity = 1

 SCF Done:  E(RHF) =  -603.592174686     A.U. after   15 cycles
 Normal termination of Gaussian 16 at Tue Apr  8 22:17:23 2025.
 Gaussian 16:  ES64L-G16RevC.01  3-Jul-2019

 ----------------------------------------------------------------------
 #t hf aug-cc-pvdz iop(5/13=1,5/36=2,99/5=2) pseudo=read geom=check gue
 ss=(read,tcheck) scf=(maxcycle=1)
 ----------------------------------------------------------------------
 -----
 title
 -----
 Structure from the checkpoint file:  "ANI1ccx_999_conf13_mol2.chk"
 Charge =  0 Multiplicity = 1

                         Standard orientation:
 ---------------------------------------------------------------------
 Center     Atomic      Atomic             Coordinates (Angstroms)
 Number     Number       Type             X           Y           Z
 ---------------------------------------------------------------------
      1          6           0       -2.615020   -0.476037   -0.633213
      2          6           0       -1.343880   -0.288583    0.271198
      3          6           0        1.002480   -0.176270    0.471719
      4          6           0        1.409640    1.160839   -0.153329
      5          6           0        2.121159   -1.181711    0.545477
      6          1           0        0.876835    2.539669   -1.156160
      7          1           0        1.809479   -2.660161   -0.631692
      8          1           0        1.870259   -1.932261    1.320240
      9          1           0        3.018830   -0.610363    0.752849
     10          1           0        0.508779    0.038752    1.381780
     11          1           0       -2.843101   -1.550049   -0.790761
     12          1           0       -2.555550   -0.028609   -1.658050
     13          1           0       -4.026920   -0.403901    0.687719
     14          1           0       -3.618930    1.061941    0.330359
     15          1           0       -0.040056   -1.192500   -1.151540
     16          7           0       -3.818250    0.152624   -0.130758
     17          7           0       -0.146809   -0.779765   -0.219584
     18          8           0        2.263359   -1.818151   -0.711325
     19          8           0       -1.445380    0.193877    1.377690
     20          8           0        2.336580    1.808379    0.378685
     21          8           0        0.509130    1.678150   -1.000480
 ---------------------------------------------------------------------

 SCF Done:  E(RHF) =  -603.777480252     A.U. after    2 cycles

 The electronic state is 1-A.
 Alpha  occ. eigenvalues --  -20.65223 -20.59712 -20.57653 -20.56161 -15.66281
 Alpha  occ. eigenvalues --  -15.61577 -11.41906 -11.38276 -11.30918 -11.29774
 Alpha  occ. eigenvalues --  -11.29035  -1.44770  -1.37869  -1.35489  -1.32554
 Alpha  occ. eigenvalues --   -1.21354  -1.16395  -1.04389  -0.93336  -0.91620
 Alpha  occ. eigenvalues --   -0.83505  -0.81063  -0.75460  -0.74197  -0.73258
 Alpha  occ. eigenvalues --   -0.70973  -0.67807  -0.66647  -0.65687  -0.64106
 Alpha  occ. eigenvalues --   -0.62532  -0.60893  -0.59077  -0.57957  -0.56887
 Alpha  occ. eigenvalues --   -0.53212  -0.51429  -0.50495  -0.49607  -0.48791
 Alpha  occ. eigenvalues --   -0.46667  -0.41716  -0.40411
 Alpha virt. eigenvalues --    0.02314   0.03391   0.04015   0.04322   0.06003
 Alpha virt. eigenvalues --    0.06140   0.06564   0.07208   0.07909   0.08832
 Alpha virt. eigenvalues --    0.10625   0.10725   0.11676   0.11986   0.12337

 Mulliken charges:
               1
     1  C    0.815418
     2  C    0.307413
     3  C    0.221225
     4  C    0.664994
     5  C    1.115732
     6  H    0.186328
     7  H    0.158669
     8  H   -0.025916
     9  H   -0.180806
    10  H   -0.106134
    11  H   -0.048387
    12  H   -0.119078
    13  H    0.032500
    14  H    0.080890
    15  H   -0.057209
    16  N   -0.450180
    17  N   -0.432089
    18  O   -0.539976
    19  O   -0.566736
    20  O   -0.568534
    21  O   -0.488126
 Sum of Mulliken charges =   0.00000

 Dipole moment (field-independent basis, Debye):
    X=             -0.5279    Y=             -2.9273    Z=             -1.8070  Tot=              3.4804

 Test job not archived.
 1\1\GINC-SE329\SP\RHF\Aug-CC-pVDZ\C5H10N2O4\OHZDE\08-Apr-2025\0\\#t hf
  aug-cc-pvdz iop(5/13=1,5/36=2,99/5=2) pseudo=read geom=check guess=(r
 ead,tcheck) scf=(maxcycle=1)\\title\\0,1\C,0,-2.61502,-0.476038,-0.633
 213\C,0,-1.34388,-0.288583,0.271198\C,0,1.00248,-0.176269,0.471719\C,0
 ,1.40964,1.16084,-0.153329\C,0,2.12116,-1.18171,0.545477\H,0,0.876834,
 2.53967,-1.15616\H,0,1.80948,-2.66016,-0.631692\H,0,1.87026,-1.93226,1
 .32024\H,0,3.01883,-0.610362,0.752849\H,0,0.508779,0.0387528,1.38178\H
 ,0,-2.8431,-1.55005,-0.790761\H,0,-2.55555,-0.0286095,-1.65805\H,0,-4.

 Normal termination of Gaussian 16 at Tue Apr  8 22:17:36 2025.
