 Gaussian 16, Revision C.01,

 ----------------------------------------------------------------------
 #t hf aug-cc-pvdz symm=none int=(grid=ultrafine) guess=(read,tcheck) s
 table=(opt,rrhf)
 ----------------------------------------------------------------------
 -----
 title
 -----
 Symbolic Z-matrix:
 Charge =  0 Multiplicity = 1

 SCF Done:  E(RHF) =  -528.734217804     A.U. after   14 cycles
 Normal termination of Gaussian 16 at Tue Apr  8 22:16:49 2025.
 Gaussian 16:  ES64L-G16RevC.01  3-Jul-2019

 ----------------------------------------------------------------------
 #t hf aug-cc-pvdz iop(5/13=1,5/36=2,99/5=2) pseudo=read geom=check gue
 ss=(read,tcheck) scf=(maxcycle=1)
 ----------------------------------------------------------------------
 -----
 title
 -----
 Structure from the checkpoint file:  "ANI1ccx_998_conf9_mol1.chk"
 Charge =  0 Multiplicity = 1

                         Standard orientation:
 ---------------------------------------------------------------------
 Center     Atomic      Atomic             Coordinates (Angstroms)
 Number     Number       Type             X           Y           Z
 ---------------------------------------------------------------------
      1          6           0        0.933949    0.044313    0.382503
      2          6           0        2.410671   -0.270809   -0.091200
      3          6           0       -0.113575   -0.984996   -0.008143
      4          6           0       -1.450149   -0.786933    0.805858
      5          6           0       -2.583849   -0.047421    0.030575
      6          1           0        2.979960    1.131831    1.172180
      7          1           0       -2.863240    1.654340   -1.045110
      8          1           0       -1.743019   -1.755269    1.169410
      9          1           0       -1.330909   -0.149132    1.695310
     10          1           0       -1.508650    1.686711   -0.023367
     11          1           0        1.410320    1.992601   -0.110101
     12          1           0        0.429309    1.216181   -1.252510
     13          1           0        0.986644    0.235870    1.475330
     14          1           0       -0.236656   -1.044589   -1.086050
     15          1           0        0.312722   -2.026909    0.192859
     16          7           0        0.639931    1.347911   -0.248181
     17          7           0       -2.394270    1.272451   -0.222842
     18          8           0       -3.650339   -0.586744   -0.277077
     19          8           0        2.715671   -1.164649   -0.842265
     20          8           0        3.267370    0.625256    0.418297
 ---------------------------------------------------------------------

 SCF Done:  E(RHF) =  -528.895982234     A.U. after    2 cycles

 The electronic state is 1-A.
 Alpha  occ. eigenvalues --  -20.64787 -20.58306 -20.53133 -15.65421 -15.63988
 Alpha  occ. eigenvalues --  -11.41879 -11.36686 -11.32330 -11.27509 -11.26752
 Alpha  occ. eigenvalues --   -1.44397  -1.35332  -1.33312  -1.20292  -1.17246
 Alpha  occ. eigenvalues --   -1.06036  -0.96884  -0.90332  -0.85927  -0.79093
 Alpha  occ. eigenvalues --   -0.75425  -0.73006  -0.70452  -0.68917  -0.68023
 Alpha  occ. eigenvalues --   -0.66422  -0.63753  -0.61236  -0.60265  -0.59593
 Alpha  occ. eigenvalues --   -0.56365  -0.54122  -0.52294  -0.52115  -0.51425
 Alpha  occ. eigenvalues --   -0.50242  -0.43795  -0.41526  -0.40861
 Alpha virt. eigenvalues --    0.01457   0.02767   0.03893   0.04454   0.05673
 Alpha virt. eigenvalues --    0.06469   0.06905   0.07116   0.08206   0.08905
 Alpha virt. eigenvalues --    0.10326   0.10866   0.11568   0.12036   0.12558

 Mulliken charges:
               1
     1  C    0.058605
     2  C    0.841532
     3  C    0.446060
     4  C    0.537568
     5  C    0.588512
     6  H    0.173554
     7  H    0.021317
     8  H   -0.156341
     9  H   -0.024326
    10  H    0.039322
    11  H   -0.019834
    12  H    0.147036
    13  H   -0.282928
    14  H   -0.127979
    15  H   -0.050168
    16  N   -0.519478
    17  N   -0.167287
    18  O   -0.584086
    19  O   -0.457282
    20  O   -0.463795
 Sum of Mulliken charges =   0.00000

 Dipole moment (field-independent basis, Debye):
    X=              2.9397    Y=              4.2696    Z=              2.5516  Tot=              5.7777

 Test job not archived.
 1\1\GINC-SE184\SP\RHF\Aug-CC-pVDZ\C5H10N2O3\OHZDE\08-Apr-2025\0\\#t hf
  aug-cc-pvdz iop(5/13=1,5/36=2,99/5=2) pseudo=read geom=check guess=(r
 ead,tcheck) scf=(maxcycle=1)\\title\\0,1\C,0,0.933948,0.0443115,0.3825
 03\C,0,2.41067,-0.27081,-0.0911997\C,0,-0.113576,-0.984997,-0.00814358
 \C,0,-1.45015,-0.786934,0.805858\C,0,-2.58385,-0.0474218,0.030575\H,0,
 2.97996,1.13183,1.17218\H,0,-2.86324,1.65434,-1.04511\H,0,-1.74302,-1.
 75527,1.16941\H,0,-1.33091,-0.149133,1.69531\H,0,-1.50865,1.68671,-0.0
 233667\H,0,1.41032,1.9926,-0.110101\H,0,0.429309,1.21618,-1.25251\H,0,

 Normal termination of Gaussian 16 at Tue Apr  8 22:16:59 2025.
