 Gaussian 16, Revision C.01,

 ----------------------------------------------------------------------
 #t hf aug-cc-pvdz symm=none int=(grid=ultrafine) guess=(read,tcheck) s
 table=(opt,rrhf)
 ----------------------------------------------------------------------
 -----
 title
 -----
 Symbolic Z-matrix:
 Charge =  0 Multiplicity = 1

 SCF Done:  E(RHF) =  -471.592870755     A.U. after   14 cycles
 Normal termination of Gaussian 16 at Tue Apr  8 21:51:31 2025.
 Gaussian 16:  ES64L-G16RevC.01  3-Jul-2019

 ----------------------------------------------------------------------
 #t hf aug-cc-pvdz iop(5/13=1,5/36=2,99/5=2) pseudo=read geom=check gue
 ss=(read,tcheck) scf=(maxcycle=1)
 ----------------------------------------------------------------------
 -----
 title
 -----
 Structure from the checkpoint file:  "ANI1ccx_745_conf1_mol2.chk"
 Charge =  0 Multiplicity = 1

                         Standard orientation:
 ---------------------------------------------------------------------
 Center     Atomic      Atomic             Coordinates (Angstroms)
 Number     Number       Type             X           Y           Z
 ---------------------------------------------------------------------
      1          6           0        2.213490    0.081806    0.436197
      2          6           0        1.385131    1.045098   -0.401919
      3          6           0       -0.732976    0.149654   -0.027200
      4          1           0        1.422819   -1.591762   -0.101926
      5          1           0        1.946950    0.095751    1.521190
      6          1           0        3.275940    0.452941    0.392210
      7          1           0        1.662271    2.068878   -0.401297
      8          1           0        1.398460    0.633890   -1.431440
      9          1           0       -2.296469    1.359491    0.089713
     10          1           0       -2.410421   -1.342059   -0.200203
     11          7           0       -2.002300    0.416777    0.388086
     12          8           0        2.302269   -1.255542   -0.007078
     13          8           0        0.014243    1.250999   -0.027144
     14          8           0       -0.399688   -0.986553   -0.276938
     15          8           0       -2.938990   -0.540644   -0.017256
 ---------------------------------------------------------------------

 SCF Done:  E(RHF) =  -471.742917239     A.U. after    2 cycles

 The electronic state is 1-A.
 Alpha  occ. eigenvalues --  -20.64960 -20.63110 -20.58601 -20.56196 -15.72031
 Alpha  occ. eigenvalues --  -11.44699 -11.32111 -11.30592  -1.47359  -1.40182
 Alpha  occ. eigenvalues --   -1.35846  -1.32341  -1.15084  -1.02695  -0.90913
 Alpha  occ. eigenvalues --   -0.83602  -0.79659  -0.75304  -0.74114  -0.68544
 Alpha  occ. eigenvalues --   -0.67988  -0.67069  -0.63222  -0.61889  -0.60840
 Alpha  occ. eigenvalues --   -0.58351  -0.55987  -0.54318  -0.51727  -0.49233
 Alpha  occ. eigenvalues --   -0.46182  -0.42569
 Alpha virt. eigenvalues --    0.03005   0.04259   0.04656   0.04969   0.06256
 Alpha virt. eigenvalues --    0.06475   0.08070   0.10107   0.11515   0.12281
 Alpha virt. eigenvalues --    0.13202   0.13939   0.15047   0.15164   0.15911

 Mulliken charges:
               1
     1  C    0.608916
     2  C    0.716704
     3  C    0.767429
     4  H    0.173165
     5  H   -0.105974
     6  H   -0.064270
     7  H   -0.396904
     8  H    0.023317
     9  H    0.127563
    10  H    0.188279
    11  N   -0.059899
    12  O   -0.506983
    13  O   -0.507414
    14  O   -0.517164
    15  O   -0.446765
 Sum of Mulliken charges =  -0.00000

 Dipole moment (field-independent basis, Debye):
    X=             -0.0613    Y=              3.1292    Z=             -0.4995  Tot=              3.1694

 Test job not archived.
 1\1\GINC-SE273\SP\RHF\Aug-CC-pVDZ\C3H7N1O4\OHZDE\08-Apr-2025\0\\#t hf
 aug-cc-pvdz iop(5/13=1,5/36=2,99/5=2) pseudo=read geom=check guess=(re
 ad,tcheck) scf=(maxcycle=1)\\title\\0,1\C,0,2.21349,0.0818083,0.436197
 \C,0,1.38513,1.0451,-0.401919\C,0,-0.732976,0.149655,-0.0272002\H,0,1.
 42282,-1.59176,-0.101926\H,0,1.94695,0.0957536,1.52119\H,0,3.27594,0.4
 52944,0.39221\H,0,1.66227,2.06888,-0.401297\H,0,1.39846,0.633892,-1.43
 144\H,0,-2.29647,1.35949,0.0897131\H,0,-2.41042,-1.34206,-0.200203\N,0
 ,-2.0023,0.416777,0.388086\O,0,2.30227,-1.25554,-0.00707776\O,0,0.0142

 Normal termination of Gaussian 16 at Tue Apr  8 21:51:37 2025.
