 Gaussian 16, Revision C.01,

 ----------------------------------------------------------------------
 #t hf aug-cc-pvdz symm=none int=(grid=ultrafine) guess=(read,tcheck) s
 table=(opt,rrhf)
 ----------------------------------------------------------------------
 -----
 title
 -----
 Symbolic Z-matrix:
 Charge =  0 Multiplicity = 1

 SCF Done:  E(RHF) =  -646.683640162     A.U. after   15 cycles
 Normal termination of Gaussian 16 at Tue Apr  8 21:51:59 2025.
 Gaussian 16:  ES64L-G16RevC.01  3-Jul-2019

 ----------------------------------------------------------------------
 #t hf aug-cc-pvdz iop(5/13=1,5/36=2,99/5=2) pseudo=read geom=check gue
 ss=(read,tcheck) scf=(maxcycle=1)
 ----------------------------------------------------------------------
 -----
 title
 -----
 Structure from the checkpoint file:  "ANI1ccx_51_conf1_mol1.chk"
 Charge =  0 Multiplicity = 1

                         Standard orientation:
 ---------------------------------------------------------------------
 Center     Atomic      Atomic             Coordinates (Angstroms)
 Number     Number       Type             X           Y           Z
 ---------------------------------------------------------------------
      1          6           0       -3.111130    0.159567   -0.061423
      2          6           0        0.781537   -1.227870   -0.937607
      3          6           0        1.725100   -1.597700    0.976334
      4          6           0        3.008490   -0.136658   -0.594682
      5          6           0        2.953370    1.325000   -0.081892
      6          6           0        0.476346   -2.197270    0.888201
      7          6           0        0.464634    1.716610    0.701889
      8          6           0       -0.816598    1.414690   -0.100836
      9          6           0       -1.951400    0.754699    0.726500
     10          6           0        1.626710    2.096500   -0.246758
     11          1           0        3.253090    1.379730    1.003420
     12          1           0        0.711703   -0.797199   -1.931660
     13          1           0        0.058931   -2.797420    1.692590
     14          1           0        2.523820   -1.537470    1.677780
     15          1           0        3.944610   -0.603546   -0.133412
     16          1           0        3.049220   -0.171333   -1.666100
     17          1           0        3.771280    1.853970   -0.622219
     18          1           0        1.917950    3.171320   -0.145135
     19          1           0       -0.509566    0.786864   -0.966424
     20          1           0        0.674586    0.902649    1.399900
     21          1           0        0.267217    2.569470    1.361180
     22          1           0       -1.163800    2.419880   -0.495781
     23          1           0       -1.472410   -0.043163    1.381900
     24          1           0       -2.324350    1.550500    1.356510
     25          1           0       -1.978990   -1.276230   -0.571635
     26          1           0        1.279410    1.975110   -1.254550
     27          7           0        1.867170   -0.958146   -0.198223
     28          7           0       -0.164332   -1.936830   -0.347902
     29          8           0       -2.946230   -1.091600   -0.590382
     30          8           0       -4.161890    0.721140   -0.144847
 ---------------------------------------------------------------------

 SCF Done:  E(RHF) =  -646.876715761     A.U. after    2 cycles

 The electronic state is 1-A.
 Alpha  occ. eigenvalues --  -20.58714 -20.53626 -15.70513 -15.64560 -11.37345
 Alpha  occ. eigenvalues --  -11.33079 -11.32138 -11.28718 -11.28238 -11.27172
 Alpha  occ. eigenvalues --  -11.25538 -11.25428 -11.25113 -11.24495  -1.38600
 Alpha  occ. eigenvalues --   -1.34594  -1.30115  -1.18405  -1.09694  -1.05704
 Alpha  occ. eigenvalues --   -1.02621  -0.99241  -0.92735  -0.85056  -0.84205
 Alpha  occ. eigenvalues --   -0.81182  -0.79632  -0.79130  -0.73730  -0.70613
 Alpha  occ. eigenvalues --   -0.68443  -0.65969  -0.65028  -0.63152  -0.62645
 Alpha  occ. eigenvalues --   -0.61894  -0.61020  -0.60386  -0.58865  -0.57569
 Alpha  occ. eigenvalues --   -0.56517  -0.55444  -0.54601  -0.50901  -0.50009
 Alpha  occ. eigenvalues --   -0.49560  -0.48815  -0.47534  -0.47268  -0.46495
 Alpha  occ. eigenvalues --   -0.43318  -0.40443  -0.33871
 Alpha virt. eigenvalues --    0.01694   0.02556   0.03170   0.04015   0.05001
 Alpha virt. eigenvalues --    0.05349   0.05418   0.06078   0.06174   0.07465
 Alpha virt. eigenvalues --    0.07851   0.08297   0.08827   0.09165   0.09609

 Mulliken charges:
               1
     1  C    0.802591
     2  C    0.387397
     3  C    0.687096
     4  C    0.635483
     5  C    0.108849
     6  C    0.488733
     7  C    0.779184
     8  C   -0.261948
     9  C    0.475091
    10  C    0.424775
    11  H   -0.045830
    12  H   -0.425128
    13  H   -0.325321
    14  H   -0.535688
    15  H   -0.050193
    16  H   -0.279273
    17  H   -0.040259
    18  H   -0.019915
    19  H   -0.396694
    20  H   -0.451909
    21  H   -0.155307
    22  H    0.001004
    23  H    0.114333
    24  H   -0.172292
    25  H    0.247508
    26  H   -0.273536
    27  N    0.087890
    28  N   -0.818676
    29  O   -0.495211
    30  O   -0.492752
 Sum of Mulliken charges =  -0.00000

 Dipole moment (field-independent basis, Debye):
    X=             10.1767    Y=              1.5926    Z=              1.0313  Tot=             10.3520

 Test job not archived.
 1\1\GINC-SE339\SP\RHF\Aug-CC-pVDZ\C10H16N2O2\OHZDE\08-Apr-2025\0\\#t h
 f aug-cc-pvdz iop(5/13=1,5/36=2,99/5=2) pseudo=read geom=check guess=(
 read,tcheck) scf=(maxcycle=1)\\title\\0,1\C,0,-3.11113,0.159567,-0.061
 4225\C,0,0.781537,-1.22787,-0.937607\C,0,1.7251,-1.5977,0.976334\C,0,3
 .00849,-0.136658,-0.594682\C,0,2.95337,1.325,-0.0818921\C,0,0.476346,-
 2.19727,0.888201\C,0,0.464634,1.71661,0.701889\C,0,-0.816598,1.41469,-
 0.100836\C,0,-1.9514,0.754699,0.7265\C,0,1.62671,2.0965,-0.246758\H,0,
 3.25309,1.37973,1.00342\H,0,0.711703,-0.797199,-1.93166\H,0,0.0589307,

 Normal termination of Gaussian 16 at Tue Apr  8 21:52:33 2025.
