 Gaussian 16, Revision C.01,

 ----------------------------------------------------------------------
 #t hf aug-cc-pvdz symm=none int=(grid=ultrafine) guess=(read,tcheck) s
 table=(opt,rrhf)
 ----------------------------------------------------------------------
 -----
 title
 -----
 Symbolic Z-matrix:
 Charge =  0 Multiplicity = 1

 SCF Done:  E(RHF) =  -982.068921574     A.U. after   15 cycles
 Normal termination of Gaussian 16 at Tue Apr  8 20:45:04 2025.
 Gaussian 16:  ES64L-G16RevC.01  3-Jul-2019

 ----------------------------------------------------------------------
 #t hf aug-cc-pvdz iop(5/13=1,5/36=2,99/5=2) pseudo=read geom=check gue
 ss=(read,tcheck) scf=(maxcycle=1)
 ----------------------------------------------------------------------
 -----
 title
 -----
 Structure from the checkpoint file:  "ANI1ccx_1743_conf25_mol1.chk"
 Charge =  0 Multiplicity = 1

                         Standard orientation:
 ---------------------------------------------------------------------
 Center     Atomic      Atomic             Coordinates (Angstroms)
 Number     Number       Type             X           Y           Z
 ---------------------------------------------------------------------
      1          6           0       -1.692310    1.689611   -0.469809
      2          6           0       -0.434938    1.945400    0.324784
      3          6           0       -2.905260    1.220921    0.366538
      4          6           0       -2.653210   -0.170177    0.945725
      5          6           0       -2.710991   -1.288219   -0.054429
      6          6           0        0.921620   -0.230600   -0.341965
      7          6           0        1.208939   -1.037930    1.007770
      8          6           0        2.079200   -0.417192   -1.270270
      9          6           0        3.395370   -0.007750   -0.691110
     10          1           0       -0.205400   -2.259690    0.415313
     11          1           0        4.926129   -0.735593    0.093787
     12          1           0        1.911100    0.306269   -2.101940
     13          1           0        2.212179   -1.418421   -1.577350
     14          1           0        0.026933   -0.574361   -0.825147
     15          1           0        1.543650    1.712830    0.403197
     16          1           0       -3.809131   -2.158889   -1.320860
     17          1           0       -3.444880   -0.367017    1.693610
     18          1           0       -1.651400   -0.249117    1.467940
     19          1           0       -2.940180    2.021321    1.107340
     20          1           0       -3.786000    1.185951   -0.220710
     21          1           0       -1.973900    2.721741   -0.800109
     22          1           0       -2.401490    0.403805   -2.001220
     23          1           0       -1.075500    1.257740   -2.453810
     24          7           0       -1.554860    0.847092   -1.681650
     25          7           0        0.723979    1.170190    0.143994
     26          8           0       -0.374652    2.916040    1.052760
     27          8           0       -1.808911   -2.041959   -0.449152
     28          8           0       -3.953851   -1.494009   -0.538958
     29          8           0        1.950579   -0.597170    1.830970
     30          8           0        3.673130    1.114489   -0.318008
     31          8           0        4.238539   -1.049561   -0.546604
     32          8           0        0.429358   -2.121820    1.216510
 ---------------------------------------------------------------------

 SCF Done:  E(RHF) =  -982.368337181     A.U. after    2 cycles

 The electronic state is 1-A.
 Alpha  occ. eigenvalues --  -20.66832 -20.63295 -20.61509 -20.60488 -20.56707
 Alpha  occ. eigenvalues --  -20.55668 -20.54595 -15.64684 -15.63519 -11.44792
 Alpha  occ. eigenvalues --  -11.40687 -11.39313 -11.37703 -11.31748 -11.30840
 Alpha  occ. eigenvalues --  -11.29488 -11.27865 -11.27390  -1.45667  -1.42910
 Alpha  occ. eigenvalues --   -1.40707  -1.35934  -1.34719  -1.32718  -1.32184
 Alpha  occ. eigenvalues --   -1.20032  -1.17933  -1.09690  -1.07764  -0.99867
 Alpha  occ. eigenvalues --   -0.94631  -0.90442  -0.84641  -0.83674  -0.81673
 Alpha  occ. eigenvalues --   -0.77720  -0.76041  -0.74188  -0.73887  -0.72695
 Alpha  occ. eigenvalues --   -0.70874  -0.70379  -0.68849  -0.68007  -0.67444
 Alpha  occ. eigenvalues --   -0.67164  -0.66308  -0.64125  -0.63559  -0.63293
 Alpha  occ. eigenvalues --   -0.62555  -0.61364  -0.60899  -0.58994  -0.57826
 Alpha  occ. eigenvalues --   -0.57416  -0.56162  -0.55238  -0.54683  -0.53445
 Alpha  occ. eigenvalues --   -0.51499  -0.50432  -0.49840  -0.49150  -0.47334
 Alpha  occ. eigenvalues --   -0.45709  -0.45313  -0.40726  -0.38747
 Alpha virt. eigenvalues --    0.01411   0.02895   0.03160   0.03917   0.04952
 Alpha virt. eigenvalues --    0.05530   0.05821   0.06205   0.06739   0.07859
 Alpha virt. eigenvalues --    0.07886   0.08752   0.09115   0.09449   0.10468

 Mulliken charges:
               1
     1  C   -0.148775
     2  C    0.673415
     3  C    0.483393
     4  C    0.333142
     5  C    0.728805
     6  C    0.561302
     7  C    0.793440
     8  C    0.525339
     9  C    0.733552
    10  H    0.333293
    11  H    0.202681
    12  H    0.210254
    13  H   -0.181031
    14  H   -0.381145
    15  H   -0.041825
    16  H    0.263501
    17  H   -0.003791
    18  H   -0.016374
    19  H   -0.000318
    20  H   -0.170704
    21  H    0.027041
    22  H    0.038139
    23  H   -0.064360
    24  N   -0.246136
    25  N   -0.589061
    26  O   -0.592207
    27  O   -0.653119
    28  O   -0.638507
    29  O   -0.479414
    30  O   -0.557006
    31  O   -0.553608
    32  O   -0.589913
 Sum of Mulliken charges =  -0.00000

 Dipole moment (field-independent basis, Debye):
    X=             -5.9365    Y=             -2.6780    Z=             -6.5635  Tot=              9.2463

 Test job not archived.
 1\1\GINC-SE398\SP\RHF\Aug-CC-pVDZ\C9H14N2O7\OHZDE\08-Apr-2025\0\\#t hf
  aug-cc-pvdz iop(5/13=1,5/36=2,99/5=2) pseudo=read geom=check guess=(r
 ead,tcheck) scf=(maxcycle=1)\\title\\0,1\C,0,-1.69231,1.68961,-0.46980
 9\C,0,-0.434938,1.9454,0.324784\C,0,-2.90526,1.22092,0.366538\C,0,-2.6
 5321,-0.170178,0.945725\C,0,-2.71099,-1.28822,-0.0544289\C,0,0.92162,-
 0.2306,-0.341965\C,0,1.20894,-1.03793,1.00777\C,0,2.0792,-0.417191,-1.
 27027\C,0,3.39537,-0.0077492,-0.69111\H,0,-0.205399,-2.25969,0.415313\
 H,0,4.92613,-0.735592,0.0937871\H,0,1.9111,0.306269,-2.10194\H,0,2.212

 Normal termination of Gaussian 16 at Tue Apr  8 20:45:53 2025.
