 Gaussian 16, Revision C.01,

 ----------------------------------------------------------------------
 #t hf aug-cc-pvdz symm=none int=(grid=ultrafine) guess=(read,tcheck) s
 table=(opt,rrhf)
 ----------------------------------------------------------------------
 -----
 title
 -----
 Symbolic Z-matrix:
 Charge =  0 Multiplicity = 1

 SCF Done:  E(RHF) =  -949.069975682     A.U. after   16 cycles
 Normal termination of Gaussian 16 at Tue Apr  8 21:35:42 2025.
 Gaussian 16:  ES64L-G16RevC.01  3-Jul-2019

 ----------------------------------------------------------------------
 #t hf aug-cc-pvdz iop(5/13=1,5/36=2,99/5=2) pseudo=read geom=check gue
 ss=(read,tcheck) scf=(maxcycle=1)
 ----------------------------------------------------------------------
 -----
 title
 -----
 Structure from the checkpoint file:  "ANI1ccx_350_conf1_mol2.chk"
 Charge =  0 Multiplicity = 1

                         Standard orientation:
 ---------------------------------------------------------------------
 Center     Atomic      Atomic             Coordinates (Angstroms)
 Number     Number       Type             X           Y           Z
 ---------------------------------------------------------------------
      1          6           0       -0.125351   -0.215348    0.793736
      2          6           0       -3.426610   -1.538520   -0.492815
      3          6           0       -4.121890   -0.898242   -1.671770
      4          6           0       -2.472760    1.739400    0.306472
      5          6           0       -2.476270    0.669044   -0.844909
      6          6           0        4.836620    0.397569   -0.383559
      7          6           0        4.658440   -0.983452   -0.198516
      8          6           0       -3.844230    0.609463   -1.577510
      9          6           0        3.371350   -1.541710   -0.308196
     10          6           0        2.452870    0.757554   -0.275666
     11          6           0        2.227080   -0.639422   -0.299539
     12          6           0        0.772579   -1.000930   -0.347328
     13          6           0       -1.407150   -0.944994    0.770185
     14          6           0        3.748360    1.230750   -0.386591
     15          1           0       -1.679560    0.968188   -1.476270
     16          1           0       -3.243950    1.810330    2.034420
     17          1           0       -4.047980   -1.527010    0.403896
     18          1           0       -2.978670   -2.514790   -0.503908
     19          1           0       -3.685860   -1.291720   -2.678610
     20          1           0       -5.216460   -1.095890   -1.699340
     21          1           0       -3.756810    1.090320   -2.589490
     22          1           0       -4.708060    1.103050   -1.157910
     23          1           0        6.589460    0.233393   -0.629300
     24          1           0        0.663959   -2.075550   -0.083653
     25          1           0        3.956770    2.338520   -0.475298
     26          1           0        3.234800   -2.602320   -0.330480
     27          1           0        1.635710    1.472680   -0.168305
     28          1           0        0.197669   -0.909351   -1.283890
     29          1           0       -0.232185    0.798959    0.490295
     30          1           0        1.425850   -0.402929    2.139830
     31          1           0        0.075882   -1.119150    2.601930
     32          1           0        5.448920   -1.713480   -0.259450
     33          7           0        0.443130   -0.295913    2.143230
     34          7           0       -2.276260   -0.628208   -0.223749
     35          8           0       -1.517130    2.480980    0.475890
     36          8           0       -1.725320   -1.857080    1.558230
     37          8           0        6.025550    1.029640   -0.455808
     38          8           0       -3.533820    1.603790    1.137340
 ---------------------------------------------------------------------

 SCF Done:  E(RHF) =  -949.350154590     A.U. after    2 cycles

 The electronic state is 1-A.
 Alpha  occ. eigenvalues --  -20.64030 -20.61463 -20.58404 -20.53964 -15.65559
 Alpha  occ. eigenvalues --  -15.59165 -11.41711 -11.36390 -11.31615 -11.31428
 Alpha  occ. eigenvalues --  -11.27625 -11.27575 -11.26712 -11.26640 -11.26433
 Alpha  occ. eigenvalues --  -11.25747 -11.25528 -11.25389 -11.25092 -11.23900
 Alpha  occ. eigenvalues --   -1.43333  -1.38262  -1.34514  -1.34096  -1.23655
 Alpha  occ. eigenvalues --   -1.15940  -1.13592  -1.07536  -1.03527  -1.02967
 Alpha  occ. eigenvalues --   -1.01936  -0.97092  -0.91347  -0.88401  -0.85833
 Alpha  occ. eigenvalues --   -0.84988  -0.82071  -0.79968  -0.77186  -0.74662
 Alpha  occ. eigenvalues --   -0.73111  -0.72181  -0.70789  -0.68827  -0.67295
 Alpha  occ. eigenvalues --   -0.66532  -0.65123  -0.64604  -0.62741  -0.62164
 Alpha  occ. eigenvalues --   -0.61170  -0.60952  -0.60044  -0.59902  -0.59480
 Alpha  occ. eigenvalues --   -0.58422  -0.58103  -0.56384  -0.54624  -0.54158
 Alpha  occ. eigenvalues --   -0.53075  -0.52232  -0.51899  -0.51015  -0.50491
 Alpha  occ. eigenvalues --   -0.48851  -0.48160  -0.47685  -0.46346  -0.44537
 Alpha  occ. eigenvalues --   -0.38803  -0.37138  -0.35048  -0.31206
 Alpha virt. eigenvalues --    0.02665   0.02945   0.03769   0.03952   0.04429
 Alpha virt. eigenvalues --    0.05002   0.05524   0.06076   0.06463   0.06670
 Alpha virt. eigenvalues --    0.06976   0.07540   0.07880   0.08428   0.08925

 Mulliken charges:
               1
     1  C    0.801254
     2  C    0.959688
     3  C    0.004397
     4  C    0.470060
     5  C    0.997883
     6  C    0.690594
     7  C    0.704865
     8  C    0.625631
     9  C    0.926949
    10  C    0.543432
    11  C    0.507610
    12  C   -0.367614
    13  C    0.378024
    14  C   -0.060255
    15  H   -0.468403
    16  H    0.178118
    17  H   -0.208103
    18  H   -0.334077
    19  H    0.053157
    20  H   -0.044882
    21  H   -0.013062
    22  H   -0.258720
    23  H    0.178148
    24  H   -0.066169
    25  H   -0.437412
    26  H   -0.597500
    27  H   -0.776403
    28  H   -0.063813
    29  H   -0.484363
    30  H   -0.024180
    31  H   -0.005487
    32  H   -0.533224
    33  N   -0.204291
    34  N   -0.734486
    35  O   -0.498582
    36  O   -0.681832
    37  O   -0.592466
    38  O   -0.564485
 Sum of Mulliken charges =  -0.00000

 Dipole moment (field-independent basis, Debye):
    X=             -1.2200    Y=             -1.5048    Z=             -3.8877  Tot=              4.3437

 Test job not archived.
 1\1\GINC-SE454\SP\RHF\Aug-CC-pVDZ\C14H18N2O4\OHZDE\08-Apr-2025\0\\#t h
 f aug-cc-pvdz iop(5/13=1,5/36=2,99/5=2) pseudo=read geom=check guess=(
 read,tcheck) scf=(maxcycle=1)\\title\\0,1\C,0,-0.125351,-0.215348,0.79
 3736\C,0,-3.42661,-1.53852,-0.492815\C,0,-4.12189,-0.898242,-1.67177\C
 ,0,-2.47276,1.7394,0.306472\C,0,-2.47627,0.669044,-0.844909\C,0,4.8366
 2,0.397569,-0.383559\C,0,4.65844,-0.983452,-0.198516\C,0,-3.84423,0.60
 9463,-1.57751\C,0,3.37135,-1.54171,-0.308196\C,0,2.45287,0.757554,-0.2
 75666\C,0,2.22708,-0.639422,-0.299539\C,0,0.772579,-1.00093,-0.347328\

 Normal termination of Gaussian 16 at Tue Apr  8 21:36:55 2025.
