 Gaussian 16, Revision C.01,

 ----------------------------------------------------------------------
 #t hf aug-cc-pvdz symm=none int=(grid=ultrafine) guess=(read,tcheck) s
 table=(opt,rrhf)
 ----------------------------------------------------------------------
 -----
 title
 -----
 Symbolic Z-matrix:
 Charge =  0 Multiplicity = 1

 SCF Done:  E(RHF) =  -659.078213340     A.U. after   14 cycles
 Normal termination of Gaussian 16 at Tue Apr  8 19:26:19 2025.
 Gaussian 16:  ES64L-G16RevC.01  3-Jul-2019

 ----------------------------------------------------------------------
 #t hf aug-cc-pvdz iop(5/13=1,5/36=2,99/5=2) pseudo=read geom=check gue
 ss=(read,tcheck) scf=(maxcycle=1)
 ----------------------------------------------------------------------
 -----
 title
 -----
 Structure from the checkpoint file:  "ANI1ccx_1265_conf11_mol1.chk"
 Charge =  0 Multiplicity = 1

                         Standard orientation:
 ---------------------------------------------------------------------
 Center     Atomic      Atomic             Coordinates (Angstroms)
 Number     Number       Type             X           Y           Z
 ---------------------------------------------------------------------
      1          6           0        2.063730   -0.082738   -0.706624
      2          6           0        0.691035   -1.879940    0.280938
      3          6           0       -0.714653   -1.664201   -0.254021
      4          6           0       -1.640350   -1.232601    0.809974
      5          6           0       -2.636780   -0.148256    0.430656
      6          6           0       -1.902661    1.168338   -0.065932
      7          1           0       -0.125424    0.577897    0.593162
      8          1           0       -3.784031    0.308256   -1.142980
      9          1           0       -4.334750   -1.006003   -0.399242
     10          1           0       -3.170841    0.335593    1.326150
     11          1           0       -1.154240   -0.823285    1.616420
     12          1           0       -2.256879   -2.057972    1.324470
     13          1           0       -0.526206   -0.882900   -1.043560
     14          1           0       -1.180989   -2.517771   -0.828032
     15          1           0        0.633457   -2.347980    1.267930
     16          1           0        1.291481   -2.440330   -0.401697
     17          1           0        2.006680   -0.695590    1.252890
     18          1           0        3.806410   -0.749061    0.017975
     19          1           0        3.835370   -0.545041   -1.547790
     20          1           0        1.472810   -0.241525   -1.564500
     21          1           0        1.446629    1.800400   -0.229252
     22          1           0        2.482419    1.324781    1.688970
     23          1           0        3.672348    2.196432    0.715786
     24          7           0        3.114069    1.317991    0.811204
     25          7           0        2.355739    1.324041   -0.467561
     26          7           0        3.273140   -0.996906   -0.814299
     27          7           0        1.341310   -0.591745    0.463176
     28          7           0       -3.477130   -0.576097   -0.691596
     29          8           0       -0.654725    1.347169    0.440640
     30          8           0       -2.536032    2.085268   -0.531030
 ---------------------------------------------------------------------

 SCF Done:  E(RHF) =  -659.274783286     A.U. after    2 cycles

 The electronic state is 1-A.
 Alpha  occ. eigenvalues --  -20.60370 -20.56014 -15.66078 -15.66002 -15.62732
 Alpha  occ. eigenvalues --  -15.61598 -15.61505 -11.39560 -11.33129 -11.29869
 Alpha  occ. eigenvalues --  -11.26367 -11.24339 -11.24086  -1.40827  -1.32591
 Alpha  occ. eigenvalues --   -1.26941  -1.18547  -1.16676  -1.11977  -1.06016
 Alpha  occ. eigenvalues --   -1.01458  -0.96351  -0.89331  -0.85424  -0.82844
 Alpha  occ. eigenvalues --   -0.80418  -0.72171  -0.71171  -0.68641  -0.67839
 Alpha  occ. eigenvalues --   -0.67210  -0.67055  -0.65240  -0.63620  -0.61200
 Alpha  occ. eigenvalues --   -0.60608  -0.59843  -0.59217  -0.56972  -0.55491
 Alpha  occ. eigenvalues --   -0.53801  -0.53207  -0.51629  -0.49835  -0.48792
 Alpha  occ. eigenvalues --   -0.48208  -0.44197  -0.43187  -0.42334  -0.41526
 Alpha  occ. eigenvalues --   -0.40314  -0.39413
 Alpha virt. eigenvalues --    0.02300   0.03199   0.03641   0.03842   0.05115
 Alpha virt. eigenvalues --    0.05196   0.05614   0.06766   0.07028   0.08247
 Alpha virt. eigenvalues --    0.08575   0.08680   0.08758   0.09232   0.10346

 Mulliken charges:
               1
     1  C    1.672555
     2  C    0.923833
     3  C    0.239858
     4  C    0.672325
     5  C   -0.309131
     6  C    0.676161
     7  H    0.391574
     8  H    0.100190
     9  H   -0.028608
    10  H    0.155645
    11  H   -0.536496
    12  H    0.046546
    13  H   -0.205906
    14  H   -0.104135
    15  H   -0.262932
    16  H   -0.160917
    17  H    0.146908
    18  H    0.102392
    19  H    0.060126
    20  H   -0.326418
    21  H    0.208918
    22  H    0.197945
    23  H    0.083482
    24  N   -0.334670
    25  N   -0.610305
    26  N   -0.437200
    27  N   -1.087803
    28  N   -0.301284
    29  O   -0.456827
    30  O   -0.515829
 Sum of Mulliken charges =  -0.00000

 Dipole moment (field-independent basis, Debye):
    X=              1.0306    Y=             -2.5298    Z=              3.1163  Tot=              4.1441

 Test job not archived.
 1\1\GINC-SE100\SP\RHF\Aug-CC-pVDZ\C6H17N5O2\OHZDE\08-Apr-2025\0\\#t hf
  aug-cc-pvdz iop(5/13=1,5/36=2,99/5=2) pseudo=read geom=check guess=(r
 ead,tcheck) scf=(maxcycle=1)\\title\\0,1\C,0,2.06373,-0.0827391,-0.706
 624\C,0,0.691034,-1.87994,0.280938\C,0,-0.714654,-1.6642,-0.254021\C,0
 ,-1.64035,-1.2326,0.809974\C,0,-2.63678,-0.148254,0.430656\C,0,-1.9026
 6,1.16834,-0.0659318\H,0,-0.125423,0.577898,0.593162\H,0,-3.78403,0.30
 8259,-1.14298\H,0,-4.33475,-1.006,-0.399242\H,0,-3.17084,0.335595,1.32
 615\H,0,-1.15424,-0.823284,1.61642\H,0,-2.25688,-2.05797,1.32447\H,0,-

 Normal termination of Gaussian 16 at Tue Apr  8 19:26:50 2025.
