 Gaussian 16, Revision C.01,

 ----------------------------------------------------------------------
 #t hf aug-cc-pvdz symm=none int=(grid=ultrafine) guess=(read,tcheck) s
 table=(opt,rrhf)
 ----------------------------------------------------------------------
 -----
 title
 -----
 Symbolic Z-matrix:
 Charge =  0 Multiplicity = 1

 SCF Done:  E(RHF) =  -603.078071605     A.U. after   14 cycles
 Normal termination of Gaussian 16 at Tue Apr  8 22:00:41 2025.
 Gaussian 16:  ES64L-G16RevC.01  3-Jul-2019

 ----------------------------------------------------------------------
 #t hf aug-cc-pvdz iop(5/13=1,5/36=2,99/5=2) pseudo=read geom=check gue
 ss=(read,tcheck) scf=(maxcycle=1)
 ----------------------------------------------------------------------
 -----
 title
 -----
 Structure from the checkpoint file:  "ANI1ccx_894_conf8_mol1.chk"
 Charge =  0 Multiplicity = 1

                         Standard orientation:
 ---------------------------------------------------------------------
 Center     Atomic      Atomic             Coordinates (Angstroms)
 Number     Number       Type             X           Y           Z
 ---------------------------------------------------------------------
      1          6           0        1.984729   -0.101731   -0.003104
      2          6           0        0.575287    0.470377   -0.000058
      3          6           0       -0.519130   -0.327949    0.010914
      4          6           0       -1.908792    0.244860   -0.017932
      5          1           0        1.312821   -1.864388   -0.004269
      6          1           0        1.491336    2.059332   -0.039154
      7          1           0       -1.317029   -2.046992    0.042535
      8          1           0       -3.701471   -0.379088    0.033556
      9          8           0        2.171840   -1.408017   -0.010545
     10          8           0        2.871008    0.692691    0.013500
     11          8           0        0.553672    1.798561   -0.006015
     12          8           0       -0.409683   -1.676470    0.005547
     13          8           0       -2.792411   -0.740188   -0.010172
     14          8           0       -2.216703    1.398147    0.011235
 ---------------------------------------------------------------------

 SCF Done:  E(RHF) =  -603.269716546     A.U. after    2 cycles

 The electronic state is 1-A.
 Alpha  occ. eigenvalues --  -20.66659 -20.65361 -20.63790 -20.62286 -20.58584
 Alpha  occ. eigenvalues --  -20.58549 -11.43215 -11.42420 -11.35862 -11.34997
 Alpha  occ. eigenvalues --   -1.47790  -1.45839  -1.41783  -1.40289  -1.36345
 Alpha  occ. eigenvalues --   -1.35673  -1.08090  -0.96928  -0.89060  -0.85648
 Alpha  occ. eigenvalues --   -0.83934  -0.78355  -0.74824  -0.72721  -0.70872
 Alpha  occ. eigenvalues --   -0.70120  -0.68742  -0.67969  -0.65564  -0.64124
 Alpha  occ. eigenvalues --   -0.63549  -0.61313  -0.58073  -0.53487  -0.52177
 Alpha  occ. eigenvalues --   -0.51236  -0.48850  -0.37174
 Alpha virt. eigenvalues --    0.01981   0.03884   0.04892   0.05346   0.06634
 Alpha virt. eigenvalues --    0.08445   0.08762   0.10379   0.10816   0.11482
 Alpha virt. eigenvalues --    0.12609   0.13430   0.13773   0.14325   0.14467

 Mulliken charges:
               1
     1  C    0.364745
     2  C    0.677103
     3  C    0.777736
     4  C    0.346526
     5  H    0.216618
     6  H    0.217584
     7  H    0.224459
     8  H    0.262778
     9  O   -0.404779
    10  O   -0.428820
    11  O   -0.600469
    12  O   -0.695403
    13  O   -0.560453
    14  O   -0.397624
 Sum of Mulliken charges =  -0.00000

 Dipole moment (field-independent basis, Debye):
    X=             -4.3383    Y=             -3.5837    Z=             -0.0045  Tot=              5.6270

 Test job not archived.
 1\1\GINC-SE334\SP\RHF\Aug-CC-pVDZ\C4H4O6\OHZDE\08-Apr-2025\0\\#t hf au
 g-cc-pvdz iop(5/13=1,5/36=2,99/5=2) pseudo=read geom=check guess=(read
 ,tcheck) scf=(maxcycle=1)\\title\\0,1\C,0,1.98473,-0.101734,-0.0031038
 \C,0,0.575289,0.470376,-0.00005754\C,0,-0.519129,-0.327949,0.0109142\C
 ,0,-1.90879,0.244862,-0.017932\H,0,1.31282,-1.86439,-0.00426916\H,0,1.
 49134,2.05933,-0.0391542\H,0,-1.31703,-2.04699,0.0425346\H,0,-3.70147,
 -0.379083,0.0335558\O,0,2.17184,-1.40802,-0.0105453\O,0,2.87101,0.6926
 87,0.0134999\O,0,0.553676,1.79856,-0.00601483\O,0,-0.409684,-1.67647,0

 Normal termination of Gaussian 16 at Tue Apr  8 22:00:47 2025.
