 Gaussian 16, Revision C.01,

 ----------------------------------------------------------------------
 #t hf aug-cc-pvdz symm=none int=(grid=ultrafine) guess=(read,tcheck) s
 table=(opt,rrhf)
 ----------------------------------------------------------------------
 -----
 title
 -----
 Symbolic Z-matrix:
 Charge =  0 Multiplicity = 1

 SCF Done:  E(RHF) =  -791.374871077     A.U. after   15 cycles
 Normal termination of Gaussian 16 at Tue Apr  8 20:39:18 2025.
 Gaussian 16:  ES64L-G16RevC.01  3-Jul-2019

 ----------------------------------------------------------------------
 #t hf aug-cc-pvdz iop(5/13=1,5/36=2,99/5=2) pseudo=read geom=check gue
 ss=(read,tcheck) scf=(maxcycle=1)
 ----------------------------------------------------------------------
 -----
 title
 -----
 Structure from the checkpoint file:  "ANI1ccx_1745_conf15_mol1.chk"
 Charge =  0 Multiplicity = 1

                         Standard orientation:
 ---------------------------------------------------------------------
 Center     Atomic      Atomic             Coordinates (Angstroms)
 Number     Number       Type             X           Y           Z
 ---------------------------------------------------------------------
      1          6           0       -0.203233    2.561701    0.501710
      2          6           0        0.535725    1.378417    0.029741
      3          6           0       -1.599030    2.255617    1.062850
      4          6           0        1.189456   -0.923161    0.493993
      5          6           0        2.720435   -1.042953    0.275546
      6          6           0        0.362803   -1.529242   -0.646774
      7          6           0       -1.089167   -1.396895   -0.431700
      8          6           0       -1.864341   -2.473292   -0.139810
      9          6           0       -3.117524   -0.724000   -0.117876
     10          1           0        2.480313    0.604792   -0.978513
     11          1           0       -3.858282   -2.530383    0.406615
     12          1           0       -3.917190    0.014939   -0.122748
     13          1           0       -1.367826   -3.484104   -0.252217
     14          1           0        0.763807   -1.018614   -1.438170
     15          1           0        0.627755   -2.560403   -0.882252
     16          1           0        1.066693   -1.598735    1.400220
     17          1           0       -1.970823    1.663939    1.918090
     18          1           0       -2.156362    1.793420    0.230257
     19          1           0       -2.252816    3.117990    1.111780
     20          1           0        0.453295    3.029548    1.208120
     21          1           0       -0.854880    2.923064   -1.298930
     22          1           0        0.569060    3.592697   -1.033070
     23          1           0        0.497355    0.516119    1.831290
     24          7           0       -0.346542    3.526611   -0.575476
     25          7           0        0.864440    0.370405    0.893556
     26          7           0       -1.847612   -0.287452   -0.516900
     27          7           0       -3.084429   -2.031096    0.178541
     28          8           0        3.290310   -2.067625    0.555317
     29          8           0        0.926949    1.281306   -1.185160
     30          8           0        3.183760    0.067482   -0.385729
 ---------------------------------------------------------------------

 SCF Done:  E(RHF) =  -791.608879186     A.U. after    2 cycles

 The electronic state is 1-A.
 Alpha  occ. eigenvalues --  -20.58792 -20.56143 -20.55993 -15.71909 -15.67373
 Alpha  occ. eigenvalues --  -15.63113 -15.61800 -11.39085 -11.39065 -11.33502
 Alpha  occ. eigenvalues --  -11.30169 -11.29552 -11.28101 -11.26817 -11.24438
 Alpha  occ. eigenvalues --  -11.23687  -1.38441  -1.35586  -1.34467  -1.30120
 Alpha  occ. eigenvalues --   -1.23435  -1.17782  -1.16792  -1.07358  -1.01987
 Alpha  occ. eigenvalues --   -0.99169  -0.93772  -0.89246  -0.86783  -0.81722
 Alpha  occ. eigenvalues --   -0.80093  -0.78393  -0.77192  -0.74095  -0.73910
 Alpha  occ. eigenvalues --   -0.68201  -0.67487  -0.65833  -0.65084  -0.63770
 Alpha  occ. eigenvalues --   -0.62703  -0.62281  -0.60712  -0.59202  -0.57520
 Alpha  occ. eigenvalues --   -0.56577  -0.56119  -0.54827  -0.53608  -0.52720
 Alpha  occ. eigenvalues --   -0.52311  -0.50298  -0.48126  -0.47246  -0.45648
 Alpha  occ. eigenvalues --   -0.44015  -0.42375  -0.41058  -0.40400  -0.32573
 Alpha virt. eigenvalues --    0.01282   0.02783   0.02979   0.04169   0.04798
 Alpha virt. eigenvalues --    0.05472   0.05908   0.06402   0.07001   0.07386
 Alpha virt. eigenvalues --    0.08517   0.08779   0.09374   0.09622   0.10723

 Mulliken charges:
               1
     1  C    0.613035
     2  C    0.673640
     3  C    1.112312
     4  C   -0.586571
     5  C    0.760464
     6  C    1.167804
     7  C   -0.217497
     8  C    0.679929
     9  C    0.719426
    10  H    0.376653
    11  H   -0.226382
    12  H   -0.211115
    13  H   -0.106665
    14  H   -0.196100
    15  H   -0.158460
    16  H   -0.136189
    17  H   -0.218590
    18  H   -0.289088
    19  H   -0.083747
    20  H   -0.163857
    21  H    0.206913
    22  H    0.065288
    23  H   -0.029229
    24  N   -0.560827
    25  N   -0.304211
    26  N   -0.684502
    27  N   -0.254444
    28  O   -0.474914
    29  O   -0.805628
    30  O   -0.667448
 Sum of Mulliken charges =  -0.00000

 Dipole moment (field-independent basis, Debye):
    X=             -8.3098    Y=             -1.6344    Z=              2.8074  Tot=              8.9222

 Test job not archived.
 1\1\GINC-SE078\SP\RHF\Aug-CC-pVDZ\C9H14N4O3\OHZDE\08-Apr-2025\0\\#t hf
  aug-cc-pvdz iop(5/13=1,5/36=2,99/5=2) pseudo=read geom=check guess=(r
 ead,tcheck) scf=(maxcycle=1)\\title\\0,1\C,0,-0.203244,2.5617,0.50171\
 C,0,0.535719,1.37842,0.0297412\C,0,-1.59904,2.25561,1.06285\C,0,1.1894
 6,-0.923155,0.493993\C,0,2.72044,-1.04294,0.275546\C,0,0.36281,-1.5292
 4,-0.646774\C,0,-1.08916,-1.3969,-0.4317\C,0,-1.86433,-2.4733,-0.13981
 \C,0,-3.11752,-0.724014,-0.117876\H,0,2.48031,0.604804,-0.978513\H,0,-
 3.85827,-2.5304,0.406615\H,0,-3.91719,0.0149216,-0.122748\H,0,-1.36781

 Normal termination of Gaussian 16 at Tue Apr  8 20:40:01 2025.
