 Gaussian 16, Revision C.01,

 ----------------------------------------------------------------------
 #t hf aug-cc-pvdz symm=none int=(grid=ultrafine) guess=(read,tcheck) s
 table=(opt,rrhf)
 ----------------------------------------------------------------------
 -----
 title
 -----
 Symbolic Z-matrix:
 Charge =  0 Multiplicity = 1

 SCF Done:  E(RHF) =  -584.435189431     A.U. after   14 cycles
 Normal termination of Gaussian 16 at Tue Apr  8 22:10:53 2025.
 Gaussian 16:  ES64L-G16RevC.01  3-Jul-2019

 ----------------------------------------------------------------------
 #t hf aug-cc-pvdz iop(5/13=1,5/36=2,99/5=2) pseudo=read geom=check gue
 ss=(read,tcheck) scf=(maxcycle=1)
 ----------------------------------------------------------------------
 -----
 title
 -----
 Structure from the checkpoint file:  "ANI1ccx_940_conf13_mol2.chk"
 Charge =  0 Multiplicity = 1

                         Standard orientation:
 ---------------------------------------------------------------------
 Center     Atomic      Atomic             Coordinates (Angstroms)
 Number     Number       Type             X           Y           Z
 ---------------------------------------------------------------------
      1          6           0       -0.750165   -0.600768   -0.013814
      2          6           0        0.474371   -0.803152   -0.925724
      3          6           0        1.715291   -0.059901   -0.442649
      4          6           0       -0.916575    0.905534    0.291151
      5          1           0       -2.264239    0.816491   -0.943653
      6          1           0        2.890741    0.053970    0.986043
      7          1           0        0.656723   -1.878070   -1.067540
      8          1           0        0.192514   -0.411905   -1.889500
      9          1           0       -2.684769   -1.222171   -0.026554
     10          1           0       -1.767528   -1.972281   -1.155800
     11          1           0        0.033931   -0.758387    1.781310
     12          7           0       -1.906819   -1.101361   -0.688435
     13          8           0       -1.891679    1.521229   -0.387427
     14          8           0       -0.570947   -1.250321    1.222810
     15          8           0        2.155281   -0.550809    0.724210
     16          8           0        2.176771    0.923991   -0.991321
     17          8           0       -0.225322    1.409860    1.141850
 ---------------------------------------------------------------------

 SCF Done:  E(RHF) =  -584.616079709     A.U. after    2 cycles

 The electronic state is 1-A.
 Alpha  occ. eigenvalues --  -20.64426 -20.63720 -20.59204 -20.57776 -20.57601
 Alpha  occ. eigenvalues --  -15.66109 -11.41852 -11.41133 -11.37806 -11.28271
 Alpha  occ. eigenvalues --   -1.44299  -1.43675  -1.36840  -1.34439  -1.33590
 Alpha  occ. eigenvalues --   -1.20351  -1.06214  -0.93813  -0.85850  -0.83911
 Alpha  occ. eigenvalues --   -0.80036  -0.74336  -0.73416  -0.71930  -0.69632
 Alpha  occ. eigenvalues --   -0.67077  -0.66630  -0.65951  -0.64022  -0.62763
 Alpha  occ. eigenvalues --   -0.60103  -0.58661  -0.56467  -0.52361  -0.50999
 Alpha  occ. eigenvalues --   -0.50328  -0.48475  -0.48008  -0.44982
 Alpha virt. eigenvalues --    0.02295   0.03752   0.04212   0.04811   0.06210
 Alpha virt. eigenvalues --    0.06822   0.07457   0.09898   0.10495   0.10743
 Alpha virt. eigenvalues --    0.12237   0.12760   0.13153   0.13557   0.14213

 Mulliken charges:
               1
     1  C    0.305004
     2  C    0.490823
     3  C    0.762623
     4  C    0.747713
     5  H    0.242340
     6  H    0.223024
     7  H   -0.018710
     8  H    0.010755
     9  H    0.045707
    10  H    0.007955
    11  H    0.226403
    12  N   -0.321439
    13  O   -0.469921
    14  O   -0.677883
    15  O   -0.551147
    16  O   -0.529727
    17  O   -0.493519
 Sum of Mulliken charges =  -0.00000

 Dipole moment (field-independent basis, Debye):
    X=             -1.5027    Y=             -4.6735    Z=             -1.3929  Tot=              5.1029

 Test job not archived.
 1\1\GINC-SE088\SP\RHF\Aug-CC-pVDZ\C4H7N1O5\OHZDE\08-Apr-2025\0\\#t hf
 aug-cc-pvdz iop(5/13=1,5/36=2,99/5=2) pseudo=read geom=check guess=(re
 ad,tcheck) scf=(maxcycle=1)\\title\\0,1\C,0,-0.750166,-0.600767,-0.013
 8142\C,0,0.47437,-0.803152,-0.925724\C,0,1.71529,-0.0599014,-0.442649\
 C,0,-0.916576,0.905535,0.291151\H,0,-2.26424,0.816492,-0.943653\H,0,2.
 89074,0.0539698,0.986043\H,0,0.656722,-1.87807,-1.06754\H,0,0.192513,-
 0.411905,-1.8895\H,0,-2.68477,-1.22217,-0.0265535\H,0,-1.76753,-1.9722
 8,-1.1558\H,0,0.0339302,-0.758387,1.78131\N,0,-1.90682,-1.10136,-0.688

 Normal termination of Gaussian 16 at Tue Apr  8 22:11:02 2025.
