 Gaussian 16, Revision C.01,

 ----------------------------------------------------------------------
 #t hf aug-cc-pvdz symm=none int=(grid=ultrafine) guess=(read,tcheck) s
 table=(opt,rrhf)
 ----------------------------------------------------------------------
 -----
 title
 -----
 Symbolic Z-matrix:
 Charge =  0 Multiplicity = 1

 SCF Done:  E(RHF) =  -814.699004827     A.U. after   14 cycles
 Normal termination of Gaussian 16 at Tue Apr  8 21:08:40 2025.
 Gaussian 16:  ES64L-G16RevC.01  3-Jul-2019

 ----------------------------------------------------------------------
 #t hf aug-cc-pvdz iop(5/13=1,5/36=2,99/5=2) pseudo=read geom=check gue
 ss=(read,tcheck) scf=(maxcycle=1)
 ----------------------------------------------------------------------
 -----
 title
 -----
 Structure from the checkpoint file:  "ANI1ccx_1785_conf26_mol1.chk"
 Charge =  0 Multiplicity = 1

                         Standard orientation:
 ---------------------------------------------------------------------
 Center     Atomic      Atomic             Coordinates (Angstroms)
 Number     Number       Type             X           Y           Z
 ---------------------------------------------------------------------
      1          6           0       -3.086950   -0.327448    0.394977
      2          6           0        2.725190   -1.028450   -0.807817
      3          6           0        1.683670   -1.808750    0.017147
      4          6           0        0.858584   -1.232970    1.145420
      5          6           0        3.837320   -0.416958    0.077291
      6          6           0       -0.120788   -0.109584    0.598853
      7          6           0       -3.334960    1.132740   -0.155688
      8          6           0       -2.143860   -0.956000   -0.624206
      9          6           0        0.783272    1.058710    0.078535
     10          1           0        0.874962   -2.238020   -0.596414
     11          1           0        2.528810    1.613480    0.532508
     12          1           0        5.011060    1.381470    0.224632
     13          1           0        3.929610    1.350080   -1.121160
     14          1           0        3.745460   -0.676536    1.131740
     15          1           0        4.825070   -0.850582   -0.163129
     16          1           0        2.296970   -0.254184   -1.596910
     17          1           0        3.256430   -1.809660   -1.443520
     18          1           0        2.289720   -2.552830    0.410763
     19          1           0        0.069168   -1.974380    1.496610
     20          1           0       -0.625347    0.245363    1.440410
     21          1           0       -0.430090   -0.822704   -1.365800
     22          1           0       -1.911600    1.529370   -1.305860
     23          1           0       -3.827520    1.660420    0.662408
     24          1           0       -3.881410    1.046910   -1.044860
     25          1           0       -4.068560   -0.779961    0.214767
     26          1           0       -3.491910   -0.080511    2.426370
     27          1           0       -2.442560   -1.357170    2.022530
     28          1           0        1.414870   -0.757456    2.002100
     29          7           0       -2.635000   -0.341199    1.821810
     30          7           0       -0.871629   -0.654532   -0.484509
     31          7           0        4.019440    1.057150   -0.086429
     32          8           0        0.476115    1.654780   -0.938577
     33          8           0       -2.498810   -1.497130   -1.643170
     34          8           0       -2.142260    1.844760   -0.452122
     35          8           0        1.619740    1.376240    0.905079
 ---------------------------------------------------------------------

 SCF Done:  E(RHF) =  -814.948442081     A.U. after    2 cycles

 The electronic state is 1-A.
 Alpha  occ. eigenvalues --  -20.59255 -20.55125 -20.52416 -20.52236 -15.66126
 Alpha  occ. eigenvalues --  -15.64164 -15.63138 -11.36487 -11.34823 -11.28974
 Alpha  occ. eigenvalues --  -11.28463 -11.28024 -11.26848 -11.26811 -11.24536
 Alpha  occ. eigenvalues --  -11.23674  -1.44302  -1.35705  -1.31692  -1.29953
 Alpha  occ. eigenvalues --   -1.20958  -1.16595  -1.15113  -1.07693  -1.00993
 Alpha  occ. eigenvalues --   -0.98296  -0.94282  -0.87564  -0.86982  -0.84679
 Alpha  occ. eigenvalues --   -0.79453  -0.76607  -0.72852  -0.71051  -0.70705
 Alpha  occ. eigenvalues --   -0.68003  -0.66895  -0.65800  -0.65565  -0.64421
 Alpha  occ. eigenvalues --   -0.63973  -0.63362  -0.62848  -0.60087  -0.59176
 Alpha  occ. eigenvalues --   -0.58517  -0.56796  -0.56005  -0.54886  -0.53897
 Alpha  occ. eigenvalues --   -0.53521  -0.52956  -0.51524  -0.49974  -0.48968
 Alpha  occ. eigenvalues --   -0.46611  -0.46040  -0.45322  -0.43515  -0.42393
 Alpha  occ. eigenvalues --   -0.41433  -0.39855  -0.37060
 Alpha virt. eigenvalues --    0.02273   0.03020   0.03524   0.03841   0.04776
 Alpha virt. eigenvalues --    0.05240   0.05426   0.06526   0.06650   0.07126
 Alpha virt. eigenvalues --    0.07596   0.07846   0.08239   0.08680   0.09561

 Mulliken charges:
               1
     1  C    0.543262
     2  C   -0.244893
     3  C    0.685718
     4  C    0.010875
     5  C    1.227281
     6  C    1.245815
     7  C    0.950853
     8  C    0.006722
     9  C    0.241665
    10  H   -0.002894
    11  H    0.444602
    12  H    0.108780
    13  H    0.197527
    14  H   -0.309308
    15  H   -0.237345
    16  H    0.018358
    17  H   -0.051162
    18  H   -0.183302
    19  H    0.019592
    20  H   -0.324110
    21  H   -0.135107
    22  H    0.259478
    23  H   -0.209054
    24  H   -0.174074
    25  H   -0.026537
    26  H    0.104619
    27  H    0.150858
    28  H   -0.034942
    29  N   -0.768852
    30  N   -0.485129
    31  N   -0.840603
    32  O   -0.570299
    33  O   -0.573738
    34  O   -0.538924
    35  O   -0.505730
 Sum of Mulliken charges =  -0.00000

 Dipole moment (field-independent basis, Debye):
    X=              4.4060    Y=             -2.0200    Z=              3.3242  Tot=              5.8774

 Test job not archived.
 1\1\GINC-SE059\SP\RHF\Aug-CC-pVDZ\C9H19N3O4\OHZDE\08-Apr-2025\0\\#t hf
  aug-cc-pvdz iop(5/13=1,5/36=2,99/5=2) pseudo=read geom=check guess=(r
 ead,tcheck) scf=(maxcycle=1)\\title\\0,1\C,0,-3.08695,-0.327448,0.3949
 77\C,0,2.72519,-1.02845,-0.807817\C,0,1.68367,-1.80875,0.0171471\C,0,0
 .858584,-1.23297,1.14542\C,0,3.83732,-0.416958,0.0772912\C,0,-0.120788
 ,-0.109584,0.598853\C,0,-3.33496,1.13274,-0.155688\C,0,-2.14386,-0.956
 ,-0.624206\C,0,0.783272,1.05871,0.078535\H,0,0.874962,-2.23802,-0.5964
 14\H,0,2.52881,1.61348,0.532508\H,0,5.01106,1.38147,0.224632\H,0,3.929

 Normal termination of Gaussian 16 at Tue Apr  8 21:09:35 2025.
