 Gaussian 16, Revision C.01,

 ----------------------------------------------------------------------
 #t hf aug-cc-pvdz symm=none int=(grid=ultrafine) guess=(read,tcheck) s
 table=(opt,rrhf)
 ----------------------------------------------------------------------
 -----
 title
 -----
 Symbolic Z-matrix:
 Charge =  0 Multiplicity = 1

 SCF Done:  E(RHF) =  -615.380772957     A.U. after   17 cycles
 Normal termination of Gaussian 16 at Tue Apr  8 19:15:08 2025.
 Gaussian 16:  ES64L-G16RevC.01  3-Jul-2019

 ----------------------------------------------------------------------
 #t hf aug-cc-pvdz iop(5/13=1,5/36=2,99/5=2) pseudo=read geom=check gue
 ss=(read,tcheck) scf=(maxcycle=1)
 ----------------------------------------------------------------------
 -----
 title
 -----
 Structure from the checkpoint file:  "ANI1ccx_1144_conf15_mol1.chk"
 Charge =  0 Multiplicity = 1

                         Standard orientation:
 ---------------------------------------------------------------------
 Center     Atomic      Atomic             Coordinates (Angstroms)
 Number     Number       Type             X           Y           Z
 ---------------------------------------------------------------------
      1          6           0        2.533519   -2.105012    0.106918
      2          6           0        0.212507   -0.948431   -0.094111
      3          6           0       -1.965270   -0.435974    0.062549
      4          6           0       -0.593641    1.293680    0.022095
      5          6           0        0.569094    0.402942   -0.041608
      6          1           0        0.763888    2.724799   -0.030668
      7          1           0       -3.898820   -0.011630   -0.031306
      8          1           0        0.617815   -2.880841   -0.013628
      9          1           0       -3.406301   -1.860178   -0.478534
     10          1           0        2.860619   -1.385052    0.945727
     11          1           0        3.150829   -1.861082   -0.837377
     12          1           0        2.627888   -3.194432    0.517579
     13          7           0        1.057619   -1.996021   -0.099199
     14          7           0       -1.046711   -1.389079   -0.041853
     15          7           0       -3.236420   -0.870064   -0.001425
     16          7           0       -1.839999    0.959822    0.198852
     17          7           0        1.856731    0.800107   -0.019012
     18          8           0       -0.255056    2.562210   -0.049282
     19          8           0        2.156092    2.024268   -0.034265
 ---------------------------------------------------------------------

 SCF Done:  E(RHF) =  -615.560457896     A.U. after    2 cycles

 The electronic state is 1-A.
 Alpha  occ. eigenvalues --  -20.60430 -20.60092 -15.76496 -15.67848 -15.66980
 Alpha  occ. eigenvalues --  -15.63754 -15.62819 -11.39813 -11.39367 -11.37798
 Alpha  occ. eigenvalues --  -11.31327 -11.28170  -1.42950  -1.38099  -1.32316
 Alpha  occ. eigenvalues --   -1.25631  -1.18077  -1.15356  -1.11321  -0.97215
 Alpha  occ. eigenvalues --   -0.92179  -0.88684  -0.84642  -0.79898  -0.76386
 Alpha  occ. eigenvalues --   -0.73390  -0.70548  -0.66720  -0.66483  -0.63905
 Alpha  occ. eigenvalues --   -0.62027  -0.61565  -0.59439  -0.59241  -0.57990
 Alpha  occ. eigenvalues --   -0.57027  -0.54903  -0.52260  -0.50615  -0.44291
 Alpha  occ. eigenvalues --   -0.43048  -0.40553  -0.37856  -0.35840
 Alpha virt. eigenvalues --    0.02376   0.02933   0.04554   0.04807   0.05131
 Alpha virt. eigenvalues --    0.06038   0.06335   0.07473   0.08907   0.10153
 Alpha virt. eigenvalues --    0.11257   0.11859   0.12454   0.12875   0.13348

 Mulliken charges:
               1
     1  C    0.434290
     2  C    0.612151
     3  C    0.889020
     4  C    0.809533
     5  C    0.686571
     6  H    0.341035
     7  H    0.163937
     8  H   -0.102786
     9  H    0.147797
    10  H    0.030963
    11  H    0.029116
    12  H   -0.028873
    13  N   -0.437738
    14  N   -0.749631
    15  N   -0.599222
    16  N   -0.592343
    17  N   -0.286331
    18  O   -0.631876
    19  O   -0.715611
 Sum of Mulliken charges =   0.00000

 Dipole moment (field-independent basis, Debye):
    X=             -1.5603    Y=             -5.7333    Z=             -0.5751  Tot=              5.9696

 Test job not archived.
 1\1\GINC-SE103\SP\RHF\Aug-CC-pVDZ\C5H7N5O2\OHZDE\08-Apr-2025\0\\#t hf
 aug-cc-pvdz iop(5/13=1,5/36=2,99/5=2) pseudo=read geom=check guess=(re
 ad,tcheck) scf=(maxcycle=1)\\title\\0,1\C,0,2.53352,-2.10501,0.106918\
 C,0,0.212507,-0.948431,-0.0941107\C,0,-1.96527,-0.435975,0.0625488\C,0
 ,-0.593642,1.29368,0.0220946\C,0,0.569093,0.402943,-0.0416082\H,0,0.76
 3886,2.7248,-0.0306681\H,0,-3.89882,-0.0116325,-0.0313064\H,0,0.617817
 ,-2.88084,-0.0136279\H,0,-3.4063,-1.86018,-0.478534\H,0,2.86062,-1.385
 05,0.945727\H,0,3.15083,-1.86108,-0.837377\H,0,2.62789,-3.19443,0.5175

 Normal termination of Gaussian 16 at Tue Apr  8 19:15:20 2025.
