 Gaussian 16, Revision C.01,

 ----------------------------------------------------------------------
 #t hf aug-cc-pvdz symm=none int=(grid=ultrafine) guess=(read,tcheck) s
 table=(opt,rrhf)
 ----------------------------------------------------------------------
 -----
 title
 -----
 Symbolic Z-matrix:
 Charge =  0 Multiplicity = 1

 SCF Done:  E(RHF) =  -795.598328614     A.U. after   14 cycles
 Normal termination of Gaussian 16 at Tue Apr  8 20:16:44 2025.
 Gaussian 16:  ES64L-G16RevC.01  3-Jul-2019

 ----------------------------------------------------------------------
 #t hf aug-cc-pvdz iop(5/13=1,5/36=2,99/5=2) pseudo=read geom=check gue
 ss=(read,tcheck) scf=(maxcycle=1)
 ----------------------------------------------------------------------
 -----
 title
 -----
 Structure from the checkpoint file:  "ANI1ccx_1619_conf14_mol2.chk"
 Charge =  0 Multiplicity = 1

                         Standard orientation:
 ---------------------------------------------------------------------
 Center     Atomic      Atomic             Coordinates (Angstroms)
 Number     Number       Type             X           Y           Z
 ---------------------------------------------------------------------
      1          6           0       -2.070160   -0.316022   -0.524137
      2          6           0       -0.759879    0.417274   -0.022974
      3          6           0       -3.240420   -0.035492    0.476131
      4          6           0       -3.836630    1.352091    0.375032
      5          6           0        1.665740    0.060966    0.244696
      6          6           0        2.317740    1.408880   -0.275940
      7          6           0        2.657820   -1.090930   -0.080461
      8          6           0        3.731610   -1.222070    1.006580
      9          1           0        0.550925    2.203931   -0.066206
     10          1           0        3.239410   -1.406630    1.961700
     11          1           0        4.422320   -2.040770    0.791992
     12          1           0        4.301510   -0.307554    1.088070
     13          1           0        2.568020   -3.043070   -0.201462
     14          1           0        3.025800   -0.946323   -1.107850
     15          1           0        1.475880    0.245631    1.321540
     16          1           0        0.155620   -1.198939   -0.545576
     17          1           0       -3.198210    2.185591    0.691166
     18          1           0       -4.169350    1.530661   -0.660952
     19          1           0       -4.755860    1.478282    0.961618
     20          1           0       -4.804190   -0.725669   -0.562800
     21          1           0       -3.020740   -0.215187    1.531070
     22          1           0       -2.263240    0.155929   -1.507250
     23          1           0       -2.639620   -2.248109   -0.290041
     24          1           0       -1.757840   -1.989169   -1.661960
     25          7           0       -1.837520   -1.763949   -0.669232
     26          7           0        0.351647   -0.227757   -0.357745
     27          8           0       -0.783672    1.505561    0.534199
     28          8           0       -4.303820   -1.043049    0.199281
     29          8           0        3.510700    1.534350   -0.507389
     30          8           0        1.921680   -2.345379   -0.079530
     31          8           0        1.464580    2.450411   -0.365031
 ---------------------------------------------------------------------

 SCF Done:  E(RHF) =  -795.839695868     A.U. after    2 cycles

 The electronic state is 1-A.
 Alpha  occ. eigenvalues --  -20.59513 -20.59084 -20.58732 -20.56952 -20.55593
 Alpha  occ. eigenvalues --  -15.66641 -15.63254 -11.39991 -11.38761 -11.32415
 Alpha  occ. eigenvalues --  -11.32214 -11.32043 -11.31371 -11.24214 -11.23722
 Alpha  occ. eigenvalues --   -1.40210  -1.38207  -1.33804  -1.32754  -1.30777
 Alpha  occ. eigenvalues --   -1.23519  -1.17447  -1.05854  -1.03988  -0.97814
 Alpha  occ. eigenvalues --   -0.93389  -0.86172  -0.85620  -0.81909  -0.80298
 Alpha  occ. eigenvalues --   -0.74830  -0.73368  -0.70842  -0.70086  -0.68857
 Alpha  occ. eigenvalues --   -0.68240  -0.66527  -0.64924  -0.64288  -0.63325
 Alpha  occ. eigenvalues --   -0.62845  -0.60543  -0.60479  -0.57984  -0.57081
 Alpha  occ. eigenvalues --   -0.56682  -0.56048  -0.55330  -0.54607  -0.53466
 Alpha  occ. eigenvalues --   -0.51027  -0.50359  -0.49224  -0.48473  -0.47552
 Alpha  occ. eigenvalues --   -0.47294  -0.46794  -0.41987  -0.41035
 Alpha virt. eigenvalues --    0.02272   0.02967   0.03519   0.04297   0.04821
 Alpha virt. eigenvalues --    0.05146   0.06092   0.06385   0.06673   0.06842
 Alpha virt. eigenvalues --    0.07501   0.08028   0.08230   0.09672   0.09717

 Mulliken charges:
               1
     1  C    0.533539
     2  C    0.029930
     3  C    0.496691
     4  C    0.591628
     5  C   -0.198035
     6  C    0.827271
     7  C    0.899560
     8  C    0.572637
     9  H    0.261553
    10  H    0.083136
    11  H   -0.158627
    12  H   -0.046252
    13  H    0.201357
    14  H   -0.187090
    15  H   -0.125119
    16  H    0.095982
    17  H   -0.088745
    18  H   -0.073113
    19  H   -0.055203
    20  H    0.207493
    21  H   -0.300477
    22  H    0.016532
    23  H    0.049427
    24  H    0.066659
    25  N   -0.339594
    26  N   -0.226474
    27  O   -0.690555
    28  O   -0.684274
    29  O   -0.490474
    30  O   -0.749460
    31  O   -0.519902
 Sum of Mulliken charges =   0.00000

 Dipole moment (field-independent basis, Debye):
    X=             -3.3792    Y=             -4.4773    Z=             -1.2336  Tot=              5.7434

 Test job not archived.
 1\1\GINC-SE090\SP\RHF\Aug-CC-pVDZ\C8H16N2O5\OHZDE\08-Apr-2025\0\\#t hf
  aug-cc-pvdz iop(5/13=1,5/36=2,99/5=2) pseudo=read geom=check guess=(r
 ead,tcheck) scf=(maxcycle=1)\\title\\0,1\C,0,-2.07016,-0.316023,-0.524
 137\C,0,-0.759879,0.417273,-0.0229743\C,0,-3.24042,-0.0354936,0.476131
 \C,0,-3.83663,1.35209,0.375032\C,0,1.66574,0.0609651,0.244696\C,0,2.31
 774,1.40888,-0.27594\C,0,2.65782,-1.09093,-0.0804605\C,0,3.73161,-1.22
 207,1.00658\H,0,0.550925,2.20393,-0.0662055\H,0,3.23941,-1.40663,1.961
 7\H,0,4.42232,-2.04077,0.791992\H,0,4.30151,-0.307554,1.08807\H,0,2.56

 Normal termination of Gaussian 16 at Tue Apr  8 20:17:21 2025.
