 Gaussian 16, Revision C.01,

 ----------------------------------------------------------------------
 #t hf aug-cc-pvdz symm=none int=(grid=ultrafine) guess=(read,tcheck) s
 table=(opt,rrhf)
 ----------------------------------------------------------------------
 -----
 title
 -----
 Symbolic Z-matrix:
 Charge =  0 Multiplicity = 1

 SCF Done:  E(RHF) =  -537.855268495     A.U. after   15 cycles
 Normal termination of Gaussian 16 at Tue Apr  8 22:15:59 2025.
 Gaussian 16:  ES64L-G16RevC.01  3-Jul-2019

 ----------------------------------------------------------------------
 #t hf aug-cc-pvdz iop(5/13=1,5/36=2,99/5=2) pseudo=read geom=check gue
 ss=(read,tcheck) scf=(maxcycle=1)
 ----------------------------------------------------------------------
 -----
 title
 -----
 Structure from the checkpoint file:  "ANI1ccx_988_conf5_mol1.chk"
 Charge =  0 Multiplicity = 1

                         Standard orientation:
 ---------------------------------------------------------------------
 Center     Atomic      Atomic             Coordinates (Angstroms)
 Number     Number       Type             X           Y           Z
 ---------------------------------------------------------------------
      1          6           0        2.112540   -0.400939   -0.001476
      2          6           0        0.736731    1.564769    0.613298
      3          6           0       -0.623527    1.865230   -0.019910
      4          6           0       -1.454270    0.532255   -0.088995
      5          1           0        0.017043   -1.029511    0.595517
      6          1           0       -0.472137    2.277320   -1.071060
      7          1           0       -1.211310    2.598800    0.535019
      8          1           0        1.169690    2.528969    0.910558
      9          1           0        0.631682    0.994810    1.601940
     10          1           0        1.807670   -2.130551    0.851367
     11          1           0        3.379610   -1.791311   -0.907365
     12          1           0        3.964490   -0.155462   -0.881829
     13          1           0        1.957990    1.306319   -1.091300
     14          7           0       -2.000100   -1.549120    0.124952
     15          7           0        3.146310   -0.772492   -0.853210
     16          7           0        1.542770   -1.129901    0.938984
     17          7           0        1.715420    0.878022   -0.192579
     18          7           0       -2.666520    0.424938   -0.477128
     19          7           0       -3.005900   -0.882774   -0.365403
     20          7           0       -0.999632   -0.678283    0.315763
 ---------------------------------------------------------------------

 SCF Done:  E(RHF) =  -538.007817101     A.U. after    2 cycles

 The electronic state is 1-A.
 Alpha  occ. eigenvalues --  -15.68557 -15.68431 -15.68393 -15.67988 -15.67222
 Alpha  occ. eigenvalues --  -15.62402 -15.61851 -11.41345 -11.30769 -11.30679
 Alpha  occ. eigenvalues --  -11.28264  -1.40509  -1.31218  -1.19243  -1.16919
 Alpha  occ. eigenvalues --   -1.13649  -1.12956  -1.03069  -0.90978  -0.84129
 Alpha  occ. eigenvalues --   -0.82361  -0.80711  -0.76932  -0.72974  -0.71376
 Alpha  occ. eigenvalues --   -0.66508  -0.65024  -0.63998  -0.63196  -0.60776
 Alpha  occ. eigenvalues --   -0.57300  -0.54332  -0.53965  -0.49963  -0.47160
 Alpha  occ. eigenvalues --   -0.43292  -0.43070  -0.42497  -0.40139  -0.38479
 Alpha  occ. eigenvalues --   -0.36683
 Alpha virt. eigenvalues --    0.00968   0.02194   0.03369   0.03988   0.05598
 Alpha virt. eigenvalues --    0.06131   0.07015   0.07777   0.08794   0.09609
 Alpha virt. eigenvalues --    0.10978   0.11243   0.12961   0.13346   0.14073

 Mulliken charges:
               1
     1  C    0.923803
     2  C    0.713621
     3  C    0.068492
     4  C    0.568077
     5  H    0.328969
     6  H    0.071113
     7  H   -0.034827
     8  H   -0.217474
     9  H    0.039643
    10  H   -0.020304
    11  H    0.057043
    12  H    0.028733
    13  H   -0.067004
    14  N   -0.127465
    15  N   -0.277634
    16  N   -0.514164
    17  N   -0.452269
    18  N   -0.440573
    19  N   -0.304327
    20  N   -0.343455
 Sum of Mulliken charges =  -0.00000

 Dipole moment (field-independent basis, Debye):
    X=             10.1826    Y=              2.6672    Z=             -0.7203  Tot=             10.5507

 Test job not archived.
 1\1\GINC-SE250\SP\RHF\Aug-CC-pVDZ\C4H9N7\OHZDE\08-Apr-2025\0\\#t hf au
 g-cc-pvdz iop(5/13=1,5/36=2,99/5=2) pseudo=read geom=check guess=(read
 ,tcheck) scf=(maxcycle=1)\\title\\0,1\C,0,2.11254,-0.400938,-0.0014761
 3\C,0,0.736731,1.56477,0.613298\C,0,-0.623527,1.86523,-0.0199099\C,0,-
 1.45427,0.532255,-0.0889946\H,0,0.0170428,-1.02951,0.595517\H,0,-0.472
 137,2.27732,-1.07106\H,0,-1.21131,2.5988,0.535019\H,0,1.16969,2.52897,
 0.910558\H,0,0.631682,0.994811,1.60194\H,0,1.80767,-2.13055,0.851367\H
 ,0,3.37961,-1.79131,-0.907365\H,0,3.96449,-0.155461,-0.881829\H,0,1.95

 Normal termination of Gaussian 16 at Tue Apr  8 22:16:11 2025.
