 Gaussian 16, Revision C.01,

 ----------------------------------------------------------------------
 #t hf aug-cc-pvdz symm=none int=(grid=ultrafine) guess=(read,tcheck) s
 table=(opt,rrhf)
 ----------------------------------------------------------------------
 -----
 title
 -----
 Symbolic Z-matrix:
 Charge =  0 Multiplicity = 1

 SCF Done:  E(RHF) =  -487.878363963     A.U. after   14 cycles
 Normal termination of Gaussian 16 at Tue Apr  8 19:12:39 2025.
 Gaussian 16:  ES64L-G16RevC.01  3-Jul-2019

 ----------------------------------------------------------------------
 #t hf aug-cc-pvdz iop(5/13=1,5/36=2,99/5=2) pseudo=read geom=check gue
 ss=(read,tcheck) scf=(maxcycle=1)
 ----------------------------------------------------------------------
 -----
 title
 -----
 Structure from the checkpoint file:  "ANI1ccx_1001_conf3_mol2.chk"
 Charge =  0 Multiplicity = 1

                         Standard orientation:
 ---------------------------------------------------------------------
 Center     Atomic      Atomic             Coordinates (Angstroms)
 Number     Number       Type             X           Y           Z
 ---------------------------------------------------------------------
      1          6           0        2.197621   -0.050247    0.088506
      2          6           0        0.225558    0.451401   -0.380700
      3          6           0       -1.064640    1.194849   -0.684046
      4          6           0       -2.119140    1.079959    0.390288
      5          6           0       -2.479249   -0.298696    0.843791
      6          1           0       -3.188478   -1.856382   -0.080677
      7          1           0       -3.415539   -0.248499    1.381940
      8          1           0       -1.701899   -0.707796    1.535410
      9          1           0       -1.950560    1.673159    1.302440
     10          1           0       -3.046330    1.531218    0.053417
     11          1           0       -0.814740    2.250639   -0.888778
     12          1           0       -1.481930    0.762896   -1.585820
     13          1           0       -0.360786   -1.608040   -0.559399
     14          1           0        4.019941   -0.800094    0.625894
     15          1           0        3.778350    0.865372    0.979778
     16          7           0        3.543861    0.072998    0.405425
     17          7           0        1.623011   -1.193399   -0.123288
     18          7           0        0.337395   -0.874347   -0.440923
     19          7           0        1.378170    0.994843   -0.110919
     20          8           0       -2.571999   -1.140841   -0.302913
 ---------------------------------------------------------------------

 SCF Done:  E(RHF) =  -488.024024796     A.U. after    2 cycles

 The electronic state is 1-A.
 Alpha  occ. eigenvalues --  -20.59676 -15.68425 -15.62190 -15.61574 -15.59397
 Alpha  occ. eigenvalues --  -11.31612 -11.31550 -11.30178 -11.25252 -11.24411
 Alpha  occ. eigenvalues --   -1.36544  -1.34513  -1.18287  -1.14033  -1.08547
 Alpha  occ. eigenvalues --   -1.04047  -0.95288  -0.84568  -0.80917  -0.79170
 Alpha  occ. eigenvalues --   -0.73929  -0.72512  -0.67962  -0.65691  -0.63156
 Alpha  occ. eigenvalues --   -0.62799  -0.61220  -0.58830  -0.58091  -0.54424
 Alpha  occ. eigenvalues --   -0.51388  -0.49840  -0.47933  -0.47005  -0.45712
 Alpha  occ. eigenvalues --   -0.41380  -0.38432  -0.31573
 Alpha virt. eigenvalues --    0.02397   0.03734   0.03876   0.04583   0.05602
 Alpha virt. eigenvalues --    0.06173   0.06758   0.07184   0.07429   0.08349
 Alpha virt. eigenvalues --    0.11019   0.11896   0.12740   0.14007   0.14176

 Mulliken charges:
               1
     1  C    0.701489
     2  C    0.480633
     3  C    0.296553
     4  C    0.043249
     5  C    0.799775
     6  H    0.173496
     7  H   -0.177283
     8  H   -0.048687
     9  H   -0.073157
    10  H   -0.099858
    11  H   -0.015214
    12  H    0.055370
    13  H    0.055801
    14  H    0.003021
    15  H   -0.016478
    16  N   -0.331040
    17  N   -0.489549
    18  N   -0.190875
    19  N   -0.535403
    20  O   -0.631844
 Sum of Mulliken charges =   0.00000

 Dipole moment (field-independent basis, Debye):
    X=             -4.0909    Y=             -0.6974    Z=              2.1504  Tot=              4.6740

 Test job not archived.
 1\1\GINC-SE219\SP\RHF\Aug-CC-pVDZ\C5H10N4O1\OHZDE\08-Apr-2025\0\\#t hf
  aug-cc-pvdz iop(5/13=1,5/36=2,99/5=2) pseudo=read geom=check guess=(r
 ead,tcheck) scf=(maxcycle=1)\\title\\0,1\C,0,2.19762,-0.0502478,0.0885
 063\C,0,0.225558,0.451401,-0.3807\C,0,-1.06464,1.19485,-0.684046\C,0,-
 2.11914,1.07996,0.390288\C,0,-2.47925,-0.298695,0.843791\H,0,-3.18848,
 -1.85638,-0.0806772\H,0,-3.41554,-0.248497,1.38194\H,0,-1.7019,-0.7077
 95,1.53541\H,0,-1.95056,1.67316,1.30244\H,0,-3.04633,1.53122,0.0534167
 \H,0,-0.81474,2.25064,-0.888778\H,0,-1.48193,0.762897,-1.58582\H,0,-0.

 Normal termination of Gaussian 16 at Tue Apr  8 19:12:50 2025.
