 Gaussian 16, Revision C.01,

 ----------------------------------------------------------------------
 #t hf aug-cc-pvdz symm=none int=(grid=ultrafine) guess=(read,tcheck) s
 table=(opt,rrhf)
 ----------------------------------------------------------------------
 -----
 title
 -----
 Symbolic Z-matrix:
 Charge =  0 Multiplicity = 1

 SCF Done:  E(RHF) =  -430.221810712     A.U. after   15 cycles
 Normal termination of Gaussian 16 at Tue Apr  8 21:39:45 2025.
 Gaussian 16:  ES64L-G16RevC.01  3-Jul-2019

 ----------------------------------------------------------------------
 #t hf aug-cc-pvdz iop(5/13=1,5/36=2,99/5=2) pseudo=read geom=check gue
 ss=(read,tcheck) scf=(maxcycle=1)
 ----------------------------------------------------------------------
 -----
 title
 -----
 Structure from the checkpoint file:  "ANI1ccx_470_conf3_mol1.chk"
 Charge =  0 Multiplicity = 1

                         Standard orientation:
 ---------------------------------------------------------------------
 Center     Atomic      Atomic             Coordinates (Angstroms)
 Number     Number       Type             X           Y           Z
 ---------------------------------------------------------------------
      1          6           0        1.165819   -0.151325   -0.014800
      2          6           0       -1.128821   -0.146959   -0.080434
      3          1           0        0.979482    1.983161   -0.157124
      4          7           0        0.580920    1.131951    0.221819
      5          8           0        2.340359   -0.516192   -0.031265
      6          8           0       -0.769704    1.044490   -0.156483
      7          8           0       -2.223781   -0.537978    0.088122
      8          8           0       -0.005363   -1.004959   -0.003400
 ---------------------------------------------------------------------

 SCF Done:  E(RHF) =  -430.358985814     A.U. after    2 cycles

 The electronic state is 1-A.
 Alpha  occ. eigenvalues --  -20.73191 -20.69527 -20.63151 -20.60030 -15.79280
 Alpha  occ. eigenvalues --  -11.50795 -11.49386  -1.59506  -1.43944  -1.42445
 Alpha  occ. eigenvalues --   -1.37692  -1.21807  -0.95824  -0.91301  -0.83738
 Alpha  occ. eigenvalues --   -0.80640  -0.74980  -0.71383  -0.70940  -0.66401
 Alpha  occ. eigenvalues --   -0.65452  -0.62742  -0.55852  -0.54321  -0.52901
 Alpha  occ. eigenvalues --   -0.48318
 Alpha virt. eigenvalues --    0.02051   0.06523   0.07116   0.07687   0.09962
 Alpha virt. eigenvalues --    0.11012   0.11332   0.12025   0.12133   0.14149
 Alpha virt. eigenvalues --    0.14764   0.15631   0.17193   0.18913   0.22921

 Mulliken charges:
               1
     1  C    0.921259
     2  C    0.667414
     3  H    0.102368
     4  N    0.011552
     5  O   -0.373248
     6  O   -0.396915
     7  O   -0.335804
     8  O   -0.596627
 Sum of Mulliken charges =  -0.00000

 Dipole moment (field-independent basis, Debye):
    X=              1.3132    Y=              3.9698    Z=             -0.9804  Tot=              4.2948

 Test job not archived.
 1\1\GINC-SE402\SP\RHF\Aug-CC-pVDZ\C2H1N1O4\OHZDE\08-Apr-2025\0\\#t hf
 aug-cc-pvdz iop(5/13=1,5/36=2,99/5=2) pseudo=read geom=check guess=(re
 ad,tcheck) scf=(maxcycle=1)\\title\\0,1\C,0,1.16582,-0.151326,-0.01479
 96\C,0,-1.12882,-0.146959,-0.0804338\H,0,0.979484,1.98316,-0.157124\N,
 0,0.580922,1.13195,0.221819\O,0,2.34036,-0.516194,-0.0312645\O,0,-0.76
 9703,1.04449,-0.156483\O,0,-2.22378,-0.537977,0.088122\O,0,-0.00536286
 ,-1.00496,-0.00340043\\Version=ES64L-G16RevC.01\State=1-A\HF=-430.3589
 858\RMSD=2.776e-03\Dipole=0.5166423,1.5618519,-0.3857094\Quadrupole=-7

 Normal termination of Gaussian 16 at Tue Apr  8 21:39:48 2025.
