 Gaussian 16, Revision C.01,

 ----------------------------------------------------------------------
 #t hf aug-cc-pvdz symm=none int=(grid=ultrafine) guess=(read,tcheck) s
 table=(opt,rrhf)
 ----------------------------------------------------------------------
 -----
 title
 -----
 Symbolic Z-matrix:
 Charge =  0 Multiplicity = 1

 SCF Done:  E(RHF) =  -258.501247805     A.U. after   61 cycles
 Normal termination of Gaussian 16 at Tue Apr  8 21:13:20 2025.
 Gaussian 16:  ES64L-G16RevC.01  3-Jul-2019

 ----------------------------------------------------------------------
 #t hf aug-cc-pvdz iop(5/13=1,5/36=2,99/5=2) pseudo=read geom=check gue
 ss=(read,tcheck) scf=(maxcycle=1)
 ----------------------------------------------------------------------
 -----
 title
 -----
 Structure from the checkpoint file:  "ANI1ccx_1907_conf25_mol1.chk"
 Charge =  0 Multiplicity = 1

                         Standard orientation:
 ---------------------------------------------------------------------
 Center     Atomic      Atomic             Coordinates (Angstroms)
 Number     Number       Type             X           Y           Z
 ---------------------------------------------------------------------
      1          7           0       -2.089498   -0.410508    0.004591
      2          7           0       -1.376758    0.435624   -0.017998
      3          8           0        2.104832   -0.174521   -0.020546
      4          8           0        0.928143    0.152544    0.032277
 ---------------------------------------------------------------------

 SCF Done:  E(RHF) =  -258.579927921     A.U. after    2 cycles

 The electronic state is 1-A.
 Alpha  occ. eigenvalues --  -20.75938 -20.75743 -15.75450 -15.75142  -1.59589
 Alpha  occ. eigenvalues --   -1.41844  -1.10440  -0.79111  -0.78595  -0.73770
 Alpha  occ. eigenvalues --   -0.67070  -0.61819  -0.60319  -0.59888  -0.50423
 Alpha virt. eigenvalues --   -0.01078   0.09526   0.10773   0.13058   0.13106
 Alpha virt. eigenvalues --    0.14065   0.14171   0.16392   0.18434   0.20530
 Alpha virt. eigenvalues --    0.22804   0.24724   0.26160   0.28767   0.30528

 Mulliken charges:
               1
     1  N   -0.056128
     2  N    0.039470
     3  O   -0.052553
     4  O    0.069211
 Sum of Mulliken charges =  -0.00000

 Dipole moment (field-independent basis, Debye):
    X=              0.0988    Y=              0.0484    Z=             -0.0054  Tot=              0.1102

 Test job not archived.
 1\1\GINC-SE038\SP\RHF\Aug-CC-pVDZ\N2O2\OHZDE\08-Apr-2025\0\\#t hf aug-
 cc-pvdz iop(5/13=1,5/36=2,99/5=2) pseudo=read geom=check guess=(read,t
 check) scf=(maxcycle=1)\\title\\0,1\N,0,-2.0895,-0.410508,0.00459094\N
 ,0,-1.37676,0.435624,-0.0179981\O,0,2.10483,-0.174521,-0.0205459\O,0,0
 .928141,0.152544,0.0322772\\Version=ES64L-G16RevC.01\State=1-A\HF=-258
 .5799279\RMSD=3.903e-03\Dipole=0.0388841,0.019053,-0.0021341\Quadrupol
 e=-0.2517742,0.4060164,-0.1542422,-0.2864659,0.0064078,0.0647375\PG=C0
 1 [X(N2O2)]\\@

 Normal termination of Gaussian 16 at Tue Apr  8 21:13:22 2025.
