 Gaussian 16, Revision C.01,

 ----------------------------------------------------------------------
 #t hf aug-cc-pvdz symm=none int=(grid=ultrafine) guess=(read,tcheck) s
 table=(opt,rrhf)
 ----------------------------------------------------------------------
 -----
 title
 -----
 Symbolic Z-matrix:
 Charge =  0 Multiplicity = 1

 SCF Done:  E(RHF) =  -389.490045573     A.U. after   15 cycles
 Normal termination of Gaussian 16 at Tue Apr  8 21:40:46 2025.
 Gaussian 16:  ES64L-G16RevC.01  3-Jul-2019

 ----------------------------------------------------------------------
 #t hf aug-cc-pvdz iop(5/13=1,5/36=2,99/5=2) pseudo=read geom=check gue
 ss=(read,tcheck) scf=(maxcycle=1)
 ----------------------------------------------------------------------
 -----
 title
 -----
 Structure from the checkpoint file:  "ANI1ccx_473_conf4_mol1.chk"
 Charge =  0 Multiplicity = 1

                         Standard orientation:
 ---------------------------------------------------------------------
 Center     Atomic      Atomic             Coordinates (Angstroms)
 Number     Number       Type             X           Y           Z
 ---------------------------------------------------------------------
      1          6           0        1.294342    0.878334   -0.028402
      2          6           0        1.060372   -1.443459    0.068398
      3          1           0        1.712613   -2.339669    0.200413
      4          7           0        1.808712   -0.229943   -0.049875
      5          7           0       -2.956728   -0.070259    0.002907
      6          7           0       -2.085968    0.608625    0.009614
      7          8           0        0.967090    1.974661    0.029181
      8          8           0       -0.117466   -1.528229   -0.051544
 ---------------------------------------------------------------------

 SCF Done:  E(RHF) =  -389.611666436     A.U. after    2 cycles

 The electronic state is 1-A.
 Alpha  occ. eigenvalues --  -20.67433 -20.60265 -15.74473 -15.74162 -15.68209
 Alpha  occ. eigenvalues --  -11.46078 -11.42020  -1.48725  -1.41702  -1.40870
 Alpha  occ. eigenvalues --   -1.26453  -0.93806  -0.79269  -0.76180  -0.74342
 Alpha  occ. eigenvalues --   -0.71927  -0.70782  -0.67668  -0.61199  -0.60797
 Alpha  occ. eigenvalues --   -0.59327  -0.59193  -0.53163  -0.48163  -0.46877
 Alpha virt. eigenvalues --    0.03214   0.06417   0.06815   0.08371   0.08789
 Alpha virt. eigenvalues --    0.10117   0.10785   0.11642   0.12834   0.13281
 Alpha virt. eigenvalues --    0.14386   0.15033   0.15437   0.16366   0.16774

 Mulliken charges:
               1
     1  C   -0.032508
     2  C    0.805373
     3  H   -0.131087
     4  N   -0.218836
     5  N   -0.020145
     6  N    0.005150
     7  O   -0.119560
     8  O   -0.288388
 Sum of Mulliken charges =  -0.00000

 Dipole moment (field-independent basis, Debye):
    X=              2.1837    Y=             -1.0819    Z=              0.2874  Tot=              2.4539

 Test job not archived.
 1\1\GINC-SE116\SP\RHF\Aug-CC-pVDZ\C2H1N3O2\OHZDE\08-Apr-2025\0\\#t hf
 aug-cc-pvdz iop(5/13=1,5/36=2,99/5=2) pseudo=read geom=check guess=(re
 ad,tcheck) scf=(maxcycle=1)\\title\\0,1\C,0,1.29434,0.878333,-0.028402
 5\C,0,1.06037,-1.44346,0.0683981\H,0,1.71261,-2.33967,0.200413\N,0,1.8
 0871,-0.229944,-0.0498754\N,0,-2.95673,-0.0702589,0.00290745\N,0,-2.08
 597,0.608625,0.00961352\O,0,0.967089,1.97466,0.029181\O,0,-0.117469,-1
 .52823,-0.0515442\\Version=ES64L-G16RevC.01\State=1-A\HF=-389.6116664\
 RMSD=2.521e-03\Dipole=0.8591405,-0.4256587,0.1130546\Quadrupole=-0.062

 Normal termination of Gaussian 16 at Tue Apr  8 21:40:50 2025.
