 Gaussian 16, Revision C.01,

 ----------------------------------------------------------------------
 #t hf aug-cc-pvdz symm=none int=(grid=ultrafine) guess=(read,tcheck) s
 table=(opt,rrhf)
 ----------------------------------------------------------------------
 -----
 title
 -----
 Symbolic Z-matrix:
 Charge =  0 Multiplicity = 1

 SCF Done:  E(RHF) =  -962.251807656     A.U. after   15 cycles
 Normal termination of Gaussian 16 at Tue Apr  8 20:49:59 2025.
 Gaussian 16:  ES64L-G16RevC.01  3-Jul-2019

 ----------------------------------------------------------------------
 #t hf aug-cc-pvdz iop(5/13=1,5/36=2,99/5=2) pseudo=read geom=check gue
 ss=(read,tcheck) scf=(maxcycle=1)
 ----------------------------------------------------------------------
 -----
 title
 -----
 Structure from the checkpoint file:  "ANI1ccx_1756_conf10_mol1.chk"
 Charge =  0 Multiplicity = 1

                         Standard orientation:
 ---------------------------------------------------------------------
 Center     Atomic      Atomic             Coordinates (Angstroms)
 Number     Number       Type             X           Y           Z
 ---------------------------------------------------------------------
      1          6           0        0.527071    1.023320   -0.132396
      2          6           0       -0.536969    1.532250    0.856248
      3          6           0        1.846829    1.632350    0.255063
      4          6           0        3.031399    1.175250   -0.597671
      5          6           0        3.475309   -0.264605   -0.254076
      6          6           0       -2.012901   -0.248371   -0.041589
      7          6           0       -3.397741   -0.207287   -0.661006
      8          6           0       -1.692220   -1.690041    0.549077
      9          6           0       -0.196539   -1.961030    0.603943
     10          1           0       -3.392121    1.644419   -0.415248
     11          1           0        1.299989   -1.413260    1.581680
     12          1           0       -2.132370   -2.382091   -0.158611
     13          1           0       -2.112840   -1.719101    1.552250
     14          1           0       -1.383621   -0.048937   -0.866285
     15          1           0       -2.438531    1.095039    1.560840
     16          1           0        4.802800   -1.648200   -0.878987
     17          1           0        4.859639   -0.161110   -1.831870
     18          1           0        2.709509    1.195110   -1.671680
     19          1           0        3.909499    1.835050   -0.584777
     20          1           0        2.123119    1.423850    1.311800
     21          1           0        1.710839    2.744090    0.157112
     22          1           0        0.571502    0.011982    0.050453
     23          1           0        0.553192    0.733503   -2.190760
     24          1           0       -0.035805    2.174840   -1.791040
     25          7           0       -0.010530    1.218860   -1.456270
     26          7           0        4.537569   -0.675902   -1.018790
     27          7           0       -1.750841    0.816238    0.854132
     28          8           0       -0.391271    2.537490    1.539330
     29          8           0        2.882909   -0.995261    0.527902
     30          8           0       -3.908141   -1.214611   -1.130800
     31          8           0        0.419938   -2.317140   -0.389828
     32          8           0        0.361373   -1.593480    1.755130
     33          8           0       -3.957761    0.964182   -0.794727
 ---------------------------------------------------------------------

 SCF Done:  E(RHF) =  -962.544861443     A.U. after    2 cycles

 The electronic state is 1-A.
 Alpha  occ. eigenvalues --  -20.64111 -20.61927 -20.57079 -20.56244 -20.55668
 Alpha  occ. eigenvalues --  -20.55618 -15.67267 -15.67093 -15.65036 -11.40454
 Alpha  occ. eigenvalues --  -11.39797 -11.39763 -11.38748 -11.30504 -11.29473
 Alpha  occ. eigenvalues --  -11.27977 -11.25900 -11.25654  -1.44637  -1.42277
 Alpha  occ. eigenvalues --   -1.37551  -1.36581  -1.32716  -1.31768  -1.23566
 Alpha  occ. eigenvalues --   -1.19950  -1.19703  -1.07271  -1.04970  -0.98953
 Alpha  occ. eigenvalues --   -0.95776  -0.88985  -0.86771  -0.83309  -0.80940
 Alpha  occ. eigenvalues --   -0.79386  -0.77508  -0.74425  -0.73608  -0.71988
 Alpha  occ. eigenvalues --   -0.70486  -0.69971  -0.68629  -0.67735  -0.67210
 Alpha  occ. eigenvalues --   -0.66327  -0.65841  -0.65127  -0.63985  -0.63233
 Alpha  occ. eigenvalues --   -0.61472  -0.59599  -0.59295  -0.58439  -0.56820
 Alpha  occ. eigenvalues --   -0.55535  -0.55052  -0.54034  -0.52312  -0.51484
 Alpha  occ. eigenvalues --   -0.49471  -0.49325  -0.47924  -0.46861  -0.46114
 Alpha  occ. eigenvalues --   -0.45778  -0.44342  -0.41729  -0.40761
 Alpha virt. eigenvalues --    0.01337   0.02845   0.03483   0.03726   0.04874
 Alpha virt. eigenvalues --    0.05019   0.06072   0.06523   0.07195   0.07220
 Alpha virt. eigenvalues --    0.07675   0.08668   0.08876   0.09409   0.10501

 Mulliken charges:
               1
     1  C    0.736511
     2  C    0.232253
     3  C    0.312406
     4  C    0.701196
     5  C    0.465982
     6  C    0.186848
     7  C    0.770792
     8  C    0.967659
     9  C    0.791097
    10  H    0.201758
    11  H    0.258574
    12  H   -0.026782
    13  H   -0.093222
    14  H   -0.089829
    15  H   -0.156609
    16  H    0.017938
    17  H   -0.009642
    18  H   -0.012144
    19  H   -0.133452
    20  H   -0.051342
    21  H    0.020580
    22  H   -0.798564
    23  H    0.079018
    24  H    0.009146
    25  N   -0.619639
    26  N   -0.198589
    27  N   -0.484979
    28  O   -0.520581
    29  O   -0.486219
    30  O   -0.521828
    31  O   -0.578102
    32  O   -0.524145
    33  O   -0.446090
 Sum of Mulliken charges =   0.00000

 Dipole moment (field-independent basis, Debye):
    X=              6.3291    Y=              3.6083    Z=             -2.2428  Tot=              7.6228

 Test job not archived.
 1\1\GINC-SE186\SP\RHF\Aug-CC-pVDZ\C9H15N3O6\OHZDE\08-Apr-2025\0\\#t hf
  aug-cc-pvdz iop(5/13=1,5/36=2,99/5=2) pseudo=read geom=check guess=(r
 ead,tcheck) scf=(maxcycle=1)\\title\\0,1\C,0,0.527072,1.02332,-0.13239
 6\C,0,-0.536968,1.53225,0.856248\C,0,1.84683,1.63235,0.255063\C,0,3.03
 14,1.17525,-0.597671\C,0,3.47531,-0.264605,-0.254076\C,0,-2.0129,-0.24
 837,-0.0415886\C,0,-3.39774,-0.207286,-0.661006\C,0,-1.69222,-1.69004,
 0.549077\C,0,-0.196539,-1.96103,0.603943\H,0,-3.39212,1.64442,-0.41524
 8\H,0,1.29999,-1.41326,1.58168\H,0,-2.13237,-2.38209,-0.158611\H,0,-2.

 Normal termination of Gaussian 16 at Tue Apr  8 20:50:56 2025.
