 Gaussian 16, Revision C.01,

 ----------------------------------------------------------------------
 #t hf aug-cc-pvdz symm=none int=(grid=ultrafine) guess=(read,tcheck) s
 table=(opt,rrhf)
 ----------------------------------------------------------------------
 -----
 title
 -----
 Symbolic Z-matrix:
 Charge =  0 Multiplicity = 1

 SCF Done:  E(RHF) =  -311.840132788     A.U. after   15 cycles
 Normal termination of Gaussian 16 at Tue Apr  8 21:33:34 2025.
 Gaussian 16:  ES64L-G16RevC.01  3-Jul-2019

 ----------------------------------------------------------------------
 #t hf aug-cc-pvdz iop(5/13=1,5/36=2,99/5=2) pseudo=read geom=check gue
 ss=(read,tcheck) scf=(maxcycle=1)
 ----------------------------------------------------------------------
 -----
 title
 -----
 Structure from the checkpoint file:  "ANI1ccx_392_conf7_mol1.chk"
 Charge =  0 Multiplicity = 1

                         Standard orientation:
 ---------------------------------------------------------------------
 Center     Atomic      Atomic             Coordinates (Angstroms)
 Number     Number       Type             X           Y           Z
 ---------------------------------------------------------------------
      1          6           0       -0.643021   -0.020948   -0.023356
      2          1           0       -2.610309    0.797332    0.176193
      3          1           0       -2.487269   -0.898370    0.132095
      4          1           0        2.168161   -1.094189    0.145130
      5          7           0       -2.013419   -0.040297   -0.030972
      6          7           0        0.128466    1.149890    0.005364
      7          7           0        1.350601    0.729885   -0.005343
      8          7           0        1.357561   -0.551077    0.000827
      9          7           0        0.146440   -1.099700   -0.014631
 ---------------------------------------------------------------------

 SCF Done:  E(RHF) =  -311.927666809     A.U. after    2 cycles

 The electronic state is 1-A.
 Alpha  occ. eigenvalues --  -15.75780 -15.73449 -15.66935 -15.66908 -15.65718
 Alpha  occ. eigenvalues --  -11.36307  -1.46371  -1.22306  -1.21582  -1.11140
 Alpha  occ. eigenvalues --   -0.90373  -0.85688  -0.78163  -0.69831  -0.68218
 Alpha  occ. eigenvalues --   -0.66310  -0.56558  -0.51356  -0.48233  -0.45302
 Alpha  occ. eigenvalues --   -0.43479  -0.34479
 Alpha virt. eigenvalues --    0.02773   0.03372   0.05638   0.08957   0.10717
 Alpha virt. eigenvalues --    0.11183   0.13185   0.13941   0.14984   0.15464
 Alpha virt. eigenvalues --    0.16856   0.17233   0.18131   0.19702   0.20206

 Mulliken charges:
               1
     1  C    1.140614
     2  H    0.035965
     3  H   -0.052417
     4  H    0.010346
     5  N   -0.286516
     6  N   -0.445362
     7  N   -0.129139
     8  N    0.195211
     9  N   -0.468702
 Sum of Mulliken charges =  -0.00000

 Dipole moment (field-independent basis, Debye):
    X=             -0.8652    Y=             -1.9146    Z=              0.7944  Tot=              2.2462

 Test job not archived.
 1\1\GINC-SE247\SP\RHF\Aug-CC-pVDZ\C1H3N5\OHZDE\08-Apr-2025\0\\#t hf au
 g-cc-pvdz iop(5/13=1,5/36=2,99/5=2) pseudo=read geom=check guess=(read
 ,tcheck) scf=(maxcycle=1)\\title\\0,1\C,0,-0.643022,-0.0209477,-0.0233
 563\H,0,-2.61031,0.797333,0.176193\H,0,-2.48727,-0.898369,0.132095\H,0
 ,2.16816,-1.09419,0.14513\N,0,-2.01342,-0.0402968,-0.0309723\N,0,0.128
 466,1.14989,0.00536407\N,0,1.3506,0.729884,-0.00534263\N,0,1.35756,-0.
 551078,0.00082712\N,0,0.146439,-1.0997,-0.0146305\\Version=ES64L-G16Re
 vC.01\State=1-A\HF=-311.9276668\RMSD=3.001e-03\Dipole=-0.3404012,-0.75

 Normal termination of Gaussian 16 at Tue Apr  8 21:33:37 2025.
