 Gaussian 16, Revision C.01,

 ----------------------------------------------------------------------
 #t hf aug-cc-pvdz symm=none int=(grid=ultrafine) guess=(read,tcheck) s
 table=(opt,rrhf)
 ----------------------------------------------------------------------
 -----
 title
 -----
 Symbolic Z-matrix:
 Charge =  0 Multiplicity = 1

 SCF Done:  E(RHF) =  -380.228831276     A.U. after   11 cycles
 Normal termination of Gaussian 16 at Tue Apr  8 20:56:21 2025.
 Gaussian 16:  ES64L-G16RevC.01  3-Jul-2019

 ----------------------------------------------------------------------
 #t hf aug-cc-pvdz iop(5/13=1,5/36=2,99/5=2) pseudo=read geom=check gue
 ss=(read,tcheck) scf=(maxcycle=1)
 ----------------------------------------------------------------------
 -----
 title
 -----
 Structure from the checkpoint file:  "ANI1ccx_1843_conf12_mol1.chk"
 Charge =  0 Multiplicity = 1

                         Standard orientation:
 ---------------------------------------------------------------------
 Center     Atomic      Atomic             Coordinates (Angstroms)
 Number     Number       Type             X           Y           Z
 ---------------------------------------------------------------------
      1          1           0       -0.771855    0.648659    1.364931
      2          1           0       -1.923150   -0.134997    0.778403
      3          1           0        1.114260    1.129851    0.059047
      4          1           0        0.506781    2.567031    0.018132
      5          1           0       -0.238319   -1.369959    0.656917
      6          1           0       -0.269877   -1.411179   -0.849137
      7          1           0       -1.858780    0.365134   -2.134519
      8          1           0       -0.873605    0.768347   -0.968588
      9          1           0        1.627121   -0.783933   -0.161713
     10          1           0        2.879821   -0.181180    0.567608
     11          8           0       -1.308799   -0.151313    1.527461
     12          8           0        0.251699    1.637561    0.108294
     13          8           0        0.268950   -1.748259   -0.103462
     14          8           0       -1.503490    0.070570   -1.276009
     15          8           0        2.267590   -0.008281   -0.172669
 ---------------------------------------------------------------------

 SCF Done:  E(RHF) =  -380.353527711     A.U. after    2 cycles

 The electronic state is 1-A.
 Alpha  occ. eigenvalues --  -20.59406 -20.58872 -20.57951 -20.56401 -20.56185
 Alpha  occ. eigenvalues --   -1.33776  -1.31665  -1.30942  -1.30047  -1.28472
 Alpha  occ. eigenvalues --   -0.76379  -0.74975  -0.72750  -0.71829  -0.70545
 Alpha  occ. eigenvalues --   -0.64623  -0.62934  -0.61010  -0.60134  -0.57013
 Alpha  occ. eigenvalues --   -0.54472  -0.53676  -0.52823  -0.51313  -0.50567
 Alpha virt. eigenvalues --    0.02531   0.04221   0.04925   0.06890   0.07540
 Alpha virt. eigenvalues --    0.07954   0.08231   0.08963   0.09627   0.11037
 Alpha virt. eigenvalues --    0.16345   0.18268   0.19475   0.20136   0.21363

 Mulliken charges:
               1
     1  H    0.247386
     2  H    0.236552
     3  H    0.338983
     4  H    0.231852
     5  H    0.265362
     6  H    0.255253
     7  H    0.220979
     8  H    0.266597
     9  H    0.281279
    10  H    0.196276
    11  O   -0.452219
    12  O   -0.613089
    13  O   -0.539785
    14  O   -0.476367
    15  O   -0.459060
 Sum of Mulliken charges =   0.00000

 Dipole moment (field-independent basis, Debye):
    X=              0.5450    Y=              3.5654    Z=             -1.5545  Tot=              3.9276

 Test job not archived.
 1\1\GINC-SE051\SP\RHF\Aug-CC-pVDZ\H10O5\OHZDE\08-Apr-2025\0\\#t hf aug
 -cc-pvdz iop(5/13=1,5/36=2,99/5=2) pseudo=read geom=check guess=(read,
 tcheck) scf=(maxcycle=1)\\title\\0,1\H,0,-0.771855,0.648658,1.36493\H,
 0,-1.92315,-0.134997,0.778402\H,0,1.11426,1.12985,0.0590462\H,0,0.5067
 81,2.56703,0.0181314\H,0,-0.23832,-1.36996,0.656916\H,0,-0.269878,-1.4
 1118,-0.849138\H,0,-1.85878,0.365134,-2.13452\H,0,-0.873605,0.768346,-
 0.968589\H,0,1.62712,-0.783934,-0.161714\H,0,2.87982,-0.181182,0.56760
 7\O,0,-1.3088,-0.151314,1.52746\O,0,0.251699,1.63756,0.108293\O,0,0.26

 Normal termination of Gaussian 16 at Tue Apr  8 20:56:25 2025.
