 Gaussian 16, Revision C.01,

 ----------------------------------------------------------------------
 #t hf aug-cc-pvdz symm=none int=(grid=ultrafine) guess=(read,tcheck) s
 table=(opt,rrhf)
 ----------------------------------------------------------------------
 -----
 title
 -----
 Symbolic Z-matrix:
 Charge =  0 Multiplicity = 1

 SCF Done:  E(RHF) =  -301.514316415     A.U. after   16 cycles
 Normal termination of Gaussian 16 at Tue Apr  8 21:42:04 2025.
 Gaussian 16:  ES64L-G16RevC.01  3-Jul-2019

 ----------------------------------------------------------------------
 #t hf aug-cc-pvdz iop(5/13=1,5/36=2,99/5=2) pseudo=read geom=check gue
 ss=(read,tcheck) scf=(maxcycle=1)
 ----------------------------------------------------------------------
 -----
 title
 -----
 Structure from the checkpoint file:  "ANI1ccx_493_conf14_mol1.chk"
 Charge =  0 Multiplicity = 1

                         Standard orientation:
 ---------------------------------------------------------------------
 Center     Atomic      Atomic             Coordinates (Angstroms)
 Number     Number       Type             X           Y           Z
 ---------------------------------------------------------------------
      1          6           0       -0.581630   -0.038045    0.132991
      2          6           0        0.803747   -0.613831    0.154312
      3          1           0        0.261504    1.548719    0.082906
      4          1           0        0.681859   -1.709700    0.250885
      5          8           0       -0.655690    1.309228    0.006545
      6          8           0       -1.402309   -0.858404   -0.130028
      7          8           0        1.773490    0.058205   -0.133718
 ---------------------------------------------------------------------

 SCF Done:  E(RHF) =  -301.610748314     A.U. after    2 cycles

 The electronic state is 1-A.
 Alpha  occ. eigenvalues --  -20.65571 -20.64019 -20.61227 -11.43042 -11.39756
 Alpha  occ. eigenvalues --   -1.46574  -1.40967  -1.38524  -0.97819  -0.85848
 Alpha  occ. eigenvalues --   -0.78964  -0.73932  -0.70243  -0.68336  -0.65096
 Alpha  occ. eigenvalues --   -0.59108  -0.55960  -0.53763  -0.47909
 Alpha virt. eigenvalues --    0.02679   0.03957   0.04752   0.07809   0.09246
 Alpha virt. eigenvalues --    0.10862   0.11655   0.11716   0.13460   0.15299
 Alpha virt. eigenvalues --    0.17747   0.19602   0.20537   0.21172   0.23824

 Mulliken charges:
               1
     1  C    0.510464
     2  C    0.502899
     3  H    0.209013
     4  H   -0.020251
     5  O   -0.426290
     6  O   -0.357408
     7  O   -0.418427
 Sum of Mulliken charges =  -0.00000

 Dipole moment (field-independent basis, Debye):
    X=              1.4024    Y=             -0.2825    Z=              1.3888  Tot=              1.9938

 Test job not archived.
 1\1\GINC-SE367\SP\RHF\Aug-CC-pVDZ\C2H2O3\OHZDE\08-Apr-2025\0\\#t hf au
 g-cc-pvdz iop(5/13=1,5/36=2,99/5=2) pseudo=read geom=check guess=(read
 ,tcheck) scf=(maxcycle=1)\\title\\0,1\C,0,-0.58163,-0.038043,0.132991\
 C,0,0.803746,-0.613831,0.154312\H,0,0.261506,1.54872,0.0829063\H,0,0.6
 81857,-1.7097,0.250885\O,0,-0.655688,1.30923,0.0065455\O,0,-1.40231,-0
 .858401,-0.130028\O,0,1.77349,0.0582031,-0.133718\\Version=ES64L-G16Re
 vC.01\State=1-A\HF=-301.6107483\RMSD=3.631e-03\Dipole=0.5517323,-0.111
 1583,0.5463808\Quadrupole=-5.1961671,2.593749,2.6024181,-1.0838112,0.1

 Normal termination of Gaussian 16 at Tue Apr  8 21:42:06 2025.
