 Gaussian 16, Revision C.01,

 ----------------------------------------------------------------------
 #t hf aug-cc-pvdz symm=none int=(grid=ultrafine) guess=(read,tcheck) s
 table=(opt,rrhf)
 ----------------------------------------------------------------------
 -----
 title
 -----
 Symbolic Z-matrix:
 Charge =  0 Multiplicity = 1

 SCF Done:  E(RHF) =  -456.275473253     A.U. after   11 cycles
 Normal termination of Gaussian 16 at Tue Apr  8 21:08:45 2025.
 Gaussian 16:  ES64L-G16RevC.01  3-Jul-2019

 ----------------------------------------------------------------------
 #t hf aug-cc-pvdz iop(5/13=1,5/36=2,99/5=2) pseudo=read geom=check gue
 ss=(read,tcheck) scf=(maxcycle=1)
 ----------------------------------------------------------------------
 -----
 title
 -----
 Structure from the checkpoint file:  "ANI1ccx_1844_conf74_mol1.chk"
 Charge =  0 Multiplicity = 1

                         Standard orientation:
 ---------------------------------------------------------------------
 Center     Atomic      Atomic             Coordinates (Angstroms)
 Number     Number       Type             X           Y           Z
 ---------------------------------------------------------------------
      1          1           0       -0.881935   -2.097162    1.626000
      2          1           0       -2.238440    0.505441   -0.189897
      3          1           0       -3.342579   -0.440580   -0.758240
      4          1           0        1.544939    1.482921    0.387439
      5          1           0        0.795235    2.145220    1.537960
      6          1           0       -0.497254    1.974659   -0.146695
      7          1           0       -1.647048   -1.575372    0.363248
      8          1           0       -1.767462    2.748598   -0.592377
      9          1           0        1.910973   -2.724029   -0.480787
     10          1           0        0.552195   -1.979920   -0.286440
     11          1           0        2.216961   -0.561671   -0.236753
     12          1           0        3.343670    0.553115   -0.616099
     13          8           0        0.907641    2.236000    0.607603
     14          8           0        1.424102   -1.907549   -0.741913
     15          8           0       -2.781389   -0.310761    0.029775
     16          8           0       -1.331641    1.892548   -0.706121
     17          8           0       -0.896350   -2.185772    0.656336
     18          8           0        2.678980    0.271632    0.078400
 ---------------------------------------------------------------------

 SCF Done:  E(RHF) =  -456.427334896     A.U. after    2 cycles

 The electronic state is 1-A.
 Alpha  occ. eigenvalues --  -20.57786 -20.57319 -20.57286 -20.57250 -20.57174
 Alpha  occ. eigenvalues --  -20.56322  -1.32033  -1.31334  -1.30605  -1.29141
 Alpha  occ. eigenvalues --   -1.28673  -1.28002  -0.73355  -0.73011  -0.72833
 Alpha  occ. eigenvalues --   -0.72391  -0.72049  -0.71886  -0.64194  -0.62500
 Alpha  occ. eigenvalues --   -0.62016  -0.58210  -0.57849  -0.56112  -0.52663
 Alpha  occ. eigenvalues --   -0.52274  -0.51947  -0.51814  -0.51496  -0.51129
 Alpha virt. eigenvalues --    0.02967   0.04364   0.04992   0.05028   0.06244
 Alpha virt. eigenvalues --    0.07009   0.08396   0.09197   0.10002   0.10136
 Alpha virt. eigenvalues --    0.11078   0.11240   0.17350   0.18235   0.18979

 Mulliken charges:
               1
     1  H    0.189067
     2  H    0.300799
     3  H    0.172176
     4  H    0.317731
     5  H    0.160415
     6  H    0.327707
     7  H    0.307118
     8  H    0.159986
     9  H    0.193271
    10  H    0.270926
    11  H    0.313767
    12  H    0.197512
    13  O   -0.500518
    14  O   -0.464353
    15  O   -0.464568
    16  O   -0.471499
    17  O   -0.513192
    18  O   -0.496346
 Sum of Mulliken charges =  -0.00000

 Dipole moment (field-independent basis, Debye):
    X=              0.1975    Y=             -0.1125    Z=              1.2224  Tot=              1.2433

 Test job not archived.
 1\1\GINC-SE090\SP\RHF\Aug-CC-pVDZ\H12O6\OHZDE\08-Apr-2025\0\\#t hf aug
 -cc-pvdz iop(5/13=1,5/36=2,99/5=2) pseudo=read geom=check guess=(read,
 tcheck) scf=(maxcycle=1)\\title\\0,1\H,0,-0.881938,-2.09716,1.626\H,0,
 -2.23844,0.505444,-0.189897\H,0,-3.34258,-0.440576,-0.75824\H,0,1.5449
 4,1.48292,0.387439\H,0,0.795236,2.14522,1.53796\H,0,-0.497253,1.97466,
 -0.146695\H,0,-1.64705,-1.57537,0.363248\H,0,-1.76746,2.7486,-0.592377
 \H,0,1.91097,-2.72403,-0.480787\H,0,0.552193,-1.97992,-0.28644\H,0,2.2
 1696,-0.561672,-0.236753\H,0,3.34367,0.553113,-0.616099\O,0,0.907642,2

 Normal termination of Gaussian 16 at Tue Apr  8 21:08:50 2025.
