 Gaussian 16, Revision C.01,

 ----------------------------------------------------------------------
 #t hf aug-cc-pvdz symm=none int=(grid=ultrafine) guess=(read,tcheck) s
 table=(opt,rrhf)
 ----------------------------------------------------------------------
 -----
 title
 -----
 Symbolic Z-matrix:
 Charge =  0 Multiplicity = 1

 SCF Done:  E(RHF) =  -959.292309318     A.U. after   14 cycles
 Normal termination of Gaussian 16 at Tue Apr  8 22:01:23 2025.
 Gaussian 16:  ES64L-G16RevC.01  3-Jul-2019

 ----------------------------------------------------------------------
 #t hf aug-cc-pvdz iop(5/13=1,5/36=2,99/5=2) pseudo=read geom=check gue
 ss=(read,tcheck) scf=(maxcycle=1)
 ----------------------------------------------------------------------
 -----
 title
 -----
 Structure from the checkpoint file:  "ANI1ccx_47_conf1_mol2.chk"
 Charge =  0 Multiplicity = 1

                         Standard orientation:
 ---------------------------------------------------------------------
 Center     Atomic      Atomic             Coordinates (Angstroms)
 Number     Number       Type             X           Y           Z
 ---------------------------------------------------------------------
      1          6           0       -1.957660    0.227491    0.889157
      2          6           0        1.947979    2.791530   -0.046283
      3          6           0        2.072010    0.874543   -0.881287
      4          6           0        1.620550   -0.486775   -1.363660
      5          6           0        2.370680   -1.861150    0.603131
      6          6           0        3.321000    1.269660   -0.678036
      7          6           0       -4.277880    0.139811   -0.147486
      8          6           0       -3.006890    0.994337    0.056235
      9          6           0       -1.128400   -0.723246    0.045690
     10          6           0        1.187240   -1.511361   -0.292030
     11          1           0        2.431580   -0.920809   -1.955590
     12          1           0        3.915810   -2.876040    0.676557
     13          1           0        3.988839    3.145680    0.250449
     14          1           0        1.592809    3.768320    0.230226
     15          1           0        4.259170    0.795943   -0.898736
     16          1           0        0.725590   -0.369190   -2.002640
     17          1           0        0.913966   -2.409481   -0.834893
     18          1           0       -3.313710   -1.043041   -1.609890
     19          1           0       -5.032910   -1.322102   -1.335420
     20          1           0       -2.601840    1.263659   -0.929738
     21          1           0       -3.282471    1.902599    0.618066
     22          1           0       -2.530790   -0.307308    1.633000
     23          1           0       -0.438138    1.507699    0.859408
     24          1           0       -1.555021    1.888169    2.044590
     25          1           0        0.424706   -0.298949    1.257420
     26          7           0       -1.083990    1.133589    1.541420
     27          7           0       -4.220740   -0.721936   -1.234330
     28          7           0        0.098222   -0.958675    0.542178
     29          7           0        1.153739    1.818089   -0.419571
     30          7           0        3.259249    2.516100   -0.086054
     31          8           0        2.562690   -1.516090    1.726480
     32          8           0       -1.485740   -1.204691   -1.030930
     33          8           0       -5.208320    0.202826    0.623194
     34          8           0        3.277030   -2.672590   -0.008857
 ---------------------------------------------------------------------

 SCF Done:  E(RHF) =  -959.580668727     A.U. after    2 cycles

 The electronic state is 1-A.
 Alpha  occ. eigenvalues --  -20.63513 -20.58235 -20.54692 -20.52248 -15.70954
 Alpha  occ. eigenvalues --  -15.65395 -15.63609 -15.61417 -15.60517 -11.41360
 Alpha  occ. eigenvalues --  -11.37262 -11.34684 -11.33475 -11.31696 -11.28663
 Alpha  occ. eigenvalues --  -11.28358 -11.27939 -11.26349 -11.23930  -1.44765
 Alpha  occ. eigenvalues --   -1.35913  -1.34490  -1.34300  -1.33270  -1.22170
 Alpha  occ. eigenvalues --   -1.17842  -1.16492  -1.13796  -1.07705  -1.02854
 Alpha  occ. eigenvalues --   -1.00412  -0.93745  -0.90039  -0.84714  -0.83416
 Alpha  occ. eigenvalues --   -0.80821  -0.79235  -0.76298  -0.76105  -0.74338
 Alpha  occ. eigenvalues --   -0.73478  -0.70358  -0.69743  -0.67829  -0.67214
 Alpha  occ. eigenvalues --   -0.66133  -0.65338  -0.63476  -0.63170  -0.62225
 Alpha  occ. eigenvalues --   -0.61672  -0.61145  -0.60570  -0.59530  -0.58444
 Alpha  occ. eigenvalues --   -0.56646  -0.55391  -0.53973  -0.53730  -0.53068
 Alpha  occ. eigenvalues --   -0.52069  -0.51467  -0.48270  -0.46917  -0.45245
 Alpha  occ. eigenvalues --   -0.42682  -0.41892  -0.41015  -0.39013  -0.37989
 Alpha  occ. eigenvalues --   -0.34861
 Alpha virt. eigenvalues --    0.01371   0.02415   0.03661   0.04000   0.04736
 Alpha virt. eigenvalues --    0.05082   0.05876   0.06570   0.06782   0.06977
 Alpha virt. eigenvalues --    0.07444   0.08458   0.09011   0.09412   0.10241

 Mulliken charges:
               1
     1  C    0.492616
     2  C    0.857925
     3  C   -0.300858
     4  C    0.405987
     5  C    0.757771
     6  C    1.455804
     7  C    0.732810
     8  C    0.561164
     9  C   -0.014659
    10  C    0.410400
    11  H   -0.090810
    12  H    0.205590
    13  H   -0.059929
    14  H   -0.392418
    15  H   -0.348720
    16  H    0.063974
    17  H   -0.143849
    18  H    0.123251
    19  H   -0.030293
    20  H   -0.015614
    21  H   -0.080436
    22  H   -0.255410
    23  H    0.028569
    24  H   -0.002224
    25  H    0.139021
    26  N   -0.383421
    27  N   -0.251947
    28  N   -0.303173
    29  N   -0.558045
    30  N   -0.644726
    31  O   -0.493890
    32  O   -0.689982
    33  O   -0.596828
    34  O   -0.577652
 Sum of Mulliken charges =  -0.00000

 Dipole moment (field-independent basis, Debye):
    X=              9.3190    Y=              3.1388    Z=             -1.2014  Tot=              9.9066

 Test job not archived.
 1\1\GINC-SE038\SP\RHF\Aug-CC-pVDZ\C10H15N5O4\OHZDE\08-Apr-2025\0\\#t h
 f aug-cc-pvdz iop(5/13=1,5/36=2,99/5=2) pseudo=read geom=check guess=(
 read,tcheck) scf=(maxcycle=1)\\title\\0,1\C,0,-1.95766,0.227492,0.8891
 57\C,0,1.94798,2.79153,-0.0462827\C,0,2.07201,0.874543,-0.881287\C,0,1
 .62055,-0.486775,-1.36366\C,0,2.37068,-1.86115,0.603131\C,0,3.321,1.26
 966,-0.678036\C,0,-4.27788,0.139813,-0.147486\C,0,-3.00689,0.994338,0.
 0562351\C,0,-1.1284,-0.723245,0.0456903\C,0,1.18724,-1.51136,-0.29203\
 H,0,2.43158,-0.920809,-1.95559\H,0,3.91581,-2.87604,0.676557\H,0,3.988

 Normal termination of Gaussian 16 at Tue Apr  8 22:02:24 2025.
