 Gaussian 16, Revision C.01,

 ----------------------------------------------------------------------
 #t hf aug-cc-pvdz symm=none int=(grid=ultrafine) guess=(read,tcheck) s
 table=(opt,rrhf)
 ----------------------------------------------------------------------
 -----
 title
 -----
 Symbolic Z-matrix:
 Charge =  0 Multiplicity = 1

 SCF Done:  E(RHF) =  -281.804245036     A.U. after   14 cycles
 Normal termination of Gaussian 16 at Tue Apr  8 21:11:19 2025.
 Gaussian 16:  ES64L-G16RevC.01  3-Jul-2019

 ----------------------------------------------------------------------
 #t hf aug-cc-pvdz iop(5/13=1,5/36=2,99/5=2) pseudo=read geom=check gue
 ss=(read,tcheck) scf=(maxcycle=1)
 ----------------------------------------------------------------------
 -----
 title
 -----
 Structure from the checkpoint file:  "ANI1ccx_1889_conf3_mol1.chk"
 Charge =  0 Multiplicity = 1

                         Standard orientation:
 ---------------------------------------------------------------------
 Center     Atomic      Atomic             Coordinates (Angstroms)
 Number     Number       Type             X           Y           Z
 ---------------------------------------------------------------------
      1          1           0        0.404211   -0.904473   -0.331199
      2          1           0        1.515668    0.511168    1.225200
      3          1           0        2.360408    0.901388   -0.171299
      4          1           0       -1.943301   -0.535886    0.926471
      5          1           0       -0.645212    1.218560    0.000034
      6          7           0        1.411478    0.618442    0.172343
      7          8           0        1.378929   -0.726441   -0.241712
      8          8           0       -1.370691   -0.690522    0.154813
      9          8           0       -1.454752    0.726982   -0.270053
 ---------------------------------------------------------------------

 SCF Done:  E(RHF) =  -281.894230994     A.U. after    2 cycles

 The electronic state is 1-A.
 Alpha  occ. eigenvalues --  -20.66470 -20.64199 -20.59045 -15.68753  -1.42271
 Alpha  occ. eigenvalues --   -1.35448  -1.20021  -1.04132  -0.75396  -0.73888
 Alpha  occ. eigenvalues --   -0.69347  -0.65003  -0.63057  -0.62255  -0.54584
 Alpha  occ. eigenvalues --   -0.52607  -0.49369  -0.42425
 Alpha virt. eigenvalues --    0.03235   0.04326   0.05733   0.05870   0.07855
 Alpha virt. eigenvalues --    0.13478   0.15226   0.17329   0.17385   0.19013
 Alpha virt. eigenvalues --    0.20039   0.21308   0.21634   0.22713   0.23846

 Mulliken charges:
               1
     1  H    0.259191
     2  H    0.172085
     3  H    0.154042
     4  H    0.281763
     5  H    0.251322
     6  N   -0.100100
     7  O   -0.472834
     8  O   -0.316245
     9  O   -0.229224
 Sum of Mulliken charges =  -0.00000

 Dipole moment (field-independent basis, Debye):
    X=              0.2549    Y=              1.3550    Z=              2.8604  Tot=              3.1753

 Test job not archived.
 1\1\GINC-SE029\SP\RHF\Aug-CC-pVDZ\H5N1O3\OHZDE\08-Apr-2025\0\\#t hf au
 g-cc-pvdz iop(5/13=1,5/36=2,99/5=2) pseudo=read geom=check guess=(read
 ,tcheck) scf=(maxcycle=1)\\title\\0,1\H,0,0.404212,-0.904473,-0.331199
 \H,0,1.51567,0.511167,1.2252\H,0,2.36041,0.901387,-0.171299\H,0,-1.943
 3,-0.535885,0.926471\H,0,-0.64521,1.21856,0.00003425\N,0,1.41148,0.618
 441,0.172343\O,0,1.37893,-0.726442,-0.241712\O,0,-1.37069,-0.690521,0.
 154813\O,0,-1.45475,0.726983,-0.270053\\Version=ES64L-G16RevC.01\State
 =1-A\HF=-281.894231\RMSD=2.080e-03\Dipole=0.100269,0.5330816,1.1253621

 Normal termination of Gaussian 16 at Tue Apr  8 21:11:22 2025.
