 Gaussian 16, Revision C.01,

 ----------------------------------------------------------------------
 #t hf aug-cc-pvdz symm=none int=(grid=ultrafine) guess=(read,tcheck) s
 table=(opt,rrhf)
 ----------------------------------------------------------------------
 -----
 title
 -----
 Symbolic Z-matrix:
 Charge =  0 Multiplicity = 1

 SCF Done:  E(RHF) =  -356.582497929     A.U. after   13 cycles
 Normal termination of Gaussian 16 at Tue Apr  8 21:11:21 2025.
 Gaussian 16:  ES64L-G16RevC.01  3-Jul-2019

 ----------------------------------------------------------------------
 #t hf aug-cc-pvdz iop(5/13=1,5/36=2,99/5=2) pseudo=read geom=check gue
 ss=(read,tcheck) scf=(maxcycle=1)
 ----------------------------------------------------------------------
 -----
 title
 -----
 Structure from the checkpoint file:  "ANI1ccx_1890_conf6_mol1.chk"
 Charge =  0 Multiplicity = 1

                         Standard orientation:
 ---------------------------------------------------------------------
 Center     Atomic      Atomic             Coordinates (Angstroms)
 Number     Number       Type             X           Y           Z
 ---------------------------------------------------------------------
      1          1           0        2.954040   -0.636123   -0.359559
      2          1           0        0.956709    1.312011    0.954423
      3          1           0       -0.993188    0.042532    0.201770
      4          1           0       -3.070961    0.579547    0.775436
      5          1           0       -2.692261    0.740787   -0.810195
      6          7           0       -2.877121    0.054850   -0.087821
      7          8           0        2.175070   -0.829599    0.175369
      8          8           0        1.177360   -0.065807   -0.327561
      9          8           0        1.174899    1.256691    0.025855
     10          8           0       -1.654140   -0.664123    0.107946
 ---------------------------------------------------------------------

 SCF Done:  E(RHF) =  -356.699435706     A.U. after    2 cycles

 The electronic state is 1-A.
 Alpha  occ. eigenvalues --  -20.71995 -20.67439 -20.67127 -20.59735 -15.66696
 Alpha  occ. eigenvalues --   -1.55040  -1.37738  -1.34678  -1.13889  -1.04407
 Alpha  occ. eigenvalues --   -0.84906  -0.75086  -0.73988  -0.70832  -0.69650
 Alpha  occ. eigenvalues --   -0.68431  -0.58167  -0.56954  -0.54094  -0.51905
 Alpha  occ. eigenvalues --   -0.49299  -0.42035
 Alpha virt. eigenvalues --    0.02727   0.04177   0.05240   0.05957   0.08418
 Alpha virt. eigenvalues --    0.13034   0.13649   0.15578   0.17217   0.17812
 Alpha virt. eigenvalues --    0.18952   0.19663   0.20714   0.21671   0.22346

 Mulliken charges:
               1
     1  H    0.228569
     2  H    0.202209
     3  H    0.173770
     4  H    0.087670
     5  H    0.065738
     6  N    0.061696
     7  O   -0.204247
     8  O   -0.067577
     9  O   -0.181812
    10  O   -0.366015
 Sum of Mulliken charges =  -0.00000

 Dipole moment (field-independent basis, Debye):
    X=              2.5260    Y=              3.5684    Z=              1.1522  Tot=              4.5212

 Test job not archived.
 1\1\GINC-SE398\SP\RHF\Aug-CC-pVDZ\H5N1O4\OHZDE\08-Apr-2025\0\\#t hf au
 g-cc-pvdz iop(5/13=1,5/36=2,99/5=2) pseudo=read geom=check guess=(read
 ,tcheck) scf=(maxcycle=1)\\title\\0,1\H,0,2.95404,-0.636125,-0.359559\
 H,0,0.95671,1.31201,0.954423\H,0,-0.993187,0.0425319,0.20177\H,0,-3.07
 096,0.579548,0.775436\H,0,-2.69226,0.740788,-0.810195\N,0,-2.87712,0.0
 548513,-0.0878211\O,0,2.17507,-0.829601,0.175369\O,0,1.17736,-0.065807
 9,-0.327561\O,0,1.1749,1.25669,0.0258555\O,0,-1.65414,-0.664123,0.1079
 46\\Version=ES64L-G16RevC.01\State=1-A\HF=-356.6994357\RMSD=2.214e-03\

 Normal termination of Gaussian 16 at Tue Apr  8 21:11:23 2025.
