 Gaussian 16, Revision C.01,

 ----------------------------------------------------------------------
 #t hf aug-cc-pvdz symm=none int=(grid=ultrafine) guess=(read,tcheck) s
 table=(opt,rrhf)
 ----------------------------------------------------------------------
 -----
 title
 -----
 Symbolic Z-matrix:
 Charge =  0 Multiplicity = 1

 SCF Done:  E(RHF) =  -480.055060370     A.U. after   16 cycles
 Normal termination of Gaussian 16 at Tue Apr  8 21:38:47 2025.
 Gaussian 16:  ES64L-G16RevC.01  3-Jul-2019

 ----------------------------------------------------------------------
 #t hf aug-cc-pvdz iop(5/13=1,5/36=2,99/5=2) pseudo=read geom=check gue
 ss=(read,tcheck) scf=(maxcycle=1)
 ----------------------------------------------------------------------
 -----
 title
 -----
 Structure from the checkpoint file:  "ANI1ccx_456_conf2_mol1.chk"
 Charge =  0 Multiplicity = 1

                         Standard orientation:
 ---------------------------------------------------------------------
 Center     Atomic      Atomic             Coordinates (Angstroms)
 Number     Number       Type             X           Y           Z
 ---------------------------------------------------------------------
      1          6           0       -0.043549    0.127747   -0.094268
      2          7           0        1.402961   -0.007477   -0.005537
      3          7           0       -0.836459    1.167290    0.080981
      4          7           0       -2.065438    0.583172    0.080927
      5          7           0       -2.020479   -0.657221   -0.024349
      6          8           0        1.814411   -1.122712    0.135315
      7          8           0        1.963962    1.082808   -0.075786
      8          8           0       -0.666223   -1.005950   -0.104347
 ---------------------------------------------------------------------

 SCF Done:  E(RHF) =  -480.195667622     A.U. after    2 cycles

 The electronic state is 1-A.
 Alpha  occ. eigenvalues --  -20.75901 -20.69288 -20.67904 -15.99249 -15.82274
 Alpha  occ. eigenvalues --  -15.79110 -15.75100 -11.48121  -1.63444  -1.59637
 Alpha  occ. eigenvalues --   -1.44853  -1.38253  -1.26208  -1.08802  -0.96872
 Alpha  occ. eigenvalues --   -0.90996  -0.86469  -0.81987  -0.79995  -0.76337
 Alpha  occ. eigenvalues --   -0.75474  -0.64688  -0.59726  -0.57829  -0.57398
 Alpha  occ. eigenvalues --   -0.54437  -0.53712  -0.53092  -0.48746
 Alpha virt. eigenvalues --   -0.02005   0.05977   0.06658   0.07611   0.08584
 Alpha virt. eigenvalues --    0.09112   0.11678   0.12485   0.14354   0.15726
 Alpha virt. eigenvalues --    0.16810   0.16847   0.18223   0.19214   0.20634

 Mulliken charges:
               1
     1  C    1.151347
     2  N    0.378082
     3  N   -0.287782
     4  N   -0.004106
     5  N    0.143534
     6  O   -0.463952
     7  O   -0.507743
     8  O   -0.409380
 Sum of Mulliken charges =   0.00000

 Dipole moment (field-independent basis, Debye):
    X=             -0.7486    Y=             -0.5783    Z=             -0.3179  Tot=              0.9979

 Test job not archived.
 1\1\GINC-SE457\SP\RHF\Aug-CC-pVDZ\C1N4O3\OHZDE\08-Apr-2025\0\\#t hf au
 g-cc-pvdz iop(5/13=1,5/36=2,99/5=2) pseudo=read geom=check guess=(read
 ,tcheck) scf=(maxcycle=1)\\title\\0,1\C,0,-0.0435503,0.127748,-0.09426
 81\N,0,1.40296,-0.00747506,-0.00553697\N,0,-0.836461,1.16729,0.0809807
 \N,0,-2.06544,0.583171,0.0809271\N,0,-2.02048,-0.657222,-0.0243495\O,0
 ,1.81441,-1.12271,0.135315\O,0,1.96396,1.08281,-0.0757856\O,0,-0.66622
 4,-1.00595,-0.104347\\Version=ES64L-G16RevC.01\State=1-A\HF=-480.19566
 76\RMSD=3.545e-03\Dipole=-0.2945176,-0.2275359,-0.1250577\Quadrupole=-

 Normal termination of Gaussian 16 at Tue Apr  8 21:38:50 2025.
