 Gaussian 16, Revision C.01,

 ----------------------------------------------------------------------
 #t hf aug-cc-pvdz symm=none int=(grid=ultrafine) guess=(read,tcheck) s
 table=(opt,rrhf)
 ----------------------------------------------------------------------
 -----
 title
 -----
 Symbolic Z-matrix:
 Charge =  0 Multiplicity = 1

 SCF Done:  E(RHF) =  -923.173187900     A.U. after   15 cycles
 Normal termination of Gaussian 16 at Tue Apr  8 20:07:10 2025.
 Gaussian 16:  ES64L-G16RevC.01  3-Jul-2019

 ----------------------------------------------------------------------
 #t hf aug-cc-pvdz iop(5/13=1,5/36=2,99/5=2) pseudo=read geom=check gue
 ss=(read,tcheck) scf=(maxcycle=1)
 ----------------------------------------------------------------------
 -----
 title
 -----
 Structure from the checkpoint file:  "ANI1ccx_1584_conf25_mol1.chk"
 Charge =  0 Multiplicity = 1

                         Standard orientation:
 ---------------------------------------------------------------------
 Center     Atomic      Atomic             Coordinates (Angstroms)
 Number     Number       Type             X           Y           Z
 ---------------------------------------------------------------------
      1          6           0       -1.498680   -1.622729   -0.400100
      2          6           0       -0.168399   -1.033510    0.112896
      3          6           0       -2.816420   -1.034158    0.451518
      4          6           0       -2.871899    0.448818    0.197695
      5          6           0        1.948721    0.097358   -0.662882
      6          6           0        2.983641   -0.771660   -0.093664
      7          6           0        1.818382    1.415359    0.162571
      8          6           0        0.667620    2.237270   -0.157478
      9          1           0        1.776300   -0.879171    1.419800
     10          1           0        1.249623    3.623349    1.114220
     11          1           0       -0.356630    3.793160    0.672486
     12          1           0        2.782382    1.998048    0.025269
     13          1           0        1.761322    1.055669    1.203860
     14          1           0        2.269511    0.341100   -1.685870
     15          1           0        0.221949   -0.306737   -1.725030
     16          1           0       -2.750928    1.580302   -1.169440
     17          1           0       -3.790460   -1.405838    0.060408
     18          1           0       -2.604690   -1.351168    1.512400
     19          1           0       -1.654120   -1.295119   -1.362960
     20          1           0       -0.792153   -3.668139   -0.249678
     21          1           0       -2.213361   -3.400769    0.502540
     22          7           0       -1.699541   -3.146559   -0.309605
     23          7           0        0.642699   -0.563600   -0.895621
     24          7           0        0.347640    3.089290    0.891175
     25          8           0        0.030644   -1.026600    1.344620
     26          8           0       -2.698398    1.294292    0.957338
     27          8           0       -2.998119    0.643096   -1.137930
     28          8           0        4.051420   -1.074682   -0.629973
     29          8           0       -0.019944    2.159610   -1.166930
     30          8           0        2.720380   -1.265602    1.160000
 ---------------------------------------------------------------------

 SCF Done:  E(RHF) =  -923.452564432     A.U. after    2 cycles

 The electronic state is 1-A.
 Alpha  occ. eigenvalues --  -20.62874 -20.61575 -20.58977 -20.58496 -20.57967
 Alpha  occ. eigenvalues --  -20.56965 -15.69675 -15.67421 -15.64052 -11.41430
 Alpha  occ. eigenvalues --  -11.40920 -11.40320 -11.40085 -11.33769 -11.31775
 Alpha  occ. eigenvalues --  -11.29759 -11.28319  -1.45958  -1.40434  -1.38889
 Alpha  occ. eigenvalues --   -1.37905  -1.35912  -1.30731  -1.25237  -1.20326
 Alpha  occ. eigenvalues --   -1.16036  -1.09672  -1.03670  -0.99207  -0.93445
 Alpha  occ. eigenvalues --   -0.85448  -0.81820  -0.81577  -0.79768  -0.76409
 Alpha  occ. eigenvalues --   -0.74950  -0.73878  -0.72415  -0.71448  -0.71176
 Alpha  occ. eigenvalues --   -0.68889  -0.68461  -0.66870  -0.66308  -0.65725
 Alpha  occ. eigenvalues --   -0.65102  -0.63653  -0.61446  -0.60629  -0.60182
 Alpha  occ. eigenvalues --   -0.59410  -0.58963  -0.56898  -0.55685  -0.55152
 Alpha  occ. eigenvalues --   -0.53000  -0.51560  -0.49732  -0.48760  -0.48609
 Alpha  occ. eigenvalues --   -0.48338  -0.46643  -0.46112  -0.43758  -0.41358
 Alpha virt. eigenvalues --    0.01964   0.03342   0.03578   0.03920   0.04923
 Alpha virt. eigenvalues --    0.05501   0.05805   0.06300   0.07115   0.07854
 Alpha virt. eigenvalues --    0.08276   0.08787   0.09470   0.09597   0.10190

 Mulliken charges:
               1
     1  C    1.079502
     2  C    0.241380
     3  C    0.341957
     4  C    0.571068
     5  C    0.033786
     6  C    0.757906
     7  C    0.094565
     8  C    0.771789
     9  H    0.425708
    10  H    0.172659
    11  H    0.011764
    12  H    0.073944
    13  H   -0.039049
    14  H   -0.231366
    15  H   -0.089216
    16  H    0.227458
    17  H    0.052557
    18  H   -0.034972
    19  H   -0.449030
    20  H    0.035999
    21  H    0.045846
    22  N   -0.401236
    23  N    0.032025
    24  N   -0.353585
    25  O   -0.664196
    26  O   -0.393814
    27  O   -0.561959
    28  O   -0.527037
    29  O   -0.597659
    30  O   -0.626796
 Sum of Mulliken charges =  -0.00000

 Dipole moment (field-independent basis, Debye):
    X=             -2.5159    Y=              3.8650    Z=             -0.7985  Tot=              4.6803

 Test job not archived.
 1\1\GINC-SE048\SP\RHF\Aug-CC-pVDZ\C8H13N3O6\OHZDE\08-Apr-2025\0\\#t hf
  aug-cc-pvdz iop(5/13=1,5/36=2,99/5=2) pseudo=read geom=check guess=(r
 ead,tcheck) scf=(maxcycle=1)\\title\\0,1\C,0,-1.49868,-1.62273,-0.4001
 \C,0,-0.168399,-1.03351,0.112896\C,0,-2.81642,-1.03416,0.451518\C,0,-2
 .8719,0.448816,0.197695\C,0,1.94872,0.0973594,-0.662882\C,0,2.98364,-0
 .771658,-0.0936641\C,0,1.81838,1.41536,0.162571\C,0,0.667618,2.23727,-
 0.157478\H,0,1.7763,-0.87917,1.4198\H,0,1.24962,3.62335,1.11422\H,0,-0
 .356633,3.79316,0.672486\H,0,2.78238,1.99805,0.0252691\H,0,1.76132,1.0

 Normal termination of Gaussian 16 at Tue Apr  8 20:07:53 2025.
