 Gaussian 16, Revision C.01,

 ----------------------------------------------------------------------
 #t hf aug-cc-pvdz symm=none int=(grid=ultrafine) guess=(read,tcheck) s
 table=(opt,rrhf)
 ----------------------------------------------------------------------
 -----
 title
 -----
 Symbolic Z-matrix:
 Charge =  0 Multiplicity = 1

 SCF Done:  E(RHF) =  -390.618759640     A.U. after   13 cycles
 Normal termination of Gaussian 16 at Tue Apr  8 21:42:49 2025.
 Gaussian 16:  ES64L-G16RevC.01  3-Jul-2019

 ----------------------------------------------------------------------
 #t hf aug-cc-pvdz iop(5/13=1,5/36=2,99/5=2) pseudo=read geom=check gue
 ss=(read,tcheck) scf=(maxcycle=1)
 ----------------------------------------------------------------------
 -----
 title
 -----
 Structure from the checkpoint file:  "ANI1ccx_502_conf4_mol1.chk"
 Charge =  0 Multiplicity = 1

                         Standard orientation:
 ---------------------------------------------------------------------
 Center     Atomic      Atomic             Coordinates (Angstroms)
 Number     Number       Type             X           Y           Z
 ---------------------------------------------------------------------
      1          6           0        1.184260   -0.143437    0.024947
      2          6           0       -1.147570   -0.177682   -0.000227
      3          1           0        1.034770    1.839360    0.569728
      4          1           0       -1.198930    1.670450   -0.454415
      5          1           0        0.120351   -1.963650    0.138657
      6          7           0        0.678443    1.175040   -0.138393
      7          7           0       -0.724288    1.103000    0.148671
      8          7           0       -0.000180   -0.907070    0.120109
      9          8           0        2.284390   -0.569799   -0.079625
     10          8           0       -2.266160   -0.582230   -0.084750
 ---------------------------------------------------------------------

 SCF Done:  E(RHF) =  -390.737655184     A.U. after    2 cycles

 The electronic state is 1-A.
 Alpha  occ. eigenvalues --  -20.58855 -20.56837 -15.72219 -15.70542 -15.70062
 Alpha  occ. eigenvalues --  -11.43989 -11.42495  -1.44191  -1.40467  -1.34151
 Alpha  occ. eigenvalues --   -1.21378  -1.12334  -0.89424  -0.87607  -0.75820
 Alpha  occ. eigenvalues --   -0.75254  -0.69767  -0.68462  -0.67069  -0.65558
 Alpha  occ. eigenvalues --   -0.60702  -0.55977  -0.52092  -0.47512  -0.46055
 Alpha  occ. eigenvalues --   -0.42513
 Alpha virt. eigenvalues --    0.02754   0.03838   0.04146   0.06944   0.09929
 Alpha virt. eigenvalues --    0.10430   0.11599   0.12198   0.12753   0.14203
 Alpha virt. eigenvalues --    0.14442   0.15079   0.16197   0.16880   0.17068

 Mulliken charges:
               1
     1  C    0.794265
     2  C    0.644481
     3  H    0.176576
     4  H    0.031511
     5  H    0.034461
     6  N   -0.369260
     7  N   -0.083641
     8  N   -0.448987
     9  O   -0.370349
    10  O   -0.409057
 Sum of Mulliken charges =  -0.00000

 Dipole moment (field-independent basis, Debye):
    X=              0.4392    Y=              2.0230    Z=              0.5869  Tot=              2.1517

 Test job not archived.
 1\1\GINC-SE404\SP\RHF\Aug-CC-pVDZ\C2H3N3O2\OHZDE\08-Apr-2025\0\\#t hf
 aug-cc-pvdz iop(5/13=1,5/36=2,99/5=2) pseudo=read geom=check guess=(re
 ad,tcheck) scf=(maxcycle=1)\\title\\0,1\C,0,1.18426,-0.143437,0.024946
 6\C,0,-1.14757,-0.177682,-0.00022732\H,0,1.03477,1.83936,0.569728\H,0,
 -1.19893,1.67045,-0.454415\H,0,0.12035,-1.96365,0.138657\N,0,0.678443,
 1.17504,-0.138393\N,0,-0.724288,1.103,0.148671\N,0,-0.00018002,-0.9070
 7,0.120109\O,0,2.28439,-0.5698,-0.0796245\O,0,-2.26616,-0.582229,-0.08
 47495\\Version=ES64L-G16RevC.01\State=1-A\HF=-390.7376552\RMSD=2.656e-

 Normal termination of Gaussian 16 at Tue Apr  8 21:42:52 2025.
