 Gaussian 16, Revision C.01,

 ----------------------------------------------------------------------
 #t hf aug-cc-pvdz symm=none int=(grid=ultrafine) guess=(read,tcheck) s
 table=(opt,rrhf)
 ----------------------------------------------------------------------
 -----
 title
 -----
 Symbolic Z-matrix:
 Charge =  0 Multiplicity = 1

 SCF Done:  E(RHF) =  -810.391343642     A.U. after   14 cycles
 Normal termination of Gaussian 16 at Tue Apr  8 19:33:42 2025.
 Gaussian 16:  ES64L-G16RevC.01  3-Jul-2019

 ----------------------------------------------------------------------
 #t hf aug-cc-pvdz iop(5/13=1,5/36=2,99/5=2) pseudo=read geom=check gue
 ss=(read,tcheck) scf=(maxcycle=1)
 ----------------------------------------------------------------------
 -----
 title
 -----
 Structure from the checkpoint file:  "ANI1ccx_1427_conf36_mol1.chk"
 Charge =  0 Multiplicity = 1

                         Standard orientation:
 ---------------------------------------------------------------------
 Center     Atomic      Atomic             Coordinates (Angstroms)
 Number     Number       Type             X           Y           Z
 ---------------------------------------------------------------------
      1          6           0        2.198460   -0.599445    0.697639
      2          6           0        1.222760    0.260109   -0.021019
      3          6           0        3.398590   -1.105790   -0.288274
      4          6           0       -1.039080    0.708097   -0.515532
      5          6           0       -1.084170    2.014390    0.295048
      6          6           0       -2.519340    0.132061   -0.380631
      7          6           0       -2.556830   -1.407440   -0.165858
      8          1           0        0.128057    2.874480   -0.773065
      9          1           0       -3.649860   -1.812990   -1.847000
     10          1           0       -3.347290   -3.056540   -0.514230
     11          1           0       -3.078400    0.729294    0.395559
     12          1           0       -3.151540    0.201523   -1.296310
     13          1           0       -0.838252    1.148500   -1.554080
     14          1           0       -0.269421   -0.911943    0.680617
     15          1           0        3.634690    0.760718   -1.094910
     16          1           0        3.253350   -1.904900   -0.938559
     17          1           0        4.052890   -1.544040    0.459431
     18          1           0        2.478860    0.079812    1.508230
     19          1           0        2.025070   -2.591040    0.803363
     20          1           0        1.476090   -1.733230    2.180940
     21          7           0        1.555930   -1.808780    1.173920
     22          7           0       -0.053450   -0.156132    0.093840
     23          7           0       -3.424080   -2.089770   -0.911975
     24          8           0        1.580050    1.217240   -0.642191
     25          8           0        4.130360   -0.030957   -0.872066
     26          8           0       -1.850580    2.164460    1.248990
     27          8           0       -1.789620   -1.997930    0.555820
     28          8           0       -0.443382    3.163590   -0.069145
 ---------------------------------------------------------------------

 SCF Done:  E(RHF) =  -810.639572084     A.U. after    2 cycles

 The electronic state is 1-A.
 Alpha  occ. eigenvalues --  -20.61902 -20.56136 -20.55764 -20.55667 -20.55194
 Alpha  occ. eigenvalues --  -15.66816 -15.65438 -15.62555 -11.39748 -11.38423
 Alpha  occ. eigenvalues --  -11.36519 -11.33921 -11.30673 -11.29658 -11.28325
 Alpha  occ. eigenvalues --   -1.41483  -1.39141  -1.38664  -1.31001  -1.30909
 Alpha  occ. eigenvalues --   -1.23598  -1.20572  -1.18534  -1.05639  -0.98494
 Alpha  occ. eigenvalues --   -0.95162  -0.91011  -0.83163  -0.81654  -0.79966
 Alpha  occ. eigenvalues --   -0.75782  -0.74388  -0.73396  -0.71159  -0.70798
 Alpha  occ. eigenvalues --   -0.68641  -0.66816  -0.66230  -0.64755  -0.63500
 Alpha  occ. eigenvalues --   -0.63306  -0.63115  -0.61813  -0.60576  -0.58862
 Alpha  occ. eigenvalues --   -0.58690  -0.56591  -0.55312  -0.52722  -0.49266
 Alpha  occ. eigenvalues --   -0.48493  -0.47974  -0.47392  -0.45892  -0.45747
 Alpha  occ. eigenvalues --   -0.44244  -0.41277  -0.39540
 Alpha virt. eigenvalues --    0.01879   0.03017   0.03559   0.04042   0.05183
 Alpha virt. eigenvalues --    0.05296   0.06013   0.06464   0.07233   0.07749
 Alpha virt. eigenvalues --    0.08284   0.08541   0.09658   0.10527   0.11105

 Mulliken charges:
               1
     1  C   -0.057791
     2  C    0.045727
     3  C    1.305571
     4  C    0.231055
     5  C    0.795528
     6  C    0.398394
     7  C    0.593310
     8  H    0.194636
     9  H    0.002436
    10  H    0.147504
    11  H    0.078411
    12  H   -0.082152
    13  H   -0.010696
    14  H    0.041406
    15  H    0.184295
    16  H   -0.228550
    17  H   -0.096184
    18  H    0.084758
    19  H    0.058553
    20  H    0.122119
    21  N   -0.393376
    22  N   -0.297879
    23  N   -0.259923
    24  O   -0.614964
    25  O   -0.606733
    26  O   -0.578561
    27  O   -0.546041
    28  O   -0.510853
 Sum of Mulliken charges =  -0.00000

 Dipole moment (field-independent basis, Debye):
    X=             -2.3060    Y=             -5.0727    Z=             -3.2076  Tot=              6.4295

 Test job not archived.
 1\1\GINC-SE362\SP\RHF\Aug-CC-pVDZ\C7H13N3O5\OHZDE\08-Apr-2025\0\\#t hf
  aug-cc-pvdz iop(5/13=1,5/36=2,99/5=2) pseudo=read geom=check guess=(r
 ead,tcheck) scf=(maxcycle=1)\\title\\0,1\C,0,2.19846,-0.599445,0.69763
 9\C,0,1.22276,0.260109,-0.021019\C,0,3.39859,-1.10579,-0.288274\C,0,-1
 .03908,0.708097,-0.515532\C,0,-1.08417,2.01439,0.295048\C,0,-2.51934,0
 .132061,-0.380631\C,0,-2.55683,-1.40744,-0.165858\H,0,0.128057,2.87448
 ,-0.773065\H,0,-3.64986,-1.81299,-1.847\H,0,-3.34729,-3.05654,-0.51423
 \H,0,-3.0784,0.729294,0.395559\H,0,-3.15154,0.201523,-1.29631\H,0,-0.8

 Normal termination of Gaussian 16 at Tue Apr  8 19:34:11 2025.
