 Gaussian 16, Revision C.01,

 ----------------------------------------------------------------------
 #t hf aug-cc-pvdz symm=none int=(grid=ultrafine) guess=(read,tcheck) s
 table=(opt,rrhf)
 ----------------------------------------------------------------------
 -----
 title
 -----
 Symbolic Z-matrix:
 Charge =  0 Multiplicity = 1

 SCF Done:  E(RHF) =  -456.243221126     A.U. after   11 cycles
 Normal termination of Gaussian 16 at Tue Apr  8 21:07:38 2025.
 Gaussian 16:  ES64L-G16RevC.01  3-Jul-2019

 ----------------------------------------------------------------------
 #t hf aug-cc-pvdz iop(5/13=1,5/36=2,99/5=2) pseudo=read geom=check gue
 ss=(read,tcheck) scf=(maxcycle=1)
 ----------------------------------------------------------------------
 -----
 title
 -----
 Structure from the checkpoint file:  "ANI1ccx_1844_conf502_mol1.chk"
 Charge =  0 Multiplicity = 1

                         Standard orientation:
 ---------------------------------------------------------------------
 Center     Atomic      Atomic             Coordinates (Angstroms)
 Number     Number       Type             X           Y           Z
 ---------------------------------------------------------------------
      1          1           0       -0.564665    0.494838   -0.256312
      2          1           0        1.657991    1.286710    0.158300
      3          1           0        1.858811    2.689370    0.789276
      4          1           0       -1.129010   -1.199529   -0.548556
      5          1           0        1.542059   -2.961780   -0.159845
      6          1           0        0.606906   -1.880940    0.583056
      7          1           0       -1.940460   -0.777135    0.652998
      8          1           0       -4.456320    0.034131    0.195897
      9          1           0        3.986920    0.018209   -0.745012
     10          1           0        2.950090   -0.772862    0.079728
     11          1           0       -0.453040    2.029741   -0.268439
     12          1           0       -3.099850    0.561309   -0.240320
     13          8           0       -1.094040   -1.153789    0.389322
     14          8           0       -1.134669    1.342861   -0.385001
     15          8           0        3.150780    0.024480   -0.263737
     16          8           0       -3.637800   -0.205890   -0.151626
     17          8           0        1.422899   -1.996890   -0.009534
     18          8           0        1.172901    2.048970    0.390479
 ---------------------------------------------------------------------

 SCF Done:  E(RHF) =  -456.394540647     A.U. after    2 cycles

 The electronic state is 1-A.
 Alpha  occ. eigenvalues --  -20.57900 -20.57622 -20.57005 -20.56996 -20.56426
 Alpha  occ. eigenvalues --  -20.53525  -1.33645  -1.32642  -1.32206  -1.30478
 Alpha  occ. eigenvalues --   -1.29157  -1.25323  -0.77001  -0.76795  -0.74822
 Alpha  occ. eigenvalues --   -0.72433  -0.71817  -0.68772  -0.63099  -0.62357
 Alpha  occ. eigenvalues --   -0.60120  -0.58879  -0.58086  -0.54090  -0.53157
 Alpha  occ. eigenvalues --   -0.52794  -0.52408  -0.52286  -0.52143  -0.48123
 Alpha virt. eigenvalues --    0.03050   0.04395   0.04521   0.05540   0.06890
 Alpha virt. eigenvalues --    0.07646   0.07899   0.08632   0.09946   0.11010
 Alpha virt. eigenvalues --    0.11118   0.12965   0.18152   0.19201   0.19720

 Mulliken charges:
               1
     1  H    0.219518
     2  H    0.166725
     3  H    0.230695
     4  H    0.193625
     5  H    0.193954
     6  H    0.261685
     7  H    0.245917
     8  H    0.141128
     9  H    0.178248
    10  H    0.098337
    11  H    0.283520
    12  H    0.146792
    13  O   -0.483997
    14  O   -0.485383
    15  O   -0.281216
    16  O   -0.281340
    17  O   -0.449850
    18  O   -0.378359
 Sum of Mulliken charges =  -0.00000

 Dipole moment (field-independent basis, Debye):
    X=              2.0528    Y=             -1.2137    Z=              0.7191  Tot=              2.4908

 Test job not archived.
 1\1\GINC-SE362\SP\RHF\Aug-CC-pVDZ\H12O6\OHZDE\08-Apr-2025\0\\#t hf aug
 -cc-pvdz iop(5/13=1,5/36=2,99/5=2) pseudo=read geom=check guess=(read,
 tcheck) scf=(maxcycle=1)\\title\\0,1\H,0,-0.564665,0.494837,-0.256312\
 H,0,1.65799,1.28671,0.1583\H,0,1.85881,2.68937,0.789276\H,0,-1.12901,-
 1.19953,-0.548556\H,0,1.54206,-2.96178,-0.159845\H,0,0.606907,-1.88094
 ,0.583056\H,0,-1.94046,-0.777136,0.652998\H,0,-4.45632,0.0341283,0.195
 897\H,0,3.98692,0.0182104,-0.745012\H,0,2.95009,-0.772861,0.079728\H,0
 ,-0.453041,2.02974,-0.268439\H,0,-3.09985,0.561307,-0.24032\O,0,-1.094

 Normal termination of Gaussian 16 at Tue Apr  8 21:07:42 2025.
