 Gaussian 16, Revision C.01,

 ----------------------------------------------------------------------
 #t hf aug-cc-pvdz symm=none int=(grid=ultrafine) guess=(read,tcheck) s
 table=(opt,rrhf)
 ----------------------------------------------------------------------
 -----
 title
 -----
 Symbolic Z-matrix:
 Charge =  0 Multiplicity = 1

 SCF Done:  E(RHF) =  -810.470640798     A.U. after   14 cycles
 Normal termination of Gaussian 16 at Tue Apr  8 19:36:45 2025.
 Gaussian 16:  ES64L-G16RevC.01  3-Jul-2019

 ----------------------------------------------------------------------
 #t hf aug-cc-pvdz iop(5/13=1,5/36=2,99/5=2) pseudo=read geom=check gue
 ss=(read,tcheck) scf=(maxcycle=1)
 ----------------------------------------------------------------------
 -----
 title
 -----
 Structure from the checkpoint file:  "ANI1ccx_1427_conf14_mol2.chk"
 Charge =  0 Multiplicity = 1

                         Standard orientation:
 ---------------------------------------------------------------------
 Center     Atomic      Atomic             Coordinates (Angstroms)
 Number     Number       Type             X           Y           Z
 ---------------------------------------------------------------------
      1          6           0       -2.179810   -1.087541   -0.341920
      2          6           0       -1.295890    0.109729    0.002352
      3          6           0       -3.591110   -0.802808    0.140425
      4          6           0        1.107329    0.701008    0.172011
      5          6           0        1.152768    2.260231    0.014769
      6          6           0        2.439170    0.063463   -0.280519
      7          6           0        2.570760   -1.451769    0.036050
      8          1           0       -0.691636    2.420430    0.378057
      9          1           0        4.633040   -1.374538   -0.393863
     10          1           0        3.939721   -2.933788    0.000826
     11          1           0        2.532349    0.158373   -1.401530
     12          1           0        3.211619    0.697364    0.169182
     13          1           0        1.067969    0.647658    1.299880
     14          1           0        0.263424   -0.887648   -0.869428
     15          1           0       -3.782021    1.072018   -0.185929
     16          1           0       -3.559150   -0.610146    1.220120
     17          1           0       -4.205210   -1.667842   -0.032949
     18          1           0       -2.249060   -1.204621   -1.424160
     19          1           0       -1.609049   -2.125181    1.292990
     20          1           0       -0.780710   -2.584671   -0.138089
     21          7           0       -1.636829   -2.276491    0.280863
     22          7           0       -0.006093    0.019747   -0.458202
     23          7           0        3.865831   -1.919298    0.030348
     24          8           0       -1.657991    1.004049    0.750255
     25          8           0       -4.165761    0.280086   -0.540754
     26          8           0        2.239168    2.788311   -0.032929
     27          8           0        1.618301   -2.181589    0.152417
     28          8           0        0.022414    2.968020    0.002863
 ---------------------------------------------------------------------

 SCF Done:  E(RHF) =  -810.718606333     A.U. after    2 cycles

 The electronic state is 1-A.
 Alpha  occ. eigenvalues --  -20.61369 -20.58220 -20.58148 -20.57052 -20.56077
 Alpha  occ. eigenvalues --  -15.68167 -15.67636 -15.62726 -11.40942 -11.40488
 Alpha  occ. eigenvalues --  -11.39284 -11.33360 -11.29184 -11.29176 -11.28758
 Alpha  occ. eigenvalues --   -1.42134  -1.40045  -1.39490  -1.33261  -1.32870
 Alpha  occ. eigenvalues --   -1.23571  -1.20384  -1.18187  -1.06793  -0.99590
 Alpha  occ. eigenvalues --   -0.95058  -0.88667  -0.84177  -0.82364  -0.80817
 Alpha  occ. eigenvalues --   -0.75846  -0.74793  -0.73619  -0.72266  -0.71219
 Alpha  occ. eigenvalues --   -0.70576  -0.67880  -0.67435  -0.65793  -0.65009
 Alpha  occ. eigenvalues --   -0.64765  -0.63424  -0.61866  -0.60448  -0.58757
 Alpha  occ. eigenvalues --   -0.57918  -0.56712  -0.55612  -0.54221  -0.51783
 Alpha  occ. eigenvalues --   -0.50183  -0.49416  -0.48397  -0.47822  -0.46511
 Alpha  occ. eigenvalues --   -0.45543  -0.41743  -0.39842
 Alpha virt. eigenvalues --    0.01736   0.03229   0.03644   0.03983   0.04975
 Alpha virt. eigenvalues --    0.05512   0.05621   0.07227   0.07421   0.07863
 Alpha virt. eigenvalues --    0.07995   0.08464   0.09547   0.11172   0.11329

 Mulliken charges:
               1
     1  C    0.182852
     2  C    0.252647
     3  C    1.259432
     4  C   -0.197719
     5  C    0.809003
     6  C    0.518940
     7  C    0.700375
     8  H    0.230821
     9  H    0.032639
    10  H    0.027445
    11  H    0.076799
    12  H   -0.094380
    13  H    0.021286
    14  H    0.065236
    15  H    0.160560
    16  H   -0.107076
    17  H   -0.124630
    18  H   -0.191886
    19  H    0.065900
    20  H    0.016291
    21  N   -0.272962
    22  N   -0.509694
    23  N   -0.275766
    24  O   -0.688928
    25  O   -0.512589
    26  O   -0.488501
    27  O   -0.488768
    28  O   -0.467327
 Sum of Mulliken charges =  -0.00000

 Dipole moment (field-independent basis, Debye):
    X=              4.5517    Y=             -5.0241    Z=             -0.5094  Tot=              6.7984

 Test job not archived.
 1\1\GINC-SE403\SP\RHF\Aug-CC-pVDZ\C7H13N3O5\OHZDE\08-Apr-2025\0\\#t hf
  aug-cc-pvdz iop(5/13=1,5/36=2,99/5=2) pseudo=read geom=check guess=(r
 ead,tcheck) scf=(maxcycle=1)\\title\\0,1\C,0,-2.17981,-1.08754,-0.3419
 2\C,0,-1.29589,0.10973,0.0023521\C,0,-3.59111,-0.802806,0.140425\C,0,1
 .10733,0.701007,0.172011\C,0,1.15277,2.26023,0.0147692\C,0,2.43917,0.0
 634621,-0.280519\C,0,2.57076,-1.45177,0.0360495\H,0,-0.691634,2.42043,
 0.378057\H,0,4.63304,-1.37454,-0.393863\H,0,3.93972,-2.93379,0.0008257
 7\H,0,2.53235,0.158372,-1.40153\H,0,3.21162,0.697362,0.169182\H,0,1.06

 Normal termination of Gaussian 16 at Tue Apr  8 19:37:16 2025.
