 Gaussian 16, Revision C.01,

 ----------------------------------------------------------------------
 #t hf aug-cc-pvdz symm=none int=(grid=ultrafine) guess=(read,tcheck) s
 table=(opt,rrhf)
 ----------------------------------------------------------------------
 -----
 title
 -----
 Symbolic Z-matrix:
 Charge =  0 Multiplicity = 1

 SCF Done:  E(RHF) =  -258.516090560     A.U. after   93 cycles
 Normal termination of Gaussian 16 at Tue Apr  8 21:13:22 2025.
 Gaussian 16:  ES64L-G16RevC.01  3-Jul-2019

 ----------------------------------------------------------------------
 #t hf aug-cc-pvdz iop(5/13=1,5/36=2,99/5=2) pseudo=read geom=check gue
 ss=(read,tcheck) scf=(maxcycle=1)
 ----------------------------------------------------------------------
 -----
 title
 -----
 Structure from the checkpoint file:  "ANI1ccx_1907_conf5_mol1.chk"
 Charge =  0 Multiplicity = 1

                         Standard orientation:
 ---------------------------------------------------------------------
 Center     Atomic      Atomic             Coordinates (Angstroms)
 Number     Number       Type             X           Y           Z
 ---------------------------------------------------------------------
      1          7           0        1.883087   -0.514182    0.089649
      2          7           0        2.323447    0.484430   -0.077628
      3          8           0       -1.915573    0.609470    0.056251
      4          8           0       -1.765143   -0.583437   -0.066769
 ---------------------------------------------------------------------

 SCF Done:  E(RHF) =  -258.595380636     A.U. after    2 cycles

 The electronic state is 1-A.
 Alpha  occ. eigenvalues --  -20.75826 -20.75734 -15.75706 -15.75395  -1.60806
 Alpha  occ. eigenvalues --   -1.42120  -1.09710  -0.79650  -0.76592  -0.75457
 Alpha  occ. eigenvalues --   -0.67697  -0.62275  -0.60498  -0.60483  -0.49985
 Alpha virt. eigenvalues --   -0.00517   0.09436   0.12209   0.12955   0.13467
 Alpha virt. eigenvalues --    0.13927   0.14189   0.15189   0.18562   0.19525
 Alpha virt. eigenvalues --    0.20449   0.23726   0.24647   0.27047   0.27602

 Mulliken charges:
               1
     1  N    0.014507
     2  N   -0.014808
     3  O   -0.007295
     4  O    0.007595
 Sum of Mulliken charges =  -0.00000

 Dipole moment (field-independent basis, Debye):
    X=             -0.0209    Y=             -0.0126    Z=             -0.0053  Tot=              0.0249

 Test job not archived.
 1\1\GINC-SE099\SP\RHF\Aug-CC-pVDZ\N2O2\OHZDE\08-Apr-2025\0\\#t hf aug-
 cc-pvdz iop(5/13=1,5/36=2,99/5=2) pseudo=read geom=check guess=(read,t
 check) scf=(maxcycle=1)\\title\\0,1\N,0,1.88309,-0.514182,0.0896492\N,
 0,2.32345,0.48443,-0.0776284\O,0,-1.91557,0.60947,0.056251\O,0,-1.7651
 4,-0.583437,-0.0667692\\Version=ES64L-G16RevC.01\State=1-A\HF=-258.595
 3806\RMSD=3.556e-03\Dipole=-0.0082176,-0.0049491,-0.0020728\Quadrupole
 =-0.3534852,-0.5487837,0.9022688,-0.4078341,0.2674233,0.0866422\PG=C01
  [X(N2O2)]\\@

 Normal termination of Gaussian 16 at Tue Apr  8 21:13:23 2025.
