 Gaussian 16, Revision C.01,

 ----------------------------------------------------------------------
 #t hf aug-cc-pvdz symm=none int=(grid=ultrafine) guess=(read,tcheck) s
 table=(opt,rrhf)
 ----------------------------------------------------------------------
 -----
 title
 -----
 Symbolic Z-matrix:
 Charge =  0 Multiplicity = 1

 SCF Done:  E(RHF) =  -435.817623708     A.U. after   14 cycles
 Normal termination of Gaussian 16 at Tue Apr  8 22:12:54 2025.
 Gaussian 16:  ES64L-G16RevC.01  3-Jul-2019

 ----------------------------------------------------------------------
 #t hf aug-cc-pvdz iop(5/13=1,5/36=2,99/5=2) pseudo=read geom=check gue
 ss=(read,tcheck) scf=(maxcycle=1)
 ----------------------------------------------------------------------
 -----
 title
 -----
 Structure from the checkpoint file:  "ANI1ccx_976_conf4_mol2.chk"
 Charge =  0 Multiplicity = 1

                         Standard orientation:
 ---------------------------------------------------------------------
 Center     Atomic      Atomic             Coordinates (Angstroms)
 Number     Number       Type             X           Y           Z
 ---------------------------------------------------------------------
      1          6           0        0.085556   -0.663637   -0.085673
      2          6           0        1.387120    0.038758   -0.307364
      3          6           0       -1.074080    0.274131   -0.477744
      4          6           0       -2.374270   -0.469078   -0.642996
      5          1           0        0.548733    1.511740    0.536096
      6          1           0       -3.162630    0.203025   -0.956932
      7          1           0       -2.624410   -1.021788    0.264969
      8          1           0       -2.309040   -1.193928   -1.483290
      9          1           0       -1.676849    0.988225    1.202070
     10          1           0       -0.850018    0.768062   -1.423590
     11          1           0        0.064619   -1.496339   -0.837900
     12          1           0        0.668424   -1.959950    1.442330
     13          1           0        0.131411   -0.596398    2.002630
     14          7           0       -0.022065   -1.266229    1.265030
     15          8           0        2.333020   -0.527392   -0.760141
     16          8           0       -1.138729    1.319231    0.470840
     17          8           0        1.457991    1.280650    0.224436
 ---------------------------------------------------------------------

 SCF Done:  E(RHF) =  -435.953692035     A.U. after    2 cycles

 The electronic state is 1-A.
 Alpha  occ. eigenvalues --  -20.61985 -20.60408 -20.55334 -15.63947 -11.38285
 Alpha  occ. eigenvalues --  -11.32390 -11.29813 -11.25174  -1.41379  -1.37899
 Alpha  occ. eigenvalues --   -1.32315  -1.18163  -1.05831  -0.97074  -0.86597
 Alpha  occ. eigenvalues --   -0.82186  -0.76689  -0.72215  -0.69468  -0.68058
 Alpha  occ. eigenvalues --   -0.66261  -0.64715  -0.62351  -0.60175  -0.58963
 Alpha  occ. eigenvalues --   -0.54885  -0.54604  -0.52322  -0.49842  -0.49181
 Alpha  occ. eigenvalues --   -0.47667  -0.40830
 Alpha virt. eigenvalues --    0.02576   0.03489   0.04139   0.04781   0.05959
 Alpha virt. eigenvalues --    0.06625   0.06921   0.07620   0.08945   0.10548
 Alpha virt. eigenvalues --    0.12713   0.12741   0.13839   0.14075   0.14286

 Mulliken charges:
               1
     1  C    0.547331
     2  C    0.582641
     3  C    0.220743
     4  C    0.578244
     5  H    0.304002
     6  H   -0.022355
     7  H   -0.044954
     8  H    0.022434
     9  H    0.219291
    10  H   -0.304570
    11  H   -0.069854
    12  H   -0.027273
    13  H    0.010798
    14  N   -0.373064
    15  O   -0.440914
    16  O   -0.693590
    17  O   -0.508910
 Sum of Mulliken charges =   0.00000

 Dipole moment (field-independent basis, Debye):
    X=             -5.1118    Y=             -0.7428    Z=              1.5525  Tot=              5.3937

 Test job not archived.
 1\1\GINC-SE393\SP\RHF\Aug-CC-pVDZ\C4H9N1O3\OHZDE\08-Apr-2025\0\\#t hf
 aug-cc-pvdz iop(5/13=1,5/36=2,99/5=2) pseudo=read geom=check guess=(re
 ad,tcheck) scf=(maxcycle=1)\\title\\0,1\C,0,0.0855564,-0.663638,-0.085
 6724\C,0,1.38712,0.0387583,-0.307364\C,0,-1.07408,0.27413,-0.477744\C,
 0,-2.37427,-0.46908,-0.642996\H,0,0.548732,1.51174,0.536096\H,0,-3.162
 63,0.203023,-0.956932\H,0,-2.62441,-1.02179,0.264969\H,0,-2.30904,-1.1
 9393,-1.48329\H,0,-1.67685,0.988223,1.20207\H,0,-0.850019,0.768061,-1.
 42359\H,0,0.0646195,-1.49634,-0.8379\H,0,0.668425,-1.95995,1.44233\H,0

 Normal termination of Gaussian 16 at Tue Apr  8 22:13:01 2025.
