 Gaussian 16, Revision C.01,

 ----------------------------------------------------------------------
 #t hf aug-cc-pvdz symm=none int=(grid=ultrafine) guess=(read,tcheck) s
 table=(opt,rrhf)
 ----------------------------------------------------------------------
 -----
 title
 -----
 Symbolic Z-matrix:
 Charge =  0 Multiplicity = 1

 SCF Done:  E(RHF) =  -394.470421927     A.U. after   14 cycles
 Normal termination of Gaussian 16 at Tue Apr  8 21:48:40 2025.
 Gaussian 16:  ES64L-G16RevC.01  3-Jul-2019

 ----------------------------------------------------------------------
 #t hf aug-cc-pvdz iop(5/13=1,5/36=2,99/5=2) pseudo=read geom=check gue
 ss=(read,tcheck) scf=(maxcycle=1)
 ----------------------------------------------------------------------
 -----
 title
 -----
 Structure from the checkpoint file:  "ANI1ccx_671_conf1_mol2.chk"
 Charge =  0 Multiplicity = 1

                         Standard orientation:
 ---------------------------------------------------------------------
 Center     Atomic      Atomic             Coordinates (Angstroms)
 Number     Number       Type             X           Y           Z
 ---------------------------------------------------------------------
      1          6           0       -1.102880   -0.216128   -0.061812
      2          6           0       -0.708631    1.232940    0.100542
      3          6           0        1.155970   -0.112425    0.026693
      4          1           0       -0.939395    1.647510    1.127290
      5          1           0       -1.153510    1.840170   -0.725338
      6          1           0       -0.009253   -1.867120    0.051838
      7          7           0        0.020395   -0.885515    0.001125
      8          8           0       -2.230340   -0.686041   -0.012934
      9          8           0        0.718379    1.168420   -0.123614
     10          8           0        2.248540   -0.588413    0.029773
 ---------------------------------------------------------------------

 SCF Done:  E(RHF) =  -394.594031238     A.U. after    2 cycles

 The electronic state is 1-A.
 Alpha  occ. eigenvalues --  -20.66049 -20.59121 -20.57743 -15.70636 -11.46472
 Alpha  occ. eigenvalues --  -11.40523 -11.36100  -1.48193  -1.39094  -1.37706
 Alpha  occ. eigenvalues --   -1.26536  -1.04086  -0.90874  -0.89098  -0.77085
 Alpha  occ. eigenvalues --   -0.75340  -0.70338  -0.69313  -0.65145  -0.63488
 Alpha  occ. eigenvalues --   -0.62632  -0.60818  -0.53064  -0.51607  -0.47400
 Alpha  occ. eigenvalues --   -0.46317
 Alpha virt. eigenvalues --    0.02860   0.04168   0.04370   0.07294   0.08430
 Alpha virt. eigenvalues --    0.09483   0.10515   0.10878   0.11768   0.12185
 Alpha virt. eigenvalues --    0.13874   0.14147   0.14411   0.16206   0.17399

 Mulliken charges:
               1
     1  C    0.263495
     2  C    0.563943
     3  C    0.794880
     4  H    0.066111
     5  H    0.034302
     6  H   -0.091532
     7  N   -0.187319
     8  O   -0.495612
     9  O   -0.580622
    10  O   -0.367645
 Sum of Mulliken charges =  -0.00000

 Dipole moment (field-independent basis, Debye):
    X=             -1.0481    Y=              1.2124    Z=              0.4197  Tot=              1.6567

 Test job not archived.
 1\1\GINC-SE232\SP\RHF\Aug-CC-pVDZ\C3H3N1O3\OHZDE\08-Apr-2025\0\\#t hf
 aug-cc-pvdz iop(5/13=1,5/36=2,99/5=2) pseudo=read geom=check guess=(re
 ad,tcheck) scf=(maxcycle=1)\\title\\0,1\C,0,-1.10288,-0.216128,-0.0618
 12\C,0,-0.708631,1.23294,0.100542\C,0,1.15597,-0.112424,0.0266931\H,0,
 -0.939395,1.64751,1.12729\H,0,-1.15351,1.84017,-0.725338\H,0,-0.009252
 8,-1.86712,0.0518385\N,0,0.0203952,-0.885515,0.00112517\O,0,-2.23034,-
 0.686041,-0.0129338\O,0,0.718379,1.16842,-0.123614\O,0,2.24854,-0.5884
 12,0.0297728\\Version=ES64L-G16RevC.01\State=1-A\HF=-394.5940312\RMSD=

 Normal termination of Gaussian 16 at Tue Apr  8 21:48:44 2025.
