 Gaussian 16, Revision C.01,

 ----------------------------------------------------------------------
 #t hf aug-cc-pvdz symm=none int=(grid=ultrafine) guess=(read,tcheck) s
 table=(opt,rrhf)
 ----------------------------------------------------------------------
 -----
 title
 -----
 Symbolic Z-matrix:
 Charge =  0 Multiplicity = 1

 SCF Done:  E(RHF) =  -368.301817199     A.U. after   17 cycles
 Normal termination of Gaussian 16 at Tue Apr  8 21:46:50 2025.
 Gaussian 16:  ES64L-G16RevC.01  3-Jul-2019

 ----------------------------------------------------------------------
 #t hf aug-cc-pvdz iop(5/13=1,5/36=2,99/5=2) pseudo=read geom=check gue
 ss=(read,tcheck) scf=(maxcycle=1)
 ----------------------------------------------------------------------
 -----
 title
 -----
 Structure from the checkpoint file:  "ANI1ccx_608_conf3_mol2.chk"
 Charge =  0 Multiplicity = 1

                         Standard orientation:
 ---------------------------------------------------------------------
 Center     Atomic      Atomic             Coordinates (Angstroms)
 Number     Number       Type             X           Y           Z
 ---------------------------------------------------------------------
      1          6           0       -1.658920    0.081654   -0.048213
      2          6           0       -0.265086    0.137157   -0.053020
      3          7           0       -2.839540   -0.055118    0.064130
      4          7           0        0.522180    1.140220   -0.003361
      5          7           0        1.769160    0.587977    0.015470
      6          7           0        1.757830   -0.676722    0.052308
      7          8           0        0.384577   -1.035920   -0.036554
 ---------------------------------------------------------------------

 SCF Done:  E(RHF) =  -368.405637329     A.U. after    2 cycles

 The electronic state is 1-A.
 Alpha  occ. eigenvalues --  -20.74402 -15.82457 -15.78843 -15.73996 -15.73313
 Alpha  occ. eigenvalues --  -11.45646 -11.36610  -1.57324  -1.36217  -1.27284
 Alpha  occ. eigenvalues --   -1.22915  -1.01362  -0.95845  -0.85413  -0.77106
 Alpha  occ. eigenvalues --   -0.73644  -0.63460  -0.61501  -0.56761  -0.56200
 Alpha  occ. eigenvalues --   -0.55800  -0.54022  -0.51081  -0.46396
 Alpha virt. eigenvalues --    0.01209   0.05728   0.07115   0.08070   0.08099
 Alpha virt. eigenvalues --    0.10075   0.10363   0.10788   0.11052   0.12139
 Alpha virt. eigenvalues --    0.15500   0.16773   0.17004   0.18526   0.20071

 Mulliken charges:
               1
     1  C   -0.492874
     2  C    1.425520
     3  N   -0.125918
     4  N   -0.317853
     5  N   -0.058282
     6  N    0.127888
     7  O   -0.558481
 Sum of Mulliken charges =   0.00000

 Dipole moment (field-independent basis, Debye):
    X=              0.4236    Y=             -0.2244    Z=             -0.1976  Tot=              0.5185

 Test job not archived.
 1\1\GINC-SE329\SP\RHF\Aug-CC-pVDZ\C2N4O1\OHZDE\08-Apr-2025\0\\#t hf au
 g-cc-pvdz iop(5/13=1,5/36=2,99/5=2) pseudo=read geom=check guess=(read
 ,tcheck) scf=(maxcycle=1)\\title\\0,1\C,0,-1.65892,0.0816534,-0.048213
 1\C,0,-0.265086,0.137157,-0.0530204\N,0,-2.83954,-0.055119,0.0641302\N
 ,0,0.52218,1.14022,-0.00336107\N,0,1.76916,0.587977,0.0154704\N,0,1.75
 783,-0.676722,0.0523081\O,0,0.384577,-1.03592,-0.036554\\Version=ES64L
 -G16RevC.01\State=1-A\HF=-368.4056373\RMSD=4.645e-03\Dipole=0.1666443,
 -0.0882993,-0.0777373\Quadrupole=-4.0750136,0.091374,3.9836396,-0.5514

 Normal termination of Gaussian 16 at Tue Apr  8 21:46:52 2025.
