 Gaussian 16, Revision C.01,

 ----------------------------------------------------------------------
 #t hf aug-cc-pvdz symm=none int=(grid=ultrafine) guess=(read,tcheck) s
 table=(opt,rrhf)
 ----------------------------------------------------------------------
 -----
 title
 -----
 Symbolic Z-matrix:
 Charge =  0 Multiplicity = 1

 SCF Done:  E(RHF) =  -456.211521217     A.U. after   12 cycles
 Normal termination of Gaussian 16 at Tue Apr  8 21:07:48 2025.
 Gaussian 16:  ES64L-G16RevC.01  3-Jul-2019

 ----------------------------------------------------------------------
 #t hf aug-cc-pvdz iop(5/13=1,5/36=2,99/5=2) pseudo=read geom=check gue
 ss=(read,tcheck) scf=(maxcycle=1)
 ----------------------------------------------------------------------
 -----
 title
 -----
 Structure from the checkpoint file:  "ANI1ccx_1844_conf541_mol1.chk"
 Charge =  0 Multiplicity = 1

                         Standard orientation:
 ---------------------------------------------------------------------
 Center     Atomic      Atomic             Coordinates (Angstroms)
 Number     Number       Type             X           Y           Z
 ---------------------------------------------------------------------
      1          1           0       -0.620215   -1.020431   -1.002550
      2          1           0        2.123713   -0.989610    1.965280
      3          1           0        0.581705   -0.263505    1.394340
      4          1           0        1.466373   -0.875596   -0.460967
      5          1           0        1.258981   -0.146493   -1.930560
      6          1           0        1.738063    2.320986   -0.783039
      7          1           0       -1.890645   -1.734415   -1.625330
      8          1           0        1.812787    0.984388    0.120130
      9          1           0       -0.694546    1.482178   -0.415161
     10          1           0       -2.107263    0.951724   -0.681867
     11          1           0       -1.205312    0.620945    1.366150
     12          1           0       -1.432167   -0.927773    1.089000
     13          8           0        1.120463   -1.027606   -1.382920
     14          8           0       -1.699025    1.624765   -0.116431
     15          8           0        1.635952   -0.522134    1.263920
     16          8           0        1.322766    1.477995   -0.580891
     17          8           0       -1.618776   -1.289744   -0.710964
     18          8           0       -0.890314   -0.313575    1.647860
 ---------------------------------------------------------------------

 SCF Done:  E(RHF) =  -456.358011671     A.U. after    2 cycles

 The electronic state is 1-A.
 Alpha  occ. eigenvalues --  -20.59834 -20.58849 -20.58013 -20.57877 -20.57178
 Alpha  occ. eigenvalues --  -20.56510  -1.33280  -1.31228  -1.29025  -1.28280
 Alpha  occ. eigenvalues --   -1.27427  -1.26265  -0.77825  -0.74063  -0.72396
 Alpha  occ. eigenvalues --   -0.70577  -0.69475  -0.67631  -0.63958  -0.63272
 Alpha  occ. eigenvalues --   -0.60260  -0.59814  -0.58364  -0.55791  -0.53714
 Alpha  occ. eigenvalues --   -0.52422  -0.51660  -0.51096  -0.51041  -0.50763
 Alpha virt. eigenvalues --    0.02671   0.04146   0.04608   0.06390   0.06945
 Alpha virt. eigenvalues --    0.07679   0.07742   0.07983   0.08994   0.10337
 Alpha virt. eigenvalues --    0.11337   0.11812   0.16362   0.18241   0.18417

 Mulliken charges:
               1
     1  H    0.383978
     2  H    0.162754
     3  H    0.489797
     4  H    0.306649
     5  H    0.328053
     6  H    0.197207
     7  H    0.253004
     8  H    0.285306
     9  H    0.305338
    10  H    0.244124
    11  H    0.360666
    12  H    0.275626
    13  O   -0.597114
    14  O   -0.517296
    15  O   -0.677992
    16  O   -0.518909
    17  O   -0.629777
    18  O   -0.651411
 Sum of Mulliken charges =  -0.00000

 Dipole moment (field-independent basis, Debye):
    X=              1.9370    Y=              1.0229    Z=             -1.6504  Tot=              2.7426

 Test job not archived.
 1\1\GINC-SE393\SP\RHF\Aug-CC-pVDZ\H12O6\OHZDE\08-Apr-2025\0\\#t hf aug
 -cc-pvdz iop(5/13=1,5/36=2,99/5=2) pseudo=read geom=check guess=(read,
 tcheck) scf=(maxcycle=1)\\title\\0,1\H,0,-0.620218,-1.02043,-1.00255\H
 ,0,2.12371,-0.989617,1.96528\H,0,0.581704,-0.263507,1.39434\H,0,1.4663
 7,-0.875601,-0.460967\H,0,1.25898,-0.146497,-1.93056\H,0,1.73807,2.320
 98,-0.783039\H,0,-1.89065,-1.73441,-1.62533\H,0,1.81279,0.984382,0.120
 13\H,0,-0.694542,1.48218,-0.415161\H,0,-2.10726,0.95173,-0.681867\H,0,
 -1.20531,0.620948,1.36615\H,0,-1.43217,-0.927769,1.089\O,0,1.12046,-1.

 Normal termination of Gaussian 16 at Tue Apr  8 21:07:53 2025.
