 Gaussian 16, Revision C.01,

 ----------------------------------------------------------------------
 #t hf aug-cc-pvdz symm=none int=(grid=ultrafine) guess=(read,tcheck) s
 table=(opt,rrhf)
 ----------------------------------------------------------------------
 -----
 title
 -----
 Symbolic Z-matrix:
 Charge =  0 Multiplicity = 1

 SCF Done:  E(RHF) =  -963.574784737     A.U. after   15 cycles
 Normal termination of Gaussian 16 at Tue Apr  8 21:43:39 2025.
 Gaussian 16:  ES64L-G16RevC.01  3-Jul-2019

 ----------------------------------------------------------------------
 #t hf aug-cc-pvdz iop(5/13=1,5/36=2,99/5=2) pseudo=read geom=check gue
 ss=(read,tcheck) scf=(maxcycle=1)
 ----------------------------------------------------------------------
 -----
 title
 -----
 Structure from the checkpoint file:  "ANI1ccx_272_conf9_mol1.chk"
 Charge =  0 Multiplicity = 1

                         Standard orientation:
 ---------------------------------------------------------------------
 Center     Atomic      Atomic             Coordinates (Angstroms)
 Number     Number       Type             X           Y           Z
 ---------------------------------------------------------------------
      1          6           0        1.607370    1.555381   -0.663024
      2          6           0       -4.830010   -1.388609   -0.075068
      3          6           0       -2.425780   -1.668499   -0.970720
      4          6           0       -1.540150   -1.154779    0.146763
      5          6           0       -1.904160    1.368391    0.052057
      6          6           0       -0.966628    0.211712   -0.057775
      7          6           0       -3.769980   -0.970160   -1.108460
      8          6           0        4.287720   -0.773087   -0.611675
      9          6           0        2.907380   -0.712195   -0.611695
     10          6           0        2.062600    0.263531   -1.395000
     11          6           0        1.156010    1.216601    0.807422
     12          6           0        3.506750   -2.319230    0.784751
     13          1           0       -2.646790   -2.739739   -0.814409
     14          1           0       -2.812890    2.636921   -0.768502
     15          1           0       -4.490310    0.175125    1.096460
     16          1           0       -5.291260   -1.130589    1.863050
     17          1           0       -5.845660   -1.179439   -0.503572
     18          1           0       -4.812220   -2.458839   -0.120096
     19          1           0       -4.159340   -1.109489   -2.181350
     20          1           0       -3.606510    0.077721   -1.105310
     21          1           0       -1.917620   -1.610899   -1.939040
     22          1           0       -0.672741   -1.849199    0.182509
     23          1           0       -0.306999    0.524356    1.975320
     24          1           0       -0.600358    0.345081   -1.027810
     25          1           0        3.086290    2.504410    0.368143
     26          1           0       -2.036720   -1.166519    1.086890
     27          1           0        0.734243    1.945041   -1.201100
     28          1           0        2.565330    0.516802   -2.321160
     29          1           0        2.219720    3.425170   -0.639116
     30          1           0        4.987020   -0.177593   -1.252600
     31          1           0        3.349770   -3.135080    1.446360
     32          1           0        5.611970   -2.037410    0.436964
     33          1           0        1.192970   -0.352935   -1.598270
     34          7           0        2.656430    2.510650   -0.547144
     35          7           0        2.464430   -1.717980    0.239756
     36          7           0        4.642700   -1.739290    0.311810
     37          7           0       -0.008084    0.529975    1.005920
     38          7           0       -4.587770   -0.835308    1.180230
     39          8           0       -2.537760    1.574451    1.065700
     40          8           0        1.919840    1.548630    1.739650
     41          8           0       -2.040650    2.100221   -1.068210
 ---------------------------------------------------------------------

 SCF Done:  E(RHF) =  -963.861980147     A.U. after    2 cycles

 The electronic state is 1-A.
 Alpha  occ. eigenvalues --  -20.65308 -20.57457 -20.52720 -15.68555 -15.65022
 Alpha  occ. eigenvalues --  -15.60304 -15.59846 -15.59017 -11.40848 -11.35798
 Alpha  occ. eigenvalues --  -11.30473 -11.29604 -11.28207 -11.26608 -11.25474
 Alpha  occ. eigenvalues --  -11.25294 -11.24152 -11.23368 -11.23151 -11.23052
 Alpha  occ. eigenvalues --   -1.45101  -1.34281  -1.32390  -1.29962  -1.21048
 Alpha  occ. eigenvalues --   -1.16524  -1.16025  -1.12175  -1.08077  -1.03422
 Alpha  occ. eigenvalues --   -1.01562  -0.96626  -0.94711  -0.88341  -0.86564
 Alpha  occ. eigenvalues --   -0.81999  -0.81428  -0.78788  -0.77989  -0.76147
 Alpha  occ. eigenvalues --   -0.74634  -0.73827  -0.72036  -0.70055  -0.68605
 Alpha  occ. eigenvalues --   -0.67285  -0.65363  -0.64581  -0.64433  -0.63242
 Alpha  occ. eigenvalues --   -0.62246  -0.61840  -0.60779  -0.59665  -0.58980
 Alpha  occ. eigenvalues --   -0.58683  -0.57148  -0.56399  -0.56039  -0.54134
 Alpha  occ. eigenvalues --   -0.53109  -0.52075  -0.51769  -0.51376  -0.49926
 Alpha  occ. eigenvalues --   -0.48666  -0.47580  -0.47167  -0.46128  -0.42998
 Alpha  occ. eigenvalues --   -0.41457  -0.39909  -0.38401  -0.37365  -0.36701
 Alpha  occ. eigenvalues --   -0.30897
 Alpha virt. eigenvalues --    0.02655   0.02828   0.03496   0.03872   0.04306
 Alpha virt. eigenvalues --    0.04606   0.05389   0.05971   0.06183   0.06311
 Alpha virt. eigenvalues --    0.07090   0.07860   0.08196   0.08325   0.08488

 Mulliken charges:
               1
     1  C    0.158104
     2  C    0.819200
     3  C    0.468883
     4  C    0.674621
     5  C    0.635839
     6  C    0.339182
     7  C    0.445536
     8  C    1.161659
     9  C   -0.260792
    10  C    0.677670
    11  C    0.847617
    12  C    0.888504
    13  H   -0.154365
    14  H    0.255500
    15  H    0.134888
    16  H   -0.004328
    17  H   -0.139862
    18  H   -0.223361
    19  H   -0.023664
    20  H   -0.552013
    21  H   -0.105570
    22  H    0.038597
    23  H   -0.110361
    24  H   -0.579049
    25  H    0.044978
    26  H   -0.038620
    27  H   -0.106829
    28  H   -0.136740
    29  H    0.005429
    30  H   -0.277705
    31  H   -0.351521
    32  H   -0.064026
    33  H   -0.146533
    34  N   -0.293605
    35  N   -0.558901
    36  N   -0.631414
    37  N   -0.427009
    38  N   -0.411712
    39  O   -0.637019
    40  O   -0.726922
    41  O   -0.634287
 Sum of Mulliken charges =   0.00000

 Dipole moment (field-independent basis, Debye):
    X=             -0.8713    Y=             -1.8392    Z=             -2.9722  Tot=              3.6023

 Test job not archived.
 1\1\GINC-SE049\SP\RHF\Aug-CC-pVDZ\C12H21N5O3\OHZDE\08-Apr-2025\0\\#t h
 f aug-cc-pvdz iop(5/13=1,5/36=2,99/5=2) pseudo=read geom=check guess=(
 read,tcheck) scf=(maxcycle=1)\\title\\0,1\C,0,1.60737,1.55538,-0.66302
 4\C,0,-4.83001,-1.38861,-0.0750688\C,0,-2.42578,-1.6685,-0.97072\C,0,-
 1.54015,-1.15478,0.146763\C,0,-1.90416,1.36839,0.052057\C,0,-0.966628,
 0.211711,-0.0577759\C,0,-3.76998,-0.970161,-1.10846\C,0,4.28772,-0.773
 087,-0.611675\C,0,2.90738,-0.712195,-0.611695\C,0,2.0626,0.263531,-1.3
 95\C,0,1.15601,1.2166,0.807422\C,0,3.50675,-2.31923,0.784751\H,0,-2.64

 Normal termination of Gaussian 16 at Tue Apr  8 21:45:11 2025.
