 Gaussian 16, Revision C.01,

 ----------------------------------------------------------------------
 #t hf aug-cc-pvdz symm=none int=(grid=ultrafine) guess=(read,tcheck) s
 table=(opt,rrhf)
 ----------------------------------------------------------------------
 -----
 title
 -----
 Symbolic Z-matrix:
 Charge =  0 Multiplicity = 1

 SCF Done:  E(RHF) =  -535.538235884     A.U. after   16 cycles
 Normal termination of Gaussian 16 at Tue Apr  8 22:04:03 2025.
 Gaussian 16:  ES64L-G16RevC.01  3-Jul-2019

 ----------------------------------------------------------------------
 #t hf aug-cc-pvdz iop(5/13=1,5/36=2,99/5=2) pseudo=read geom=check gue
 ss=(read,tcheck) scf=(maxcycle=1)
 ----------------------------------------------------------------------
 -----
 title
 -----
 Structure from the checkpoint file:  "ANI1ccx_911_conf4_mol2.chk"
 Charge =  0 Multiplicity = 1

                         Standard orientation:
 ---------------------------------------------------------------------
 Center     Atomic      Atomic             Coordinates (Angstroms)
 Number     Number       Type             X           Y           Z
 ---------------------------------------------------------------------
      1          6           0        1.649430   -0.519405   -0.020041
      2          6           0        0.258080    1.331711   -0.049249
      3          6           0       -0.872882    0.469319   -0.060951
      4          6           0       -2.260540    0.428281   -0.076402
      5          1           0        3.152959   -1.904029   -0.264905
      6          1           0        3.665030   -0.246906   -0.165226
      7          1           0        0.936422    3.156801    0.258898
      8          1           0       -0.813362    3.024651    0.215275
      9          1           0       -2.961500    1.260151   -0.110411
     10          7           0        2.963730   -0.940763    0.032223
     11          7           0        1.476380    0.856100   -0.004836
     12          7           0        0.107443    2.657301    0.018545
     13          7           0       -2.652340   -0.845930    0.015347
     14          7           0       -1.587760   -1.647639    0.044092
     15          7           0       -0.542805   -0.872551    0.033993
     16          7           0        0.717632   -1.427959    0.047239
 ---------------------------------------------------------------------

 SCF Done:  E(RHF) =  -535.689884635     A.U. after    2 cycles

 The electronic state is 1-A.
 Alpha  occ. eigenvalues --  -15.78156 -15.70915 -15.68304 -15.66507 -15.65936
 Alpha  occ. eigenvalues --  -15.65348 -15.63860 -11.39067 -11.38491 -11.30748
 Alpha  occ. eigenvalues --  -11.29536  -1.43409  -1.32152  -1.27246  -1.20606
 Alpha  occ. eigenvalues --   -1.15577  -1.09567  -1.08944  -0.91961  -0.89165
 Alpha  occ. eigenvalues --   -0.84939  -0.81514  -0.75222  -0.72584  -0.70232
 Alpha  occ. eigenvalues --   -0.68941  -0.66315  -0.65182  -0.64454  -0.59340
 Alpha  occ. eigenvalues --   -0.55384  -0.51458  -0.50760  -0.45943  -0.44278
 Alpha  occ. eigenvalues --   -0.43767  -0.41187  -0.36850  -0.33263
 Alpha virt. eigenvalues --    0.01679   0.02719   0.04275   0.05694   0.06641
 Alpha virt. eigenvalues --    0.07067   0.07871   0.09275   0.10749   0.11365
 Alpha virt. eigenvalues --    0.11717   0.12790   0.12966   0.13372   0.13728

 Mulliken charges:
               1
     1  C    0.889266
     2  C    0.287414
     3  C    0.618591
     4  C    0.980676
     5  H    0.021225
     6  H   -0.004281
     7  H   -0.018868
     8  H    0.012749
     9  H   -0.249378
    10  N   -0.315833
    11  N   -0.647200
    12  N   -0.143442
    13  N   -0.504963
    14  N   -0.288471
    15  N   -0.433205
    16  N   -0.204279
 Sum of Mulliken charges =   0.00000

 Dipole moment (field-independent basis, Debye):
    X=              2.9445    Y=              5.7679    Z=             -0.3601  Tot=              6.4860

 Test job not archived.
 1\1\GINC-SE038\SP\RHF\Aug-CC-pVDZ\C4H5N7\OHZDE\08-Apr-2025\0\\#t hf au
 g-cc-pvdz iop(5/13=1,5/36=2,99/5=2) pseudo=read geom=check guess=(read
 ,tcheck) scf=(maxcycle=1)\\title\\0,1\C,0,1.64943,-0.519406,-0.0200412
 \C,0,0.25808,1.33171,-0.0492485\C,0,-0.872882,0.469318,-0.060951\C,0,-
 2.26054,0.42828,-0.0764016\H,0,3.15296,-1.90403,-0.264905\H,0,3.66503,
 -0.246907,-0.165226\H,0,0.936422,3.1568,0.258898\H,0,-0.813362,3.02465
 ,0.215275\H,0,-2.9615,1.26015,-0.110411\N,0,2.96373,-0.940764,0.032223
 1\N,0,1.47638,0.856099,-0.00483635\N,0,0.107443,2.6573,0.0185447\N,0,-

 Normal termination of Gaussian 16 at Tue Apr  8 22:04:16 2025.
