 Gaussian 16, Revision C.01,

 ----------------------------------------------------------------------
 #t hf aug-cc-pvdz symm=none int=(grid=ultrafine) guess=(read,tcheck) s
 table=(opt,rrhf)
 ----------------------------------------------------------------------
 -----
 title
 -----
 Symbolic Z-matrix:
 Charge =  0 Multiplicity = 1

 SCF Done:  E(RHF) =  -467.576197336     A.U. after   14 cycles
 Normal termination of Gaussian 16 at Tue Apr  8 22:01:34 2025.
 Gaussian 16:  ES64L-G16RevC.01  3-Jul-2019

 ----------------------------------------------------------------------
 #t hf aug-cc-pvdz iop(5/13=1,5/36=2,99/5=2) pseudo=read geom=check gue
 ss=(read,tcheck) scf=(maxcycle=1)
 ----------------------------------------------------------------------
 -----
 title
 -----
 Structure from the checkpoint file:  "ANI1ccx_903_conf1_mol1.chk"
 Charge =  0 Multiplicity = 1

                         Standard orientation:
 ---------------------------------------------------------------------
 Center     Atomic      Atomic             Coordinates (Angstroms)
 Number     Number       Type             X           Y           Z
 ---------------------------------------------------------------------
      1          6           0        2.766091   -0.194947   -0.019083
      2          6           0        1.280951   -0.018175   -0.009188
      3          6           0       -0.629271    1.325150    0.031860
      4          6           0       -0.911087   -1.178220    0.024251
      5          1           0        3.136080    0.444054   -0.779391
      6          1           0        3.103483   -1.249373   -0.147252
      7          1           0        3.126251    0.207886    0.922796
      8          1           0       -2.372819    0.243092    0.078994
      9          1           0        0.927522   -2.103827   -0.097320
     10          7           0        0.787078    1.176063    0.043045
     11          7           0       -1.328359    0.115261    0.037072
     12          7           0        0.498094   -1.164208    0.007343
     13          8           0       -1.202093    2.381519   -0.063652
     14          8           0       -1.630195   -2.135831   -0.030984
 ---------------------------------------------------------------------

 SCF Done:  E(RHF) =  -467.719558772     A.U. after    2 cycles

 The electronic state is 1-A.
 Alpha  occ. eigenvalues --  -20.58079 -20.56093 -15.71773 -15.69571 -15.64315
 Alpha  occ. eigenvalues --  -11.44444 -11.42004 -11.40016 -11.28362  -1.41957
 Alpha  occ. eigenvalues --   -1.38285  -1.31137  -1.21765  -1.18613  -1.04509
 Alpha  occ. eigenvalues --   -0.92023  -0.89313  -0.80413  -0.79243  -0.69870
 Alpha  occ. eigenvalues --   -0.69357  -0.67482  -0.66927  -0.63076  -0.62258
 Alpha  occ. eigenvalues --   -0.60856  -0.59330  -0.52839  -0.51734  -0.48718
 Alpha  occ. eigenvalues --   -0.45185  -0.44929  -0.41421
 Alpha virt. eigenvalues --    0.01804   0.03990   0.04406   0.04775   0.06241
 Alpha virt. eigenvalues --    0.07996   0.08649   0.09584   0.10204   0.11115
 Alpha virt. eigenvalues --    0.12118   0.12229   0.13613   0.14165   0.14330

 Mulliken charges:
               1
     1  C    0.684638
     2  C    0.271771
     3  C    0.706944
     4  C    0.653112
     5  H   -0.032967
     6  H   -0.037023
     7  H    0.051126
     8  H    0.044825
     9  H   -0.008005
    10  N   -0.590559
    11  N   -0.401833
    12  N   -0.522391
    13  O   -0.422342
    14  O   -0.397295
 Sum of Mulliken charges =  -0.00000

 Dipole moment (field-independent basis, Debye):
    X=              4.5254    Y=             -3.5885    Z=              0.1903  Tot=              5.7786

 Test job not archived.
 1\1\GINC-SE366\SP\RHF\Aug-CC-pVDZ\C4H5N3O2\OHZDE\08-Apr-2025\0\\#t hf
 aug-cc-pvdz iop(5/13=1,5/36=2,99/5=2) pseudo=read geom=check guess=(re
 ad,tcheck) scf=(maxcycle=1)\\title\\0,1\C,0,2.76609,-0.194954,-0.01908
 32\C,0,1.28095,-0.0181792,-0.00918757\C,0,-0.62927,1.32515,0.0318597\C
 ,0,-0.91109,-1.17822,0.0242509\H,0,3.13608,0.444047,-0.779391\H,0,3.10
 348,-1.24938,-0.147252\H,0,3.12625,0.207879,0.922796\H,0,-2.37282,0.24
 3095,0.0789944\H,0,0.927517,-2.10383,-0.0973195\N,0,0.787079,1.17606,0
 .0430446\N,0,-1.32836,0.115262,0.0370721\N,0,0.498091,-1.16421,0.00734

 Normal termination of Gaussian 16 at Tue Apr  8 22:01:39 2025.
