 Gaussian 16, Revision C.01,

 ----------------------------------------------------------------------
 #t hf aug-cc-pvdz symm=none int=(grid=ultrafine) guess=(read,tcheck) s
 table=(opt,rrhf)
 ----------------------------------------------------------------------
 -----
 title
 -----
 Symbolic Z-matrix:
 Charge =  0 Multiplicity = 1

 SCF Done:  E(RHF) =  -301.522341384     A.U. after   15 cycles
 Normal termination of Gaussian 16 at Tue Apr  8 21:42:04 2025.
 Gaussian 16:  ES64L-G16RevC.01  3-Jul-2019

 ----------------------------------------------------------------------
 #t hf aug-cc-pvdz iop(5/13=1,5/36=2,99/5=2) pseudo=read geom=check gue
 ss=(read,tcheck) scf=(maxcycle=1)
 ----------------------------------------------------------------------
 -----
 title
 -----
 Structure from the checkpoint file:  "ANI1ccx_493_conf22_mol2.chk"
 Charge =  0 Multiplicity = 1

                         Standard orientation:
 ---------------------------------------------------------------------
 Center     Atomic      Atomic             Coordinates (Angstroms)
 Number     Number       Type             X           Y           Z
 ---------------------------------------------------------------------
      1          6           0        0.543169   -0.119283   -0.011222
      2          6           0       -0.921534   -0.642462    0.104611
      3          1           0       -0.183828    1.618081   -0.087826
      4          1           0       -1.021971   -1.764779    0.265423
      5          8           0        0.694739    1.249990    0.067477
      6          8           0        1.537710   -0.791265   -0.067538
      7          8           0       -1.797950    0.130921   -0.092181
 ---------------------------------------------------------------------

 SCF Done:  E(RHF) =  -301.618155095     A.U. after    2 cycles

 The electronic state is 1-A.
 Alpha  occ. eigenvalues --  -20.64790 -20.64107 -20.60220 -11.43087 -11.41189
 Alpha  occ. eigenvalues --   -1.45623  -1.42678  -1.35219  -0.96048  -0.84273
 Alpha  occ. eigenvalues --   -0.79533  -0.73983  -0.69318  -0.66907  -0.63769
 Alpha  occ. eigenvalues --   -0.60167  -0.56500  -0.52303  -0.47502
 Alpha virt. eigenvalues --    0.02786   0.03292   0.04665   0.08020   0.09523
 Alpha virt. eigenvalues --    0.10795   0.11653   0.11813   0.13083   0.14826
 Alpha virt. eigenvalues --    0.18382   0.19177   0.20172   0.21932   0.23666

 Mulliken charges:
               1
     1  C    0.527274
     2  C    0.473894
     3  H    0.205035
     4  H    0.011979
     5  O   -0.473104
     6  O   -0.386611
     7  O   -0.358467
 Sum of Mulliken charges =   0.00000

 Dipole moment (field-independent basis, Debye):
    X=             -2.5434    Y=             -0.7026    Z=              0.2986  Tot=              2.6555

 Test job not archived.
 1\1\GINC-SE455\SP\RHF\Aug-CC-pVDZ\C2H2O3\OHZDE\08-Apr-2025\0\\#t hf au
 g-cc-pvdz iop(5/13=1,5/36=2,99/5=2) pseudo=read geom=check guess=(read
 ,tcheck) scf=(maxcycle=1)\\title\\0,1\C,0,0.543169,-0.119283,-0.011221
 6\C,0,-0.921534,-0.642463,0.104611\H,0,-0.183829,1.61808,-0.0878258\H,
 0,-1.02197,-1.76478,0.265423\O,0,0.694738,1.24999,0.0674772\O,0,1.5377
 1,-0.791265,-0.067538\O,0,-1.79795,0.130919,-0.0921812\\Version=ES64L-
 G16RevC.01\State=1-A\HF=-301.6181551\RMSD=3.632e-03\Dipole=-1.0006459,
 -0.2764107,0.1174689\Quadrupole=-5.6479848,3.1856346,2.4623502,1.84109

 Normal termination of Gaussian 16 at Tue Apr  8 21:42:06 2025.
