 Gaussian 16, Revision C.01,

 ----------------------------------------------------------------------
 #t hf aug-cc-pvdz symm=none int=(grid=ultrafine) guess=(read,tcheck) s
 table=(opt,rrhf)
 ----------------------------------------------------------------------
 -----
 title
 -----
 Symbolic Z-matrix:
 Charge =  0 Multiplicity = 1

 SCF Done:  E(RHF) =  -302.707888215     A.U. after   13 cycles
 Normal termination of Gaussian 16 at Tue Apr  8 21:44:47 2025.
 Gaussian 16:  ES64L-G16RevC.01  3-Jul-2019

 ----------------------------------------------------------------------
 #t hf aug-cc-pvdz iop(5/13=1,5/36=2,99/5=2) pseudo=read geom=check gue
 ss=(read,tcheck) scf=(maxcycle=1)
 ----------------------------------------------------------------------
 -----
 title
 -----
 Structure from the checkpoint file:  "ANI1ccx_528_conf38_mol2.chk"
 Charge =  0 Multiplicity = 1

                         Standard orientation:
 ---------------------------------------------------------------------
 Center     Atomic      Atomic             Coordinates (Angstroms)
 Number     Number       Type             X           Y           Z
 ---------------------------------------------------------------------
      1          6           0        0.744878   -0.763455    0.007102
      2          6           0       -0.622070   -0.096538    0.017148
      3          1           0        1.545520    1.030359    0.037032
      4          1           0        0.784066   -1.390091    0.929275
      5          1           0        0.738464   -1.425241   -0.878310
      6          1           0       -1.450890    1.581329   -0.068550
      7          8           0        1.866239    0.124868   -0.020455
      8          8           0       -0.520190    1.248889    0.011026
      9          8           0       -1.640301   -0.703308   -0.011190
 ---------------------------------------------------------------------

 SCF Done:  E(RHF) =  -302.805436852     A.U. after    2 cycles

 The electronic state is 1-A.
 Alpha  occ. eigenvalues --  -20.65365 -20.58804 -20.58397 -11.41712 -11.32316
 Alpha  occ. eigenvalues --   -1.45359  -1.35939  -1.33262  -1.00125  -0.85867
 Alpha  occ. eigenvalues --   -0.76009  -0.73542  -0.69704  -0.65147  -0.62805
 Alpha  occ. eigenvalues --   -0.61563  -0.59160  -0.53587  -0.48163  -0.47750
 Alpha virt. eigenvalues --    0.02961   0.04746   0.05641   0.05963   0.09396
 Alpha virt. eigenvalues --    0.11068   0.11701   0.12006   0.14022   0.15123
 Alpha virt. eigenvalues --    0.16087   0.16295   0.19187   0.19787   0.21240

 Mulliken charges:
               1
     1  C    0.640922
     2  C    0.347972
     3  H    0.192604
     4  H    0.079994
     5  H    0.059920
     6  H    0.201183
     7  O   -0.544795
     8  O   -0.523625
     9  O   -0.454174
 Sum of Mulliken charges =  -0.00000

 Dipole moment (field-independent basis, Debye):
    X=             -0.5162    Y=              1.6051    Z=              0.0389  Tot=              1.6865

 Test job not archived.
 1\1\GINC-SE186\SP\RHF\Aug-CC-pVDZ\C2H4O3\OHZDE\08-Apr-2025\0\\#t hf au
 g-cc-pvdz iop(5/13=1,5/36=2,99/5=2) pseudo=read geom=check guess=(read
 ,tcheck) scf=(maxcycle=1)\\title\\0,1\C,0,0.744879,-0.763454,0.0071016
 7\C,0,-0.622069,-0.096537,0.0171484\H,0,1.54552,1.03036,0.037032\H,0,0
 .784067,-1.39009,0.929275\H,0,0.738465,-1.42524,-0.87831\H,0,-1.45089,
 1.58133,-0.0685502\O,0,1.86624,0.124869,-0.0204549\O,0,-0.52019,1.2488
 9,0.011026\O,0,-1.6403,-0.703307,-0.0111896\\Version=ES64L-G16RevC.01\
 State=1-A\HF=-302.8054369\RMSD=3.563e-03\Dipole=-0.2030894,0.6315098,0

 Normal termination of Gaussian 16 at Tue Apr  8 21:44:50 2025.
