 Gaussian 16, Revision C.01,

 ----------------------------------------------------------------------
 #t hf aug-cc-pvdz symm=none int=(grid=ultrafine) guess=(read,tcheck) s
 table=(opt,rrhf)
 ----------------------------------------------------------------------
 -----
 title
 -----
 Symbolic Z-matrix:
 Charge =  0 Multiplicity = 1

 SCF Done:  E(RHF) =  -456.253573328     A.U. after   11 cycles
 Normal termination of Gaussian 16 at Tue Apr  8 21:05:40 2025.
 Gaussian 16:  ES64L-G16RevC.01  3-Jul-2019

 ----------------------------------------------------------------------
 #t hf aug-cc-pvdz iop(5/13=1,5/36=2,99/5=2) pseudo=read geom=check gue
 ss=(read,tcheck) scf=(maxcycle=1)
 ----------------------------------------------------------------------
 -----
 title
 -----
 Structure from the checkpoint file:  "ANI1ccx_1844_conf210_mol1.chk"
 Charge =  0 Multiplicity = 1

                         Standard orientation:
 ---------------------------------------------------------------------
 Center     Atomic      Atomic             Coordinates (Angstroms)
 Number     Number       Type             X           Y           Z
 ---------------------------------------------------------------------
      1          1           0        2.411882   -0.360783    1.612560
      2          1           0        0.300759   -2.033688   -0.602589
      3          1           0        1.515148   -3.068470   -0.136222
      4          1           0       -2.025215    0.796845    0.233132
      5          1           0       -2.711642    0.269925    1.598250
      6          1           0       -1.875873   -1.271240    0.322093
      7          1           0        2.027865   -0.915823    0.186090
      8          1           0       -1.966477   -2.309131   -0.829297
      9          1           0        1.844114    2.654792   -0.729484
     10          1           0        1.825022    1.239711    0.018382
     11          1           0       -0.188231    2.044590   -0.383050
     12          1           0       -1.511328    2.951612   -0.461504
     13          8           0       -2.694391    0.118090    0.651066
     14          8           0        1.429007    2.189029    0.027848
     15          8           0        1.310992   -2.178902   -0.619879
     16          8           0       -1.390928   -2.054587   -0.101973
     17          8           0        2.511670   -0.141017    0.652917
     18          8           0       -1.122103    2.067594   -0.713524
 ---------------------------------------------------------------------

 SCF Done:  E(RHF) =  -456.404506316     A.U. after    2 cycles

 The electronic state is 1-A.
 Alpha  occ. eigenvalues --  -20.58608 -20.58331 -20.57114 -20.57057 -20.57041
 Alpha  occ. eigenvalues --  -20.56844  -1.31572  -1.30406  -1.29942  -1.28861
 Alpha  occ. eigenvalues --   -1.28162  -1.27253  -0.73593  -0.72572  -0.72165
 Alpha  occ. eigenvalues --   -0.71985  -0.71412  -0.71117  -0.63355  -0.62115
 Alpha  occ. eigenvalues --   -0.60834  -0.58705  -0.57235  -0.56423  -0.52519
 Alpha  occ. eigenvalues --   -0.52084  -0.51894  -0.51660  -0.51540  -0.50684
 Alpha virt. eigenvalues --    0.02811   0.04227   0.04787   0.05155   0.06282
 Alpha virt. eigenvalues --    0.06863   0.08365   0.09129   0.09750   0.10503
 Alpha virt. eigenvalues --    0.10877   0.11342   0.16230   0.18318   0.18825

 Mulliken charges:
               1
     1  H    0.198027
     2  H    0.313571
     3  H    0.242144
     4  H    0.341716
     5  H    0.167536
     6  H    0.315130
     7  H    0.328617
     8  H    0.169156
     9  H    0.185684
    10  H    0.334960
    11  H    0.272756
    12  H    0.203032
    13  O   -0.507775
    14  O   -0.514288
    15  O   -0.561089
    16  O   -0.487076
    17  O   -0.533503
    18  O   -0.468597
 Sum of Mulliken charges =  -0.00000

 Dipole moment (field-independent basis, Debye):
    X=             -0.7944    Y=             -0.0955    Z=              1.8011  Tot=              1.9708

 Test job not archived.
 1\1\GINC-SE364\SP\RHF\Aug-CC-pVDZ\H12O6\OHZDE\08-Apr-2025\0\\#t hf aug
 -cc-pvdz iop(5/13=1,5/36=2,99/5=2) pseudo=read geom=check guess=(read,
 tcheck) scf=(maxcycle=1)\\title\\0,1\H,0,2.41188,-0.360798,1.61256\H,0
 ,0.300748,-2.03369,-0.602589\H,0,1.51513,-3.06848,-0.136222\H,0,-2.025
 21,0.796856,0.233132\H,0,-2.71164,0.26994,1.59825\H,0,-1.87588,-1.2712
 3,0.322093\H,0,2.02786,-0.915836,0.18609\H,0,-1.96649,-2.30912,-0.8292
 97\H,0,1.84413,2.65478,-0.729484\H,0,1.82503,1.2397,0.0183821\H,0,-0.1
 88219,2.04459,-0.38305\H,0,-1.51131,2.95162,-0.461504\O,0,-2.69439,0.1

 Normal termination of Gaussian 16 at Tue Apr  8 21:05:45 2025.
