 Gaussian 16, Revision C.01,

 ----------------------------------------------------------------------
 #t hf aug-cc-pvdz symm=none int=(grid=ultrafine) guess=(read,tcheck) s
 table=(opt,rrhf)
 ----------------------------------------------------------------------
 -----
 title
 -----
 Symbolic Z-matrix:
 Charge =  0 Multiplicity = 1

 SCF Done:  E(RHF) =  -503.615650708     A.U. after   15 cycles
 Normal termination of Gaussian 16 at Tue Apr  8 19:23:42 2025.
 Gaussian 16:  ES64L-G16RevC.01  3-Jul-2019

 ----------------------------------------------------------------------
 #t hf aug-cc-pvdz iop(5/13=1,5/36=2,99/5=2) pseudo=read geom=check gue
 ss=(read,tcheck) scf=(maxcycle=1)
 ----------------------------------------------------------------------
 -----
 title
 -----
 Structure from the checkpoint file:  "ANI1ccx_1339_conf1_mol2.chk"
 Charge =  0 Multiplicity = 1

                         Standard orientation:
 ---------------------------------------------------------------------
 Center     Atomic      Atomic             Coordinates (Angstroms)
 Number     Number       Type             X           Y           Z
 ---------------------------------------------------------------------
      1          6           0        3.334450   -0.635084    0.022487
      2          6           0        0.958590   -0.094389   -0.006652
      3          6           0        0.242869    2.100660    0.017678
      4          6           0       -1.322031    0.552583   -0.019168
      5          6           0       -2.282370   -1.426212    0.010682
      6          6           0       -0.400207   -0.471095    0.001493
      7          1           0       -3.078820   -2.154882   -0.001358
      8          1           0       -3.430561    0.391870   -0.012948
      9          1           0        0.555943    3.148250    0.044746
     10          1           0        3.534649    0.132470   -0.752093
     11          1           0        3.949110   -1.511229   -0.199366
     12          1           0        3.598779   -0.228977    1.013850
     13          1           0        1.693960   -1.985390   -0.042352
     14          7           0       -2.547621   -0.080419    0.002798
     15          7           0        1.949430   -1.006240   -0.036396
     16          7           0        1.252559    1.217740   -0.004325
     17          7           0       -1.068002    1.870389   -0.010947
     18          7           0       -1.016490   -1.708741    0.018926
 ---------------------------------------------------------------------

 SCF Done:  E(RHF) =  -503.761004825     A.U. after    2 cycles

 The electronic state is 1-A.
 Alpha  occ. eigenvalues --  -15.69111 -15.64944 -15.63103 -15.61965 -15.61179
 Alpha  occ. eigenvalues --  -11.34478 -11.33192 -11.32275 -11.32042 -11.27208
 Alpha  occ. eigenvalues --  -11.25750  -1.33831  -1.27185  -1.22491  -1.15995
 Alpha  occ. eigenvalues --   -1.12110  -1.03553  -0.94877  -0.88069  -0.85494
 Alpha  occ. eigenvalues --   -0.83773  -0.78374  -0.71701  -0.68301  -0.67516
 Alpha  occ. eigenvalues --   -0.64346  -0.63040  -0.61205  -0.59679  -0.58895
 Alpha  occ. eigenvalues --   -0.54873  -0.53486  -0.48559  -0.47679  -0.44090
 Alpha  occ. eigenvalues --   -0.40809  -0.40157  -0.36690  -0.30313
 Alpha virt. eigenvalues --    0.02546   0.03400   0.03955   0.05455   0.05660
 Alpha virt. eigenvalues --    0.06188   0.07594   0.08560   0.10308   0.10352
 Alpha virt. eigenvalues --    0.10514   0.12162   0.12651   0.12955   0.13677

 Mulliken charges:
               1
     1  C    0.747625
     2  C    0.102148
     3  C    0.587993
     4  C    0.450248
     5  C    0.949299
     6  C    0.954712
     7  H   -0.285469
     8  H   -0.113041
     9  H   -0.337642
    10  H   -0.048374
    11  H   -0.262688
    12  H   -0.054813
    13  H   -0.067993
    14  N   -0.410714
    15  N   -0.309812
    16  N   -0.466293
    17  N   -0.575846
    18  N   -0.859338
 Sum of Mulliken charges =  -0.00000

 Dipole moment (field-independent basis, Debye):
    X=             -1.3274    Y=             -1.8463    Z=             -0.0172  Tot=              2.2740

 Test job not archived.
 1\1\GINC-SE089\SP\RHF\Aug-CC-pVDZ\C6H7N5\OHZDE\08-Apr-2025\0\\#t hf au
 g-cc-pvdz iop(5/13=1,5/36=2,99/5=2) pseudo=read geom=check guess=(read
 ,tcheck) scf=(maxcycle=1)\\title\\0,1\C,0,3.33445,-0.635085,0.0224867\
 C,0,0.958591,-0.0943894,-0.00665216\C,0,0.242871,2.10066,0.0176783\C,0
 ,-1.32203,0.552584,-0.0191677\C,0,-2.28237,-1.42621,0.0106824\C,0,-0.4
 00206,-0.471094,0.00149264\H,0,-3.07882,-2.15488,-0.00135766\H,0,-3.43
 056,0.391872,-0.0129485\H,0,0.555945,3.14825,0.0447459\H,0,3.53465,0.1
 32469,-0.752093\H,0,3.94911,-1.51123,-0.199366\H,0,3.59878,-0.228978,1

 Normal termination of Gaussian 16 at Tue Apr  8 19:23:53 2025.
