 Gaussian 16, Revision C.01,

 ----------------------------------------------------------------------
 #t hf aug-cc-pvdz symm=none int=(grid=ultrafine) guess=(read,tcheck) s
 table=(opt,rrhf)
 ----------------------------------------------------------------------
 -----
 title
 -----
 Symbolic Z-matrix:
 Charge =  0 Multiplicity = 1

 SCF Done:  E(RHF) =  -207.045495167     A.U. after   13 cycles
 Normal termination of Gaussian 16 at Tue Apr  8 21:11:18 2025.
 Gaussian 16:  ES64L-G16RevC.01  3-Jul-2019

 ----------------------------------------------------------------------
 #t hf aug-cc-pvdz iop(5/13=1,5/36=2,99/5=2) pseudo=read geom=check gue
 ss=(read,tcheck) scf=(maxcycle=1)
 ----------------------------------------------------------------------
 -----
 title
 -----
 Structure from the checkpoint file:  "ANI1ccx_1888_conf24_mol1.chk"
 Charge =  0 Multiplicity = 1

                         Standard orientation:
 ---------------------------------------------------------------------
 Center     Atomic      Atomic             Coordinates (Angstroms)
 Number     Number       Type             X           Y           Z
 ---------------------------------------------------------------------
      1          1           0        0.418417    0.979802   -0.784340
      2          1           0        2.392039   -0.248609   -0.175109
      3          1           0        1.439489   -1.042880    0.783457
      4          1           0       -1.206211   -0.493639    0.089405
      5          1           0       -2.232731    0.539252    0.494928
      6          7           0        1.471889   -0.564049   -0.114419
      7          8           0        0.741013    0.743737    0.123958
      8          8           0       -2.130291   -0.216935   -0.074884
 ---------------------------------------------------------------------

 SCF Done:  E(RHF) =  -207.111888883     A.U. after    2 cycles

 The electronic state is 1-A.
 Alpha  occ. eigenvalues --  -20.62295 -20.56518 -15.69354  -1.33985  -1.29675
 Alpha  occ. eigenvalues --   -1.08906  -0.71897  -0.70946  -0.67231  -0.62444
 Alpha  occ. eigenvalues --   -0.59003  -0.53044  -0.51176  -0.45015
 Alpha virt. eigenvalues --    0.03309   0.04502   0.04862   0.07220   0.08681
 Alpha virt. eigenvalues --    0.11677   0.16608   0.18244   0.18476   0.19565
 Alpha virt. eigenvalues --    0.20873   0.21179   0.22471   0.24724   0.26487

 Mulliken charges:
               1
     1  H    0.240346
     2  H    0.046886
     3  H    0.121123
     4  H    0.182542
     5  H    0.122572
     6  N    0.107718
     7  O   -0.532574
     8  O   -0.288614
 Sum of Mulliken charges =  -0.00000

 Dipole moment (field-independent basis, Debye):
    X=              2.8577    Y=              0.5159    Z=              0.8726  Tot=              3.0322

 Test job not archived.
 1\1\GINC-SE184\SP\RHF\Aug-CC-pVDZ\H5N1O2\OHZDE\08-Apr-2025\0\\#t hf au
 g-cc-pvdz iop(5/13=1,5/36=2,99/5=2) pseudo=read geom=check guess=(read
 ,tcheck) scf=(maxcycle=1)\\title\\0,1\H,0,0.418418,0.979802,-0.78434\H
 ,0,2.39204,-0.248609,-0.175109\H,0,1.43949,-1.04288,0.783457\H,0,-1.20
 621,-0.493639,0.089405\H,0,-2.23273,0.539252,0.494928\N,0,1.47189,-0.5
 64049,-0.114419\O,0,0.741014,0.743737,0.123958\O,0,-2.13029,-0.216935,
 -0.0748841\\Version=ES64L-G16RevC.01\State=1-A\HF=-207.1118889\RMSD=1.
 866e-03\Dipole=1.1243237,0.2029638,0.3433227\Quadrupole=-0.5908402,0.0

 Normal termination of Gaussian 16 at Tue Apr  8 21:11:20 2025.
