 Gaussian 16, Revision C.01,

 ----------------------------------------------------------------------
 #t hf aug-cc-pvdz symm=none int=(grid=ultrafine) guess=(read,tcheck) s
 table=(opt,rrhf)
 ----------------------------------------------------------------------
 -----
 title
 -----
 Symbolic Z-matrix:
 Charge = -1 Multiplicity = 1

 SCF Done:  E(RHF) =  -278.966983975     A.U. after   11 cycles
 Normal termination of Gaussian 16 at Tue Apr  8 22:17:08 2025.
 Gaussian 16:  ES64L-G16RevC.01  3-Jul-2019

 ----------------------------------------------------------------------
 #t hf aug-cc-pvdz iop(5/13=1,5/36=2,99/5=2) pseudo=read geom=check gue
 ss=(read,tcheck) scf=(maxcycle=1)
 ----------------------------------------------------------------------
 -----
 title
 -----
 Structure from the checkpoint file:  "Anionpi_TFZ_NO3m_mol3.chk"
 Charge = -1 Multiplicity = 1

                         Standard orientation:
 ---------------------------------------------------------------------
 Center     Atomic      Atomic             Coordinates (Angstroms)
 Number     Number       Type             X           Y           Z
 ---------------------------------------------------------------------
      1          7           0       -0.012244    0.000301    0.000000
      2          8           0        0.035202    1.273946    0.000000
      3          8           0       -0.012244   -0.637105    1.103690
      4          8           0       -0.012244   -0.637105   -1.103690
 ---------------------------------------------------------------------

 SCF Done:  E(RHF) =  -279.052690592     A.U. after    2 cycles

 The electronic state is 1-A'.
 Alpha  occ. eigenvalues --  -20.38006 -20.38006 -20.37992 -15.73211  -1.32252
 Alpha  occ. eigenvalues --   -1.09912  -1.09912  -0.64324  -0.52029  -0.52029
 Alpha  occ. eigenvalues --   -0.51165  -0.31545  -0.31545  -0.26319  -0.26319
 Alpha  occ. eigenvalues --   -0.25489
 Alpha virt. eigenvalues --    0.25518   0.26478   0.26478   0.30496   0.33983
 Alpha virt. eigenvalues --    0.40316   0.40316   0.40704   0.41118   0.41118
 Alpha virt. eigenvalues --    0.45606   0.45713   0.45713   0.48152   0.56485

 Mulliken charges:
               1
     1  N    0.923164
     2  O   -0.641057
     3  O   -0.641053
     4  O   -0.641053
 Sum of Mulliken charges =  -1.00000

 Dipole moment (field-independent basis, Debye):
    X=             -0.0464    Y=              0.0011    Z=              0.0000  Tot=              0.0464

 Test job not archived.
 1\1\GINC-SE250\SP\RHF\Aug-CC-pVDZ\N1O3(1-)\OHZDE\08-Apr-2025\0\\#t hf
 aug-cc-pvdz iop(5/13=1,5/36=2,99/5=2) pseudo=read geom=check guess=(re
 ad,tcheck) scf=(maxcycle=1)\\title\\-1,1\N,0,0.,0.,-1.94782\O,0,1.2744
 3,0.,-1.932\O,0,-0.63721,1.10369,-1.932\O,0,-0.63721,-1.10369,-1.932\\
 Version=ES64L-G16RevC.01\State=1-A'\HF=-279.0526906\RMSD=4.742e-03\Dip
 ole=-0.0000101,0.,-0.0182701\Quadrupole=-1.9622439,-1.9622462,3.924490
 1,0.,0.0000003,0.\PG=CS [SG(N1O1),X(O2)]\\@

 Normal termination of Gaussian 16 at Tue Apr  8 22:17:10 2025.
