 Gaussian 16, Revision C.01,

 ----------------------------------------------------------------------
 #t hf aug-cc-pvdz symm=none int=(grid=ultrafine) guess=(read,tcheck) s
 table=(opt,rrhf)
 ----------------------------------------------------------------------
 -----
 title
 -----
 Symbolic Z-matrix:
 Charge =  0 Multiplicity = 1

 SCF Done:  E(RHF) =  -447.406297781     A.U. after   11 cycles
 Normal termination of Gaussian 16 at Tue Apr  8 22:18:11 2025.
 Gaussian 16:  ES64L-G16RevC.01  3-Jul-2019

 ----------------------------------------------------------------------
 #t hf aug-cc-pvdz iop(5/13=1,5/36=2,99/5=2) pseudo=read geom=check gue
 ss=(read,tcheck) scf=(maxcycle=1)
 ----------------------------------------------------------------------
 -----
 title
 -----
 Structure from the checkpoint file:  "B-set_b2f4_b2f4_090_dimer_mol3.chk"
 Charge =  0 Multiplicity = 1

                         Standard orientation:
 ---------------------------------------------------------------------
 Center     Atomic      Atomic             Coordinates (Angstroms)
 Number     Number       Type             X           Y           Z
 ---------------------------------------------------------------------
      1          5           0       -0.858112   -0.010857   -0.006082
      2          5           0        0.866606    0.005773   -0.011600
      3          9           0       -1.562034    0.960008   -0.572733
      4          9           0       -1.544420   -0.968718    0.575773
      5          9           0        1.539306    0.973819    0.575444
      6          9           0        1.562429   -0.962285   -0.568660
 ---------------------------------------------------------------------

 SCF Done:  E(RHF) =  -447.590578640     A.U. after    2 cycles

 The electronic state is 1-A.
 Alpha  occ. eigenvalues --  -26.16027 -26.16026 -26.16002 -26.15630  -7.75926
 Alpha  occ. eigenvalues --   -7.75851  -1.71652  -1.71310  -1.69291  -1.68910
 Alpha  occ. eigenvalues --   -0.90689  -0.89607  -0.84636  -0.83817  -0.82989
 Alpha  occ. eigenvalues --   -0.79040  -0.78632  -0.78529  -0.74170  -0.73882
 Alpha  occ. eigenvalues --   -0.73746  -0.73353  -0.54637
 Alpha virt. eigenvalues --    0.04031   0.04499   0.04934   0.05532   0.07489
 Alpha virt. eigenvalues --    0.07575   0.07869   0.09360   0.13633   0.15472
 Alpha virt. eigenvalues --    0.20312   0.21855   0.24776   0.24917   0.25822

 Mulliken charges:
               1
     1  B    0.923161
     2  B    0.926481
     3  F   -0.475104
     4  F   -0.457470
     5  F   -0.461278
     6  F   -0.455790
 Sum of Mulliken charges =  -0.00000

 Dipole moment (field-independent basis, Debye):
    X=              0.0731    Y=             -0.0537    Z=             -0.0539  Tot=              0.1055

 Test job not archived.
 1\1\GINC-SE454\SP\RHF\Aug-CC-pVDZ\B2F4\OHZDE\08-Apr-2025\0\\#t hf aug-
 cc-pvdz iop(5/13=1,5/36=2,99/5=2) pseudo=read geom=check guess=(read,t
 check) scf=(maxcycle=1)\\title\\0,1\B,0,-1.49397,-0.78141,-0.71312\B,0
 ,-2.06981,0.44791,0.3509\F,0,-0.52241,-0.54418,-1.58431\F,0,-2.00536,-
 1.99198,-0.7217\F,0,-2.62042,1.549,-0.11674\F,0,-2.01046,0.30983,1.658
 2\\Version=ES64L-G16RevC.01\State=1-A\HF=-447.5905786\RMSD=8.232e-03\D
 ipole=0.0049736,0.0074092,0.0405516\Quadrupole=2.176662,-1.3814694,-0.
 7951926,0.8631766,1.7969495,-0.9024506\PG=C01 [X(B2F4)]\\@

 Normal termination of Gaussian 16 at Tue Apr  8 22:18:13 2025.
