 Gaussian 16, Revision C.01,

 ----------------------------------------------------------------------
 #t hf aug-cc-pvdz symm=none int=(grid=ultrafine) guess=(read,tcheck) s
 table=(opt,rrhf)
 ----------------------------------------------------------------------
 -----
 title
 -----
 Symbolic Z-matrix:
 Charge =  0 Multiplicity = 1

 SCF Done:  E(RHF) =  -464.880460223     A.U. after   15 cycles
 Normal termination of Gaussian 16 at Tue Apr  8 22:22:18 2025.
 Gaussian 16:  ES64L-G16RevC.01  3-Jul-2019

 ----------------------------------------------------------------------
 #t hf aug-cc-pvdz iop(5/13=1,5/36=2,99/5=2) pseudo=read geom=check gue
 ss=(read,tcheck) scf=(maxcycle=1)
 ----------------------------------------------------------------------
 -----
 title
 -----
 Structure from the checkpoint file:  "B-set_azaborine_benzene_090_dimer_mol1.chk"
 Charge =  0 Multiplicity = 1

                         Standard orientation:
 ---------------------------------------------------------------------
 Center     Atomic      Atomic             Coordinates (Angstroms)
 Number     Number       Type             X           Y           Z
 ---------------------------------------------------------------------
      1          7           0        0.752719    0.197885   -0.054973
      2          5           0        1.554123    1.377467   -0.032637
      3          6           0        1.266585   -1.057290   -0.038332
      4          1           0       -0.252696    0.258030   -0.083077
      5          6           0        3.044170    1.131151    0.010598
      6          1           0        0.997173    2.434089   -0.049377
      7          6           0        2.607796   -1.264210    0.000646
      8          1           0        0.557546   -1.873478   -0.057226
      9          6           0        3.495684   -0.157891    0.024937
     10          1           0        3.777345    1.928009    0.030999
     11          1           0        2.987263   -2.274781    0.013029
     12          1           0        4.559211   -0.370414    0.055759
     13          6           0       -2.063868   -0.169843    1.393006
     14          6           0       -2.124607    1.104003    0.846618
     15          6           0       -2.039323   -1.280679    0.562065
     16          1           0       -2.030068   -0.296462    2.466128
     17          6           0       -2.160103    1.267203   -0.530954
     18          1           0       -2.135524    1.969986    1.493524
     19          6           0       -2.074638   -1.117828   -0.815587
     20          1           0       -1.991856   -2.273318    0.988636
     21          6           0       -2.134838    0.156228   -1.362097
     22          1           0       -2.198899    2.260133   -0.956587
     23          1           0       -2.053944   -1.983139   -1.463777
     24          1           0       -2.156349    0.283753   -2.435435
 ---------------------------------------------------------------------

 SCF Done:  E(RHF) =  -465.020146500     A.U. after    2 cycles

 The electronic state is 1-A.
 Alpha  occ. eigenvalues --  -15.62671 -11.27857 -11.26011 -11.25928 -11.25867
 Alpha  occ. eigenvalues --  -11.25814 -11.25751 -11.25666 -11.24170 -11.21666
 Alpha  occ. eigenvalues --  -11.18965  -7.57090  -1.19991  -1.16460  -1.05257
 Alpha  occ. eigenvalues --   -1.02944  -1.02871  -0.95955  -0.84301  -0.84288
 Alpha  occ. eigenvalues --   -0.82115  -0.76989  -0.73463  -0.71888  -0.65917
 Alpha  occ. eigenvalues --   -0.64366  -0.62188  -0.61603  -0.60902  -0.60898
 Alpha  occ. eigenvalues --   -0.58845  -0.55003  -0.52223  -0.51547  -0.51328
 Alpha  occ. eigenvalues --   -0.51308  -0.47757  -0.44770  -0.38584  -0.36038
 Alpha  occ. eigenvalues --   -0.35447  -0.29467
 Alpha virt. eigenvalues --    0.02842   0.03581   0.03825   0.04263   0.05511
 Alpha virt. eigenvalues --    0.05564   0.05664   0.06273   0.07161   0.07406
 Alpha virt. eigenvalues --    0.07848   0.08309   0.08590   0.08860   0.09876

 Mulliken charges:
               1
     1  N    0.068766
     2  B   -0.428536
     3  C    0.579612
     4  H   -0.140565
     5  C    0.831444
     6  H    0.429336
     7  C    0.570754
     8  H   -0.580601
     9  C   -0.079753
    10  H   -0.481663
    11  H   -0.446582
    12  H   -0.442101
    13  C    0.591397
    14  C    0.534168
    15  C    0.526778
    16  H   -0.539394
    17  C    0.515084
    18  H   -0.527249
    19  C    0.512435
    20  H   -0.520981
    21  C    0.625829
    22  H   -0.537738
    23  H   -0.521370
    24  H   -0.539070
 Sum of Mulliken charges =  -0.00000

 Dipole moment (field-independent basis, Debye):
    X=             -2.3332    Y=             -1.4417    Z=              0.0060  Tot=              2.7427

 Test job not archived.
 1\1\GINC-SE339\SP\RHF\Aug-CC-pVDZ\C10H12B1N1\OHZDE\08-Apr-2025\0\\#t h
 f aug-cc-pvdz iop(5/13=1,5/36=2,99/5=2) pseudo=read geom=check guess=(
 read,tcheck) scf=(maxcycle=1)\\title\\0,1\N,0,-0.98689,0.19856,0.05529
 \B,0,-1.78972,1.37715,0.03178\C,0,-1.49918,-1.05725,0.03801\H,0,0.0184
 1,0.25995,0.08478\C,0,-3.2794,1.12899,-0.0135\H,0,-1.2341,2.43446,0.04
 923\C,0,-2.84008,-1.26583,-0.00281\H,0,-0.78916,-1.87256,0.05793\C,0,-
 3.7293,-0.16061,-0.02839\H,0,-4.01353,1.92494,-0.03496\H,0,-3.21828,-2
 .27687,-0.01566\H,0,-4.79252,-0.37445,-0.06067\C,0,1.83214758,-0.16576

 Normal termination of Gaussian 16 at Tue Apr  8 22:22:37 2025.
