 Gaussian 16, Revision C.01,

 ----------------------------------------------------------------------
 #t hf aug-cc-pvdz symm=none int=(grid=ultrafine) guess=(read,tcheck) s
 table=(opt,rrhf)
 ----------------------------------------------------------------------
 -----
 title
 -----
 Symbolic Z-matrix:
 Charge =  0 Multiplicity = 1

 SCF Done:  E(RHF) =  -219.221180759     A.U. after   14 cycles
 Normal termination of Gaussian 16 at Tue Apr  8 22:22:36 2025.
 Gaussian 16:  ES64L-G16RevC.01  3-Jul-2019

 ----------------------------------------------------------------------
 #t hf aug-cc-pvdz iop(5/13=1,5/36=2,99/5=2) pseudo=read geom=check gue
 ss=(read,tcheck) scf=(maxcycle=1)
 ----------------------------------------------------------------------
 -----
 title
 -----
 Structure from the checkpoint file:  "B-set_borole_methane_090_dimer_mol1.chk"
 Charge =  0 Multiplicity = 1

                         Standard orientation:
 ---------------------------------------------------------------------
 Center     Atomic      Atomic             Coordinates (Angstroms)
 Number     Number       Type             X           Y           Z
 ---------------------------------------------------------------------
      1          5           0        0.068848   -0.172253    1.185413
      2          6           0       -0.657640   -1.265473    0.305994
      3          6           0       -0.335374    1.202521    0.521397
      4          1           0        0.726862   -0.344125    2.163638
      5          6           0       -1.351930   -0.593718   -0.614059
      6          1           0       -0.661238   -2.341980    0.388804
      7          6           0       -1.156412    0.897320   -0.484525
      8          1           0       -0.062694    2.213582    0.784178
      9          1           0       -1.989868   -1.021830   -1.377795
     10          1           0       -1.644456    1.597346   -1.151705
     11          6           0        2.429293   -0.068395   -0.511171
     12          1           0        3.336650   -0.563646   -0.849651
     13          1           0        2.389533    0.942220   -0.909580
     14          1           0        1.562176   -0.627427   -0.857842
     15          1           0        2.431170   -0.026409    0.577067
 ---------------------------------------------------------------------

 SCF Done:  E(RHF) =  -219.290899308     A.U. after    2 cycles

 The electronic state is 1-A.
 Alpha  occ. eigenvalues --  -11.25619 -11.25515 -11.21493 -11.21127 -11.21087
 Alpha  occ. eigenvalues --   -7.61377  -1.10795  -0.96651  -0.94156  -0.83465
 Alpha  occ. eigenvalues --   -0.71190  -0.69940  -0.64310  -0.57308  -0.55316
 Alpha  occ. eigenvalues --   -0.54817  -0.54716  -0.51672  -0.46965  -0.46341
 Alpha  occ. eigenvalues --   -0.45325  -0.32013
 Alpha virt. eigenvalues --    0.02912   0.03402   0.04267   0.04406   0.04985
 Alpha virt. eigenvalues --    0.05819   0.06252   0.06463   0.07406   0.08095
 Alpha virt. eigenvalues --    0.08677   0.09799   0.12183   0.13339   0.14201

 Mulliken charges:
               1
     1  B   -0.033058
     2  C    0.326897
     3  C    0.428242
     4  H    0.381542
     5  C    0.266229
     6  H   -0.441831
     7  C    0.232027
     8  H   -0.465143
     9  H   -0.387160
    10  H   -0.397207
    11  C    0.736780
    12  H   -0.192013
    13  H   -0.112331
    14  H   -0.158011
    15  H   -0.184963
 Sum of Mulliken charges =  -0.00000

 Dipole moment (field-independent basis, Debye):
    X=             -0.3355    Y=              0.1385    Z=             -0.7886  Tot=              0.8681

 Test job not archived.
 1\1\GINC-SE457\SP\RHF\Aug-CC-pVDZ\C5H9B1\OHZDE\08-Apr-2025\0\\#t hf au
 g-cc-pvdz iop(5/13=1,5/36=2,99/5=2) pseudo=read geom=check guess=(read
 ,tcheck) scf=(maxcycle=1)\\title\\0,1\B,0,0.06513,-0.1638,-1.2018\C,0,
 0.7417,-1.2672,-0.29568\C,0,0.44816,1.2043,-0.51194\H,0,-0.54783,-0.32
 544,-2.21056\C,0,1.39732,-0.60567,0.65948\H,0,0.74116,-2.34325,-0.3843
 \C,0,1.21913,0.88749,0.52939\H,0,0.19554,2.2188,-0.78143\H,0,1.99577,-
 1.0427,1.44967\H,0,1.68073,1.58021,1.22251\C,0,-2.3709919,-0.0507848,0
 .3835762\H,0,-3.2967919,-0.5408348,0.6766362\H,0,-2.3423419,0.9573752,

 Normal termination of Gaussian 16 at Tue Apr  8 22:22:41 2025.
