 Gaussian 16, Revision C.01,

 ----------------------------------------------------------------------
 #t hf aug-cc-pvdz symm=none int=(grid=ultrafine) guess=(read,tcheck) s
 table=(opt,rrhf)
 ----------------------------------------------------------------------
 -----
 title
 -----
 Symbolic Z-matrix:
 Charge =  0 Multiplicity = 1

 SCF Done:  E(RHF) =  -327.278572649     A.U. after   11 cycles
 Normal termination of Gaussian 16 at Tue Apr  8 22:21:15 2025.
 Gaussian 16:  ES64L-G16RevC.01  3-Jul-2019

 ----------------------------------------------------------------------
 #t hf aug-cc-pvdz iop(5/13=1,5/36=2,99/5=2) pseudo=read geom=check gue
 ss=(read,tcheck) scf=(maxcycle=1)
 ----------------------------------------------------------------------
 -----
 title
 -----
 Structure from the checkpoint file:  "B-set_boricacid_h2o_200_dimer_mol1.chk"
 Charge =  0 Multiplicity = 1

                         Standard orientation:
 ---------------------------------------------------------------------
 Center     Atomic      Atomic             Coordinates (Angstroms)
 Number     Number       Type             X           Y           Z
 ---------------------------------------------------------------------
      1          5           0       -1.541564   -0.021635   -0.001502
      2          8           0       -0.922659   -1.223970   -0.017472
      3          8           0       -0.802302    1.144734   -0.021012
      4          8           0       -2.903086    0.079889    0.037543
      5          1           0        0.041304   -1.146622   -0.062613
      6          1           0       -1.352301    1.925640   -0.023108
      7          1           0       -3.330938   -0.774158    0.041791
      8          8           0        4.930536   -0.074261   -0.072651
      9          1           0        4.394550    0.725767   -0.025556
     10          1           0        5.535289   -0.033595    0.665734
 ---------------------------------------------------------------------

 SCF Done:  E(RHF) =  -327.394976640     A.U. after    2 cycles

 The electronic state is 1-A.
 Alpha  occ. eigenvalues --  -20.58582 -20.58270 -20.58171 -20.57901  -7.68788
 Alpha  occ. eigenvalues --   -1.36327  -1.31711  -1.31483  -1.31011  -0.79590
 Alpha  occ. eigenvalues --   -0.76048  -0.75538  -0.73759  -0.61943  -0.59942
 Alpha  occ. eigenvalues --   -0.59727  -0.59003  -0.58313  -0.53138  -0.53042
 Alpha  occ. eigenvalues --   -0.52662
 Alpha virt. eigenvalues --    0.03076   0.04120   0.05360   0.05913   0.06195
 Alpha virt. eigenvalues --    0.06877   0.08085   0.09335   0.10467   0.17084
 Alpha virt. eigenvalues --    0.19743   0.20249   0.20442   0.20843   0.20997

 Mulliken charges:
               1
     1  B    0.738026
     2  O   -0.422486
     3  O   -0.445733
     4  O   -0.418373
     5  H    0.203841
     6  H    0.171717
     7  H    0.173820
     8  O   -0.272504
     9  H    0.140432
    10  H    0.131260
 Sum of Mulliken charges =   0.00000

 Dipole moment (field-independent basis, Debye):
    X=              0.1126    Y=              1.2771    Z=              1.3072  Tot=              1.8310

 Test job not archived.
 1\1\GINC-SE368\SP\RHF\Aug-CC-pVDZ\B1H5O4\OHZDE\08-Apr-2025\0\\#t hf au
 g-cc-pvdz iop(5/13=1,5/36=2,99/5=2) pseudo=read geom=check guess=(read
 ,tcheck) scf=(maxcycle=1)\\title\\0,1\B,0,-0.76791,-0.02465,0.00325\O,
 0,-0.10569,-1.20379,0.00191\O,0,-0.07109,1.16772,0.00192\O,0,-2.13276,
 0.02751,0.00942\H,0,0.85565,-1.09157,-0.01991\H,0,-0.64878,1.92822,-0.
 01325\H,0,-2.5294,-0.84146,0.0031\O,0,5.70168571,0.1569681,0.08845714\
 H,0,5.13611571,0.93702809,0.12280714\H,0,6.28657571,0.2186381,0.841247
 14\\Version=ES64L-G16RevC.01\State=1-A\HF=-327.3949766\RMSD=2.187e-03\

 Normal termination of Gaussian 16 at Tue Apr  8 22:21:18 2025.
