 Gaussian 16, Revision C.01,

 ----------------------------------------------------------------------
 #t hf aug-cc-pvdz symm=none int=(grid=ultrafine) guess=(read,tcheck) s
 table=(opt,rrhf)
 ----------------------------------------------------------------------
 -----
 title
 -----
 Symbolic Z-matrix:
 Charge =  0 Multiplicity = 1

 SCF Done:  E(RHF) =  -219.224343031     A.U. after   14 cycles
 Normal termination of Gaussian 16 at Tue Apr  8 22:22:36 2025.
 Gaussian 16:  ES64L-G16RevC.01  3-Jul-2019

 ----------------------------------------------------------------------
 #t hf aug-cc-pvdz iop(5/13=1,5/36=2,99/5=2) pseudo=read geom=check gue
 ss=(read,tcheck) scf=(maxcycle=1)
 ----------------------------------------------------------------------
 -----
 title
 -----
 Structure from the checkpoint file:  "B-set_borole_methane_095_dimer_mol1.chk"
 Charge =  0 Multiplicity = 1

                         Standard orientation:
 ---------------------------------------------------------------------
 Center     Atomic      Atomic             Coordinates (Angstroms)
 Number     Number       Type             X           Y           Z
 ---------------------------------------------------------------------
      1          5           0       -0.000440   -0.167545    1.194901
      2          6           0       -0.699731   -1.266417    0.300605
      3          6           0       -0.393369    1.203546    0.516644
      4          1           0        0.633170   -0.333750    2.190068
      5          6           0       -1.373176   -0.600320   -0.638851
      6          1           0       -0.700937   -2.342682    0.386564
      7          6           0       -1.187251    0.891910   -0.508912
      8          1           0       -0.131694    2.216523    0.783207
      9          1           0       -1.989670   -1.033377   -1.417268
     10          1           0       -1.661073    1.587896   -1.190416
     11          6           0        2.577132   -0.062754   -0.474831
     12          1           0        3.494873   -0.555130   -0.788609
     13          1           0        2.543304    0.946511   -0.877189
     14          1           0        1.721466   -0.626484   -0.841755
     15          1           0        2.551131   -0.017574    0.612969
 ---------------------------------------------------------------------

 SCF Done:  E(RHF) =  -219.294191141     A.U. after    2 cycles

 The electronic state is 1-A.
 Alpha  occ. eigenvalues --  -11.25735 -11.25642 -11.21515 -11.21153 -11.21122
 Alpha  occ. eigenvalues --   -7.61398  -1.10839  -0.96693  -0.93997  -0.83530
 Alpha  occ. eigenvalues --   -0.71233  -0.69974  -0.64194  -0.57358  -0.55017
 Alpha  occ. eigenvalues --   -0.54726  -0.54640  -0.51796  -0.47030  -0.46375
 Alpha  occ. eigenvalues --   -0.45621  -0.32057
 Alpha virt. eigenvalues --    0.02853   0.03288   0.04270   0.04407   0.04975
 Alpha virt. eigenvalues --    0.05820   0.06268   0.06448   0.07387   0.08100
 Alpha virt. eigenvalues --    0.08678   0.09678   0.12187   0.13371   0.14196

 Mulliken charges:
               1
     1  B   -0.037084
     2  C    0.322697
     3  C    0.431942
     4  H    0.424798
     5  C    0.270030
     6  H   -0.439454
     7  C    0.211918
     8  H   -0.459076
     9  H   -0.388408
    10  H   -0.397758
    11  C    0.723972
    12  H   -0.192002
    13  H   -0.118655
    14  H   -0.172521
    15  H   -0.180398
 Sum of Mulliken charges =   0.00000

 Dipole moment (field-independent basis, Debye):
    X=             -0.3826    Y=              0.1398    Z=             -0.7896  Tot=              0.8884

 Test job not archived.
 1\1\GINC-SE073\SP\RHF\Aug-CC-pVDZ\C5H9B1\OHZDE\08-Apr-2025\0\\#t hf au
 g-cc-pvdz iop(5/13=1,5/36=2,99/5=2) pseudo=read geom=check guess=(read
 ,tcheck) scf=(maxcycle=1)\\title\\0,1\B,0,0.06513,-0.1638,-1.2018\C,0,
 0.7417,-1.2672,-0.29568\C,0,0.44816,1.2043,-0.51194\H,0,-0.54783,-0.32
 544,-2.21056\C,0,1.39732,-0.60567,0.65948\H,0,0.74116,-2.34325,-0.3843
 \C,0,1.21913,0.88749,0.52939\H,0,0.19554,2.2188,-0.78143\H,0,1.99577,-
 1.0427,1.44967\H,0,1.68073,1.58021,1.22251\C,0,-2.54683095,-0.0544174,
 0.4133031\H,0,-3.47263095,-0.5444674,0.7063631\H,0,-2.51818095,0.95374

 Normal termination of Gaussian 16 at Tue Apr  8 22:22:41 2025.
