 Gaussian 16, Revision C.01,

 ----------------------------------------------------------------------
 #t hf aug-cc-pvdz symm=none int=(grid=ultrafine) guess=(read,tcheck) s
 table=(opt,rrhf)
 ----------------------------------------------------------------------
 -----
 title
 -----
 Symbolic Z-matrix:
 Charge =  0 Multiplicity = 1

 SCF Done:  E(RHF) =  -463.678063821     A.U. after   16 cycles
 Normal termination of Gaussian 16 at Tue Apr  8 22:23:32 2025.
 Gaussian 16:  ES64L-G16RevC.01  3-Jul-2019

 ----------------------------------------------------------------------
 #t hf aug-cc-pvdz iop(5/13=1,5/36=2,99/5=2) pseudo=read geom=check gue
 ss=(read,tcheck) scf=(maxcycle=1)
 ----------------------------------------------------------------------
 -----
 title
 -----
 Structure from the checkpoint file:  "B-set_borabenzene_pyridine_110_dimer_mol1.chk"
 Charge =  0 Multiplicity = 1

                         Standard orientation:
 ---------------------------------------------------------------------
 Center     Atomic      Atomic             Coordinates (Angstroms)
 Number     Number       Type             X           Y           Z
 ---------------------------------------------------------------------
      1          6           0       -1.581907    1.234661    0.364095
      2          6           0       -2.969477    1.163901    0.350075
      3          6           0       -3.649786   -0.000029   -0.000055
      4          6           0       -2.969376   -1.163939   -0.350015
      5          6           0       -1.581746   -1.234709   -0.364155
      6          1           0       -4.732056   -0.000049   -0.000125
      7          1           0       -1.136987    2.174541    0.680865
      8          1           0       -3.556927    2.033731    0.625805
      9          1           0       -3.556806   -2.033659   -0.626125
     10          1           0       -1.137176   -2.174499   -0.681655
     11          5           0       -0.840156   -0.000009    0.000015
     12          6           0        1.544773   -1.092099    0.383686
     13          6           0        2.920653   -1.127049    0.387036
     14          6           0        3.626133    0.000011   -0.000174
     15          6           0        2.920552    1.127131   -0.387094
     16          6           0        1.544692    1.092101   -0.383424
     17          7           0        0.865823   -0.000009    0.000136
     18          1           0        4.706673    0.000012   -0.000284
     19          1           0        0.937503   -1.927049    0.697036
     20          1           0        3.425883   -2.027259    0.701936
     21          1           0        3.425682    2.027411   -0.701954
     22          1           0        0.937172    1.927031   -0.696344
 ---------------------------------------------------------------------

 SCF Done:  E(RHF) =  -463.814002494     A.U. after    2 cycles

 The electronic state is 1-A.
 Alpha  occ. eigenvalues --  -15.72311 -11.33914 -11.33902 -11.31582 -11.29345
 Alpha  occ. eigenvalues --  -11.29343 -11.20284 -11.20279 -11.17982 -11.16839
 Alpha  occ. eigenvalues --  -11.16819  -7.56107  -1.30388  -1.13505  -1.08706
 Alpha  occ. eigenvalues --   -1.05887  -0.95392  -0.91650  -0.91544  -0.88121
 Alpha  occ. eigenvalues --   -0.78952  -0.75679  -0.72342  -0.70841  -0.69532
 Alpha  occ. eigenvalues --   -0.65725  -0.65609  -0.62364  -0.61210  -0.57264
 Alpha  occ. eigenvalues --   -0.56059  -0.54246  -0.53926  -0.50713  -0.45887
 Alpha  occ. eigenvalues --   -0.45164  -0.43337  -0.41530  -0.40028  -0.29628
 Alpha  occ. eigenvalues --   -0.24293
 Alpha virt. eigenvalues --    0.01530   0.02771   0.03553   0.03908   0.05255
 Alpha virt. eigenvalues --    0.05306   0.05694   0.06430   0.06942   0.06952
 Alpha virt. eigenvalues --    0.07099   0.07818   0.08968   0.09408   0.09700

 Mulliken charges:
               1
     1  C    0.737291
     2  C    0.225106
     3  C   -0.031174
     4  C    0.225129
     5  C    0.737320
     6  H   -0.519527
     7  H   -0.639211
     8  H   -0.496054
     9  H   -0.496139
    10  H   -0.639000
    11  B    0.782417
    12  C    0.643311
    13  C    0.884018
    14  C   -0.086383
    15  C    0.884154
    16  C    0.642877
    17  N   -0.560050
    18  H   -0.408692
    19  H   -0.536196
    20  H   -0.406428
    21  H   -0.406375
    22  H   -0.536395
 Sum of Mulliken charges =  -0.00000

 Dipole moment (field-independent basis, Debye):
    X=              9.0727    Y=              0.0004    Z=             -0.0004  Tot=              9.0727

 Test job not archived.
 1\1\GINC-SE099\SP\RHF\Aug-CC-pVDZ\C10H10B1N1\OHZDE\08-Apr-2025\0\\#t h
 f aug-cc-pvdz iop(5/13=1,5/36=2,99/5=2) pseudo=read geom=check guess=(
 read,tcheck) scf=(maxcycle=1)\\title\\0,1\C,0,1.50247,-1.23466,0.3641\
 C,0,2.89004,-1.1639,0.35008\C,0,3.57035,0.00003,-0.00005\C,0,2.88994,1
 .16394,-0.35001\C,0,1.50231,1.23471,-0.36415\H,0,4.65262,0.00005,-0.00
 012\H,0,1.05755,-2.17454,0.68087\H,0,3.47749,-2.03373,0.62581\H,0,3.47
 737,2.03366,-0.62612\H,0,1.05774,2.1745,-0.68165\B,0,0.76072,0.00001,0
 .00002\C,0,-1.624209,1.0921,0.383691\C,0,-3.000089,1.12705,0.387041\C,

 Normal termination of Gaussian 16 at Tue Apr  8 22:23:48 2025.
