 Gaussian 16, Revision C.01,

 ----------------------------------------------------------------------
 #t hf aug-cc-pvdz symm=none int=(grid=ultrafine) guess=(read,tcheck) s
 table=(opt,rrhf)
 ----------------------------------------------------------------------
 -----
 title
 -----
 Symbolic Z-matrix:
 Charge =  0 Multiplicity = 1

 SCF Done:  E(RHF) =  -736.592404733     A.U. after   11 cycles
 Normal termination of Gaussian 16 at Tue Apr  8 22:32:51 2025.
 Gaussian 16:  ES64L-G16RevC.01  3-Jul-2019

 ----------------------------------------------------------------------
 #t hf aug-cc-pvdz iop(5/13=1,5/36=2,99/5=2) pseudo=read geom=check gue
 ss=(read,tcheck) scf=(maxcycle=1)
 ----------------------------------------------------------------------
 -----
 title
 -----
 Structure from the checkpoint file:  "B-set_trimethylborate_trimethylborate_105_dimer_mol1.chk"
 Charge =  0 Multiplicity = 1

                         Standard orientation:
 ---------------------------------------------------------------------
 Center     Atomic      Atomic             Coordinates (Angstroms)
 Number     Number       Type             X           Y           Z
 ---------------------------------------------------------------------
      1          5           0        1.686156   -0.001417    0.000625
      2          8           0        1.687565   -1.340914    0.246538
      3          8           0        1.690971    0.881410    1.037575
      4          8           0        1.690962    0.455347   -1.282390
      5          6           0        1.626968   -1.834411    1.571094
      6          6           0        1.633614    2.275374    0.802725
      7          6           0        1.632056   -0.444882   -2.372152
      8          1           0        0.632450   -1.676476    1.989402
      9          1           0        1.834234   -2.901763    1.531750
     10          1           0        2.363896   -1.347777    2.210171
     11          1           0        1.846340    2.774645    1.745676
     12          1           0        2.368205    2.583107    0.058413
     13          1           0        0.638488    2.561516    0.460873
     14          1           0        1.837064    0.123466   -3.276934
     15          1           0        2.371226   -1.239713   -2.271149
     16          1           0        0.638770   -0.888893   -2.444080
     17          5           0       -1.686096    0.001235   -0.000627
     18          8           0       -1.690431   -0.880513   -1.038517
     19          8           0       -1.690411   -0.456659    1.282009
     20          8           0       -1.688315    1.341002   -0.245240
     21          6           0       -1.632615   -2.274687   -0.804678
     22          6           0       -1.631375    0.442981    2.372382
     23          6           0       -1.628948    1.835979   -1.569286
     24          1           0       -2.369256   -2.583642   -0.062915
     25          1           0       -1.842100   -2.773248   -1.748719
     26          1           0       -0.638308   -2.560337   -0.460026
     27          1           0       -1.837263   -0.125698    3.276764
     28          1           0       -0.637689    0.886031    2.444910
     29          1           0       -2.369865    1.238391    2.271307
     30          1           0       -0.634481    1.679614   -1.988365
     31          1           0       -2.365557    1.349125   -2.208553
     32          1           0       -1.837374    2.903052   -1.528822
 ---------------------------------------------------------------------

 SCF Done:  E(RHF) =  -736.853922973     A.U. after    2 cycles

 The electronic state is 1-A.
 Alpha  occ. eigenvalues --  -20.56477 -20.56476 -20.56476 -20.56475 -20.56474
 Alpha  occ. eigenvalues --  -20.56474 -11.27796 -11.27794 -11.27794 -11.27794
 Alpha  occ. eigenvalues --  -11.27793 -11.27792  -7.66750  -7.66749  -1.35726
 Alpha  occ. eigenvalues --   -1.35509  -1.31046  -1.31046  -1.30919  -1.30919
 Alpha  occ. eigenvalues --   -0.94415  -0.94196  -0.92920  -0.92919  -0.92909
 Alpha  occ. eigenvalues --   -0.92907  -0.73598  -0.73446  -0.70466  -0.70465
 Alpha  occ. eigenvalues --   -0.70207  -0.70205  -0.68191  -0.65478  -0.63040
 Alpha  occ. eigenvalues --   -0.63038  -0.61951  -0.61947  -0.61194  -0.61194
 Alpha  occ. eigenvalues --   -0.61068  -0.61064  -0.58953  -0.58859  -0.51576
 Alpha  occ. eigenvalues --   -0.51224  -0.50065  -0.50015  -0.49247  -0.49246
 Alpha  occ. eigenvalues --   -0.49215  -0.49212  -0.45989  -0.45984  -0.45633
 Alpha  occ. eigenvalues --   -0.45630
 Alpha virt. eigenvalues --    0.03107   0.04194   0.04326   0.04328   0.05384
 Alpha virt. eigenvalues --    0.05384   0.05636   0.05854   0.05857   0.07579
 Alpha virt. eigenvalues --    0.07582   0.07594   0.08051   0.08186   0.08187

 Mulliken charges:
               1
     1  B    0.839863
     2  O   -0.717843
     3  O   -0.717479
     4  O   -0.720152
     5  C    1.159000
     6  C    1.158804
     7  C    1.158938
     8  H   -0.223331
     9  H   -0.284762
    10  H   -0.212287
    11  H   -0.284449
    12  H   -0.212305
    13  H   -0.223331
    14  H   -0.285132
    15  H   -0.211760
    16  H   -0.223811
    17  B    0.839708
    18  O   -0.717492
    19  O   -0.719723
    20  O   -0.717966
    21  C    1.159519
    22  C    1.159541
    23  C    1.158079
    24  H   -0.212834
    25  H   -0.284848
    26  H   -0.223130
    27  H   -0.285171
    28  H   -0.223455
    29  H   -0.212684
    30  H   -0.222199
    31  H   -0.212514
    32  H   -0.284794
 Sum of Mulliken charges =  -0.00000

 Dipole moment (field-independent basis, Debye):
    X=             -0.0015    Y=              0.0007    Z=              0.0003  Tot=              0.0016

 Test job not archived.
 1\1\GINC-SE460\SP\RHF\Aug-CC-pVDZ\C6H18B2O6\OHZDE\08-Apr-2025\0\\#t hf
  aug-cc-pvdz iop(5/13=1,5/36=2,99/5=2) pseudo=read geom=check guess=(r
 ead,tcheck) scf=(maxcycle=1)\\title\\0,1\B,0,1.60824,0.00191,-0.00082\
 O,0,1.60915,1.34156,-0.2459\O,0,1.61322,-0.88027,-1.03832\O,0,1.61338,
 -0.45565,1.28191\C,0,1.5482,1.83586,-1.57014\C,0,1.55638,-2.2744,-0.80
 433\C,0,1.55431,0.44388,2.37224\H,0,0.55368,1.67784,-1.98841\H,0,1.755
 1,2.90326,-1.53016\H,0,2.28521,1.34988,-2.20962\H,0,1.76915,-2.77301,-
 1.74762\H,0,2.29118,-2.58234,-0.06031\H,0,0.5614,-2.5611,-0.46252\H,0,

 Normal termination of Gaussian 16 at Tue Apr  8 22:33:27 2025.
