 Gaussian 16, Revision C.01,

 ----------------------------------------------------------------------
 #t hf aug-cc-pvdz symm=none int=(grid=ultrafine) guess=(read,tcheck) s
 table=(opt,rrhf)
 ----------------------------------------------------------------------
 -----
 title
 -----
 Symbolic Z-matrix:
 Charge =  0 Multiplicity = 1

 SCF Done:  E(RHF) =  -497.137880096     A.U. after   14 cycles
 Normal termination of Gaussian 16 at Tue Apr  8 22:24:26 2025.
 Gaussian 16:  ES64L-G16RevC.01  3-Jul-2019

 ----------------------------------------------------------------------
 #t hf aug-cc-pvdz iop(5/13=1,5/36=2,99/5=2) pseudo=read geom=check gue
 ss=(read,tcheck) scf=(maxcycle=1)
 ----------------------------------------------------------------------
 -----
 title
 -----
 Structure from the checkpoint file:  "B-set_borepin_borazine_095_dimer_mol1.chk"
 Charge =  0 Multiplicity = 1

                         Standard orientation:
 ---------------------------------------------------------------------
 Center     Atomic      Atomic             Coordinates (Angstroms)
 Number     Number       Type             X           Y           Z
 ---------------------------------------------------------------------
      1          6           0       -0.981366   -1.159261    1.250745
      2          6           0       -1.785260   -1.520188    0.212979
      3          6           0       -0.602975    0.128349    1.712979
      4          1           0       -0.556789   -1.982548    1.813502
      5          6           0       -2.490896   -0.717258   -0.721902
      6          1           0       -1.907770   -2.588111    0.073827
      7          6           0       -0.942407    1.351255    1.219205
      8          1           0        0.059739    0.104127    2.573095
      9          6           0       -2.529900    0.640070   -0.832461
     10          1           0       -3.068299   -1.292917   -1.440004
     11          1           0       -0.500964    2.183374    1.761033
     12          5           0       -1.826052    1.684458    0.024432
     13          1           0       -3.152818    0.999083   -1.647684
     14          1           0       -1.982312    2.839430   -0.254964
     15          5           0        2.802015   -0.032526    0.576399
     16          7           0        2.330957    1.186835    0.014216
     17          7           0        2.263829   -1.244572    0.054679
     18          1           0        3.614245   -0.041752    1.453820
     19          5           0        1.344806    1.229571   -1.016105
     20          1           0        2.690975    2.053403    0.369768
     21          5           0        1.290708   -1.268892   -0.989177
     22          1           0        2.588960   -2.116483    0.430192
     23          7           0        0.861725   -0.016360   -1.508734
     24          1           0        0.947782    2.267729   -1.453081
     25          1           0        0.861285   -2.301223   -1.411475
     26          1           0        0.149818   -0.006293   -2.216174
 ---------------------------------------------------------------------

 SCF Done:  E(RHF) =  -497.292177609     A.U. after    2 cycles

 The electronic state is 1-A.
 Alpha  occ. eigenvalues --  -15.59368 -15.59087 -15.58805 -11.26431 -11.26283
 Alpha  occ. eigenvalues --  -11.26187 -11.26054 -11.22394 -11.22272  -7.61029
 Alpha  occ. eigenvalues --   -7.60937  -7.60785  -7.57628  -1.15960  -1.11737
 Alpha  occ. eigenvalues --   -1.08943  -1.08746  -1.04506  -0.98934  -0.87571
 Alpha  occ. eigenvalues --   -0.81557  -0.73784  -0.71916  -0.71783  -0.70429
 Alpha  occ. eigenvalues --   -0.68821  -0.66835  -0.62469  -0.60292  -0.59809
 Alpha  occ. eigenvalues --   -0.59673  -0.58181  -0.54693  -0.53291  -0.53109
 Alpha  occ. eigenvalues --   -0.52316  -0.47519  -0.46742  -0.46592  -0.45686
 Alpha  occ. eigenvalues --   -0.45594  -0.40378  -0.40030  -0.37867  -0.32019
 Alpha virt. eigenvalues --    0.02576   0.03057   0.03354   0.03770   0.04907
 Alpha virt. eigenvalues --    0.05163   0.05275   0.05643   0.05843   0.05898
 Alpha virt. eigenvalues --    0.06554   0.07141   0.07517   0.07880   0.08088

 Mulliken charges:
               1
     1  C    0.232753
     2  C    0.257750
     3  C    1.038556
     4  H   -0.608526
     5  C    0.661504
     6  H   -0.550502
     7  C    0.686591
     8  H   -0.541877
     9  C    0.644247
    10  H   -0.506435
    11  H   -0.582066
    12  B   -0.973325
    13  H   -0.517797
    14  H    0.624864
    15  B   -0.283021
    16  N   -0.075364
    17  N   -0.068150
    18  H    0.341447
    19  B   -0.118066
    20  H   -0.176564
    21  B   -0.140697
    22  H   -0.165112
    23  N    0.124491
    24  H    0.444583
    25  H    0.382897
    26  H   -0.132181
 Sum of Mulliken charges =   0.00000

 Dipole moment (field-independent basis, Debye):
    X=              0.1603    Y=             -1.8029    Z=              0.5095  Tot=              1.8803

 Test job not archived.
 1\1\GINC-SE461\SP\RHF\Aug-CC-pVDZ\C6H13B4N3\OHZDE\08-Apr-2025\0\\#t hf
  aug-cc-pvdz iop(5/13=1,5/36=2,99/5=2) pseudo=read geom=check guess=(r
 ead,tcheck) scf=(maxcycle=1)\\title\\0,1\C,0,-1.1002,-1.1557,1.24379\C
 ,0,-1.87153,-1.52215,0.18349\C,0,-0.73895,0.13441,1.71272\H,0,-0.6909,
 -1.97601,1.822\C,0,-2.55047,-0.72416,-0.77509\H,0,-1.98729,-2.59084,0.
 04445\C,0,-1.06616,1.35478,1.20463\H,0,-0.10247,0.11476,2.59254\C,0,-2
 .58928,0.63268,-0.89154\H,0,-3.10457,-1.30369,-1.50828\H,0,-0.64323,2.
 18983,1.75662\B,0,-1.91408,1.68172,-0.01745\H,0,-3.18812,0.98737,-1.72

 Normal termination of Gaussian 16 at Tue Apr  8 22:25:08 2025.
