 Gaussian 16, Revision C.01,

 ----------------------------------------------------------------------
 #t hf aug-cc-pvdz symm=none int=(grid=ultrafine) guess=(read,tcheck) s
 table=(opt,rrhf)
 ----------------------------------------------------------------------
 -----
 title
 -----
 Symbolic Z-matrix:
 Charge =  0 Multiplicity = 1

 SCF Done:  E(RHF) =  -502.479421568     A.U. after   11 cycles
 Normal termination of Gaussian 16 at Tue Apr  8 22:21:02 2025.
 Gaussian 16:  ES64L-G16RevC.01  3-Jul-2019

 ----------------------------------------------------------------------
 #t hf aug-cc-pvdz iop(5/13=1,5/36=2,99/5=2) pseudo=read geom=check gue
 ss=(read,tcheck) scf=(maxcycle=1)
 ----------------------------------------------------------------------
 -----
 title
 -----
 Structure from the checkpoint file:  "B-set_boricacid_boricacid_125_dimer_mol1.chk"
 Charge =  0 Multiplicity = 1

                         Standard orientation:
 ---------------------------------------------------------------------
 Center     Atomic      Atomic             Coordinates (Angstroms)
 Number     Number       Type             X           Y           Z
 ---------------------------------------------------------------------
      1          5           0        2.582907    0.025632   -0.000106
      2          8           0        3.940069   -0.124373    0.000454
      3          8           0        2.006047    1.244317   -0.000736
      4          8           0        1.814023   -1.123394   -0.000046
      5          1           0        4.399241    0.713191    0.000464
      6          1           0        1.037077    1.236964   -0.000486
      7          1           0        2.344946   -1.918041    0.000594
      8          5           0       -2.582869   -0.025589    0.000077
      9          8           0       -1.814075    1.123446    0.000417
     10          8           0       -3.940082    0.124285    0.000117
     11          8           0       -2.006019   -1.244285   -0.000293
     12          1           0       -2.345078    1.918054    0.000737
     13          1           0       -4.399044   -0.713389   -0.000093
     14          1           0       -1.037039   -1.236971   -0.000373
 ---------------------------------------------------------------------

 SCF Done:  E(RHF) =  -502.659160067     A.U. after    2 cycles

 The electronic state is 1-A.
 Alpha  occ. eigenvalues --  -20.58382 -20.58382 -20.58378 -20.58377 -20.58327
 Alpha  occ. eigenvalues --  -20.58326  -7.68925  -7.68925  -1.36439  -1.36393
 Alpha  occ. eigenvalues --   -1.31672  -1.31647  -1.31309  -1.31285  -0.79948
 Alpha  occ. eigenvalues --   -0.79802  -0.76415  -0.76152  -0.75822  -0.75634
 Alpha  occ. eigenvalues --   -0.62115  -0.62047  -0.59976  -0.59886  -0.59318
 Alpha  occ. eigenvalues --   -0.58833  -0.58531  -0.58286  -0.53148  -0.53081
 Alpha  occ. eigenvalues --   -0.53006  -0.52968
 Alpha virt. eigenvalues --    0.03252   0.04137   0.05009   0.05553   0.05718
 Alpha virt. eigenvalues --    0.06432   0.06970   0.07911   0.08268   0.08336
 Alpha virt. eigenvalues --    0.11178   0.11407   0.12477   0.13326   0.17559

 Mulliken charges:
               1
     1  B    0.766065
     2  O   -0.436156
     3  O   -0.426533
     4  O   -0.469531
     5  H    0.169653
     6  H    0.220399
     7  H    0.176101
     8  B    0.766031
     9  O   -0.469494
    10  O   -0.436186
    11  O   -0.426536
    12  H    0.176132
    13  H    0.169650
    14  H    0.220405
 Sum of Mulliken charges =   0.00000

 Dipole moment (field-independent basis, Debye):
    X=              0.0008    Y=              0.0001    Z=              0.0016  Tot=              0.0018

 Test job not archived.
 1\1\GINC-SE118\SP\RHF\Aug-CC-pVDZ\B2H6O6\OHZDE\08-Apr-2025\0\\#t hf au
 g-cc-pvdz iop(5/13=1,5/36=2,99/5=2) pseudo=read geom=check guess=(read
 ,tcheck) scf=(maxcycle=1)\\title\\0,1\B,0,2.06504,0.02667,-0.0001\O,0,
 3.42239,-0.12163,0.00046\O,0,1.48665,1.24463,-0.00073\O,0,1.2976,-1.12
 332,-0.00004\H,0,3.88051,0.71651,0.00047\H,0,0.51769,1.23606,-0.00048\
 H,0,1.82952,-1.9173,0.0006\B,0,-3.10066714,-0.0310375,0.00008286\O,0,-
 2.33331714,1.1189625,0.00042286\O,0,-4.45806714,0.1171325,0.00012286\O
 ,0,-2.52228714,-1.2490075,-0.00028714\H,0,-2.86531714,1.9129025,0.0007

 Normal termination of Gaussian 16 at Tue Apr  8 22:21:06 2025.
