 Gaussian 16, Revision C.01,

 ----------------------------------------------------------------------
 #t hf aug-cc-pvdz symm=none int=(grid=ultrafine) guess=(read,tcheck) s
 table=(opt,rrhf)
 ----------------------------------------------------------------------
 -----
 title
 -----
 Symbolic Z-matrix:
 Charge =  0 Multiplicity = 1

 SCF Done:  E(RHF) =  -894.817676841     A.U. after   12 cycles
 Normal termination of Gaussian 16 at Tue Apr  8 22:18:42 2025.
 Gaussian 16:  ES64L-G16RevC.01  3-Jul-2019

 ----------------------------------------------------------------------
 #t hf aug-cc-pvdz iop(5/13=1,5/36=2,99/5=2) pseudo=read geom=check gue
 ss=(read,tcheck) scf=(maxcycle=1)
 ----------------------------------------------------------------------
 -----
 title
 -----
 Structure from the checkpoint file:  "B-set_b2f4_b2f4_095_dimer_mol1.chk"
 Charge =  0 Multiplicity = 1

                         Standard orientation:
 ---------------------------------------------------------------------
 Center     Atomic      Atomic             Coordinates (Angstroms)
 Number     Number       Type             X           Y           Z
 ---------------------------------------------------------------------
      1          5           0        1.828672   -0.622195    0.479286
      2          5           0        1.576285    0.990991   -0.090012
      3          9           0        0.817975   -1.338653    0.938112
      4          9           0        3.013561   -1.185039    0.479963
      5          9           0        0.487700    1.660134    0.246981
      6          9           0        2.445914    1.603762   -0.856665
      7          5           0       -1.384371   -0.790754   -0.723702
      8          5           0       -1.991153    0.425089    0.338606
      9          9           0       -0.406219   -0.535168   -1.582232
     10          9           0       -1.877413   -2.008781   -0.743534
     11          9           0       -2.552630    1.519893   -0.130868
     12          9           0       -1.945240    0.282111    1.645921
 ---------------------------------------------------------------------

 SCF Done:  E(RHF) =  -895.182077091     A.U. after    2 cycles

 The electronic state is 1-A.
 Alpha  occ. eigenvalues --  -26.17314 -26.17292 -26.16928 -26.16709 -26.16629
 Alpha  occ. eigenvalues --  -26.16023 -26.15356 -26.15343  -7.76793  -7.76738
 Alpha  occ. eigenvalues --   -7.76024  -7.75356  -1.72771  -1.72464  -1.72105
 Alpha  occ. eigenvalues --   -1.70906  -1.70332  -1.70166  -1.69640  -1.68628
 Alpha  occ. eigenvalues --   -0.91914  -0.90893  -0.90783  -0.89418  -0.86112
 Alpha  occ. eigenvalues --   -0.84905  -0.84628  -0.84615  -0.83608  -0.83005
 Alpha  occ. eigenvalues --   -0.80953  -0.79796  -0.79397  -0.78997  -0.78509
 Alpha  occ. eigenvalues --   -0.78237  -0.75258  -0.75101  -0.75001  -0.74586
 Alpha  occ. eigenvalues --   -0.74283  -0.74075  -0.73495  -0.72999  -0.55533
 Alpha  occ. eigenvalues --   -0.54405
 Alpha virt. eigenvalues --    0.02674   0.03849   0.04192   0.04434   0.05053
 Alpha virt. eigenvalues --    0.06394   0.06741   0.07054   0.07177   0.07521
 Alpha virt. eigenvalues --    0.08899   0.09113   0.09326   0.09774   0.10264

 Mulliken charges:
               1
     1  B    1.037904
     2  B    1.029622
     3  F   -0.523886
     4  F   -0.501117
     5  F   -0.555824
     6  F   -0.508374
     7  B    0.952626
     8  B    0.983875
     9  F   -0.490448
    10  F   -0.474758
    11  F   -0.472729
    12  F   -0.476892
 Sum of Mulliken charges =  -0.00000

 Dipole moment (field-independent basis, Debye):
    X=              0.3426    Y=              0.0135    Z=              0.0506  Tot=              0.3465

 Test job not archived.
 1\1\GINC-SE460\SP\RHF\Aug-CC-pVDZ\B4F8\OHZDE\08-Apr-2025\0\\#t hf aug-
 cc-pvdz iop(5/13=1,5/36=2,99/5=2) pseudo=read geom=check guess=(read,t
 check) scf=(maxcycle=1)\\title\\0,1\B,0,1.91416,-0.63907,0.46973\B,0,1
 .67914,0.97528,-0.10369\F,0,0.89841,-1.33833,0.94368\F,0,3.09043,-1.21
 961,0.45886\F,0,0.60477,1.6621,0.24321\F,0,2.54863,1.57167,-0.88331\B,
 0,-1.31515358,-0.76455275,-0.69432625\B,0,-1.89099358,0.46476725,0.369
 69375\F,0,-0.34359358,-0.52732275,-1.56551625\F,0,-1.82654358,-1.97512
 275,-0.70290625\F,0,-2.44160358,1.56585725,-0.09794625\F,0,-1.83164358

 Normal termination of Gaussian 16 at Tue Apr  8 22:18:50 2025.
