 Gaussian 16, Revision C.01,

 ----------------------------------------------------------------------
 #t hf aug-cc-pvdz symm=none int=(grid=ultrafine) guess=(read,tcheck) s
 table=(opt,rrhf)
 ----------------------------------------------------------------------
 -----
 title
 -----
 Symbolic Z-matrix:
 Charge =  0 Multiplicity = 1

 SCF Done:  E(RHF) =  -360.436262867     A.U. after   15 cycles

 1\1\GINC-SE364\Stability\RHF\Aug-CC-pVDZ\C8H14B2\OHZDE\08-Apr-2025\0\\
 #t hf aug-cc-pvdz symm=none int=(grid=ultrafine) guess=(read,tcheck) s
 table=(opt,rrhf)\\title\\0,1\B,0,-1.44421,-0.34378,-1.38976\C,0,-1.353
 82,1.11975,-0.80607\C,0,-2.20691,-1.16484,-0.27513\H,0,-1.05979,-0.732
 25,-2.44825\C,0,-1.96773,1.08262,0.37927\H,0,-0.92918,2.01911,-1.22576
 \C,0,-2.47978,-0.29789,0.7014\H,0,-2.48296,-2.20807,-0.24206\H,0,-2.10
 422,1.91644,1.05668\H,0,-2.99941,-0.51278,1.627\B,0,1.66587617,1.03035
 861,0.92251137\C,0,1.41903617,-0.44724139,1.38486137\C,0,2.50083617,0.

 Normal termination of Gaussian 16 at Tue Apr  8 22:25:15 2025.
 Gaussian 16:  ES64L-G16RevC.01  3-Jul-2019

 ----------------------------------------------------------------------
 #t hf aug-cc-pvdz iop(5/13=1,5/36=2,99/5=2) pseudo=read geom=check gue
 ss=(read,tcheck) scf=(maxcycle=1)
 ----------------------------------------------------------------------
 -----
 title
 -----
 Structure from the checkpoint file:  "B-set_borole_borolane_110_dimer_mol1.chk"
 Charge =  0 Multiplicity = 1

                         Standard orientation:
 ---------------------------------------------------------------------
 Center     Atomic      Atomic             Coordinates (Angstroms)
 Number     Number       Type             X           Y           Z
 ---------------------------------------------------------------------
      1          5           0       -1.666827   -0.329207   -1.378132
      2          6           0       -1.577698    1.125636   -0.772926
      3          6           0       -2.392078   -1.176755   -0.258345
      4          1           0       -1.305078   -0.696147   -2.452181
      5          6           0       -2.160992    1.062410    0.426685
      6          1           0       -1.173659    2.036413   -1.188311
      7          6           0       -2.649619   -0.328839    0.738843
      8          1           0       -2.655790   -2.223445   -0.235500
      9          1           0       -2.289408    1.883579    1.120918
     10          1           0       -3.143296   -0.564527    1.673542
     11          5           0        1.485545    1.042573    0.877587
     12          6           0        1.266634   -0.445005    1.321647
     13          6           0        2.287052    1.021502   -0.476353
     14          1           0        1.165434    2.017449    1.490174
     15          1           0        2.032100   -0.634168    2.089579
     16          1           0        0.311747   -0.692430    1.784479
     17          6           0        1.592130   -1.259135    0.061729
     18          6           0        2.675099   -0.457237   -0.669197
     19          1           0        1.592783    1.335769   -1.265054
     20          1           0        3.126139    1.716005   -0.534843
     21          1           0        0.697212   -1.320188   -0.571550
     22          1           0        1.889772   -2.288018    0.264665
     23          1           0        2.775496   -0.747766   -1.714810
     24          1           0        3.639801   -0.644814   -0.190879
 ---------------------------------------------------------------------

 SCF Done:  E(RHF) =  -360.544431019     A.U. after    2 cycles

 The electronic state is 1-A.
 Alpha  occ. eigenvalues --  -11.26324 -11.26056 -11.22059 -11.21900 -11.21513
 Alpha  occ. eigenvalues --  -11.21462 -11.19670 -11.19610  -7.61731  -7.59115
 Alpha  occ. eigenvalues --   -1.11268  -1.07348  -0.97063  -0.94353  -0.87619
 Alpha  occ. eigenvalues --   -0.84000  -0.76934  -0.71606  -0.70369  -0.65059
 Alpha  occ. eigenvalues --   -0.64516  -0.62655  -0.60108  -0.57701  -0.56194
 Alpha  occ. eigenvalues --   -0.52377  -0.51296  -0.47685  -0.47504  -0.46752
 Alpha  occ. eigenvalues --   -0.46581  -0.46284  -0.45221  -0.44447  -0.42552
 Alpha  occ. eigenvalues --   -0.32432
 Alpha virt. eigenvalues --    0.02338   0.02987   0.03831   0.04104   0.04176
 Alpha virt. eigenvalues --    0.05479   0.05527   0.05574   0.05843   0.06087
 Alpha virt. eigenvalues --    0.07469   0.07710   0.07831   0.08355   0.08589

 Mulliken charges:
               1
     1  B    0.003237
     2  C    0.502544
     3  C    0.336589
     4  H    0.435495
     5  C    0.336395
     6  H   -0.563202
     7  C    0.308972
     8  H   -0.485847
     9  H   -0.462588
    10  H   -0.441318
    11  B   -0.106032
    12  C    0.535948
    13  C    0.490672
    14  H    0.308179
    15  H   -0.222532
    16  H   -0.296290
    17  C    0.489845
    18  C    0.163914
    19  H   -0.231480
    20  H   -0.261784
    21  H   -0.431583
    22  H   -0.101946
    23  H   -0.146782
    24  H   -0.160404
 Sum of Mulliken charges =  -0.00000

 Dipole moment (field-independent basis, Debye):
    X=             -0.4210    Y=              0.0547    Z=              0.7226  Tot=              0.8380

 Test job not archived.
 1\1\GINC-SE364\SP\RHF\Aug-CC-pVDZ\C8H14B2\OHZDE\08-Apr-2025\0\\#t hf a
 ug-cc-pvdz iop(5/13=1,5/36=2,99/5=2) pseudo=read geom=check guess=(rea
 d,tcheck) scf=(maxcycle=1)\\title\\0,1\B,0,-1.44421,-0.34378,-1.38976\
 C,0,-1.35382,1.11975,-0.80607\C,0,-2.20691,-1.16484,-0.27513\H,0,-1.05
 979,-0.73225,-2.44825\C,0,-1.96773,1.08262,0.37927\H,0,-0.92918,2.0191
 1,-1.22576\C,0,-2.47978,-0.29789,0.7014\H,0,-2.48296,-2.20807,-0.24206
 \H,0,-2.10422,1.91644,1.05668\H,0,-2.99941,-0.51278,1.627\B,0,1.665876
 17,1.03035861,0.92251137\C,0,1.41903617,-0.44724139,1.38486137\C,0,2.5

 Normal termination of Gaussian 16 at Tue Apr  8 22:25:30 2025.
