 Gaussian 16, Revision C.01,

 ----------------------------------------------------------------------
 #t hf aug-cc-pvdz symm=none int=(grid=ultrafine) guess=(read,tcheck) s
 table=(opt,rrhf)
 ----------------------------------------------------------------------
 -----
 title
 -----
 Symbolic Z-matrix:
 Charge =  0 Multiplicity = 1

 SCF Done:  E(RHF) =  -143.473651730     A.U. after   11 cycles
 Normal termination of Gaussian 16 at Tue Apr  8 22:21:42 2025.
 Gaussian 16:  ES64L-G16RevC.01  3-Jul-2019

 ----------------------------------------------------------------------
 #t hf aug-cc-pvdz iop(5/13=1,5/36=2,99/5=2) pseudo=read geom=check gue
 ss=(read,tcheck) scf=(maxcycle=1)
 ----------------------------------------------------------------------
 -----
 title
 -----
 Structure from the checkpoint file:  "B-set_borirane_methane_125_dimer_mol1.chk"
 Charge =  0 Multiplicity = 1

                         Standard orientation:
 ---------------------------------------------------------------------
 Center     Atomic      Atomic             Coordinates (Angstroms)
 Number     Number       Type             X           Y           Z
 ---------------------------------------------------------------------
      1          5           0       -0.985023   -0.000418    0.932985
      2          6           0       -1.454738   -0.772072   -0.296839
      3          6           0       -1.454223    0.772428   -0.296286
      4          1           0       -0.589971   -0.000877    2.046374
      5          1           0       -2.415899   -1.273013   -0.284549
      6          1           0       -0.731522   -1.270194   -0.931527
      7          1           0       -2.415102    1.273907   -0.283467
      8          1           0       -0.730812    1.270586   -0.930726
      9          6           0        2.925685   -0.000046   -0.072308
     10          1           0        2.532563   -0.890903    0.414173
     11          1           0        4.010415   -0.000343    0.002441
     12          1           0        2.632086    0.000334   -1.119740
     13          1           0        2.533016    0.890737    0.414692
 ---------------------------------------------------------------------

 SCF Done:  E(RHF) =  -143.525545545     A.U. after    2 cycles

 The electronic state is 1-A.
 Alpha  occ. eigenvalues --  -11.22194 -11.21404 -11.21392  -7.62055  -1.04773
 Alpha  occ. eigenvalues --   -0.94392  -0.81012  -0.65835  -0.62074  -0.58820
 Alpha  occ. eigenvalues --   -0.55198  -0.55179  -0.55022  -0.50771  -0.41106
 Alpha  occ. eigenvalues --   -0.38379
 Alpha virt. eigenvalues --    0.03163   0.04227   0.04747   0.04980   0.06062
 Alpha virt. eigenvalues --    0.06526   0.06849   0.07477   0.08671   0.09130
 Alpha virt. eigenvalues --    0.09591   0.10695   0.12009   0.13807   0.14877

 Mulliken charges:
               1
     1  B   -0.126195
     2  C    0.528845
     3  C    0.528855
     4  H    0.370221
     5  H   -0.325693
     6  H   -0.325765
     7  H   -0.325686
     8  H   -0.325705
     9  C    0.642680
    10  H   -0.151473
    11  H   -0.199617
    12  H   -0.139012
    13  H   -0.151456
 Sum of Mulliken charges =  -0.00000

 Dipole moment (field-independent basis, Debye):
    X=              0.0925    Y=              0.0000    Z=             -0.0070  Tot=              0.0928

 Test job not archived.
 1\1\GINC-SE226\SP\RHF\Aug-CC-pVDZ\C3H9B1\OHZDE\08-Apr-2025\0\\#t hf au
 g-cc-pvdz iop(5/13=1,5/36=2,99/5=2) pseudo=read geom=check guess=(read
 ,tcheck) scf=(maxcycle=1)\\title\\0,1\B,0,0.70593,0.00043,0.93795\C,0,
 1.19139,0.77206,-0.28576\C,0,1.19085,-0.77244,-0.28519\H,0,0.29663,0.0
 0091,2.04618\H,0,2.15232,1.27299,-0.26115\H,0,0.47638,1.27018,-0.92968
 \H,0,2.15148,-1.27393,-0.26004\H,0,0.47563,-1.2706,-0.92885\C,0,-3.191
 56156,0.000087,-0.11742163\H,0,-2.80470156,0.890947,0.37404837\H,0,-4.
 27716156,0.000397,-0.05659162\H,0,-2.88455156,-0.000313,-1.16100162\H,

 Normal termination of Gaussian 16 at Tue Apr  8 22:21:45 2025.
