 Gaussian 16, Revision C.01,

 ----------------------------------------------------------------------
 #t hf aug-cc-pvdz symm=none int=(grid=ultrafine) guess=(read,tcheck) s
 table=(opt,rrhf)
 ----------------------------------------------------------------------
 -----
 title
 -----
 Symbolic Z-matrix:
 Charge =  0 Multiplicity = 1

 SCF Done:  E(RHF) =  -2334.96902028     A.U. after   12 cycles

 1\1\GINC-SE342\Stability\RHF\Aug-CC-pVDZ\B4Cl4F4\OHZDE\08-Apr-2025\0\\
 #t hf aug-cc-pvdz symm=none int=(grid=ultrafine) guess=(read,tcheck) s
 table=(opt,rrhf)\\title\\0,1\B,0,-1.57438,-0.71073,0.17185\B,0,-1.4340
 6,0.93593,-0.18667\Cl,0,-2.09565,-1.82193,-1.067\Cl,0,-1.25402,-1.2836
 8,1.78589\Cl,0,-2.80515,1.98794,0.03394\Cl,0,0.06371,1.62548,-0.79315\
 B,0,2.38973,-0.6957,-0.67329\B,0,2.76899,0.27376,0.70606\F,0,1.49982,-
 1.66705,-0.6035\F,0,2.97613,-0.50259,-1.83421\F,0,2.24959,0.01802,1.88
 823\F,0,3.58528,1.30172,0.61569\\Version=ES64L-G16RevC.01\HF=-2334.969

 Normal termination of Gaussian 16 at Tue Apr  8 22:18:51 2025.
 Gaussian 16:  ES64L-G16RevC.01  3-Jul-2019

 ----------------------------------------------------------------------
 #t hf aug-cc-pvdz iop(5/13=1,5/36=2,99/5=2) pseudo=read geom=check gue
 ss=(read,tcheck) scf=(maxcycle=1)
 ----------------------------------------------------------------------
 -----
 title
 -----
 Structure from the checkpoint file:  "B-set_b2f4_b2cl4_100_dimer_mol1.chk"
 Charge =  0 Multiplicity = 1

                         Standard orientation:
 ---------------------------------------------------------------------
 Center     Atomic      Atomic             Coordinates (Angstroms)
 Number     Number       Type             X           Y           Z
 ---------------------------------------------------------------------
      1          5           0       -1.574379   -0.710731    0.171848
      2          5           0       -1.434060    0.935929   -0.186672
      3         17           0       -2.095648   -1.821932   -1.067002
      4         17           0       -1.254018   -1.283681    1.785888
      5         17           0       -2.805151    1.987938    0.033938
      6         17           0        0.063709    1.625480   -0.793152
      7          5           0        2.389731   -0.695698   -0.673292
      8          5           0        2.768990    0.273763    0.706058
      9          9           0        1.499822   -1.667048   -0.603502
     10          9           0        2.976131   -0.502587   -1.834212
     11          9           0        2.249591    0.018022    1.888228
     12          9           0        3.585280    1.301723    0.615688
 ---------------------------------------------------------------------

 SCF Done:  E(RHF) =  -2335.23427483     A.U. after    2 cycles

 The electronic state is 1-A.
 Alpha  occ. eigenvalues -- -103.70222-103.69459-103.68774-103.68749 -26.15884
 Alpha  occ. eigenvalues --  -26.15635 -26.15584 -26.15543 -10.73734 -10.72960
 Alpha  occ. eigenvalues --  -10.72281 -10.72242  -8.39420  -8.39200  -8.39175
 Alpha  occ. eigenvalues --   -8.38651  -8.38424  -8.38387  -8.37967  -8.37943
 Alpha  occ. eigenvalues --   -8.37739  -8.37716  -8.37703  -8.37678  -7.75544
 Alpha  occ. eigenvalues --   -7.75399  -7.74916  -7.74224  -1.71373  -1.71049
 Alpha  occ. eigenvalues --   -1.69043  -1.68790  -1.21484  -1.19921  -1.17500
 Alpha  occ. eigenvalues --   -1.16536  -0.90459  -0.89364  -0.84791  -0.83237
 Alpha  occ. eigenvalues --   -0.82929  -0.79158  -0.78239  -0.77976  -0.76407
 Alpha  occ. eigenvalues --   -0.73994  -0.73763  -0.73641  -0.72871  -0.68942
 Alpha  occ. eigenvalues --   -0.62057  -0.61543  -0.60854  -0.55464  -0.54692
 Alpha  occ. eigenvalues --   -0.54147  -0.53156  -0.50848  -0.49640  -0.49529
 Alpha  occ. eigenvalues --   -0.48729  -0.44764
 Alpha virt. eigenvalues --    0.03115   0.03942   0.04354   0.04478   0.04796
 Alpha virt. eigenvalues --    0.04935   0.05791   0.06473   0.06702   0.06977
 Alpha virt. eigenvalues --    0.07250   0.07673   0.08762   0.08916   0.09354

 Mulliken charges:
               1
     1  B    0.750630
     2  B    0.575784
     3  Cl  -0.354854
     4  Cl  -0.340639
     5  Cl  -0.325191
     6  Cl  -0.304887
     7  B    0.993471
     8  B    1.047162
     9  F   -0.520049
    10  F   -0.519628
    11  F   -0.492767
    12  F   -0.509034
 Sum of Mulliken charges =  -0.00000

 Dipole moment (field-independent basis, Debye):
    X=             -0.4020    Y=             -0.0056    Z=              0.0352  Tot=              0.4036

 Test job not archived.
 1\1\GINC-SE342\SP\RHF\Aug-CC-pVDZ\B4Cl4F4\OHZDE\08-Apr-2025\0\\#t hf a
 ug-cc-pvdz iop(5/13=1,5/36=2,99/5=2) pseudo=read geom=check guess=(rea
 d,tcheck) scf=(maxcycle=1)\\title\\0,1\B,0,-1.57438,-0.71073,0.17185\B
 ,0,-1.43406,0.93593,-0.18667\Cl,0,-2.09565,-1.82193,-1.067\Cl,0,-1.254
 02,-1.28368,1.78589\Cl,0,-2.80515,1.98794,0.03394\Cl,0,0.06371,1.62548
 ,-0.79315\B,0,2.38973,-0.6957,-0.67329\B,0,2.76899,0.27376,0.70606\F,0
 ,1.49982,-1.66705,-0.6035\F,0,2.97613,-0.50259,-1.83421\F,0,2.24959,0.
 01802,1.88823\F,0,3.58528,1.30172,0.61569\\Version=ES64L-G16RevC.01\St

 Normal termination of Gaussian 16 at Tue Apr  8 22:19:01 2025.
