 Gaussian 16, Revision C.01,

 ----------------------------------------------------------------------
 #t hf aug-cc-pvdz symm=none int=(grid=ultrafine) guess=(read,tcheck) s
 table=(opt,rrhf)
 ----------------------------------------------------------------------
 -----
 title
 -----
 Symbolic Z-matrix:
 Charge =  0 Multiplicity = 1

 SCF Done:  E(RHF) =  -2334.96962506     A.U. after   12 cycles

 1\1\GINC-SE368\Stability\RHF\Aug-CC-pVDZ\B4Cl4F4\OHZDE\08-Apr-2025\0\\
 #t hf aug-cc-pvdz symm=none int=(grid=ultrafine) guess=(read,tcheck) s
 table=(opt,rrhf)\\title\\0,1\B,0,-1.57438,-0.71073,0.17185\B,0,-1.4340
 6,0.93593,-0.18667\Cl,0,-2.09565,-1.82193,-1.067\Cl,0,-1.25402,-1.2836
 8,1.78589\Cl,0,-2.80515,1.98794,0.03394\Cl,0,0.06371,1.62548,-0.79315\
 B,0,2.59447242,-0.71240708,-0.67200567\B,0,2.97373242,0.25705292,0.707
 34433\F,0,1.70456242,-1.68375708,-0.60221567\F,0,3.18087242,-0.5192970
 8,-1.83292567\F,0,2.45433242,0.00131292,1.88951433\F,0,3.79002242,1.28

 Normal termination of Gaussian 16 at Tue Apr  8 22:18:52 2025.
 Gaussian 16:  ES64L-G16RevC.01  3-Jul-2019

 ----------------------------------------------------------------------
 #t hf aug-cc-pvdz iop(5/13=1,5/36=2,99/5=2) pseudo=read geom=check gue
 ss=(read,tcheck) scf=(maxcycle=1)
 ----------------------------------------------------------------------
 -----
 title
 -----
 Structure from the checkpoint file:  "B-set_b2f4_b2cl4_105_dimer_mol1.chk"
 Charge =  0 Multiplicity = 1

                         Standard orientation:
 ---------------------------------------------------------------------
 Center     Atomic      Atomic             Coordinates (Angstroms)
 Number     Number       Type             X           Y           Z
 ---------------------------------------------------------------------
      1          5           0       -1.642696   -0.721941    0.172278
      2          5           0       -1.519988    0.926196   -0.185912
      3         17           0       -2.153037   -1.838269   -1.066513
      4         17           0       -1.315244   -1.291883    1.785960
      5         17           0       -2.901951    1.963632    0.035870
      6         17           0       -0.029975    1.631656   -0.793202
      7          5           0        2.525383   -0.679439   -0.674323
      8          5           0        2.895309    0.293623    0.705025
      9          9           0        1.645814   -1.660139   -0.604196
     10          9           0        3.108946   -0.479866   -1.835580
     11          9           0        2.379417    0.032124    1.887471
     12          9           0        3.700652    1.330157    0.614381
 ---------------------------------------------------------------------

 SCF Done:  E(RHF) =  -2335.23509745     A.U. after    2 cycles

 The electronic state is 1-A.
 Alpha  occ. eigenvalues -- -103.70000-103.69366-103.68815-103.68798 -26.15854
 Alpha  occ. eigenvalues --  -26.15702 -26.15649 -26.15621 -10.73504 -10.72871
 Alpha  occ. eigenvalues --  -10.72324 -10.72289  -8.39192  -8.38971  -8.38944
 Alpha  occ. eigenvalues --   -8.38563  -8.38335  -8.38298  -8.38008  -8.37991
 Alpha  occ. eigenvalues --   -8.37780  -8.37764  -8.37744  -8.37727  -7.75621
 Alpha  occ. eigenvalues --   -7.75505  -7.74809  -7.74217  -1.71392  -1.71098
 Alpha  occ. eigenvalues --   -1.69058  -1.68844  -1.21341  -1.19919  -1.17338
 Alpha  occ. eigenvalues --   -1.16572  -0.90485  -0.89400  -0.84825  -0.83276
 Alpha  occ. eigenvalues --   -0.82957  -0.79147  -0.78247  -0.78010  -0.76328
 Alpha  occ. eigenvalues --   -0.73984  -0.73784  -0.73672  -0.72907  -0.68881
 Alpha  occ. eigenvalues --   -0.61964  -0.61416  -0.60872  -0.55229  -0.54620
 Alpha  occ. eigenvalues --   -0.54194  -0.53212  -0.50727  -0.49553  -0.49548
 Alpha  occ. eigenvalues --   -0.48767  -0.44715
 Alpha virt. eigenvalues --    0.03053   0.03946   0.04368   0.04510   0.04799
 Alpha virt. eigenvalues --    0.04873   0.05690   0.06435   0.06687   0.06949
 Alpha virt. eigenvalues --    0.07251   0.07621   0.08735   0.08874   0.09276

 Mulliken charges:
               1
     1  B    0.736437
     2  B    0.576270
     3  Cl  -0.349729
     4  Cl  -0.335061
     5  Cl  -0.321955
     6  Cl  -0.303102
     7  B    0.993859
     8  B    1.040515
     9  F   -0.520701
    10  F   -0.517809
    11  F   -0.494024
    12  F   -0.504698
 Sum of Mulliken charges =   0.00000

 Dipole moment (field-independent basis, Debye):
    X=             -0.3570    Y=             -0.0467    Z=              0.0512  Tot=              0.3637

 Test job not archived.
 1\1\GINC-SE368\SP\RHF\Aug-CC-pVDZ\B4Cl4F4\OHZDE\08-Apr-2025\0\\#t hf a
 ug-cc-pvdz iop(5/13=1,5/36=2,99/5=2) pseudo=read geom=check guess=(rea
 d,tcheck) scf=(maxcycle=1)\\title\\0,1\B,0,-1.57438,-0.71073,0.17185\B
 ,0,-1.43406,0.93593,-0.18667\Cl,0,-2.09565,-1.82193,-1.067\Cl,0,-1.254
 02,-1.28368,1.78589\Cl,0,-2.80515,1.98794,0.03394\Cl,0,0.06371,1.62548
 ,-0.79315\B,0,2.59447242,-0.71240708,-0.67200567\B,0,2.97373242,0.2570
 5292,0.70734433\F,0,1.70456242,-1.68375708,-0.60221567\F,0,3.18087242,
 -0.51929708,-1.83292567\F,0,2.45433242,0.00131292,1.88951433\F,0,3.790

 Normal termination of Gaussian 16 at Tue Apr  8 22:19:02 2025.
