 Gaussian 16, Revision C.01,

 ----------------------------------------------------------------------
 #t hf aug-cc-pvdz symm=none int=(grid=ultrafine) guess=(read,tcheck) s
 table=(opt,rrhf)
 ----------------------------------------------------------------------
 -----
 title
 -----
 Symbolic Z-matrix:
 Charge =  0 Multiplicity = 1

 SCF Done:  E(RHF) =  -463.681860936     A.U. after   15 cycles
 Normal termination of Gaussian 16 at Tue Apr  8 22:22:15 2025.
 Gaussian 16:  ES64L-G16RevC.01  3-Jul-2019

 ----------------------------------------------------------------------
 #t hf aug-cc-pvdz iop(5/13=1,5/36=2,99/5=2) pseudo=read geom=check gue
 ss=(read,tcheck) scf=(maxcycle=1)
 ----------------------------------------------------------------------
 -----
 title
 -----
 Structure from the checkpoint file:  "B-set_borabenzene_pyridine_100_dimer_mol1.chk"
 Charge =  0 Multiplicity = 1

                         Standard orientation:
 ---------------------------------------------------------------------
 Center     Atomic      Atomic             Coordinates (Angstroms)
 Number     Number       Type             X           Y           Z
 ---------------------------------------------------------------------
      1          6           0       -1.502471    1.234661    0.364100
      2          6           0       -2.890041    1.163900    0.350080
      3          6           0       -3.570351   -0.000030   -0.000050
      4          6           0       -2.889940   -1.163940   -0.350010
      5          6           0       -1.502310   -1.234709   -0.364150
      6          1           0       -4.652621   -0.000050   -0.000120
      7          1           0       -1.057551    2.174541    0.680870
      8          1           0       -3.477491    2.033730    0.625810
      9          1           0       -3.477370   -2.033660   -0.626120
     10          1           0       -1.057740   -2.174499   -0.681650
     11          5           0       -0.760721   -0.000009    0.000020
     12          6           0        1.469120   -1.092098    0.383680
     13          6           0        2.845000   -1.127048    0.387030
     14          6           0        3.550479    0.000012   -0.000180
     15          6           0        2.844899    1.127132   -0.387100
     16          6           0        1.469039    1.092102   -0.383430
     17          7           0        0.790169   -0.000009    0.000130
     18          1           0        4.631019    0.000013   -0.000290
     19          1           0        0.861850   -1.927049    0.697030
     20          1           0        3.350230   -2.027258    0.701930
     21          1           0        3.350029    2.027412   -0.701960
     22          1           0        0.861519    1.927031   -0.696350
 ---------------------------------------------------------------------

 SCF Done:  E(RHF) =  -463.818415124     A.U. after    2 cycles

 The electronic state is 1-A.
 Alpha  occ. eigenvalues --  -15.72504 -11.34057 -11.34045 -11.31703 -11.29502
 Alpha  occ. eigenvalues --  -11.29500 -11.20049 -11.20044 -11.17786 -11.16437
 Alpha  occ. eigenvalues --  -11.16417  -7.54356  -1.31285  -1.14034  -1.08973
 Alpha  occ. eigenvalues --   -1.05640  -0.95213  -0.92383  -0.91966  -0.87992
 Alpha  occ. eigenvalues --   -0.79844  -0.75637  -0.72634  -0.71647  -0.69641
 Alpha  occ. eigenvalues --   -0.66104  -0.65770  -0.62217  -0.61957  -0.57494
 Alpha  occ. eigenvalues --   -0.56907  -0.54008  -0.53620  -0.50739  -0.45765
 Alpha  occ. eigenvalues --   -0.45728  -0.43072  -0.41053  -0.40199  -0.29428
 Alpha  occ. eigenvalues --   -0.23848
 Alpha virt. eigenvalues --    0.01491   0.02753   0.03121   0.03902   0.05183
 Alpha virt. eigenvalues --    0.05337   0.05676   0.06411   0.06864   0.07001
 Alpha virt. eigenvalues --    0.07062   0.07795   0.08958   0.09372   0.09715

 Mulliken charges:
               1
     1  C    0.680489
     2  C    0.261839
     3  C   -0.055883
     4  C    0.261873
     5  C    0.680550
     6  H   -0.524339
     7  H   -0.652604
     8  H   -0.498503
     9  H   -0.498580
    10  H   -0.652407
    11  B    0.670347
    12  C    0.671037
    13  C    0.877799
    14  C   -0.073318
    15  C    0.877910
    16  C    0.670531
    17  N   -0.393748
    18  H   -0.407718
    19  H   -0.539547
    20  H   -0.408009
    21  H   -0.407958
    22  H   -0.539760
 Sum of Mulliken charges =   0.00000

 Dipole moment (field-independent basis, Debye):
    X=              9.1490    Y=              0.0004    Z=             -0.0003  Tot=              9.1490

 Test job not archived.
 1\1\GINC-SE016\SP\RHF\Aug-CC-pVDZ\C10H10B1N1\OHZDE\08-Apr-2025\0\\#t h
 f aug-cc-pvdz iop(5/13=1,5/36=2,99/5=2) pseudo=read geom=check guess=(
 read,tcheck) scf=(maxcycle=1)\\title\\0,1\C,0,1.50247,-1.23466,0.3641\
 C,0,2.89004,-1.1639,0.35008\C,0,3.57035,0.00003,-0.00005\C,0,2.88994,1
 .16394,-0.35001\C,0,1.50231,1.23471,-0.36415\H,0,4.65262,0.00005,-0.00
 012\H,0,1.05755,-2.17454,0.68087\H,0,3.47749,-2.03373,0.62581\H,0,3.47
 737,2.03366,-0.62612\H,0,1.05774,2.1745,-0.68165\B,0,0.76072,0.00001,0
 .00002\C,0,-1.46912,1.0921,0.38368\C,0,-2.845,1.12705,0.38703\C,0,-3.5

 Normal termination of Gaussian 16 at Tue Apr  8 22:22:31 2025.
