 Gaussian 16, Revision C.01,

 ----------------------------------------------------------------------
 #t hf aug-cc-pvdz symm=none int=(grid=ultrafine) guess=(read,tcheck) s
 table=(opt,rrhf)
 ----------------------------------------------------------------------
 -----
 title
 -----
 Symbolic Z-matrix:
 Charge =  0 Multiplicity = 1

 SCF Done:  E(RHF) =  -481.922769027     A.U. after   14 cycles
 Normal termination of Gaussian 16 at Tue Apr  8 22:24:18 2025.
 Gaussian 16:  ES64L-G16RevC.01  3-Jul-2019

 ----------------------------------------------------------------------
 #t hf aug-cc-pvdz iop(5/13=1,5/36=2,99/5=2) pseudo=read geom=check gue
 ss=(read,tcheck) scf=(maxcycle=1)
 ----------------------------------------------------------------------
 -----
 title
 -----
 Structure from the checkpoint file:  "B-set_phenylboronicacid_h2o_125_dimer_mol1.chk"
 Charge =  0 Multiplicity = 1

                         Standard orientation:
 ---------------------------------------------------------------------
 Center     Atomic      Atomic             Coordinates (Angstroms)
 Number     Number       Type             X           Y           Z
 ---------------------------------------------------------------------
      1          6           0       -1.450869    1.196639   -0.000263
      2          6           0       -2.836419    1.199445    0.000647
      3          6           0       -0.732205    0.000329   -0.000763
      4          1           0       -0.911663    2.134879   -0.000563
      5          6           0       -3.530335   -0.001373    0.001047
      6          1           0       -3.377063    2.136514    0.001007
      7          6           0       -1.449412   -1.196851   -0.000323
      8          5           0        0.834234    0.001243   -0.001763
      9          6           0       -2.834962   -1.201345    0.000537
     10          1           0       -4.612315   -0.002023    0.001727
     11          1           0       -0.909078   -2.134441   -0.000733
     12          8           0        1.491081    1.200566   -0.002193
     13          8           0        1.492658   -1.197224   -0.002103
     14          1           0       -3.374467   -2.139065    0.000837
     15          1           0        2.446441    1.106583   -0.002553
     16          1           0        2.447887   -1.101267   -0.002643
     17          8           0        5.610781   -0.001144    0.003457
     18          1           0        6.179871   -0.003721    0.772107
     19          1           0        6.188271   -0.002320   -0.758923
 ---------------------------------------------------------------------

 SCF Done:  E(RHF) =  -482.077750775     A.U. after    2 cycles

 The electronic state is 1-A.
 Alpha  occ. eigenvalues --  -20.60207 -20.57744 -20.57743 -11.23758 -11.23264
 Alpha  occ. eigenvalues --  -11.23264 -11.22984 -11.22979 -11.20899  -7.64997
 Alpha  occ. eigenvalues --   -1.34403  -1.33737  -1.30314  -1.13257  -1.00017
 Alpha  occ. eigenvalues --   -0.99988  -0.82715  -0.81834  -0.76693  -0.76063
 Alpha  occ. eigenvalues --   -0.74343  -0.69568  -0.65099  -0.62364  -0.62274
 Alpha  occ. eigenvalues --   -0.61331  -0.58825  -0.58120  -0.55578  -0.55218
 Alpha  occ. eigenvalues --   -0.54813  -0.52042  -0.49476  -0.48155  -0.46732
 Alpha  occ. eigenvalues --   -0.33191  -0.32924
 Alpha virt. eigenvalues --    0.02269   0.04087   0.04743   0.04801   0.05125
 Alpha virt. eigenvalues --    0.06276   0.06772   0.06904   0.08583   0.08600
 Alpha virt. eigenvalues --    0.08842   0.09957   0.11129   0.11584   0.11981

 Mulliken charges:
               1
     1  C    0.284706
     2  C    0.586467
     3  C    0.072048
     4  H   -0.638815
     5  C    0.762554
     6  H   -0.446096
     7  C    0.284595
     8  B    0.632228
     9  C    0.586593
    10  H   -0.447221
    11  H   -0.638838
    12  O   -0.480198
    13  O   -0.480247
    14  H   -0.446093
    15  H    0.184899
    16  H    0.185254
    17  O   -0.303370
    18  H    0.150724
    19  H    0.150808
 Sum of Mulliken charges =   0.00000

 Dipole moment (field-independent basis, Debye):
    X=              4.6371    Y=             -0.0041    Z=              0.0103  Tot=              4.6372

 Test job not archived.
 1\1\GINC-SE368\SP\RHF\Aug-CC-pVDZ\C6H9B1O3\OHZDE\08-Apr-2025\0\\#t hf
 aug-cc-pvdz iop(5/13=1,5/36=2,99/5=2) pseudo=read geom=check guess=(re
 ad,tcheck) scf=(maxcycle=1)\\title\\0,1\C,0,1.25953,-1.19671,-0.0001\C
 ,0,2.64508,-1.19967,0.00081\C,0,0.541,-0.00032,-0.0006\H,0,0.72022,-2.
 13489,-0.0004\C,0,3.33913,0.00107,0.00121\H,0,3.18562,-2.1368,0.00117\
 C,0,1.25834,1.19678,-0.00016\B,0,-1.02544,-0.00106,-0.0016\C,0,2.64389
 ,1.20112,0.0007\H,0,4.42111,0.0016,0.00189\H,0,0.71811,2.13443,-0.0005
 7\O,0,-1.68242,-1.20031,-0.00203\O,0,-1.68373,1.19748,-0.00194\H,0,3.1

 Normal termination of Gaussian 16 at Tue Apr  8 22:24:50 2025.
