 Gaussian 16, Revision C.01,

 ----------------------------------------------------------------------
 #t hf aug-cc-pvdz symm=none int=(grid=ultrafine) guess=(read,tcheck) s
 table=(opt,rrhf)
 ----------------------------------------------------------------------
 -----
 title
 -----
 Symbolic Z-matrix:
 Charge =  0 Multiplicity = 1

 SCF Done:  E(RHF) =  -502.486284456     A.U. after   11 cycles
 Normal termination of Gaussian 16 at Tue Apr  8 22:20:38 2025.
 Gaussian 16:  ES64L-G16RevC.01  3-Jul-2019

 ----------------------------------------------------------------------
 #t hf aug-cc-pvdz iop(5/13=1,5/36=2,99/5=2) pseudo=read geom=check gue
 ss=(read,tcheck) scf=(maxcycle=1)
 ----------------------------------------------------------------------
 -----
 title
 -----
 Structure from the checkpoint file:  "B-set_boricacid_boricacid_100_dimer_mol1.chk"
 Charge =  0 Multiplicity = 1

                         Standard orientation:
 ---------------------------------------------------------------------
 Center     Atomic      Atomic             Coordinates (Angstroms)
 Number     Number       Type             X           Y           Z
 ---------------------------------------------------------------------
      1          5           0        2.065039    0.026673   -0.000100
      2          8           0        3.422389   -0.121626    0.000460
      3          8           0        1.486648    1.244633   -0.000730
      4          8           0        1.297600   -1.123318   -0.000040
      5          1           0        3.880508    0.716515    0.000470
      6          1           0        0.517688    1.236062   -0.000480
      7          1           0        1.829521   -1.917297    0.000600
      8          5           0       -2.065001   -0.026631    0.000070
      9          8           0       -1.297652    1.123370    0.000410
     10          8           0       -3.422401    0.121538    0.000110
     11          8           0       -1.486620   -1.244600   -0.000300
     12          1           0       -1.829653    1.917310    0.000730
     13          1           0       -3.880310   -0.716712   -0.000100
     14          1           0       -0.517650   -1.236069   -0.000380
 ---------------------------------------------------------------------

 SCF Done:  E(RHF) =  -502.665009387     A.U. after    2 cycles

 The electronic state is 1-A.
 Alpha  occ. eigenvalues --  -20.59590 -20.59590 -20.58266 -20.58264 -20.56747
 Alpha  occ. eigenvalues --  -20.56746  -7.68913  -7.68912  -1.37014  -1.36402
 Alpha  occ. eigenvalues --   -1.32354  -1.32045  -1.30786  -1.30620  -0.80678
 Alpha  occ. eigenvalues --   -0.79654  -0.77530  -0.77341  -0.75577  -0.74903
 Alpha  occ. eigenvalues --   -0.62556  -0.62369  -0.61904  -0.60965  -0.59464
 Alpha  occ. eigenvalues --   -0.59214  -0.56750  -0.56726  -0.54107  -0.53815
 Alpha  occ. eigenvalues --   -0.52226  -0.52014
 Alpha virt. eigenvalues --    0.03281   0.04128   0.04873   0.05727   0.05781
 Alpha virt. eigenvalues --    0.06519   0.07061   0.08327   0.08568   0.08700
 Alpha virt. eigenvalues --    0.11655   0.11882   0.13252   0.13268   0.18213

 Mulliken charges:
               1
     1  B    0.708591
     2  O   -0.467435
     3  O   -0.371833
     4  O   -0.478614
     5  H    0.159540
     6  H    0.277809
     7  H    0.171928
     8  B    0.708531
     9  O   -0.478538
    10  O   -0.467481
    11  O   -0.371817
    12  H    0.171958
    13  H    0.159532
    14  H    0.277829
 Sum of Mulliken charges =  -0.00000

 Dipole moment (field-independent basis, Debye):
    X=              0.0009    Y=              0.0001    Z=              0.0018  Tot=              0.0020

 Test job not archived.
 1\1\GINC-SE457\SP\RHF\Aug-CC-pVDZ\B2H6O6\OHZDE\08-Apr-2025\0\\#t hf au
 g-cc-pvdz iop(5/13=1,5/36=2,99/5=2) pseudo=read geom=check guess=(read
 ,tcheck) scf=(maxcycle=1)\\title\\0,1\B,0,2.06504,0.02667,-0.0001\O,0,
 3.42239,-0.12163,0.00046\O,0,1.48665,1.24463,-0.00073\O,0,1.2976,-1.12
 332,-0.00004\H,0,3.88051,0.71651,0.00047\H,0,0.51769,1.23606,-0.00048\
 H,0,1.82952,-1.9173,0.0006\B,0,-2.065,-0.02663,0.00007\O,0,-1.29765,1.
 12337,0.00041\O,0,-3.4224,0.12154,0.00011\O,0,-1.48662,-1.2446,-0.0003
 \H,0,-1.82965,1.91731,0.00073\H,0,-3.88031,-0.71671,-0.0001\H,0,-0.517

 Normal termination of Gaussian 16 at Tue Apr  8 22:20:43 2025.
