 Gaussian 16, Revision C.01,

 ----------------------------------------------------------------------
 #t hf aug-cc-pvdz symm=none int=(grid=ultrafine) guess=(read,tcheck) s
 table=(opt,rrhf)
 ----------------------------------------------------------------------
 -----
 title
 -----
 Symbolic Z-matrix:
 Charge =  0 Multiplicity = 1

 SCF Done:  E(RHF) =  -143.472847509     A.U. after   11 cycles
 Normal termination of Gaussian 16 at Tue Apr  8 22:21:42 2025.
 Gaussian 16:  ES64L-G16RevC.01  3-Jul-2019

 ----------------------------------------------------------------------
 #t hf aug-cc-pvdz iop(5/13=1,5/36=2,99/5=2) pseudo=read geom=check gue
 ss=(read,tcheck) scf=(maxcycle=1)
 ----------------------------------------------------------------------
 -----
 title
 -----
 Structure from the checkpoint file:  "B-set_borirane_methane_105_dimer_mol1.chk"
 Charge =  0 Multiplicity = 1

                         Standard orientation:
 ---------------------------------------------------------------------
 Center     Atomic      Atomic             Coordinates (Angstroms)
 Number     Number       Type             X           Y           Z
 ---------------------------------------------------------------------
      1          5           0       -0.762578   -0.000425    0.936843
      2          6           0       -1.243808   -0.772063   -0.288531
      3          6           0       -1.243275    0.772437   -0.287968
      4          1           0       -0.357106   -0.000898    2.046480
      5          1           0       -2.204816   -1.272996   -0.267236
      6          1           0       -0.526578   -1.270185   -0.929976
      7          1           0       -2.203988    1.273924   -0.266137
      8          1           0       -0.525839    1.270595   -0.929158
      9          6           0        2.454837   -0.000056   -0.087994
     10          1           0        2.066286   -0.890915    0.402142
     11          1           0        3.540221   -0.000363   -0.023417
     12          1           0        2.151432    0.000337   -1.132628
     13          1           0        2.066758    0.890725    0.402674
 ---------------------------------------------------------------------

 SCF Done:  E(RHF) =  -143.524519718     A.U. after    2 cycles

 The electronic state is 1-A.
 Alpha  occ. eigenvalues --  -11.22358 -11.21310 -11.21298  -7.61956  -1.04703
 Alpha  occ. eigenvalues --   -0.94665  -0.80942  -0.65783  -0.62082  -0.58911
 Alpha  occ. eigenvalues --   -0.55500  -0.55359  -0.55065  -0.50655  -0.41031
 Alpha  occ. eigenvalues --   -0.38296
 Alpha virt. eigenvalues --    0.03179   0.04254   0.04741   0.05006   0.06201
 Alpha virt. eigenvalues --    0.06694   0.06956   0.07452   0.09036   0.09263
 Alpha virt. eigenvalues --    0.09897   0.10970   0.12258   0.14057   0.14742

 Mulliken charges:
               1
     1  B   -0.248012
     2  C    0.546792
     3  C    0.546761
     4  H    0.450437
     5  H   -0.342987
     6  H   -0.326717
     7  H   -0.342987
     8  H   -0.326666
     9  C    0.656747
    10  H   -0.122862
    11  H   -0.211036
    12  H   -0.156650
    13  H   -0.122820
 Sum of Mulliken charges =   0.00000

 Dipole moment (field-independent basis, Debye):
    X=              0.1629    Y=              0.0000    Z=             -0.0160  Tot=              0.1637

 Test job not archived.
 1\1\GINC-SE097\SP\RHF\Aug-CC-pVDZ\C3H9B1\OHZDE\08-Apr-2025\0\\#t hf au
 g-cc-pvdz iop(5/13=1,5/36=2,99/5=2) pseudo=read geom=check guess=(read
 ,tcheck) scf=(maxcycle=1)\\title\\0,1\B,0,0.70593,0.00043,0.93795\C,0,
 1.19139,0.77206,-0.28576\C,0,1.19085,-0.77244,-0.28519\H,0,0.29663,0.0
 0091,2.04618\H,0,2.15232,1.27299,-0.26115\H,0,0.47638,1.27018,-0.92968
 \H,0,2.15148,-1.27393,-0.26004\H,0,0.47563,-1.2706,-0.92885\C,0,-2.507
 92831,0.0000654,-0.09798833\H,0,-2.12106831,0.8909254,0.39348167\H,0,-
 3.59352831,0.0003754,-0.03715832\H,0,-2.20091831,-0.0003346,-1.1415683

 Normal termination of Gaussian 16 at Tue Apr  8 22:21:45 2025.
