 Gaussian 16, Revision C.01,

 ----------------------------------------------------------------------
 #t hf aug-cc-pvdz symm=none int=(grid=ultrafine) guess=(read,tcheck) s
 table=(opt,rrhf)
 ----------------------------------------------------------------------
 -----
 title
 -----
 Symbolic Z-matrix:
 Charge =  0 Multiplicity = 1

 SCF Done:  E(RHF) =  -405.875980890     A.U. after   14 cycles
 Normal termination of Gaussian 16 at Tue Apr  8 22:24:05 2025.
 Gaussian 16:  ES64L-G16RevC.01  3-Jul-2019

 ----------------------------------------------------------------------
 #t hf aug-cc-pvdz iop(5/13=1,5/36=2,99/5=2) pseudo=read geom=check gue
 ss=(read,tcheck) scf=(maxcycle=1)
 ----------------------------------------------------------------------
 -----
 title
 -----
 Structure from the checkpoint file:  "B-set_phenylboronicacid_h2o_090_dimer_mol2.chk"
 Charge =  0 Multiplicity = 1

                         Standard orientation:
 ---------------------------------------------------------------------
 Center     Atomic      Atomic             Coordinates (Angstroms)
 Number     Number       Type             X           Y           Z
 ---------------------------------------------------------------------
      1          6           0       -0.555536    1.196742    0.000006
      2          6           0       -1.941085    1.200396    0.000042
      3          6           0        0.162394   -0.000008   -0.000023
      4          1           0       -0.015757    2.134651    0.000032
      5          6           0       -2.635736    0.000003    0.000022
      6          1           0       -2.481156    2.137796    0.000047
      7          6           0       -0.555545   -1.196749   -0.000018
      8          5           0        1.728835   -0.000053   -0.000035
      9          6           0       -1.941097   -1.200395   -0.000032
     10          1           0       -3.717717    0.000015    0.000020
     11          1           0       -0.015785   -2.134669   -0.000073
     12          8           0        2.386416    1.198868   -0.000068
     13          8           0        2.386525   -1.198922    0.000058
     14          1           0       -2.481177   -2.137784   -0.000058
     15          1           0        3.341718    1.104300    0.000176
     16          1           0        3.341813   -1.103550    0.000119
 ---------------------------------------------------------------------

 SCF Done:  E(RHF) =  -406.004789041     A.U. after    2 cycles

 The electronic state is 1-A.
 Alpha  occ. eigenvalues --  -20.58897 -20.58896 -11.24228 -11.23792 -11.23791
 Alpha  occ. eigenvalues --  -11.23446 -11.23441 -11.21481  -7.65943  -1.35548
 Alpha  occ. eigenvalues --   -1.31459  -1.13756  -1.00542  -1.00478  -0.83369
 Alpha  occ. eigenvalues --   -0.82373  -0.77571  -0.75410  -0.70178  -0.66111
 Alpha  occ. eigenvalues --   -0.62827  -0.61852  -0.59916  -0.58638  -0.56164
 Alpha  occ. eigenvalues --   -0.55867  -0.53177  -0.49978  -0.48659  -0.47326
 Alpha  occ. eigenvalues --   -0.33717  -0.33399
 Alpha virt. eigenvalues --    0.02468   0.03987   0.04507   0.05647   0.05677
 Alpha virt. eigenvalues --    0.05690   0.07403   0.07928   0.08173   0.09416
 Alpha virt. eigenvalues --    0.10119   0.10894   0.11538   0.13543   0.14522

 Mulliken charges:
               1
     1  C    0.337918
     2  C    0.549528
     3  C    0.013958
     4  H   -0.627344
     5  C    0.779531
     6  H   -0.447197
     7  C    0.337810
     8  B    0.661791
     9  C    0.549724
    10  H   -0.443286
    11  H   -0.627413
    12  O   -0.474139
    13  O   -0.474110
    14  H   -0.447196
    15  H    0.155128
    16  H    0.155296
 Sum of Mulliken charges =   0.00000

 Dipole moment (field-independent basis, Debye):
    X=              2.1695    Y=              0.0013    Z=              0.0004  Tot=              2.1695

 Test job not archived.
 1\1\GINC-SE094\SP\RHF\Aug-CC-pVDZ\C6H7B1O2\OHZDE\08-Apr-2025\0\\#t hf
 aug-cc-pvdz iop(5/13=1,5/36=2,99/5=2) pseudo=read geom=check guess=(re
 ad,tcheck) scf=(maxcycle=1)\\title\\0,1\C,0,1.25953,-1.19671,-0.0001\C
 ,0,2.64508,-1.19967,0.00081\C,0,0.541,-0.00032,-0.0006\H,0,0.72022,-2.
 13489,-0.0004\C,0,3.33913,0.00107,0.00121\H,0,3.18562,-2.1368,0.00117\
 C,0,1.25834,1.19678,-0.00016\B,0,-1.02544,-0.00106,-0.0016\C,0,2.64389
 ,1.20112,0.0007\H,0,4.42111,0.0016,0.00189\H,0,0.71811,2.13443,-0.0005
 7\O,0,-1.68242,-1.20031,-0.00203\O,0,-1.68373,1.19748,-0.00194\H,0,3.1

 Normal termination of Gaussian 16 at Tue Apr  8 22:24:12 2025.
