 Gaussian 16, Revision C.01,

 ----------------------------------------------------------------------
 #t hf aug-cc-pvdz symm=none int=(grid=ultrafine) guess=(read,tcheck) s
 table=(opt,rrhf)
 ----------------------------------------------------------------------
 -----
 title
 -----
 Symbolic Z-matrix:
 Charge =  0 Multiplicity = 1

 SCF Done:  E(RHF) =  -502.458899117     A.U. after   11 cycles
 Normal termination of Gaussian 16 at Tue Apr  8 22:20:41 2025.
 Gaussian 16:  ES64L-G16RevC.01  3-Jul-2019

 ----------------------------------------------------------------------
 #t hf aug-cc-pvdz iop(5/13=1,5/36=2,99/5=2) pseudo=read geom=check gue
 ss=(read,tcheck) scf=(maxcycle=1)
 ----------------------------------------------------------------------
 -----
 title
 -----
 Structure from the checkpoint file:  "B-set_boricacid_boricacid_090_dimer_mol1.chk"
 Charge =  0 Multiplicity = 1

                         Standard orientation:
 ---------------------------------------------------------------------
 Center     Atomic      Atomic             Coordinates (Angstroms)
 Number     Number       Type             X           Y           Z
 ---------------------------------------------------------------------
      1          5           0        1.857885    0.027254   -0.000097
      2          8           0        3.215351   -0.119977    0.000463
      3          8           0        1.278535    1.244758   -0.000727
      4          8           0        1.091351   -1.123341   -0.000037
      5          1           0        3.672810    0.718524    0.000473
      6          1           0        0.309582    1.235424   -0.000477
      7          1           0        1.623897   -1.916901    0.000603
      8          5           0       -1.857847   -0.027211    0.000068
      9          8           0       -1.091403    1.123393    0.000408
     10          8           0       -3.215363    0.119889    0.000108
     11          8           0       -1.278507   -1.244725   -0.000302
     12          1           0       -1.624029    1.916914    0.000728
     13          1           0       -3.672612   -0.718722   -0.000102
     14          1           0       -0.309544   -1.235432   -0.000382
 ---------------------------------------------------------------------

 SCF Done:  E(RHF) =  -502.638152674     A.U. after    2 cycles

 The electronic state is 1-A.
 Alpha  occ. eigenvalues --  -20.60484 -20.60484 -20.58055 -20.58054 -20.54316
 Alpha  occ. eigenvalues --  -20.54315  -7.68718  -7.68717  -1.38748  -1.37187
 Alpha  occ. eigenvalues --   -1.33254  -1.32470  -1.29529  -1.29107  -0.82474
 Alpha  occ. eigenvalues --   -0.80508  -0.79913  -0.79597  -0.75335  -0.73935
 Alpha  occ. eigenvalues --   -0.64091  -0.63481  -0.62344  -0.61980  -0.58798
 Alpha  occ. eigenvalues --   -0.58425  -0.55144  -0.54398  -0.54326  -0.54141
 Alpha  occ. eigenvalues --   -0.50968  -0.50421
 Alpha virt. eigenvalues --    0.03260   0.04114   0.04760   0.05769   0.05783
 Alpha virt. eigenvalues --    0.06536   0.07080   0.08502   0.08627   0.08818
 Alpha virt. eigenvalues --    0.11834   0.12041   0.13324   0.13437   0.18096

 Mulliken charges:
               1
     1  B    0.681765
     2  O   -0.488518
     3  O   -0.371878
     4  O   -0.535817
     5  H    0.165230
     6  H    0.354724
     7  H    0.194523
     8  B    0.681679
     9  O   -0.535748
    10  O   -0.488567
    11  O   -0.371857
    12  H    0.194540
    13  H    0.165219
    14  H    0.354705
 Sum of Mulliken charges =  -0.00000

 Dipole moment (field-independent basis, Debye):
    X=              0.0010    Y=              0.0001    Z=              0.0021  Tot=              0.0023

 Test job not archived.
 1\1\GINC-SE082\SP\RHF\Aug-CC-pVDZ\B2H6O6\OHZDE\08-Apr-2025\0\\#t hf au
 g-cc-pvdz iop(5/13=1,5/36=2,99/5=2) pseudo=read geom=check guess=(read
 ,tcheck) scf=(maxcycle=1)\\title\\0,1\B,0,2.06504,0.02667,-0.0001\O,0,
 3.42239,-0.12163,0.00046\O,0,1.48665,1.24463,-0.00073\O,0,1.2976,-1.12
 332,-0.00004\H,0,3.88051,0.71651,0.00047\H,0,0.51769,1.23606,-0.00048\
 H,0,1.82952,-1.9173,0.0006\B,0,-1.65073314,-0.024867,0.00006486\O,0,-0
 .88338314,1.125133,0.00040486\O,0,-3.00813314,0.123303,0.00010486\O,0,
 -1.07235314,-1.242837,-0.00030514\H,0,-1.41538314,1.919073,0.00072486\

 Normal termination of Gaussian 16 at Tue Apr  8 22:20:46 2025.
