 Gaussian 16, Revision C.01,

 ----------------------------------------------------------------------
 #t hf aug-cc-pvdz symm=none int=(grid=ultrafine) guess=(read,tcheck) s
 table=(opt,rrhf)
 ----------------------------------------------------------------------
 -----
 title
 -----
 Symbolic Z-matrix:
 Charge =  0 Multiplicity = 1

 SCF Done:  E(RHF) =  -497.147209169     A.U. after   14 cycles
 Normal termination of Gaussian 16 at Tue Apr  8 22:24:39 2025.
 Gaussian 16:  ES64L-G16RevC.01  3-Jul-2019

 ----------------------------------------------------------------------
 #t hf aug-cc-pvdz iop(5/13=1,5/36=2,99/5=2) pseudo=read geom=check gue
 ss=(read,tcheck) scf=(maxcycle=1)
 ----------------------------------------------------------------------
 -----
 title
 -----
 Structure from the checkpoint file:  "B-set_borepin_borazine_150_dimer_mol1.chk"
 Charge =  0 Multiplicity = 1

                         Standard orientation:
 ---------------------------------------------------------------------
 Center     Atomic      Atomic             Coordinates (Angstroms)
 Number     Number       Type             X           Y           Z
 ---------------------------------------------------------------------
      1          6           0       -2.109593   -1.136121    1.179144
      2          6           0       -2.723396   -1.534167    0.030982
      3          6           0       -1.830071    0.167902    1.665119
      4          1           0       -1.775355   -1.939055    1.825940
      5          6           0       -3.271979   -0.764825   -1.029109
      6          1           0       -2.807622   -2.606898   -0.099349
      7          6           0       -2.096889    1.373292    1.090343
      8          1           0       -1.320864    0.174517    2.624411
      9          6           0       -3.308628    0.588752   -1.179335
     10          1           0       -3.713521   -1.366386   -1.818802
     11          1           0       -1.762951    2.224889    1.676977
     12          5           0       -2.771526    1.664148   -0.243676
     13          1           0       -3.790275    0.918488   -2.096284
     14          1           0       -2.892924    2.809611   -0.574758
     15          5           0        3.747569    0.015688    0.945405
     16          7           0        3.362527    1.213784    0.281255
     17          7           0        3.319583   -1.216810    0.372108
     18          1           0        4.401070    0.040154    1.946408
     19          5           0        2.562833    1.216410   -0.900423
     20          1           0        3.647040    2.094162    0.669788
     21          5           0        2.535832   -1.281312   -0.819011
     22          1           0        3.587818   -2.074321    0.818957
     23          7           0        2.184702   -0.048378   -1.434954
     24          1           0        2.231993    2.237495   -1.424141
     25          1           0        2.196153   -2.330074   -1.280707
     26          1           0        1.601554   -0.066416   -2.251653
 ---------------------------------------------------------------------

 SCF Done:  E(RHF) =  -497.302452720     A.U. after    2 cycles

 The electronic state is 1-A.
 Alpha  occ. eigenvalues --  -15.59597 -15.59541 -15.59462 -11.26519 -11.26440
 Alpha  occ. eigenvalues --  -11.26285 -11.26152 -11.22490 -11.22429  -7.61254
 Alpha  occ. eigenvalues --   -7.61246  -7.61182  -7.57664  -1.16264  -1.11801
 Alpha  occ. eigenvalues --   -1.09186  -1.09177  -1.04604  -0.98995  -0.87632
 Alpha  occ. eigenvalues --   -0.81599  -0.74112  -0.72143  -0.72103  -0.70491
 Alpha  occ. eigenvalues --   -0.68884  -0.66891  -0.62567  -0.60631  -0.60066
 Alpha  occ. eigenvalues --   -0.60043  -0.58275  -0.54704  -0.53372  -0.53214
 Alpha  occ. eigenvalues --   -0.51212  -0.48697  -0.46973  -0.46924  -0.45744
 Alpha  occ. eigenvalues --   -0.45691  -0.40301  -0.40286  -0.38199  -0.32286
 Alpha virt. eigenvalues --    0.02621   0.03004   0.03292   0.03842   0.04640
 Alpha virt. eigenvalues --    0.04817   0.04906   0.05485   0.05688   0.05836
 Alpha virt. eigenvalues --    0.06524   0.06996   0.07201   0.07570   0.07722

 Mulliken charges:
               1
     1  C    0.176013
     2  C    0.140119
     3  C    0.806959
     4  H   -0.556738
     5  C    0.619558
     6  H   -0.521732
     7  C    0.699308
     8  H   -0.517637
     9  C    0.664370
    10  H   -0.459851
    11  H   -0.517446
    12  B   -0.496614
    13  H   -0.483783
    14  H    0.482034
    15  B    0.025501
    16  N   -0.164091
    17  N   -0.178895
    18  H    0.228154
    19  B    0.084259
    20  H   -0.125598
    21  B    0.055155
    22  H   -0.120611
    23  N   -0.186781
    24  H    0.226391
    25  H    0.236904
    26  H   -0.114950
 Sum of Mulliken charges =  -0.00000

 Dipole moment (field-independent basis, Debye):
    X=              0.1331    Y=             -1.8405    Z=              0.5415  Tot=              1.9231

 Test job not archived.
 1\1\GINC-SE044\SP\RHF\Aug-CC-pVDZ\C6H13B4N3\OHZDE\08-Apr-2025\0\\#t hf
  aug-cc-pvdz iop(5/13=1,5/36=2,99/5=2) pseudo=read geom=check guess=(r
 ead,tcheck) scf=(maxcycle=1)\\title\\0,1\C,0,-1.1002,-1.1557,1.24379\C
 ,0,-1.87153,-1.52215,0.18349\C,0,-0.73895,0.13441,1.71272\H,0,-0.6909,
 -1.97601,1.822\C,0,-2.55047,-0.72416,-0.77509\H,0,-1.98729,-2.59084,0.
 04445\C,0,-1.06616,1.35478,1.20463\H,0,-0.10247,0.11476,2.59254\C,0,-2
 .58928,0.63268,-0.89154\H,0,-3.10457,-1.30369,-1.50828\H,0,-0.64323,2.
 18983,1.75662\B,0,-1.91408,1.68172,-0.01745\H,0,-3.18812,0.98737,-1.72

 Normal termination of Gaussian 16 at Tue Apr  8 22:25:04 2025.
