 Gaussian 16, Revision C.01,

 ----------------------------------------------------------------------
 #t hf aug-cc-pvdz symm=none int=(grid=ultrafine) guess=(read,tcheck) s
 table=(opt,rrhf)
 ----------------------------------------------------------------------
 -----
 title
 -----
 Symbolic Z-matrix:
 Charge =  0 Multiplicity = 1

 SCF Done:  E(RHF) =  -219.228009755     A.U. after   12 cycles
 Normal termination of Gaussian 16 at Tue Apr  8 22:22:53 2025.
 Gaussian 16:  ES64L-G16RevC.01  3-Jul-2019

 ----------------------------------------------------------------------
 #t hf aug-cc-pvdz iop(5/13=1,5/36=2,99/5=2) pseudo=read geom=check gue
 ss=(read,tcheck) scf=(maxcycle=1)
 ----------------------------------------------------------------------
 -----
 title
 -----
 Structure from the checkpoint file:  "B-set_borole_methane_200_dimer_mol1.chk"
 Charge =  0 Multiplicity = 1

                         Standard orientation:
 ---------------------------------------------------------------------
 Center     Atomic      Atomic             Coordinates (Angstroms)
 Number     Number       Type             X           Y           Z
 ---------------------------------------------------------------------
      1          5           0       -1.027345   -0.144306    1.216541
      2          6           0       -1.562432   -1.273204    0.249296
      3          6           0       -1.340988    1.206251    0.460274
      4          1           0       -0.547278   -0.279814    2.298491
      5          6           0       -2.100145   -0.637979   -0.793367
      6          1           0       -1.555223   -2.347665    0.355216
      7          6           0       -1.965446    0.859995   -0.666353
      8          1           0       -1.142448    2.229111    0.743103
      9          1           0       -2.583991   -1.097552   -1.646727
     10          1           0       -2.345190    1.533833   -1.424699
     11          6           0        5.512339   -0.024523   -0.191224
     12          1           0        6.476376   -0.501189   -0.354199
     13          1           0        5.519363    0.976975   -0.613844
     14          1           0        4.732848   -0.613341   -0.671095
     15          1           0        5.322308    0.037934    0.879297
 ---------------------------------------------------------------------

 SCF Done:  E(RHF) =  -219.298319185     A.U. after    2 cycles

 The electronic state is 1-A.
 Alpha  occ. eigenvalues --  -11.25971 -11.25913 -11.21726 -11.21239 -11.21225
 Alpha  occ. eigenvalues --   -7.61494  -1.10980  -0.96822  -0.93880  -0.83682
 Alpha  occ. eigenvalues --   -0.71355  -0.70086  -0.64106  -0.57492  -0.54739
 Alpha  occ. eigenvalues --   -0.54679  -0.54478  -0.52050  -0.47194  -0.46478
 Alpha  occ. eigenvalues --   -0.46134  -0.32153
 Alpha virt. eigenvalues --    0.02307   0.03048   0.04088   0.04346   0.04663
 Alpha virt. eigenvalues --    0.05774   0.06052   0.06462   0.06904   0.07293
 Alpha virt. eigenvalues --    0.07946   0.08782   0.10435   0.12321   0.13328

 Mulliken charges:
               1
     1  B    0.142619
     2  C    0.310818
     3  C    0.304353
     4  H    0.329324
     5  C    0.177953
     6  H   -0.376994
     7  C    0.195527
     8  H   -0.375559
     9  H   -0.353379
    10  H   -0.354663
    11  C    0.632284
    12  H   -0.169945
    13  H   -0.153077
    14  H   -0.156811
    15  H   -0.152449
 Sum of Mulliken charges =  -0.00000

 Dipole moment (field-independent basis, Debye):
    X=             -0.4100    Y=              0.1089    Z=             -0.8090  Tot=              0.9135

 Test job not archived.
 1\1\GINC-SE220\SP\RHF\Aug-CC-pVDZ\C5H9B1\OHZDE\08-Apr-2025\0\\#t hf au
 g-cc-pvdz iop(5/13=1,5/36=2,99/5=2) pseudo=read geom=check guess=(read
 ,tcheck) scf=(maxcycle=1)\\title\\0,1\B,0,0.06513,-0.1638,-1.2018\C,0,
 0.7417,-1.2672,-0.29568\C,0,0.44816,1.2043,-0.51194\H,0,-0.54783,-0.32
 544,-2.21056\C,0,1.39732,-0.60567,0.65948\H,0,0.74116,-2.34325,-0.3843
 \C,0,1.21913,0.88749,0.52939\H,0,0.19554,2.2188,-0.78143\H,0,1.99577,-
 1.0427,1.44967\H,0,1.68073,1.58021,1.22251\C,0,-6.239451,-0.130702,1.0
 37568\H,0,-7.165251,-0.620752,1.330628\H,0,-6.210801,0.877458,1.443088

 Normal termination of Gaussian 16 at Tue Apr  8 22:22:58 2025.
