 Gaussian 16, Revision C.01,

 ----------------------------------------------------------------------
 #t hf aug-cc-pvdz symm=none int=(grid=ultrafine) guess=(read,tcheck) s
 table=(opt,rrhf)
 ----------------------------------------------------------------------
 -----
 title
 -----
 Symbolic Z-matrix:
 Charge =  0 Multiplicity = 1

 SCF Done:  E(RHF) =  -368.295095899     A.U. after   11 cycles
 Normal termination of Gaussian 16 at Tue Apr  8 22:23:43 2025.
 Gaussian 16:  ES64L-G16RevC.01  3-Jul-2019

 ----------------------------------------------------------------------
 #t hf aug-cc-pvdz iop(5/13=1,5/36=2,99/5=2) pseudo=read geom=check gue
 ss=(read,tcheck) scf=(maxcycle=1)
 ----------------------------------------------------------------------
 -----
 title
 -----
 Structure from the checkpoint file:  "B-set_trimethylborate_trimethylborate_090_dimer_mol2.chk"
 Charge =  0 Multiplicity = 1

                         Standard orientation:
 ---------------------------------------------------------------------
 Center     Atomic      Atomic             Coordinates (Angstroms)
 Number     Number       Type             X           Y           Z
 ---------------------------------------------------------------------
      1          5           0       -0.000033   -0.000046   -0.027705
      2          8           0       -1.361457    0.035174   -0.031288
      3          8           0        0.650324   -1.196579   -0.031901
      4          8           0        0.711174    1.161400   -0.030956
      5          6           0       -2.117255   -1.159377    0.027671
      6          6           0        2.062678   -1.253863    0.027704
      7          6           0        0.054578    2.413177    0.027341
      8          1           0       -2.050451   -1.601597    1.022140
      9          1           0       -3.153291   -0.900988   -0.181167
     10          1           0       -1.771483   -1.884712   -0.708961
     11          1           0        2.357394   -2.279346   -0.184913
     12          1           0        2.518279   -0.588620   -0.705921
     13          1           0        2.411490   -0.978621    1.023489
     14          1           0        0.797406    3.181589   -0.176202
     15          1           0       -0.742827    2.478292   -0.713088
     16          1           0       -0.366695    2.574652    1.020009
 ---------------------------------------------------------------------

 SCF Done:  E(RHF) =  -368.427701878     A.U. after    2 cycles

 The electronic state is 1-A.
 Alpha  occ. eigenvalues --  -20.56503 -20.56502 -20.56502 -11.28178 -11.28177
 Alpha  occ. eigenvalues --  -11.28177  -7.66860  -1.35685  -1.31062  -1.31062
 Alpha  occ. eigenvalues --   -0.94514  -0.93115  -0.93115  -0.73644  -0.70423
 Alpha  occ. eigenvalues --   -0.70420  -0.66959  -0.62523  -0.62522  -0.61448
 Alpha  occ. eigenvalues --   -0.61446  -0.59046  -0.51436  -0.50361  -0.49351
 Alpha  occ. eigenvalues --   -0.49346  -0.46016  -0.46013
 Alpha virt. eigenvalues --    0.03463   0.04759   0.04760   0.05282   0.06222
 Alpha virt. eigenvalues --    0.06223   0.07189   0.07194   0.07409   0.10093
 Alpha virt. eigenvalues --    0.10803   0.10811   0.10817   0.13852   0.14803

 Mulliken charges:
               1
     1  B    0.578497
     2  O   -0.528770
     3  O   -0.529207
     4  O   -0.528651
     5  C    0.916179
     6  C    0.916250
     7  C    0.916494
     8  H   -0.149837
     9  H   -0.286356
    10  H   -0.144147
    11  H   -0.286126
    12  H   -0.144068
    13  H   -0.149706
    14  H   -0.286910
    15  H   -0.143927
    16  H   -0.149715
 Sum of Mulliken charges =  -0.00000

 Dipole moment (field-independent basis, Debye):
    X=             -0.0000    Y=             -0.0003    Z=              0.1892  Tot=              0.1892

 Test job not archived.
 1\1\GINC-SE080\SP\RHF\Aug-CC-pVDZ\C3H9B1O3\OHZDE\08-Apr-2025\0\\#t hf
 aug-cc-pvdz iop(5/13=1,5/36=2,99/5=2) pseudo=read geom=check guess=(re
 ad,tcheck) scf=(maxcycle=1)\\title\\0,1\B,0,1.60824,0.00191,-0.00082\O
 ,0,1.60915,1.34156,-0.2459\O,0,1.61322,-0.88027,-1.03832\O,0,1.61338,-
 0.45565,1.28191\C,0,1.5482,1.83586,-1.57014\C,0,1.55638,-2.2744,-0.804
 33\C,0,1.55431,0.44388,2.37224\H,0,0.55368,1.67784,-1.98841\H,0,1.7551
 ,2.90326,-1.53016\H,0,2.28521,1.34988,-2.20962\H,0,1.76915,-2.77301,-1
 .74762\H,0,2.29118,-2.58234,-0.06031\H,0,0.5614,-2.5611,-0.46252\H,0,1

 Normal termination of Gaussian 16 at Tue Apr  8 22:23:48 2025.
