 Gaussian 16, Revision C.01,

 ----------------------------------------------------------------------
 #t hf aug-cc-pvdz symm=none int=(grid=ultrafine) guess=(read,tcheck) s
 table=(opt,rrhf)
 ----------------------------------------------------------------------
 -----
 title
 -----
 Symbolic Z-matrix:
 Charge =  0 Multiplicity = 1

 SCF Done:  E(RHF) =  -894.814409003     A.U. after   11 cycles
 Normal termination of Gaussian 16 at Tue Apr  8 22:18:45 2025.
 Gaussian 16:  ES64L-G16RevC.01  3-Jul-2019

 ----------------------------------------------------------------------
 #t hf aug-cc-pvdz iop(5/13=1,5/36=2,99/5=2) pseudo=read geom=check gue
 ss=(read,tcheck) scf=(maxcycle=1)
 ----------------------------------------------------------------------
 -----
 title
 -----
 Structure from the checkpoint file:  "B-set_b2f4_b2f4_150_dimer_mol1.chk"
 Charge =  0 Multiplicity = 1

                         Standard orientation:
 ---------------------------------------------------------------------
 Center     Atomic      Atomic             Coordinates (Angstroms)
 Number     Number       Type             X           Y           Z
 ---------------------------------------------------------------------
      1          5           0        2.798336   -0.716037    0.410339
      2          5           0        2.627203    0.899268   -0.182681
      3          9           0        1.772384   -1.343108    0.957648
      4          9           0        3.934759   -1.367790    0.343140
      5          9           0        1.618750    1.656790    0.211676
      6          9           0        3.482999    1.427235   -1.024325
      7          5           0       -2.479724   -0.731653   -0.647507
      8          5           0       -2.916006    0.549379    0.421873
      9          9           0       -1.549318   -0.570002   -1.578846
     10          9           0       -3.062699   -1.908509   -0.600358
     11          9           0       -3.426200    1.673723   -0.036179
     12          9           0       -2.787236    0.431129    1.726119
 ---------------------------------------------------------------------

 SCF Done:  E(RHF) =  -895.182226699     A.U. after    2 cycles

 The electronic state is 1-A.
 Alpha  occ. eigenvalues --  -26.16246 -26.16242 -26.16095 -26.16093 -26.16035
 Alpha  occ. eigenvalues --  -26.15886 -26.15863 -26.15818  -7.76137  -7.76083
 Alpha  occ. eigenvalues --   -7.75903  -7.75802  -1.71864  -1.71585  -1.71583
 Alpha  occ. eigenvalues --   -1.71310  -1.69483  -1.69313  -1.69158  -1.69028
 Alpha  occ. eigenvalues --   -0.90924  -0.90661  -0.89856  -0.89597  -0.85251
 Alpha  occ. eigenvalues --   -0.84587  -0.83838  -0.83782  -0.83384  -0.82959
 Alpha  occ. eigenvalues --   -0.79516  -0.78982  -0.78690  -0.78636  -0.78512
 Alpha  occ. eigenvalues --   -0.78499  -0.74338  -0.74207  -0.74140  -0.74089
 Alpha  occ. eigenvalues --   -0.73930  -0.73673  -0.73407  -0.73398  -0.54925
 Alpha  occ. eigenvalues --   -0.54594
 Alpha virt. eigenvalues --    0.02560   0.04111   0.04158   0.04295   0.04725
 Alpha virt. eigenvalues --    0.05637   0.06232   0.06947   0.07126   0.07622
 Alpha virt. eigenvalues --    0.08297   0.08476   0.08719   0.09236   0.09539

 Mulliken charges:
               1
     1  B    0.982824
     2  B    0.973484
     3  F   -0.502453
     4  F   -0.483686
     5  F   -0.497438
     6  F   -0.472600
     7  B    0.955440
     8  B    0.950804
     9  F   -0.489755
    10  F   -0.476500
    11  F   -0.478366
    12  F   -0.461755
 Sum of Mulliken charges =  -0.00000

 Dipole moment (field-independent basis, Debye):
    X=              0.1741    Y=              0.0091    Z=              0.0348  Tot=              0.1777

 Test job not archived.
 1\1\GINC-SE074\SP\RHF\Aug-CC-pVDZ\B4F8\OHZDE\08-Apr-2025\0\\#t hf aug-
 cc-pvdz iop(5/13=1,5/36=2,99/5=2) pseudo=read geom=check guess=(read,t
 check) scf=(maxcycle=1)\\title\\0,1\B,0,1.91416,-0.63907,0.46973\B,0,1
 .67914,0.97528,-0.10369\F,0,0.89841,-1.33833,0.94368\F,0,3.09043,-1.21
 961,0.45886\F,0,0.60477,1.6621,0.24321\F,0,2.54863,1.57167,-0.88331\B,
 0,-3.28213417,-0.9499825,-0.9010575\B,0,-3.85797417,0.2793375,0.162962
 5\F,0,-2.31057417,-0.7127525,-1.7722475\F,0,-3.79352417,-2.1605525,-0.
 9096375\F,0,-4.40858417,1.3804275,-0.3046775\F,0,-3.79862417,0.1412575

 Normal termination of Gaussian 16 at Tue Apr  8 22:18:53 2025.
