 Gaussian 16, Revision C.01,

 ----------------------------------------------------------------------
 #t hf aug-cc-pvdz symm=none int=(grid=ultrafine) guess=(read,tcheck) s
 table=(opt,rrhf)
 ----------------------------------------------------------------------
 -----
 title
 -----
 Symbolic Z-matrix:
 Charge =  0 Multiplicity = 1

 SCF Done:  E(RHF) =  -464.895153639     A.U. after   15 cycles
 Normal termination of Gaussian 16 at Tue Apr  8 22:23:51 2025.
 Gaussian 16:  ES64L-G16RevC.01  3-Jul-2019

 ----------------------------------------------------------------------
 #t hf aug-cc-pvdz iop(5/13=1,5/36=2,99/5=2) pseudo=read geom=check gue
 ss=(read,tcheck) scf=(maxcycle=1)
 ----------------------------------------------------------------------
 -----
 title
 -----
 Structure from the checkpoint file:  "B-set_azaborine_benzene_105_dimer_mol1.chk"
 Charge =  0 Multiplicity = 1

                         Standard orientation:
 ---------------------------------------------------------------------
 Center     Atomic      Atomic             Coordinates (Angstroms)
 Number     Number       Type             X           Y           Z
 ---------------------------------------------------------------------
      1          7           0        1.103943    0.198824   -0.055363
      2          5           0        1.907334    1.377022   -0.031385
      3          6           0        1.615611   -1.057236   -0.037832
      4          1           0        0.098689    0.260705   -0.085403
      5          6           0        3.396868    1.128135    0.014706
      6          1           0        1.352239    2.434603   -0.049115
      7          6           0        2.956387   -1.266470    0.003719
      8          1           0        0.905205   -1.872199   -0.058160
      9          6           0        3.846131   -0.161684    0.029812
     10          1           0        4.131374    1.923727    0.036587
     11          1           0        3.334087   -2.277695    0.016752
     12          1           0        4.909229   -0.376043    0.062670
     13          6           0       -2.417621   -0.168627    1.390865
     14          6           0       -2.475111    1.105365    0.844463
     15          6           0       -2.393387   -1.279439    0.559883
     16          1           0       -2.386112   -0.295387    2.464040
     17          6           0       -2.507666    1.268733   -0.533161
     18          1           0       -2.485784    1.971315    1.491418
     19          6           0       -2.425762   -1.116421   -0.817821
     20          1           0       -2.348455   -2.272191    0.986464
     21          6           0       -2.482712    0.157780   -1.364343
     22          1           0       -2.543929    2.261761   -0.958788
     23          1           0       -2.405308   -1.981715   -1.466040
     24          1           0       -2.501931    0.285425   -2.437711
 ---------------------------------------------------------------------

 SCF Done:  E(RHF) =  -465.035465834     A.U. after    2 cycles

 The electronic state is 1-A.
 Alpha  occ. eigenvalues --  -15.63776 -11.28464 -11.25677 -11.25603 -11.25581
 Alpha  occ. eigenvalues --  -11.25494 -11.25464 -11.25401 -11.24556 -11.22087
 Alpha  occ. eigenvalues --  -11.19325  -7.57619  -1.20460  -1.15898  -1.05723
 Alpha  occ. eigenvalues --   -1.02459  -1.02441  -0.96387  -0.83944  -0.83939
 Alpha  occ. eigenvalues --   -0.82489  -0.77359  -0.72866  -0.72193  -0.65627
 Alpha  occ. eigenvalues --   -0.64031  -0.62367  -0.61952  -0.60544  -0.60530
 Alpha  occ. eigenvalues --   -0.59185  -0.55151  -0.52705  -0.52166  -0.51012
 Alpha  occ. eigenvalues --   -0.51000  -0.48144  -0.45265  -0.38616  -0.35545
 Alpha  occ. eigenvalues --   -0.35451  -0.29918
 Alpha virt. eigenvalues --    0.02908   0.03600   0.03828   0.04177   0.05408
 Alpha virt. eigenvalues --    0.05492   0.05623   0.06167   0.06965   0.07417
 Alpha virt. eigenvalues --    0.07628   0.08154   0.08680   0.09276   0.09809

 Mulliken charges:
               1
     1  N    0.012350
     2  B   -0.373128
     3  C    0.702242
     4  H   -0.063832
     5  C    0.738417
     6  H    0.390644
     7  C    0.485403
     8  H   -0.529426
     9  C   -0.034944
    10  H   -0.465541
    11  H   -0.442712
    12  H   -0.433907
    13  C    0.523999
    14  C    0.532896
    15  C    0.496336
    16  H   -0.500938
    17  C    0.511712
    18  H   -0.521894
    19  C    0.509500
    20  H   -0.526860
    21  C    0.546813
    22  H   -0.524242
    23  H   -0.523882
    24  H   -0.509005
 Sum of Mulliken charges =  -0.00000

 Dipole moment (field-independent basis, Debye):
    X=             -2.0824    Y=             -1.4572    Z=             -0.0089  Tot=              2.5416

 Test job not archived.
 1\1\GINC-SE096\SP\RHF\Aug-CC-pVDZ\C10H12B1N1\OHZDE\08-Apr-2025\0\\#t h
 f aug-cc-pvdz iop(5/13=1,5/36=2,99/5=2) pseudo=read geom=check guess=(
 read,tcheck) scf=(maxcycle=1)\\title\\0,1\N,0,-0.98689,0.19856,0.05529
 \B,0,-1.78972,1.37715,0.03178\C,0,-1.49918,-1.05725,0.03801\H,0,0.0184
 1,0.25995,0.08478\C,0,-3.2794,1.12899,-0.0135\H,0,-1.2341,2.43446,0.04
 923\C,0,-2.84008,-1.26583,-0.00281\H,0,-0.78916,-1.87256,0.05793\C,0,-
 3.7293,-0.16061,-0.02839\H,0,-4.01353,1.92494,-0.03496\H,0,-3.21828,-2
 .27687,-0.01566\H,0,-4.79252,-0.37445,-0.06067\C,0,2.53370121,-0.17057

 Normal termination of Gaussian 16 at Tue Apr  8 22:24:10 2025.
