 Gaussian 16, Revision C.01,

 ----------------------------------------------------------------------
 #t hf aug-cc-pvdz symm=none int=(grid=ultrafine) guess=(read,tcheck) s
 table=(opt,rrhf)
 ----------------------------------------------------------------------
 -----
 title
 -----
 Symbolic Z-matrix:
 Charge =  0 Multiplicity = 1

 SCF Done:  E(RHF) =  -447.407157522     A.U. after   11 cycles
 Normal termination of Gaussian 16 at Tue Apr  8 22:18:11 2025.
 Gaussian 16:  ES64L-G16RevC.01  3-Jul-2019

 ----------------------------------------------------------------------
 #t hf aug-cc-pvdz iop(5/13=1,5/36=2,99/5=2) pseudo=read geom=check gue
 ss=(read,tcheck) scf=(maxcycle=1)
 ----------------------------------------------------------------------
 -----
 title
 -----
 Structure from the checkpoint file:  "B-set_b2f4_b2cl4_090_dimer_mol3.chk"
 Charge =  0 Multiplicity = 1

                         Standard orientation:
 ---------------------------------------------------------------------
 Center     Atomic      Atomic             Coordinates (Angstroms)
 Number     Number       Type             X           Y           Z
 ---------------------------------------------------------------------
      1          5           0        0.863202   -0.002403    0.001080
      2          5           0       -0.864886   -0.000650   -0.001494
      3          9           0        1.548806    1.123722    0.047142
      4          9           0        1.551748   -1.121531   -0.047381
      5          9           0       -1.549818    1.122515   -0.047021
      6          9           0       -1.549801   -1.123009    0.047489
 ---------------------------------------------------------------------

 SCF Done:  E(RHF) =  -447.591351133     A.U. after    2 cycles

 The electronic state is 1-A.
 Alpha  occ. eigenvalues --  -26.15891 -26.15864 -26.15847 -26.15745  -7.75831
 Alpha  occ. eigenvalues --   -7.75777  -1.71523  -1.71229  -1.69161  -1.68966
 Alpha  occ. eigenvalues --   -0.90592  -0.89514  -0.84942  -0.83392  -0.83079
 Alpha  occ. eigenvalues --   -0.79217  -0.78321  -0.78125  -0.74019  -0.73878
 Alpha  occ. eigenvalues --   -0.73761  -0.73015  -0.54717
 Alpha virt. eigenvalues --    0.02468   0.04457   0.04945   0.05993   0.07365
 Alpha virt. eigenvalues --    0.07499   0.07630   0.07775   0.13727   0.20076
 Alpha virt. eigenvalues --    0.23289   0.23854   0.24423   0.24814   0.24980

 Mulliken charges:
               1
     1  B    0.946735
     2  B    0.949073
     3  F   -0.479517
     4  F   -0.470826
     5  F   -0.472656
     6  F   -0.472809
 Sum of Mulliken charges =  -0.00000

 Dipole moment (field-independent basis, Debye):
    X=             -0.0152    Y=             -0.0278    Z=             -0.0021  Tot=              0.0317

 Test job not archived.
 1\1\GINC-SE186\SP\RHF\Aug-CC-pVDZ\B2F4\OHZDE\08-Apr-2025\0\\#t hf aug-
 cc-pvdz iop(5/13=1,5/36=2,99/5=2) pseudo=read geom=check guess=(read,t
 check) scf=(maxcycle=1)\\title\\0,1\B,0,2.38973,-0.6957,-0.67329\B,0,2
 .76899,0.27376,0.70606\F,0,1.49982,-1.66705,-0.6035\F,0,2.97613,-0.502
 59,-1.83421\F,0,2.24959,0.01802,1.88823\F,0,3.58528,1.30172,0.61569\\V
 ersion=ES64L-G16RevC.01\State=1-A\HF=-447.5913511\RMSD=7.699e-03\Dipol
 e=0.0087601,0.0088061,-0.0011407\Quadrupole=1.74065,0.3590563,-2.09970
 62,-3.3582631,1.1440905,-1.2531545\PG=C01 [X(B2F4)]\\@

 Normal termination of Gaussian 16 at Tue Apr  8 22:18:14 2025.
