 Gaussian 16, Revision C.01,

 ----------------------------------------------------------------------
 #t hf aug-cc-pvdz symm=none int=(grid=ultrafine) guess=(read,tcheck) s
 table=(opt,rrhf)
 ----------------------------------------------------------------------
 -----
 title
 -----
 Symbolic Z-matrix:
 Charge =  0 Multiplicity = 1

 SCF Done:  E(RHF) =  -3775.11192670     A.U. after   12 cycles
 Normal termination of Gaussian 16 at Tue Apr  8 22:18:32 2025.
 Gaussian 16:  ES64L-G16RevC.01  3-Jul-2019

 ----------------------------------------------------------------------
 #t hf aug-cc-pvdz iop(5/13=1,5/36=2,99/5=2) pseudo=read geom=check gue
 ss=(read,tcheck) scf=(maxcycle=1)
 ----------------------------------------------------------------------
 -----
 title
 -----
 Structure from the checkpoint file:  "B-set_b2cl4_b2cl4_090_dimer_mol1.chk"
 Charge =  0 Multiplicity = 1

                         Standard orientation:
 ---------------------------------------------------------------------
 Center     Atomic      Atomic             Coordinates (Angstroms)
 Number     Number       Type             X           Y           Z
 ---------------------------------------------------------------------
      1          5           0        1.873522    0.833639    0.150300
      2          5           0        1.873682   -0.833551   -0.150340
      3         17           0        1.001327    1.506494    1.506830
      4         17           0        2.795395    1.893645   -0.885250
      5         17           0        2.795939   -1.893305    0.885130
      6         17           0        1.001397   -1.506676   -1.506670
      7          5           0       -1.873640    0.833552   -0.150340
      8          5           0       -1.873660   -0.833618    0.150350
      9         17           0       -1.001195    1.506417   -1.506700
     10         17           0       -2.795777    1.893536    0.885000
     11         17           0       -1.001455   -1.506533    1.506850
     12         17           0       -2.795603   -1.893584   -0.885180
 ---------------------------------------------------------------------

 SCF Done:  E(RHF) =  -3775.27589694     A.U. after    2 cycles

 The electronic state is 1-A.
 Alpha  occ. eigenvalues -- -103.68826-103.68826-103.68826-103.68826-103.68760
 Alpha  occ. eigenvalues -- -103.68760-103.68760-103.68759 -10.72355 -10.72355
 Alpha  occ. eigenvalues --  -10.72354 -10.72354 -10.72253 -10.72253 -10.72251
 Alpha  occ. eigenvalues --  -10.72250  -8.38046  -8.38044  -8.38043  -8.38043
 Alpha  occ. eigenvalues --   -8.37949  -8.37949  -8.37948  -8.37947  -8.37834
 Alpha  occ. eigenvalues --   -8.37831  -8.37828  -8.37827  -8.37782  -8.37781
 Alpha  occ. eigenvalues --   -8.37780  -8.37779  -8.37725  -8.37725  -8.37725
 Alpha  occ. eigenvalues --   -8.37724  -8.37688  -8.37686  -8.37685  -8.37685
 Alpha  occ. eigenvalues --   -7.74266  -7.74266  -7.74201  -7.74201  -1.21169
 Alpha  occ. eigenvalues --   -1.20442  -1.19778  -1.19604  -1.16729  -1.16658
 Alpha  occ. eigenvalues --   -1.16550  -1.16431  -0.76044  -0.75975  -0.68790
 Alpha  occ. eigenvalues --   -0.68252  -0.62199  -0.61529  -0.61157  -0.61122
 Alpha  occ. eigenvalues --   -0.60606  -0.59935  -0.56435  -0.55917  -0.53498
 Alpha  occ. eigenvalues --   -0.52921  -0.52858  -0.52541  -0.50094  -0.49918
 Alpha  occ. eigenvalues --   -0.49708  -0.49328  -0.49308  -0.49222  -0.48105
 Alpha  occ. eigenvalues --   -0.47881  -0.44610  -0.44248
 Alpha virt. eigenvalues --    0.03237   0.03523   0.04179   0.04475   0.04478
 Alpha virt. eigenvalues --    0.04975   0.05691   0.06588   0.06702   0.06953
 Alpha virt. eigenvalues --    0.07082   0.07405   0.07679   0.08326   0.08889

 Mulliken charges:
               1
     1  B    0.733709
     2  B    0.733670
     3  Cl  -0.355758
     4  Cl  -0.377942
     5  Cl  -0.377945
     6  Cl  -0.355738
     7  B    0.733659
     8  B    0.733705
     9  Cl  -0.355735
    10  Cl  -0.377936
    11  Cl  -0.355752
    12  Cl  -0.377939
 Sum of Mulliken charges =  -0.00000

 Dipole moment (field-independent basis, Debye):
    X=             -0.0003    Y=              0.0001    Z=             -0.0001  Tot=              0.0003

 Test job not archived.
 1\1\GINC-SE343\SP\RHF\Aug-CC-pVDZ\B4Cl8\OHZDE\08-Apr-2025\0\\#t hf aug
 -cc-pvdz iop(5/13=1,5/36=2,99/5=2) pseudo=read geom=check guess=(read,
 tcheck) scf=(maxcycle=1)\\title\\0,1\B,0,2.08355,-0.83363,-0.1503\B,0,
 2.0837,0.83356,0.15034\Cl,0,1.21136,-1.50649,-1.50683\Cl,0,3.00543,-1.
 89363,0.88525\Cl,0,3.00595,1.89332,-0.88513\Cl,0,1.21141,1.50668,1.506
 67\B,0,-1.663612,-0.83356617,0.15033967\B,0,-1.663642,0.83360383,-0.15
 035033\Cl,0,-0.791162,-1.50642617,1.50669967\Cl,0,-2.585742,-1.8935561
 7,-0.88500033\Cl,0,-0.791442,1.50652383,-1.50685033\Cl,0,-2.585592,1.8

 Normal termination of Gaussian 16 at Tue Apr  8 22:18:46 2025.
