 Gaussian 16, Revision C.01,

 ----------------------------------------------------------------------
 #t hf aug-cc-pvdz symm=none int=(grid=ultrafine) guess=(read,tcheck) s
 table=(opt,rrhf)
 ----------------------------------------------------------------------
 -----
 title
 -----
 Symbolic Z-matrix:
 Charge =  0 Multiplicity = 1

 SCF Done:  E(RHF) =  -502.479758846     A.U. after   11 cycles
 Normal termination of Gaussian 16 at Tue Apr  8 22:20:39 2025.
 Gaussian 16:  ES64L-G16RevC.01  3-Jul-2019

 ----------------------------------------------------------------------
 #t hf aug-cc-pvdz iop(5/13=1,5/36=2,99/5=2) pseudo=read geom=check gue
 ss=(read,tcheck) scf=(maxcycle=1)
 ----------------------------------------------------------------------
 -----
 title
 -----
 Structure from the checkpoint file:  "B-set_boricacid_boricacid_095_dimer_mol1.chk"
 Charge =  0 Multiplicity = 1

                         Standard orientation:
 ---------------------------------------------------------------------
 Center     Atomic      Atomic             Coordinates (Angstroms)
 Number     Number       Type             X           Y           Z
 ---------------------------------------------------------------------
      1          5           0        1.961462    0.026948   -0.000098
      2          8           0        3.318867   -0.120855    0.000462
      3          8           0        1.382627    1.244696   -0.000728
      4          8           0        1.194443   -1.123323   -0.000038
      5          1           0        3.776680    0.717452    0.000472
      6          1           0        0.413670    1.235772   -0.000478
      7          1           0        1.726654   -1.917108    0.000602
      8          5           0       -1.961425   -0.026906    0.000069
      9          8           0       -1.194495    1.123375    0.000409
     10          8           0       -3.318879    0.120768    0.000109
     11          8           0       -1.382599   -1.244664   -0.000301
     12          1           0       -1.726786    1.917120    0.000729
     13          1           0       -3.776482   -0.717650   -0.000101
     14          1           0       -0.413632   -1.235779   -0.000381
 ---------------------------------------------------------------------

 SCF Done:  E(RHF) =  -502.658640066     A.U. after    2 cycles

 The electronic state is 1-A.
 Alpha  occ. eigenvalues --  -20.60009 -20.60008 -20.58187 -20.58185 -20.55781
 Alpha  occ. eigenvalues --  -20.55780  -7.68843  -7.68842  -1.37585  -1.36562
 Alpha  occ. eigenvalues --   -1.32792  -1.32272  -1.30282  -1.30011  -0.81276
 Alpha  occ. eigenvalues --   -0.79714  -0.78542  -0.78233  -0.75474  -0.74398
 Alpha  occ. eigenvalues --   -0.63311  -0.62880  -0.61877  -0.61706  -0.59210
 Alpha  occ. eigenvalues --   -0.58914  -0.55793  -0.55698  -0.54563  -0.54091
 Alpha  occ. eigenvalues --   -0.51728  -0.51377
 Alpha virt. eigenvalues --    0.03275   0.04121   0.04823   0.05759   0.05780
 Alpha virt. eigenvalues --    0.06527   0.07071   0.08412   0.08608   0.08760
 Alpha virt. eigenvalues --    0.11748   0.11964   0.13287   0.13349   0.18198

 Mulliken charges:
               1
     1  B    0.691113
     2  O   -0.477334
     3  O   -0.373017
     4  O   -0.508116
     5  H    0.160689
     6  H    0.329937
     7  H    0.176718
     8  B    0.691040
     9  O   -0.508031
    10  O   -0.477381
    11  O   -0.372999
    12  H    0.176745
    13  H    0.160680
    14  H    0.329955
 Sum of Mulliken charges =  -0.00000

 Dipole moment (field-independent basis, Debye):
    X=              0.0010    Y=              0.0001    Z=              0.0019  Tot=              0.0021

 Test job not archived.
 1\1\GINC-SE458\SP\RHF\Aug-CC-pVDZ\B2H6O6\OHZDE\08-Apr-2025\0\\#t hf au
 g-cc-pvdz iop(5/13=1,5/36=2,99/5=2) pseudo=read geom=check guess=(read
 ,tcheck) scf=(maxcycle=1)\\title\\0,1\B,0,2.06504,0.02667,-0.0001\O,0,
 3.42239,-0.12163,0.00046\O,0,1.48665,1.24463,-0.00073\O,0,1.2976,-1.12
 332,-0.00004\H,0,3.88051,0.71651,0.00047\H,0,0.51769,1.23606,-0.00048\
 H,0,1.82952,-1.9173,0.0006\B,0,-1.85786657,-0.0257485,0.00006743\O,0,-
 1.09051657,1.1242515,0.00040743\O,0,-3.21526657,0.1224215,0.00010743\O
 ,0,-1.27948657,-1.2437185,-0.00030257\H,0,-1.62251657,1.9181915,0.0007

 Normal termination of Gaussian 16 at Tue Apr  8 22:20:44 2025.
