 Gaussian 16, Revision C.01,

 ----------------------------------------------------------------------
 #t hf aug-cc-pvdz symm=none int=(grid=ultrafine) guess=(read,tcheck) s
 table=(opt,rrhf)
 ----------------------------------------------------------------------
 -----
 title
 -----
 Symbolic Z-matrix:
 Charge =  0 Multiplicity = 1

 SCF Done:  E(RHF) =  -481.967837809     A.U. after   14 cycles
 Normal termination of Gaussian 16 at Tue Apr  8 22:21:20 2025.
 Gaussian 16:  ES64L-G16RevC.01  3-Jul-2019

 ----------------------------------------------------------------------
 #t hf aug-cc-pvdz iop(5/13=1,5/36=2,99/5=2) pseudo=read geom=check gue
 ss=(read,tcheck) scf=(maxcycle=1)
 ----------------------------------------------------------------------
 -----
 title
 -----
 Structure from the checkpoint file:  "B-set_boricacid_benzene_100_dimer_mol1.chk"
 Charge =  0 Multiplicity = 1

                         Standard orientation:
 ---------------------------------------------------------------------
 Center     Atomic      Atomic             Coordinates (Angstroms)
 Number     Number       Type             X           Y           Z
 ---------------------------------------------------------------------
      1          5           0        2.475249   -0.190401   -0.004460
      2          8           0        3.757589   -0.667221   -0.020930
      3          8           0        1.427719   -1.057031   -0.017980
      4          8           0        2.269039    1.163049    0.025720
      5          1           0        3.789679   -1.621571   -0.041630
      6          1           0        0.572729   -0.621121   -0.004820
      7          1           0        3.090839    1.650019    0.032240
      8          6           0       -2.674541   -0.739361   -0.726000
      9          6           0       -1.885811    0.193209   -1.383200
     10          6           0       -2.682291   -0.788251    0.660010
     11          1           0       -3.280651   -1.431211   -1.294580
     12          6           0       -1.103221    1.077189   -0.654130
     13          1           0       -1.876001    0.228079   -2.463900
     14          6           0       -1.901351    0.095459    1.390020
     15          1           0       -3.294361   -1.518231    1.171690
     16          6           0       -1.111051    1.028279    0.733680
     17          1           0       -0.472731    1.794159   -1.160660
     18          1           0       -1.903701    0.054279    2.470540
     19          1           0       -0.487231    1.708069    1.296640
 ---------------------------------------------------------------------

 SCF Done:  E(RHF) =  -482.126809590     A.U. after    2 cycles

 The electronic state is 1-A.
 Alpha  occ. eigenvalues --  -20.57661 -20.57479 -20.56705 -11.24896 -11.24853
 Alpha  occ. eigenvalues --  -11.24799 -11.24708 -11.24696 -11.24606  -7.67872
 Alpha  occ. eigenvalues --   -1.35524  -1.30789  -1.30327  -1.15159  -1.01732
 Alpha  occ. eigenvalues --   -1.01726  -0.83219  -0.83171  -0.78831  -0.75164
 Alpha  occ. eigenvalues --   -0.74998  -0.72070  -0.64864  -0.63293  -0.61112
 Alpha  occ. eigenvalues --   -0.59915  -0.59822  -0.58658  -0.58369  -0.57566
 Alpha  occ. eigenvalues --   -0.52343  -0.51770  -0.51420  -0.50232  -0.50220
 Alpha  occ. eigenvalues --   -0.34787  -0.34773
 Alpha virt. eigenvalues --    0.03223   0.03905   0.04178   0.05095   0.05614
 Alpha virt. eigenvalues --    0.05829   0.06527   0.07139   0.07545   0.07695
 Alpha virt. eigenvalues --    0.09766   0.09992   0.10446   0.10869   0.12786

 Mulliken charges:
               1
     1  B    0.780512
     2  O   -0.470523
     3  O   -0.387370
     4  O   -0.477503
     5  H    0.171217
     6  H    0.239387
     7  H    0.185637
     8  C    0.437040
     9  C    0.431790
    10  C    0.434840
    11  H   -0.446584
    12  C    0.536662
    13  H   -0.468653
    14  C    0.433457
    15  H   -0.446127
    16  C    0.528923
    17  H   -0.507645
    18  H   -0.468170
    19  H   -0.506890
 Sum of Mulliken charges =  -0.00000

 Dipole moment (field-independent basis, Debye):
    X=             -0.4360    Y=              0.0909    Z=             -0.0013  Tot=              0.4454

 Test job not archived.
 1\1\GINC-SE365\SP\RHF\Aug-CC-pVDZ\C6H9B1O3\OHZDE\08-Apr-2025\0\\#t hf
 aug-cc-pvdz iop(5/13=1,5/36=2,99/5=2) pseudo=read geom=check guess=(re
 ad,tcheck) scf=(maxcycle=1)\\title\\0,1\B,0,2.47525,0.1904,0.00446\O,0
 ,3.75759,0.66722,0.02093\O,0,1.42772,1.05703,0.01798\O,0,2.26904,-1.16
 305,-0.02572\H,0,3.78968,1.62157,0.04163\H,0,0.57273,0.62112,0.00482\H
 ,0,3.09084,-1.65002,-0.03224\C,0,-2.67454,0.73936,0.726\C,0,-1.88581,-
 0.19321,1.3832\C,0,-2.68229,0.78825,-0.66001\H,0,-3.28065,1.43121,1.29
 458\C,0,-1.10322,-1.07719,0.65413\H,0,-1.876,-0.22808,2.4639\C,0,-1.90

 Normal termination of Gaussian 16 at Tue Apr  8 22:21:28 2025.
