 Gaussian 16, Revision C.01,

 ----------------------------------------------------------------------
 #t hf aug-cc-pvdz symm=none int=(grid=ultrafine) guess=(read,tcheck) s
 table=(opt,rrhf)
 ----------------------------------------------------------------------
 -----
 title
 -----
 Symbolic Z-matrix:
 Charge =  0 Multiplicity = 1

 SCF Done:  E(RHF) =  -241.184518497     A.U. after   11 cycles
 Normal termination of Gaussian 16 at Tue Apr  8 22:19:19 2025.
 Gaussian 16:  ES64L-G16RevC.01  3-Jul-2019

 ----------------------------------------------------------------------
 #t hf aug-cc-pvdz iop(5/13=1,5/36=2,99/5=2) pseudo=read geom=check gue
 ss=(read,tcheck) scf=(maxcycle=1)
 ----------------------------------------------------------------------
 -----
 title
 -----
 Structure from the checkpoint file:  "B-set_borepin_borazine_090_dimer_mol3.chk"
 Charge =  0 Multiplicity = 1

                         Standard orientation:
 ---------------------------------------------------------------------
 Center     Atomic      Atomic             Coordinates (Angstroms)
 Number     Number       Type             X           Y           Z
 ---------------------------------------------------------------------
      1          5           0        1.361071   -0.481579    0.001178
      2          7           0        1.069741    0.911200   -0.007772
      3          7           0        0.255873   -1.381255    0.004640
      4          1           0        2.487375   -0.882886    0.008999
      5          5           0       -0.263503    1.419245    0.007493
      6          1           0        1.831830    1.564022   -0.004136
      7          5           0       -1.100109   -0.935748   -0.000624
      8          1           0        0.438470   -2.367965    0.001458
      9          7           0       -1.323985    0.468742   -0.010213
     10          1           0       -0.480455    2.593537    0.025431
     11          1           0       -2.007463   -1.713660   -0.003697
     12          1           0       -2.268452    0.806555    0.025124
 ---------------------------------------------------------------------

 SCF Done:  E(RHF) =  -241.264261204     A.U. after    2 cycles

 The electronic state is 1-A.
 Alpha  occ. eigenvalues --  -15.59758 -15.59726 -15.59693  -7.61464  -7.61425
 Alpha  occ. eigenvalues --   -7.61365  -1.16466  -1.09437  -1.09320  -0.74306
 Alpha  occ. eigenvalues --   -0.72353  -0.72280  -0.60822  -0.60276  -0.60221
 Alpha  occ. eigenvalues --   -0.54880  -0.51407  -0.47205  -0.47055  -0.40552
 Alpha  occ. eigenvalues --   -0.40431
 Alpha virt. eigenvalues --    0.03221   0.03222   0.03763   0.04527   0.06639
 Alpha virt. eigenvalues --    0.06644   0.07686   0.07693   0.07757   0.08621
 Alpha virt. eigenvalues --    0.10370   0.10566   0.10568   0.12612   0.12616

 Mulliken charges:
               1
     1  B    0.009359
     2  N   -0.124020
     3  N   -0.127970
     4  H    0.223136
     5  B    0.011374
     6  H   -0.111513
     7  B    0.011717
     8  H   -0.112389
     9  N   -0.118298
    10  H    0.225077
    11  H    0.223735
    12  H   -0.110209
 Sum of Mulliken charges =  -0.00000

 Dipole moment (field-independent basis, Debye):
    X=             -0.0247    Y=              0.0307    Z=              0.0628  Tot=              0.0742

 Test job not archived.
 1\1\GINC-SE074\SP\RHF\Aug-CC-pVDZ\B3H6N3\OHZDE\08-Apr-2025\0\\#t hf au
 g-cc-pvdz iop(5/13=1,5/36=2,99/5=2) pseudo=read geom=check guess=(read
 ,tcheck) scf=(maxcycle=1)\\title\\0,1\B,0,2.87962,-0.02559,0.63894\N,0
 ,2.42292,1.19068,0.05851\N,0,2.36027,-1.24073,0.10546\H,0,3.66499,-0.0
 2982,1.54052\B,0,1.46825,1.22747,-1.00127\H,0,2.77001,2.05934,0.42173\
 B,0,1.41919,-1.27101,-0.96722\H,0,2.67594,-2.11055,0.49368\N,0,1.00318
 ,-0.02132,-1.50389\H,0,1.08219,2.26315,-1.45368\H,0,1.00513,-2.30583,-
 1.39867\H,0,0.31295,-0.01542,-2.23254\\Version=ES64L-G16RevC.01\State=

 Normal termination of Gaussian 16 at Tue Apr  8 22:19:23 2025.
