 Gaussian 16, Revision C.01,

 ----------------------------------------------------------------------
 #t hf aug-cc-pvdz symm=none int=(grid=ultrafine) guess=(read,tcheck) s
 table=(opt,rrhf)
 ----------------------------------------------------------------------
 -----
 title
 -----
 Symbolic Z-matrix:
 Charge =  0 Multiplicity = 1

 SCF Done:  E(RHF) =  -360.434732915     A.U. after   15 cycles

 1\1\GINC-SE404\Stability\RHF\Aug-CC-pVDZ\C8H14B2\OHZDE\08-Apr-2025\0\\
 #t hf aug-cc-pvdz symm=none int=(grid=ultrafine) guess=(read,tcheck) s
 table=(opt,rrhf)\\title\\0,1\B,0,-1.44421,-0.34378,-1.38976\C,0,-1.353
 82,1.11975,-0.80607\C,0,-2.20691,-1.16484,-0.27513\H,0,-1.05979,-0.732
 25,-2.44825\C,0,-1.96773,1.08262,0.37927\H,0,-0.92918,2.01911,-1.22576
 \C,0,-2.47978,-0.29789,0.7014\H,0,-2.48296,-2.20807,-0.24206\H,0,-2.10
 422,1.91644,1.05668\H,0,-2.99941,-0.51278,1.627\B,0,1.48482309,1.04002
 431,0.89921569\C,0,1.23798309,-0.43757569,1.36156569\C,0,2.31978309,0.

 Normal termination of Gaussian 16 at Tue Apr  8 22:25:19 2025.
 Gaussian 16:  ES64L-G16RevC.01  3-Jul-2019

 ----------------------------------------------------------------------
 #t hf aug-cc-pvdz iop(5/13=1,5/36=2,99/5=2) pseudo=read geom=check gue
 ss=(read,tcheck) scf=(maxcycle=1)
 ----------------------------------------------------------------------
 -----
 title
 -----
 Structure from the checkpoint file:  "B-set_borole_borolane_105_dimer_mol1.chk"
 Charge =  0 Multiplicity = 1

                         Standard orientation:
 ---------------------------------------------------------------------
 Center     Atomic      Atomic             Coordinates (Angstroms)
 Number     Number       Type             X           Y           Z
 ---------------------------------------------------------------------
      1          5           0       -1.556807   -0.335834   -1.383802
      2          6           0       -1.467156    1.123084   -0.788566
      3          6           0       -2.299229   -1.171193   -0.266110
      4          1           0       -1.184632   -0.712729   -2.450819
      5          6           0       -2.064515    1.071901    0.404681
      6          1           0       -1.053690    2.028632   -1.206102
      7          6           0       -2.563847   -0.314452    0.721638
      8          1           0       -2.568567   -2.216333   -0.238437
      9          1           0       -2.196674    1.898948    1.091193
     10          1           0       -3.069438   -0.540550    1.652329
     11          5           0        1.395039    1.045807    0.877002
     12          6           0        1.163390   -0.437237    1.329682
     13          6           0        2.211933    1.010423   -0.467410
     14          1           0        1.072929    2.026904    1.478509
     15          1           0        1.918998   -0.624443    2.107789
     16          1           0        0.201988   -0.676315    1.783320
     17          6           0        1.499152   -1.262528    0.079758
     18          6           0        2.594559   -0.471679   -0.644642
     19          1           0        1.528399    1.322210   -1.266405
     20          1           0        3.055199    1.700211   -0.521443
     21          1           0        0.611268   -1.323851   -0.563320
     22          1           0        1.789145   -2.291335    0.293844
     23          1           0        2.705470   -0.770628   -1.686813
     24          1           0        3.552724   -0.660502   -0.153835
 ---------------------------------------------------------------------

 SCF Done:  E(RHF) =  -360.542786767     A.U. after    2 cycles

 The electronic state is 1-A.
 Alpha  occ. eigenvalues --  -11.26350 -11.26019 -11.22102 -11.21895 -11.21527
 Alpha  occ. eigenvalues --  -11.21473 -11.19611 -11.19556  -7.61737  -7.59054
 Alpha  occ. eigenvalues --   -1.11296  -1.07341  -0.97092  -0.94332  -0.87607
 Alpha  occ. eigenvalues --   -0.84035  -0.76942  -0.71629  -0.70397  -0.65045
 Alpha  occ. eigenvalues --   -0.64626  -0.62605  -0.60095  -0.57734  -0.56211
 Alpha  occ. eigenvalues --   -0.52440  -0.51258  -0.47684  -0.47511  -0.46780
 Alpha  occ. eigenvalues --   -0.46598  -0.46258  -0.45112  -0.44413  -0.42517
 Alpha  occ. eigenvalues --   -0.32455
 Alpha virt. eigenvalues --    0.02415   0.02999   0.03843   0.04102   0.04173
 Alpha virt. eigenvalues --    0.05488   0.05548   0.05603   0.05861   0.06082
 Alpha virt. eigenvalues --    0.07520   0.07752   0.07868   0.08356   0.08604

 Mulliken charges:
               1
     1  B   -0.014021
     2  C    0.510518
     3  C    0.340613
     4  H    0.423116
     5  C    0.325082
     6  H   -0.577928
     7  C    0.352501
     8  H   -0.483032
     9  H   -0.464428
    10  H   -0.453170
    11  B   -0.116684
    12  C    0.537609
    13  C    0.497443
    14  H    0.325358
    15  H   -0.235861
    16  H   -0.281094
    17  C    0.493832
    18  C    0.179086
    19  H   -0.227605
    20  H   -0.268119
    21  H   -0.440986
    22  H   -0.114819
    23  H   -0.148110
    24  H   -0.159301
 Sum of Mulliken charges =  -0.00000

 Dipole moment (field-independent basis, Debye):
    X=             -0.4330    Y=              0.0476    Z=              0.7185  Tot=              0.8402

 Test job not archived.
 1\1\GINC-SE404\SP\RHF\Aug-CC-pVDZ\C8H14B2\OHZDE\08-Apr-2025\0\\#t hf a
 ug-cc-pvdz iop(5/13=1,5/36=2,99/5=2) pseudo=read geom=check guess=(rea
 d,tcheck) scf=(maxcycle=1)\\title\\0,1\B,0,-1.44421,-0.34378,-1.38976\
 C,0,-1.35382,1.11975,-0.80607\C,0,-2.20691,-1.16484,-0.27513\H,0,-1.05
 979,-0.73225,-2.44825\C,0,-1.96773,1.08262,0.37927\H,0,-0.92918,2.0191
 1,-1.22576\C,0,-2.47978,-0.29789,0.7014\H,0,-2.48296,-2.20807,-0.24206
 \H,0,-2.10422,1.91644,1.05668\H,0,-2.99941,-0.51278,1.627\B,0,1.484823
 09,1.04002431,0.89921569\C,0,1.23798309,-0.43757569,1.36156569\C,0,2.3

 Normal termination of Gaussian 16 at Tue Apr  8 22:25:35 2025.
