 Gaussian 16, Revision C.01,

 ----------------------------------------------------------------------
 #t hf aug-cc-pvdz symm=none int=(grid=ultrafine) guess=(read,tcheck) s
 table=(opt,rrhf)
 ----------------------------------------------------------------------
 -----
 title
 -----
 Symbolic Z-matrix:
 Charge =  0 Multiplicity = 1

 SCF Done:  E(RHF) =  -143.471963646     A.U. after   12 cycles
 Normal termination of Gaussian 16 at Tue Apr  8 22:21:47 2025.
 Gaussian 16:  ES64L-G16RevC.01  3-Jul-2019

 ----------------------------------------------------------------------
 #t hf aug-cc-pvdz iop(5/13=1,5/36=2,99/5=2) pseudo=read geom=check gue
 ss=(read,tcheck) scf=(maxcycle=1)
 ----------------------------------------------------------------------
 -----
 title
 -----
 Structure from the checkpoint file:  "B-set_borirane_methane_100_dimer_mol1.chk"
 Charge =  0 Multiplicity = 1

                         Standard orientation:
 ---------------------------------------------------------------------
 Center     Atomic      Atomic             Coordinates (Angstroms)
 Number     Number       Type             X           Y           Z
 ---------------------------------------------------------------------
      1          5           0       -0.705931   -0.000430    0.937952
      2          6           0       -1.191391   -0.772060   -0.285758
      3          6           0       -1.190851    0.772440   -0.285188
      4          1           0       -0.296631   -0.000910    2.046182
      5          1           0       -2.152321   -1.272990   -0.261148
      6          1           0       -0.476381   -1.270180   -0.929678
      7          1           0       -2.151481    1.273930   -0.260038
      8          1           0       -0.475631    1.270600   -0.928848
      9          6           0        2.337019   -0.000059   -0.093128
     10          1           0        1.950159   -0.890920    0.398342
     11          1           0        3.422619   -0.000369   -0.032298
     12          1           0        2.030009    0.000340   -1.136708
     13          1           0        1.950639    0.890720    0.398882
 ---------------------------------------------------------------------

 SCF Done:  E(RHF) =  -143.523571530     A.U. after    2 cycles

 The electronic state is 1-A.
 Alpha  occ. eigenvalues --  -11.22403 -11.21264 -11.21252  -7.61911  -1.04680
 Alpha  occ. eigenvalues --   -0.94774  -0.80915  -0.65774  -0.62121  -0.58992
 Alpha  occ. eigenvalues --   -0.55644  -0.55402  -0.54992  -0.50588  -0.40997
 Alpha  occ. eigenvalues --   -0.38257
 Alpha virt. eigenvalues --    0.03178   0.04253   0.04740   0.05008   0.06237
 Alpha virt. eigenvalues --    0.06731   0.06974   0.07445   0.09094   0.09343
 Alpha virt. eigenvalues --    0.09978   0.11069   0.12304   0.14123   0.14698

 Mulliken charges:
               1
     1  B   -0.299333
     2  C    0.554263
     3  C    0.554230
     4  H    0.470969
     5  H   -0.347677
     6  H   -0.326300
     7  H   -0.347687
     8  H   -0.326254
     9  C    0.664451
    10  H   -0.111902
    11  H   -0.215093
    12  H   -0.157849
    13  H   -0.111820
 Sum of Mulliken charges =  -0.00000

 Dipole moment (field-independent basis, Debye):
    X=              0.1936    Y=              0.0001    Z=             -0.0213  Tot=              0.1948

 Test job not archived.
 1\1\GINC-SE083\SP\RHF\Aug-CC-pVDZ\C3H9B1\OHZDE\08-Apr-2025\0\\#t hf au
 g-cc-pvdz iop(5/13=1,5/36=2,99/5=2) pseudo=read geom=check guess=(read
 ,tcheck) scf=(maxcycle=1)\\title\\0,1\B,0,0.70593,0.00043,0.93795\C,0,
 1.19139,0.77206,-0.28576\C,0,1.19085,-0.77244,-0.28519\H,0,0.29663,0.0
 0091,2.04618\H,0,2.15232,1.27299,-0.26115\H,0,0.47638,1.27018,-0.92968
 \H,0,2.15148,-1.27393,-0.26004\H,0,0.47563,-1.2706,-0.92885\C,0,-2.337
 02,0.00006,-0.09313\H,0,-1.95016,0.89092,0.39834\H,0,-3.42262,0.00037,
 -0.0323\H,0,-2.03001,-0.00034,-1.13671\H,0,-1.95064,-0.89072,0.39888\\

 Normal termination of Gaussian 16 at Tue Apr  8 22:21:53 2025.
