 Gaussian 16, Revision C.01,

 ----------------------------------------------------------------------
 #t hf aug-cc-pvdz symm=none int=(grid=ultrafine) guess=(read,tcheck) s
 table=(opt,rrhf)
 ----------------------------------------------------------------------
 -----
 title
 -----
 Symbolic Z-matrix:
 Charge =  0 Multiplicity = 1

 SCF Done:  E(RHF) =  -502.473202302     A.U. after   11 cycles
 Normal termination of Gaussian 16 at Tue Apr  8 22:21:33 2025.
 Gaussian 16:  ES64L-G16RevC.01  3-Jul-2019

 ----------------------------------------------------------------------
 #t hf aug-cc-pvdz iop(5/13=1,5/36=2,99/5=2) pseudo=read geom=check gue
 ss=(read,tcheck) scf=(maxcycle=1)
 ----------------------------------------------------------------------
 -----
 title
 -----
 Structure from the checkpoint file:  "B-set_boricacid_boricacid_200_dimer_mol1.chk"
 Charge =  0 Multiplicity = 1

                         Standard orientation:
 ---------------------------------------------------------------------
 Center     Atomic      Atomic             Coordinates (Angstroms)
 Number     Number       Type             X           Y           Z
 ---------------------------------------------------------------------
      1          5           0        4.136455    0.024077   -0.000125
      2          8           0        5.493391   -0.127967    0.000435
      3          8           0        3.561427    1.243627   -0.000755
      4          8           0        3.365846   -1.123792   -0.000065
      5          1           0        5.953821    0.708906    0.000445
      6          1           0        2.592447    1.237730   -0.000505
      7          1           0        3.895574   -1.919236    0.000575
      8          5           0       -4.136417   -0.024034    0.000096
      9          8           0       -3.365898    1.123845    0.000436
     10          8           0       -5.493404    0.127879    0.000136
     11          8           0       -3.561399   -1.243595   -0.000274
     12          1           0       -3.895706    1.919249    0.000756
     13          1           0       -5.953624   -0.709104   -0.000074
     14          1           0       -2.592409   -1.237738   -0.000354
 ---------------------------------------------------------------------

 SCF Done:  E(RHF) =  -502.653490367     A.U. after    2 cycles

 The electronic state is 1-A.
 Alpha  occ. eigenvalues --  -20.58728 -20.58728 -20.58253 -20.58252 -20.57751
 Alpha  occ. eigenvalues --  -20.57750  -7.68800  -7.68800  -1.36332  -1.36332
 Alpha  occ. eigenvalues --   -1.31806  -1.31805  -1.30865  -1.30864  -0.79831
 Alpha  occ. eigenvalues --   -0.79830  -0.76336  -0.76335  -0.75367  -0.75366
 Alpha  occ. eigenvalues --   -0.61982  -0.61982  -0.59896  -0.59896  -0.58819
 Alpha  occ. eigenvalues --   -0.58818  -0.58136  -0.58134  -0.53258  -0.53258
 Alpha  occ. eigenvalues --   -0.52544  -0.52543
 Alpha virt. eigenvalues --    0.02953   0.03973   0.05114   0.05180   0.05572
 Alpha virt. eigenvalues --    0.05721   0.06417   0.06653   0.07446   0.07760
 Alpha virt. eigenvalues --    0.09712   0.09749   0.10200   0.12176   0.19773

 Mulliken charges:
               1
     1  B    0.743704
     2  O   -0.415803
     3  O   -0.424911
     4  O   -0.452366
     5  H    0.172817
     6  H    0.203674
     7  H    0.172885
     8  B    0.743673
     9  O   -0.452336
    10  O   -0.415831
    11  O   -0.424918
    12  H    0.172917
    13  H    0.172817
    14  H    0.203678
 Sum of Mulliken charges =  -0.00000

 Dipole moment (field-independent basis, Debye):
    X=              0.0008    Y=              0.0000    Z=              0.0015  Tot=              0.0017

 Test job not archived.
 1\1\GINC-SE044\SP\RHF\Aug-CC-pVDZ\B2H6O6\OHZDE\08-Apr-2025\0\\#t hf au
 g-cc-pvdz iop(5/13=1,5/36=2,99/5=2) pseudo=read geom=check guess=(read
 ,tcheck) scf=(maxcycle=1)\\title\\0,1\B,0,2.06504,0.02667,-0.0001\O,0,
 3.42239,-0.12163,0.00046\O,0,1.48665,1.24463,-0.00073\O,0,1.2976,-1.12
 332,-0.00004\H,0,3.88051,0.71651,0.00047\H,0,0.51769,1.23606,-0.00048\
 H,0,1.82952,-1.9173,0.0006\B,0,-6.20766857,-0.04426,0.00012143\O,0,-5.
 44031857,1.10574,0.00046143\O,0,-7.56506857,0.10391,0.00016143\O,0,-5.
 62928857,-1.26223,-0.00024857\H,0,-5.97231857,1.89968,0.00078143\H,0,-

 Normal termination of Gaussian 16 at Tue Apr  8 22:21:36 2025.
