 Gaussian 16, Revision C.01,

 ----------------------------------------------------------------------
 #t hf aug-cc-pvdz symm=none int=(grid=ultrafine) guess=(read,tcheck) s
 table=(opt,rrhf)
 ----------------------------------------------------------------------
 -----
 title
 -----
 Symbolic Z-matrix:
 Charge =  0 Multiplicity = 1

 SCF Done:  E(RHF) =  -327.287588305     A.U. after   11 cycles
 Normal termination of Gaussian 16 at Tue Apr  8 22:21:16 2025.
 Gaussian 16:  ES64L-G16RevC.01  3-Jul-2019

 ----------------------------------------------------------------------
 #t hf aug-cc-pvdz iop(5/13=1,5/36=2,99/5=2) pseudo=read geom=check gue
 ss=(read,tcheck) scf=(maxcycle=1)
 ----------------------------------------------------------------------
 -----
 title
 -----
 Structure from the checkpoint file:  "B-set_boricacid_h2o_110_dimer_mol1.chk"
 Charge =  0 Multiplicity = 1

                         Standard orientation:
 ---------------------------------------------------------------------
 Center     Atomic      Atomic             Coordinates (Angstroms)
 Number     Number       Type             X           Y           Z
 ---------------------------------------------------------------------
      1          5           0       -0.845232   -0.024107    0.002091
      2          8           0       -0.191152   -1.207776   -0.001549
      3          8           0       -0.140232    1.163439   -0.001828
      4          8           0       -2.209660    0.037446    0.013166
      5          1           0        0.770853   -1.102176   -0.026834
      6          1           0       -0.712725    1.927896   -0.014973
      7          1           0       -2.612291   -0.828774    0.008333
      8          8           0        2.708072   -0.066289   -0.084231
      9          1           0        2.148011    0.717646   -0.047901
     10          1           0        3.296077   -0.008613    0.666447
 ---------------------------------------------------------------------

 SCF Done:  E(RHF) =  -327.402963895     A.U. after    2 cycles

 The electronic state is 1-A.
 Alpha  occ. eigenvalues --  -20.58682 -20.58619 -20.58138 -20.57380  -7.68640
 Alpha  occ. eigenvalues --   -1.36222  -1.32229  -1.31418  -1.30954  -0.79478
 Alpha  occ. eigenvalues --   -0.76253  -0.75596  -0.74074  -0.61860  -0.61021
 Alpha  occ. eigenvalues --   -0.59630  -0.59060  -0.58190  -0.53649  -0.53132
 Alpha  occ. eigenvalues --   -0.52387
 Alpha virt. eigenvalues --    0.03254   0.04503   0.05409   0.06127   0.07222
 Alpha virt. eigenvalues --    0.07662   0.09265   0.09932   0.10815   0.17138
 Alpha virt. eigenvalues --    0.18796   0.20366   0.20443   0.20946   0.22630

 Mulliken charges:
               1
     1  B    0.733194
     2  O   -0.416190
     3  O   -0.451762
     4  O   -0.424588
     5  H    0.221374
     6  H    0.171838
     7  H    0.163077
     8  O   -0.330281
     9  H    0.170119
    10  H    0.163218
 Sum of Mulliken charges =  -0.00000

 Dipole moment (field-independent basis, Debye):
    X=              0.1592    Y=              1.3610    Z=              1.2995  Tot=              1.8885

 Test job not archived.
 1\1\GINC-SE398\SP\RHF\Aug-CC-pVDZ\B1H5O4\OHZDE\08-Apr-2025\0\\#t hf au
 g-cc-pvdz iop(5/13=1,5/36=2,99/5=2) pseudo=read geom=check guess=(read
 ,tcheck) scf=(maxcycle=1)\\title\\0,1\B,0,-0.76791,-0.02465,0.00325\O,
 0,-0.10569,-1.20379,0.00191\O,0,-0.07109,1.16772,0.00192\O,0,-2.13276,
 0.02751,0.00942\H,0,0.85565,-1.09157,-0.01991\H,0,-0.64878,1.92822,-0.
 01325\H,0,-2.5294,-0.84146,0.0031\O,0,2.78588757,-0.04237119,-0.070291
 29\H,0,2.22031757,0.73768881,-0.03594129\H,0,3.37077757,0.01929881,0.6
 8249871\\Version=ES64L-G16RevC.01\State=1-A\HF=-327.4029639\RMSD=2.283

 Normal termination of Gaussian 16 at Tue Apr  8 22:21:19 2025.
