 Gaussian 16, Revision C.01,

 ----------------------------------------------------------------------
 #t hf aug-cc-pvdz symm=none int=(grid=ultrafine) guess=(read,tcheck) s
 table=(opt,rrhf)
 ----------------------------------------------------------------------
 -----
 title
 -----
 Symbolic Z-matrix:
 Charge =  0 Multiplicity = 1

 SCF Done:  E(RHF) =  -481.904854747     A.U. after   14 cycles
 Normal termination of Gaussian 16 at Tue Apr  8 22:23:57 2025.
 Gaussian 16:  ES64L-G16RevC.01  3-Jul-2019

 ----------------------------------------------------------------------
 #t hf aug-cc-pvdz iop(5/13=1,5/36=2,99/5=2) pseudo=read geom=check gue
 ss=(read,tcheck) scf=(maxcycle=1)
 ----------------------------------------------------------------------
 -----
 title
 -----
 Structure from the checkpoint file:  "B-set_phenylboronicacid_h2o_090_dimer_mol1.chk"
 Charge =  0 Multiplicity = 1

                         Standard orientation:
 ---------------------------------------------------------------------
 Center     Atomic      Atomic             Coordinates (Angstroms)
 Number     Number       Type             X           Y           Z
 ---------------------------------------------------------------------
      1          6           0       -1.182981    1.196739   -0.000034
      2          6           0       -2.568531    1.199775    0.000876
      3          6           0       -0.464517    0.000309   -0.000534
      4          1           0       -0.643619    2.134889   -0.000334
      5          6           0       -3.262647   -0.000927    0.001276
      6          1           0       -3.109019    2.136935    0.001236
      7          6           0       -1.181923   -1.196751   -0.000094
      8          5           0        1.101923    0.000963   -0.001534
      9          6           0       -2.567473   -1.201015    0.000766
     10          1           0       -4.344627   -0.001397    0.001956
     11          1           0       -0.641744   -2.134431   -0.000504
     12          8           0        1.758969    1.200177   -0.001964
     13          8           0        1.760147   -1.197613   -0.001874
     14          1           0       -3.107134   -2.138645    0.001066
     15          1           0        2.714314    1.106034   -0.002324
     16          1           0        2.715393   -1.101816   -0.002414
     17          8           0        3.897573   -0.001173    0.001991
     18          1           0        4.466663   -0.003844    0.770641
     19          1           0        4.475063   -0.002445   -0.760389
 ---------------------------------------------------------------------

 SCF Done:  E(RHF) =  -482.058992025     A.U. after    2 cycles

 The electronic state is 1-A.
 Alpha  occ. eigenvalues --  -20.65221 -20.54081 -20.54052 -11.22852 -11.22227
 Alpha  occ. eigenvalues --  -11.22221 -11.22096 -11.22094 -11.19651  -7.62636
 Alpha  occ. eigenvalues --   -1.40726  -1.31300  -1.27575  -1.12283  -0.99045
 Alpha  occ. eigenvalues --   -0.98971  -0.81871  -0.81814  -0.80851  -0.77086
 Alpha  occ. eigenvalues --   -0.74030  -0.70035  -0.68148  -0.61460  -0.61378
 Alpha  occ. eigenvalues --   -0.59772  -0.59746  -0.57136  -0.56002  -0.53662
 Alpha  occ. eigenvalues --   -0.51707  -0.48993  -0.48479  -0.47152  -0.45303
 Alpha  occ. eigenvalues --   -0.32127  -0.32030
 Alpha virt. eigenvalues --    0.01168   0.04241   0.04435   0.05008   0.05570
 Alpha virt. eigenvalues --    0.05988   0.07180   0.07231   0.08131   0.08654
 Alpha virt. eigenvalues --    0.09399   0.10366   0.10758   0.10986   0.12732

 Mulliken charges:
               1
     1  C    0.278741
     2  C    0.563135
     3  C    0.044653
     4  H   -0.641999
     5  C    0.771781
     6  H   -0.448586
     7  C    0.279044
     8  B    0.605097
     9  C    0.563157
    10  H   -0.451642
    11  H   -0.642114
    12  O   -0.496495
    13  O   -0.496721
    14  H   -0.448585
    15  H    0.283972
    16  H    0.285263
    17  O   -0.508835
    18  H    0.230452
    19  H    0.229682
 Sum of Mulliken charges =  -0.00000

 Dipole moment (field-independent basis, Debye):
    X=              6.1952    Y=             -0.0040    Z=              0.0120  Tot=              6.1952

 Test job not archived.
 1\1\GINC-SE016\SP\RHF\Aug-CC-pVDZ\C6H9B1O3\OHZDE\08-Apr-2025\0\\#t hf
 aug-cc-pvdz iop(5/13=1,5/36=2,99/5=2) pseudo=read geom=check guess=(re
 ad,tcheck) scf=(maxcycle=1)\\title\\0,1\C,0,1.25953,-1.19671,-0.0001\C
 ,0,2.64508,-1.19967,0.00081\C,0,0.541,-0.00032,-0.0006\H,0,0.72022,-2.
 13489,-0.0004\C,0,3.33913,0.00107,0.00121\H,0,3.18562,-2.1368,0.00117\
 C,0,1.25834,1.19678,-0.00016\B,0,-1.02544,-0.00106,-0.0016\C,0,2.64389
 ,1.20112,0.0007\H,0,4.42111,0.0016,0.00189\H,0,0.71811,2.13443,-0.0005
 7\O,0,-1.68242,-1.20031,-0.00203\O,0,-1.68373,1.19748,-0.00194\H,0,3.1

 Normal termination of Gaussian 16 at Tue Apr  8 22:24:07 2025.
