 Gaussian 16, Revision C.01,

 ----------------------------------------------------------------------
 #t hf aug-cc-pvdz symm=none int=(grid=ultrafine) guess=(read,tcheck) s
 table=(opt,rrhf)
 ----------------------------------------------------------------------
 -----
 title
 -----
 Symbolic Z-matrix:
 Charge =  0 Multiplicity = 1

 SCF Done:  E(RHF) =  -327.280617406     A.U. after   11 cycles
 Normal termination of Gaussian 16 at Tue Apr  8 22:21:15 2025.
 Gaussian 16:  ES64L-G16RevC.01  3-Jul-2019

 ----------------------------------------------------------------------
 #t hf aug-cc-pvdz iop(5/13=1,5/36=2,99/5=2) pseudo=read geom=check gue
 ss=(read,tcheck) scf=(maxcycle=1)
 ----------------------------------------------------------------------
 -----
 title
 -----
 Structure from the checkpoint file:  "B-set_boricacid_h2o_150_dimer_mol1.chk"
 Charge =  0 Multiplicity = 1

                         Standard orientation:
 ---------------------------------------------------------------------
 Center     Atomic      Atomic             Coordinates (Angstroms)
 Number     Number       Type             X           Y           Z
 ---------------------------------------------------------------------
      1          5           0       -1.154640   -0.022645   -0.000449
      2          8           0       -0.521696   -1.217709   -0.011061
      3          8           0       -0.428822    1.152234   -0.012859
      4          8           0       -2.517550    0.063054    0.026126
      5          1           0        0.441677   -1.129160   -0.047332
      6          1           0       -0.987808    1.926703   -0.019793
      7          1           0       -2.935478   -0.795904    0.026217
      8          8           0        3.694756   -0.071018   -0.076079
      9          1           0        3.149107    0.722716   -0.033690
     10          1           0        4.292196   -0.023613    0.667836
 ---------------------------------------------------------------------

 SCF Done:  E(RHF) =  -327.396907299     A.U. after    2 cycles

 The electronic state is 1-A.
 Alpha  occ. eigenvalues --  -20.58380 -20.58357 -20.58254 -20.58066  -7.68774
 Alpha  occ. eigenvalues --   -1.36298  -1.31671  -1.31594  -1.31110  -0.79558
 Alpha  occ. eigenvalues --   -0.75950  -0.75610  -0.73934  -0.61920  -0.60168
 Alpha  occ. eigenvalues --   -0.59663  -0.58968  -0.58422  -0.53259  -0.53011
 Alpha  occ. eigenvalues --   -0.52774
 Alpha virt. eigenvalues --    0.03198   0.04310   0.05363   0.06017   0.06825
 Alpha virt. eigenvalues --    0.07356   0.08675   0.09776   0.10813   0.16683
 Alpha virt. eigenvalues --    0.18763   0.20146   0.20295   0.20795   0.21703

 Mulliken charges:
               1
     1  B    0.752623
     2  O   -0.429014
     3  O   -0.463506
     4  O   -0.417265
     5  H    0.210537
     6  H    0.173097
     7  H    0.173292
     8  O   -0.280170
     9  H    0.143099
    10  H    0.137307
 Sum of Mulliken charges =  -0.00000

 Dipole moment (field-independent basis, Debye):
    X=              0.1086    Y=              1.2759    Z=              1.3045  Tot=              1.8279

 Test job not archived.
 1\1\GINC-SE362\SP\RHF\Aug-CC-pVDZ\B1H5O4\OHZDE\08-Apr-2025\0\\#t hf au
 g-cc-pvdz iop(5/13=1,5/36=2,99/5=2) pseudo=read geom=check guess=(read
 ,tcheck) scf=(maxcycle=1)\\title\\0,1\B,0,-0.76791,-0.02465,0.00325\O,
 0,-0.10569,-1.20379,0.00191\O,0,-0.07109,1.16772,0.00192\O,0,-2.13276,
 0.02751,0.00942\H,0,0.85565,-1.09157,-0.01991\H,0,-0.64878,1.92822,-0.
 01325\H,0,-2.5294,-0.84146,0.0031\O,0,4.08179786,0.04622405,0.00026357
 \H,0,3.51622786,0.82628405,0.03461357\H,0,4.66668786,0.10789405,0.7530
 5357\\Version=ES64L-G16RevC.01\State=1-A\HF=-327.3969073\RMSD=2.213e-0

 Normal termination of Gaussian 16 at Tue Apr  8 22:21:18 2025.
