 Gaussian 16, Revision C.01,

 ----------------------------------------------------------------------
 #t hf aug-cc-pvdz symm=none int=(grid=ultrafine) guess=(read,tcheck) s
 table=(opt,rrhf)
 ----------------------------------------------------------------------
 -----
 title
 -----
 Symbolic Z-matrix:
 Charge =  0 Multiplicity = 1

 SCF Done:  E(RHF) =  -464.893615550     A.U. after   15 cycles
 Normal termination of Gaussian 16 at Tue Apr  8 22:21:29 2025.
 Gaussian 16:  ES64L-G16RevC.01  3-Jul-2019

 ----------------------------------------------------------------------
 #t hf aug-cc-pvdz iop(5/13=1,5/36=2,99/5=2) pseudo=read geom=check gue
 ss=(read,tcheck) scf=(maxcycle=1)
 ----------------------------------------------------------------------
 -----
 title
 -----
 Structure from the checkpoint file:  "B-set_azaborine_benzene_100_dimer_mol1.chk"
 Charge =  0 Multiplicity = 1

                         Standard orientation:
 ---------------------------------------------------------------------
 Center     Atomic      Atomic             Coordinates (Angstroms)
 Number     Number       Type             X           Y           Z
 ---------------------------------------------------------------------
      1          7           0        0.986890    0.198560   -0.055289
      2          5           0        1.789719    1.377150   -0.031779
      3          6           0        1.499180   -1.057250   -0.038009
      4          1           0       -0.018410    0.259949   -0.084779
      5          6           0        3.279399    1.128991    0.013501
      6          1           0        1.234099    2.434460   -0.049229
      7          6           0        2.840080   -1.265829    0.002811
      8          1           0        0.789160   -1.872560   -0.057929
      9          6           0        3.729300   -0.160609    0.028391
     10          1           0        4.013529    1.924941    0.034961
     11          1           0        3.218281   -2.276869    0.015661
     12          1           0        4.792520   -0.374449    0.060671
     13          6           0       -2.299850   -0.168971    1.391511
     14          6           0       -2.358261    1.104978    0.845111
     15          6           0       -2.275530   -1.279791    0.560541
     16          1           0       -2.267690   -0.295691    2.464671
     17          6           0       -2.391651    1.268298   -0.532499
     18          1           0       -2.369001    1.970938    1.492051
     19          6           0       -2.308740   -1.116821   -0.817149
     20          1           0       -2.229879   -2.272511    0.987121
     21          6           0       -2.366610    0.157338   -1.363669
     22          1           0       -2.428631    2.261298   -0.958129
     23          1           0       -2.288220   -1.982121   -1.465359
     24          1           0       -2.386480    0.284948   -2.437029
 ---------------------------------------------------------------------

 SCF Done:  E(RHF) =  -465.033731714     A.U. after    2 cycles

 The electronic state is 1-A.
 Alpha  occ. eigenvalues --  -15.63503 -11.28304 -11.25794 -11.25718 -11.25687
 Alpha  occ. eigenvalues --  -11.25609 -11.25573 -11.25506 -11.24447 -11.21963
 Alpha  occ. eigenvalues --  -11.19218  -7.57472  -1.20283  -1.16064  -1.05590
 Alpha  occ. eigenvalues --   -1.02593  -1.02566  -0.96261  -0.84054  -0.84049
 Alpha  occ. eigenvalues --   -0.82365  -0.77228  -0.73008  -0.72084  -0.65720
 Alpha  occ. eigenvalues --   -0.64139  -0.62270  -0.61845  -0.60656  -0.60637
 Alpha  occ. eigenvalues --   -0.59074  -0.55088  -0.52555  -0.52149  -0.51113
 Alpha  occ. eigenvalues --   -0.51099  -0.48026  -0.45127  -0.38534  -0.35709
 Alpha  occ. eigenvalues --   -0.35543  -0.29790
 Alpha virt. eigenvalues --    0.02895   0.03596   0.03830   0.04204   0.05455
 Alpha virt. eigenvalues --    0.05504   0.05636   0.06202   0.07038   0.07412
 Alpha virt. eigenvalues --    0.07709   0.08208   0.08667   0.09173   0.09819

 Mulliken charges:
               1
     1  N    0.033741
     2  B   -0.397188
     3  C    0.658877
     4  H   -0.043830
     5  C    0.766798
     6  H    0.399201
     7  C    0.506991
     8  H   -0.538629
     9  C   -0.049765
    10  H   -0.467860
    11  H   -0.442871
    12  H   -0.436600
    13  C    0.541836
    14  C    0.537948
    15  C    0.495410
    16  H   -0.513833
    17  C    0.526183
    18  H   -0.532035
    19  C    0.511713
    20  H   -0.528813
    21  C    0.555485
    22  H   -0.536549
    23  H   -0.526210
    24  H   -0.519999
 Sum of Mulliken charges =  -0.00000

 Dipole moment (field-independent basis, Debye):
    X=             -2.1735    Y=             -1.4506    Z=             -0.0038  Tot=              2.6131

 Test job not archived.
 1\1\GINC-SE460\SP\RHF\Aug-CC-pVDZ\C10H12B1N1\OHZDE\08-Apr-2025\0\\#t h
 f aug-cc-pvdz iop(5/13=1,5/36=2,99/5=2) pseudo=read geom=check guess=(
 read,tcheck) scf=(maxcycle=1)\\title\\0,1\N,0,-0.98689,0.19856,0.05529
 \B,0,-1.78972,1.37715,0.03178\C,0,-1.49918,-1.05725,0.03801\H,0,0.0184
 1,0.25995,0.08478\C,0,-3.2794,1.12899,-0.0135\H,0,-1.2341,2.43446,0.04
 923\C,0,-2.84008,-1.26583,-0.00281\H,0,-0.78916,-1.87256,0.05793\C,0,-
 3.7293,-0.16061,-0.02839\H,0,-4.01353,1.92494,-0.03496\H,0,-3.21828,-2
 .27687,-0.01566\H,0,-4.79252,-0.37445,-0.06067\C,0,2.29985,-0.16897,-1

 Normal termination of Gaussian 16 at Tue Apr  8 22:21:45 2025.
