 Gaussian 16, Revision C.01,

 ----------------------------------------------------------------------
 #t hf aug-cc-pvdz symm=none int=(grid=ultrafine) guess=(read,tcheck) s
 table=(opt,rrhf)
 ----------------------------------------------------------------------
 -----
 title
 -----
 Symbolic Z-matrix:
 Charge =  0 Multiplicity = 1

 SCF Done:  E(RHF) =  -502.485323923     A.U. after   11 cycles
 Normal termination of Gaussian 16 at Tue Apr  8 22:21:02 2025.
 Gaussian 16:  ES64L-G16RevC.01  3-Jul-2019

 ----------------------------------------------------------------------
 #t hf aug-cc-pvdz iop(5/13=1,5/36=2,99/5=2) pseudo=read geom=check gue
 ss=(read,tcheck) scf=(maxcycle=1)
 ----------------------------------------------------------------------
 -----
 title
 -----
 Structure from the checkpoint file:  "B-set_boricacid_boricacid_110_dimer_mol1.chk"
 Charge =  0 Multiplicity = 1

                         Standard orientation:
 ---------------------------------------------------------------------
 Center     Atomic      Atomic             Coordinates (Angstroms)
 Number     Number       Type             X           Y           Z
 ---------------------------------------------------------------------
      1          5           0        2.272188    0.026199   -0.000102
      2          8           0        3.629450   -0.122909    0.000458
      3          8           0        1.694524    1.244504   -0.000732
      4          8           0        1.504063   -1.123333   -0.000042
      5          1           0        4.088069    0.714958    0.000468
      6          1           0        0.725559    1.236511   -0.000482
      7          1           0        2.035510   -1.917630    0.000598
      8          5           0       -2.272151   -0.026157    0.000073
      9          8           0       -1.504116    1.123386    0.000413
     10          8           0       -3.629462    0.122822    0.000113
     11          8           0       -1.694496   -1.244471   -0.000297
     12          1           0       -2.035643    1.917643    0.000733
     13          1           0       -4.087871   -0.715155   -0.000097
     14          1           0       -0.725521   -1.236518   -0.000377
 ---------------------------------------------------------------------

 SCF Done:  E(RHF) =  -502.664363506     A.U. after    2 cycles

 The electronic state is 1-A.
 Alpha  occ. eigenvalues --  -20.58943 -20.58942 -20.58328 -20.58327 -20.57790
 Alpha  occ. eigenvalues --  -20.57790  -7.68954  -7.68953  -1.36585  -1.36383
 Alpha  occ. eigenvalues --   -1.31776  -1.31665  -1.31328  -1.31270  -0.80168
 Alpha  occ. eigenvalues --   -0.79705  -0.76709  -0.76393  -0.75676  -0.75654
 Alpha  occ. eigenvalues --   -0.62265  -0.61997  -0.60853  -0.59897  -0.59602
 Alpha  occ. eigenvalues --   -0.59495  -0.57871  -0.57772  -0.53513  -0.53394
 Alpha  occ. eigenvalues --   -0.52758  -0.52701
 Alpha virt. eigenvalues --    0.03277   0.04140   0.04944   0.05654   0.05763
 Alpha virt. eigenvalues --    0.06499   0.07035   0.08162   0.08452   0.08570
 Alpha virt. eigenvalues --    0.11464   0.11704   0.13007   0.13271   0.18070

 Mulliken charges:
               1
     1  B    0.742314
     2  O   -0.451980
     3  O   -0.392342
     4  O   -0.465657
     5  H    0.162127
     6  H    0.232753
     7  H    0.172779
     8  B    0.742266
     9  O   -0.465602
    10  O   -0.452020
    11  O   -0.392332
    12  H    0.172812
    13  H    0.162121
    14  H    0.232762
 Sum of Mulliken charges =  -0.00000

 Dipole moment (field-independent basis, Debye):
    X=              0.0008    Y=              0.0001    Z=              0.0016  Tot=              0.0018

 Test job not archived.
 1\1\GINC-SE090\SP\RHF\Aug-CC-pVDZ\B2H6O6\OHZDE\08-Apr-2025\0\\#t hf au
 g-cc-pvdz iop(5/13=1,5/36=2,99/5=2) pseudo=read geom=check guess=(read
 ,tcheck) scf=(maxcycle=1)\\title\\0,1\B,0,2.06504,0.02667,-0.0001\O,0,
 3.42239,-0.12163,0.00046\O,0,1.48665,1.24463,-0.00073\O,0,1.2976,-1.12
 332,-0.00004\H,0,3.88051,0.71651,0.00047\H,0,0.51769,1.23606,-0.00048\
 H,0,1.82952,-1.9173,0.0006\B,0,-2.47926686,-0.028393,0.00007514\O,0,-1
 .71191686,1.121607,0.00041514\O,0,-3.83666686,0.119777,0.00011514\O,0,
 -1.90088686,-1.246363,-0.00029486\H,0,-2.24391686,1.915547,0.00073514\

 Normal termination of Gaussian 16 at Tue Apr  8 22:21:06 2025.
