 Gaussian 16, Revision C.01,

 ----------------------------------------------------------------------
 #t hf aug-cc-pvdz symm=none int=(grid=ultrafine) guess=(read,tcheck) s
 table=(opt,rrhf)
 ----------------------------------------------------------------------
 -----
 title
 -----
 Symbolic Z-matrix:
 Charge =  0 Multiplicity = 1

 SCF Done:  E(RHF) =  -327.284841539     A.U. after   12 cycles
 Normal termination of Gaussian 16 at Tue Apr  8 22:21:17 2025.
 Gaussian 16:  ES64L-G16RevC.01  3-Jul-2019

 ----------------------------------------------------------------------
 #t hf aug-cc-pvdz iop(5/13=1,5/36=2,99/5=2) pseudo=read geom=check gue
 ss=(read,tcheck) scf=(maxcycle=1)
 ----------------------------------------------------------------------
 -----
 title
 -----
 Structure from the checkpoint file:  "B-set_boricacid_h2o_095_dimer_mol1.chk"
 Charge =  0 Multiplicity = 1

                         Standard orientation:
 ---------------------------------------------------------------------
 Center     Atomic      Atomic             Coordinates (Angstroms)
 Number     Number       Type             X           Y           Z
 ---------------------------------------------------------------------
      1          5           0       -0.729256   -0.024965    0.003954
      2          8           0       -0.062267   -1.201415    0.003856
      3          8           0       -0.037266    1.170216    0.003981
      4          8           0       -2.094315    0.021670    0.007515
      5          1           0        0.898651   -1.085304   -0.016123
      6          1           0       -0.617999    1.928372   -0.012278
      7          1           0       -2.487422   -0.848898    0.000419
      8          8           0        2.338942   -0.063489   -0.090180
      9          1           0        1.770155    0.714274   -0.056895
     10          1           0        2.922137    0.000526    0.663728
 ---------------------------------------------------------------------

 SCF Done:  E(RHF) =  -327.400179491     A.U. after    2 cycles

 The electronic state is 1-A.
 Alpha  occ. eigenvalues --  -20.59231 -20.58429 -20.57985 -20.55964  -7.68466
 Alpha  occ. eigenvalues --   -1.36523  -1.32803  -1.31681  -1.30015  -0.79577
 Alpha  occ. eigenvalues --   -0.77892  -0.75507  -0.73604  -0.62587  -0.61614
 Alpha  occ. eigenvalues --   -0.59903  -0.58733  -0.57746  -0.53587  -0.52936
 Alpha  occ. eigenvalues --   -0.51532
 Alpha virt. eigenvalues --    0.03234   0.04597   0.05424   0.06164   0.07316
 Alpha virt. eigenvalues --    0.07703   0.09422   0.09979   0.10750   0.17288
 Alpha virt. eigenvalues --    0.18541   0.20057   0.20468   0.21055   0.22885

 Mulliken charges:
               1
     1  B    0.708874
     2  O   -0.408596
     3  O   -0.480348
     4  O   -0.419431
     5  H    0.261890
     6  H    0.169698
     7  H    0.169160
     8  O   -0.369393
     9  H    0.197370
    10  H    0.170774
 Sum of Mulliken charges =  -0.00000

 Dipole moment (field-independent basis, Debye):
    X=              0.2032    Y=              1.5258    Z=              1.2982  Tot=              2.0136

 Test job not archived.
 1\1\GINC-SE226\SP\RHF\Aug-CC-pVDZ\B1H5O4\OHZDE\08-Apr-2025\0\\#t hf au
 g-cc-pvdz iop(5/13=1,5/36=2,99/5=2) pseudo=read geom=check guess=(read
 ,tcheck) scf=(maxcycle=1)\\title\\0,1\B,0,-0.76791,-0.02465,0.00325\O,
 0,-0.10569,-1.20379,0.00191\O,0,-0.07109,1.16772,0.00192\O,0,-2.13276,
 0.02751,0.00942\H,0,0.85565,-1.09157,-0.01991\H,0,-0.64878,1.92822,-0.
 01325\H,0,-2.5294,-0.84146,0.0031\O,0,2.29992121,-0.07559441,-0.096749
 36\H,0,1.73435121,0.7044656,-0.06239936\H,0,2.88481121,-0.01392441,0.6
 5604064\\Version=ES64L-G16RevC.01\State=1-A\HF=-327.4001795\RMSD=2.375

 Normal termination of Gaussian 16 at Tue Apr  8 22:21:19 2025.
