 Gaussian 16, Revision C.01,

 ----------------------------------------------------------------------
 #t hf aug-cc-pvdz symm=none int=(grid=ultrafine) guess=(read,tcheck) s
 table=(opt,rrhf)
 ----------------------------------------------------------------------
 -----
 title
 -----
 Symbolic Z-matrix:
 Charge =  0 Multiplicity = 1

 SCF Done:  E(RHF) =  -481.969014412     A.U. after   14 cycles
 Normal termination of Gaussian 16 at Tue Apr  8 22:21:27 2025.
 Gaussian 16:  ES64L-G16RevC.01  3-Jul-2019

 ----------------------------------------------------------------------
 #t hf aug-cc-pvdz iop(5/13=1,5/36=2,99/5=2) pseudo=read geom=check gue
 ss=(read,tcheck) scf=(maxcycle=1)
 ----------------------------------------------------------------------
 -----
 title
 -----
 Structure from the checkpoint file:  "B-set_boricacid_benzene_110_dimer_mol1.chk"
 Charge =  0 Multiplicity = 1

                         Standard orientation:
 ---------------------------------------------------------------------
 Center     Atomic      Atomic             Coordinates (Angstroms)
 Number     Number       Type             X           Y           Z
 ---------------------------------------------------------------------
      1          5           0        2.726013   -0.172482   -0.003870
      2          8           0        4.014692   -0.631924   -0.019450
      3          8           0        1.690310   -1.053222   -0.016785
      4          8           0        2.501498    1.178084    0.024814
      5          1           0        4.059700   -1.585773   -0.039129
      6          1           0        0.829495   -0.628907   -0.004343
      7          1           0        3.316632    1.676137    0.031064
      8          6           0       -2.853330   -0.764373   -0.725748
      9          6           0       -2.077085    0.178090   -1.383699
     10          6           0       -2.860853   -0.811900    0.660311
     11          1           0       -3.449845   -1.464961   -1.293776
     12          6           0       -1.306757    1.073348   -0.655332
     13          1           0       -2.067409    0.211949   -2.464433
     14          6           0       -2.092172    0.083066    1.389618
     15          1           0       -3.463150   -1.549555    1.172581
     16          6           0       -1.314360    1.025802    0.732527
     17          1           0       -0.685867    1.798249   -1.162433
     18          1           0       -2.094303    0.042999    2.470180
     19          1           0       -0.699972    1.714565    1.294953
 ---------------------------------------------------------------------

 SCF Done:  E(RHF) =  -482.128513359     A.U. after    2 cycles

 The electronic state is 1-A.
 Alpha  occ. eigenvalues --  -20.57757 -20.57648 -20.57244 -11.24837 -11.24794
 Alpha  occ. eigenvalues --  -11.24769 -11.24667 -11.24650 -11.24604  -7.68108
 Alpha  occ. eigenvalues --   -1.35730  -1.30908  -1.30672  -1.15055  -1.01659
 Alpha  occ. eigenvalues --   -1.01657  -0.83174  -0.83136  -0.79032  -0.75308
 Alpha  occ. eigenvalues --   -0.75218  -0.72039  -0.64852  -0.63248  -0.61319
 Alpha  occ. eigenvalues --   -0.59783  -0.59779  -0.58837  -0.58576  -0.57808
 Alpha  occ. eigenvalues --   -0.52426  -0.52128  -0.51404  -0.50236  -0.50204
 Alpha  occ. eigenvalues --   -0.34707  -0.34661
 Alpha virt. eigenvalues --    0.03258   0.03894   0.04154   0.05010   0.05582
 Alpha virt. eigenvalues --    0.05823   0.06475   0.07082   0.07455   0.07720
 Alpha virt. eigenvalues --    0.09562   0.09890   0.10454   0.10675   0.12307

 Mulliken charges:
               1
     1  B    0.792524
     2  O   -0.454973
     3  O   -0.405204
     4  O   -0.470470
     5  H    0.176209
     6  H    0.183844
     7  H    0.184898
     8  C    0.452496
     9  C    0.406843
    10  C    0.450934
    11  H   -0.444325
    12  C    0.542356
    13  H   -0.465525
    14  C    0.407563
    15  H   -0.443971
    16  C    0.538163
    17  H   -0.492940
    18  H   -0.465217
    19  H   -0.493205
 Sum of Mulliken charges =  -0.00000

 Dipole moment (field-independent basis, Debye):
    X=             -0.3880    Y=              0.0048    Z=             -0.0027  Tot=              0.3880

 Test job not archived.
 1\1\GINC-SE080\SP\RHF\Aug-CC-pVDZ\C6H9B1O3\OHZDE\08-Apr-2025\0\\#t hf
 aug-cc-pvdz iop(5/13=1,5/36=2,99/5=2) pseudo=read geom=check guess=(re
 ad,tcheck) scf=(maxcycle=1)\\title\\0,1\B,0,2.47525,0.1904,0.00446\O,0
 ,3.75759,0.66722,0.02093\O,0,1.42772,1.05703,0.01798\O,0,2.26904,-1.16
 305,-0.02572\H,0,3.78968,1.62157,0.04163\H,0,0.57273,0.62112,0.00482\H
 ,0,3.09084,-1.65002,-0.03224\C,0,-3.11180751,0.70597548,0.72521061\C,0
 ,-2.32307751,-0.22659452,1.38241061\C,0,-3.11955751,0.75486548,-0.6607
 9939\H,0,-3.71791751,1.39782548,1.29379061\C,0,-1.54048751,-1.11057452

 Normal termination of Gaussian 16 at Tue Apr  8 22:21:36 2025.
