 Gaussian 16, Revision C.01,

 ----------------------------------------------------------------------
 #t hf aug-cc-pvdz symm=none int=(grid=ultrafine) guess=(read,tcheck) s
 table=(opt,rrhf)
 ----------------------------------------------------------------------
 -----
 title
 -----
 Symbolic Z-matrix:
 Charge =  0 Multiplicity = 1

 SCF Done:  E(RHF) =  -503.167042617     A.U. after   12 cycles
 Normal termination of Gaussian 16 at Tue Apr  8 22:19:19 2025.
 Gaussian 16:  ES64L-G16RevC.01  3-Jul-2019

 ----------------------------------------------------------------------
 #t hf aug-cc-pvdz iop(5/13=1,5/36=2,99/5=2) pseudo=read geom=check gue
 ss=(read,tcheck) scf=(maxcycle=1)
 ----------------------------------------------------------------------
 -----
 title
 -----
 Structure from the checkpoint file:  "B-set_borane_dms_095_dimer_mol1.chk"
 Charge =  0 Multiplicity = 1

                         Standard orientation:
 ---------------------------------------------------------------------
 Center     Atomic      Atomic             Coordinates (Angstroms)
 Number     Number       Type             X           Y           Z
 ---------------------------------------------------------------------
      1          5           0        0.012960    1.699852    0.319884
      2          1           0        0.011319    1.437806    1.501300
      3          1           0       -0.995243    2.224710   -0.086577
      4          1           0        1.028850    2.209193   -0.087194
      5         16           0        0.000358    0.055009   -0.520992
      6          6           0        1.370162   -0.807210    0.251865
      7          1           0        1.377718   -1.849540   -0.057004
      8          1           0        2.279798   -0.315648   -0.082693
      9          1           0        1.286776   -0.716449    1.332757
     10          6           0       -1.382234   -0.786522    0.251913
     11          1           0       -2.284453   -0.281694   -0.082966
     12          1           0       -1.405158   -1.828720   -0.056628
     13          1           0       -1.297701   -0.696678    1.332785
 ---------------------------------------------------------------------

 SCF Done:  E(RHF) =  -503.231557187     A.U. after    2 cycles

 The electronic state is 1-A.
 Alpha  occ. eigenvalues --  -93.58849 -11.28432 -11.28414  -8.88708  -7.53579
 Alpha  occ. eigenvalues --   -6.22846  -6.22742  -6.22476  -1.10907  -0.98139
 Alpha  occ. eigenvalues --   -0.86588  -0.69466  -0.64185  -0.61599  -0.60982
 Alpha  occ. eigenvalues --   -0.59843  -0.53762  -0.49170  -0.43016  -0.42634
 Alpha  occ. eigenvalues --   -0.39665
 Alpha virt. eigenvalues --    0.02768   0.04335   0.04862   0.05109   0.06451
 Alpha virt. eigenvalues --    0.06709   0.07454   0.07585   0.09063   0.09335
 Alpha virt. eigenvalues --    0.11668   0.12979   0.12987   0.14181   0.14252

 Mulliken charges:
               1
     1  B   -0.258682
     2  H    0.063412
     3  H    0.113918
     4  H    0.113726
     5  S    0.096152
     6  C    0.208595
     7  H   -0.102070
     8  H   -0.086988
     9  H   -0.083755
    10  C    0.208576
    11  H   -0.087027
    12  H   -0.102065
    13  H   -0.083792
 Sum of Mulliken charges =  -0.00000

 Dipole moment (field-independent basis, Debye):
    X=             -0.0368    Y=             -4.8152    Z=             -0.1700  Tot=              4.8183

 Test job not archived.
 1\1\GINC-SE368\SP\RHF\Aug-CC-pVDZ\C2H9B1S1\OHZDE\08-Apr-2025\0\\#t hf
 aug-cc-pvdz iop(5/13=1,5/36=2,99/5=2) pseudo=read geom=check guess=(re
 ad,tcheck) scf=(maxcycle=1)\\title\\0,1\B,0,1.77921,0.00284,0.30624\H,
 0,1.55019,0.00212,1.4945\H,0,2.28322,1.01582,-0.11448\H,0,2.28635,-1.0
 0833,-0.11509\S,0,0.111523,0.000237,-0.4884635\C,0,-0.716157,-1.377423
 ,0.3078365\H,0,-1.766577,-1.394603,0.0281365\H,0,-0.225747,-2.282503,-
 0.0404835\H,0,-0.596077,-1.293153,1.3857965\C,0,-0.720847,1.375047,0.3
 078865\H,0,-0.233887,2.281867,-0.0407435\H,0,-1.771407,1.388347,0.0285

 Normal termination of Gaussian 16 at Tue Apr  8 22:19:22 2025.
