 Gaussian 16, Revision C.01,

 ----------------------------------------------------------------------
 #t hf aug-cc-pvdz symm=none int=(grid=ultrafine) guess=(read,tcheck) s
 table=(opt,rrhf)
 ----------------------------------------------------------------------
 -----
 title
 -----
 Symbolic Z-matrix:
 Charge =  0 Multiplicity = 1

 SCF Done:  E(RHF) =  -481.968832165     A.U. after   14 cycles
 Normal termination of Gaussian 16 at Tue Apr  8 22:21:27 2025.
 Gaussian 16:  ES64L-G16RevC.01  3-Jul-2019

 ----------------------------------------------------------------------
 #t hf aug-cc-pvdz iop(5/13=1,5/36=2,99/5=2) pseudo=read geom=check gue
 ss=(read,tcheck) scf=(maxcycle=1)
 ----------------------------------------------------------------------
 -----
 title
 -----
 Structure from the checkpoint file:  "B-set_boricacid_benzene_105_dimer_mol1.chk"
 Charge =  0 Multiplicity = 1

                         Standard orientation:
 ---------------------------------------------------------------------
 Center     Atomic      Atomic             Coordinates (Angstroms)
 Number     Number       Type             X           Y           Z
 ---------------------------------------------------------------------
      1          5           0        2.600722   -0.180994   -0.004141
      2          8           0        3.886494   -0.648498   -0.020122
      3          8           0        1.559516   -1.055217   -0.017328
      4          8           0        2.384683    1.170940    0.025217
      5          1           0        3.925518   -1.602602   -0.040261
      6          1           0        0.701381   -0.625520   -0.004562
      7          1           0        3.202924    1.663869    0.031588
      8          6           0       -2.763573   -0.752656   -0.725857
      9          6           0       -1.981526    0.185236   -1.383471
     10          6           0       -2.771201   -0.800795    0.660180
     11          1           0       -3.364547   -1.449220   -1.294133
     12          6           0       -1.205499    1.075300   -0.654787
     13          1           0       -1.971787    0.219548   -2.464189
     14          6           0       -1.996822    0.088988    1.389803
     15          1           0       -3.378040   -1.534903    1.172185
     16          6           0       -1.213207    1.027141    0.733050
     17          1           0       -0.580147    1.796535   -1.161631
     18          1           0       -1.999055    0.048420    2.470347
     19          1           0       -0.594435    1.711771    1.295716
 ---------------------------------------------------------------------

 SCF Done:  E(RHF) =  -482.128075788     A.U. after    2 cycles

 The electronic state is 1-A.
 Alpha  occ. eigenvalues --  -20.57710 -20.57569 -20.57001 -11.24868 -11.24827
 Alpha  occ. eigenvalues --  -11.24788 -11.24692 -11.24680 -11.24618  -7.67998
 Alpha  occ. eigenvalues --   -1.35631  -1.30848  -1.30512  -1.15105  -1.01696
 Alpha  occ. eigenvalues --   -1.01693  -0.83199  -0.83157  -0.78934  -0.75230
 Alpha  occ. eigenvalues --   -0.75112  -0.72058  -0.64862  -0.63273  -0.61220
 Alpha  occ. eigenvalues --   -0.59833  -0.59806  -0.58746  -0.58483  -0.57693
 Alpha  occ. eigenvalues --   -0.52381  -0.51961  -0.51433  -0.50237  -0.50222
 Alpha  occ. eigenvalues --   -0.34754  -0.34717
 Alpha virt. eigenvalues --    0.03243   0.03899   0.04166   0.05052   0.05599
 Alpha virt. eigenvalues --    0.05828   0.06502   0.07113   0.07500   0.07708
 Alpha virt. eigenvalues --    0.09672   0.09944   0.10447   0.10763   0.12553

 Mulliken charges:
               1
     1  B    0.788230
     2  O   -0.461871
     3  O   -0.395240
     4  O   -0.472564
     5  H    0.174119
     6  H    0.206712
     7  H    0.185153
     8  C    0.442894
     9  C    0.419529
    10  C    0.440968
    11  H   -0.445119
    12  C    0.539557
    13  H   -0.466926
    14  C    0.420777
    15  H   -0.444703
    16  C    0.533637
    17  H   -0.499429
    18  H   -0.466535
    19  H   -0.499189
 Sum of Mulliken charges =  -0.00000

 Dipole moment (field-independent basis, Debye):
    X=             -0.4163    Y=              0.0438    Z=             -0.0021  Tot=              0.4186

 Test job not archived.
 1\1\GINC-SE249\SP\RHF\Aug-CC-pVDZ\C6H9B1O3\OHZDE\08-Apr-2025\0\\#t hf
 aug-cc-pvdz iop(5/13=1,5/36=2,99/5=2) pseudo=read geom=check guess=(re
 ad,tcheck) scf=(maxcycle=1)\\title\\0,1\B,0,2.47525,0.1904,0.00446\O,0
 ,3.75759,0.66722,0.02093\O,0,1.42772,1.05703,0.01798\O,0,2.26904,-1.16
 305,-0.02572\H,0,3.78968,1.62157,0.04163\H,0,0.57273,0.62112,0.00482\H
 ,0,3.09084,-1.65002,-0.03224\C,0,-2.89317376,0.72266774,0.7256053\C,0,
 -2.10444376,-0.20990226,1.3828053\C,0,-2.90092376,0.77155774,-0.660404
 7\H,0,-3.49928376,1.41451774,1.2941853\C,0,-1.32185376,-1.09388226,0.6

 Normal termination of Gaussian 16 at Tue Apr  8 22:21:37 2025.
