 Gaussian 16, Revision C.01,

 ----------------------------------------------------------------------
 #t hf aug-cc-pvdz symm=none int=(grid=ultrafine) guess=(read,tcheck) s
 table=(opt,rrhf)
 ----------------------------------------------------------------------
 -----
 title
 -----
 Symbolic Z-matrix:
 Charge =  0 Multiplicity = 1

 SCF Done:  E(RHF) =  -497.144530287     A.U. after   14 cycles
 Normal termination of Gaussian 16 at Tue Apr  8 22:25:00 2025.
 Gaussian 16:  ES64L-G16RevC.01  3-Jul-2019

 ----------------------------------------------------------------------
 #t hf aug-cc-pvdz iop(5/13=1,5/36=2,99/5=2) pseudo=read geom=check gue
 ss=(read,tcheck) scf=(maxcycle=1)
 ----------------------------------------------------------------------
 -----
 title
 -----
 Structure from the checkpoint file:  "B-set_borepin_borazine_105_dimer_mol1.chk"
 Charge =  0 Multiplicity = 1

                         Standard orientation:
 ---------------------------------------------------------------------
 Center     Atomic      Atomic             Coordinates (Angstroms)
 Number     Number       Type             X           Y           Z
 ---------------------------------------------------------------------
      1          6           0       -1.213652   -1.152577    1.236289
      2          6           0       -1.957200   -1.523918    0.157997
      3          6           0       -0.866941    0.139729    1.710120
      4          1           0       -0.817468   -1.970237    1.827249
      5          6           0       -2.613277   -0.730319   -0.819953
      6          1           0       -2.067281   -2.593272    0.019454
      7          6           0       -1.183630    1.357834    1.190068
      8          1           0       -0.252868    0.124132    2.605803
      9          6           0       -2.651831    0.626069   -0.941634
     10          1           0       -3.147510   -1.313271   -1.565078
     11          1           0       -0.776452    2.195469    1.749929
     12          5           0       -2.001034    1.679217   -0.054079
     13          1           0       -3.230078    0.976922   -1.792539
     14          1           0       -2.146440    2.831622   -0.349473
     15          5           0        2.959349   -0.019389    0.692100
     16          7           0        2.515048    1.194122    0.096472
     17          7           0        2.456071   -1.237254    0.149507
     18          1           0        3.721683   -0.019191    1.613250
     19          5           0        1.587403    1.225641   -0.987209
     20          1           0        2.851115    2.064624    0.465601
     21          5           0        1.542471   -1.272817   -0.946514
     22          1           0        2.763556   -2.105208    0.548328
     23          7           0        1.137675   -0.025665   -1.497473
     24          1           0        1.210843    2.259108   -1.452502
     25          1           0        1.141511   -2.309828   -1.385018
     26          1           0        0.466075   -0.023459   -2.243350
 ---------------------------------------------------------------------

 SCF Done:  E(RHF) =  -497.298935739     A.U. after    2 cycles

 The electronic state is 1-A.
 Alpha  occ. eigenvalues --  -15.59462 -15.59268 -15.59016 -11.26498 -11.26332
 Alpha  occ. eigenvalues --  -11.26222 -11.26092 -11.22455 -11.22310  -7.61108
 Alpha  occ. eigenvalues --   -7.61022  -7.60882  -7.57622  -1.16023  -1.11738
 Alpha  occ. eigenvalues --   -1.09014  -1.08858  -1.04530  -0.98935  -0.87580
 Alpha  occ. eigenvalues --   -0.81551  -0.73872  -0.71968  -0.71842  -0.70435
 Alpha  occ. eigenvalues --   -0.68835  -0.66840  -0.62494  -0.60390  -0.59881
 Alpha  occ. eigenvalues --   -0.59760  -0.58202  -0.54605  -0.53317  -0.53140
 Alpha  occ. eigenvalues --   -0.51661  -0.48104  -0.46755  -0.46753  -0.45696
 Alpha  occ. eigenvalues --   -0.45632  -0.40244  -0.40004  -0.38102  -0.32177
 Alpha virt. eigenvalues --    0.02596   0.03053   0.03359   0.03783   0.04888
 Alpha virt. eigenvalues --    0.05077   0.05190   0.05617   0.05808   0.05885
 Alpha virt. eigenvalues --    0.06575   0.07118   0.07465   0.07833   0.07981

 Mulliken charges:
               1
     1  C    0.253249
     2  C    0.208123
     3  C    0.976849
     4  H   -0.599533
     5  C    0.688587
     6  H   -0.541039
     7  C    0.688627
     8  H   -0.551391
     9  C    0.642064
    10  H   -0.493975
    11  H   -0.568766
    12  B   -0.864621
    13  H   -0.511487
    14  H    0.579009
    15  B   -0.167584
    16  N   -0.115181
    17  N   -0.122656
    18  H    0.306640
    19  B   -0.036342
    20  H   -0.162696
    21  B   -0.076370
    22  H   -0.139730
    23  N    0.008072
    24  H    0.403242
    25  H    0.343688
    26  H   -0.146777
 Sum of Mulliken charges =  -0.00000

 Dipole moment (field-independent basis, Debye):
    X=              0.1362    Y=             -1.8166    Z=              0.5161  Tot=              1.8935

 Test job not archived.
 1\1\GINC-SE109\SP\RHF\Aug-CC-pVDZ\C6H13B4N3\OHZDE\08-Apr-2025\0\\#t hf
  aug-cc-pvdz iop(5/13=1,5/36=2,99/5=2) pseudo=read geom=check guess=(r
 ead,tcheck) scf=(maxcycle=1)\\title\\0,1\C,0,-1.1002,-1.1557,1.24379\C
 ,0,-1.87153,-1.52215,0.18349\C,0,-0.73895,0.13441,1.71272\H,0,-0.6909,
 -1.97601,1.822\C,0,-2.55047,-0.72416,-0.77509\H,0,-1.98729,-2.59084,0.
 04445\C,0,-1.06616,1.35478,1.20463\H,0,-0.10247,0.11476,2.59254\C,0,-2
 .58928,0.63268,-0.89154\H,0,-3.10457,-1.30369,-1.50828\H,0,-0.64323,2.
 18983,1.75662\B,0,-1.91408,1.68172,-0.01745\H,0,-3.18812,0.98737,-1.72

 Normal termination of Gaussian 16 at Tue Apr  8 22:25:27 2025.
