 Gaussian 16, Revision C.01,

 ----------------------------------------------------------------------
 #t hf aug-cc-pvdz symm=none int=(grid=ultrafine) guess=(read,tcheck) s
 table=(opt,rrhf)
 ----------------------------------------------------------------------
 -----
 title
 -----
 Symbolic Z-matrix:
 Charge =  0 Multiplicity = 1

 SCF Done:  E(RHF) =  -463.677337953     A.U. after   16 cycles
 Normal termination of Gaussian 16 at Tue Apr  8 22:22:25 2025.
 Gaussian 16:  ES64L-G16RevC.01  3-Jul-2019

 ----------------------------------------------------------------------
 #t hf aug-cc-pvdz iop(5/13=1,5/36=2,99/5=2) pseudo=read geom=check gue
 ss=(read,tcheck) scf=(maxcycle=1)
 ----------------------------------------------------------------------
 -----
 title
 -----
 Structure from the checkpoint file:  "B-set_borabenzene_pyridine_095_dimer_mol1.chk"
 Charge =  0 Multiplicity = 1

                         Standard orientation:
 ---------------------------------------------------------------------
 Center     Atomic      Atomic             Coordinates (Angstroms)
 Number     Number       Type             X           Y           Z
 ---------------------------------------------------------------------
      1          6           0       -1.462753    1.234661    0.364103
      2          6           0       -2.850323    1.163900    0.350083
      3          6           0       -3.530633   -0.000030   -0.000047
      4          6           0       -2.850222   -1.163940   -0.350007
      5          6           0       -1.462592   -1.234709   -0.364147
      6          1           0       -4.612903   -0.000051   -0.000117
      7          1           0       -1.017834    2.174541    0.680873
      8          1           0       -3.437774    2.033730    0.625813
      9          1           0       -3.437652   -2.033660   -0.626117
     10          1           0       -1.018022   -2.174499   -0.681647
     11          5           0       -0.721003   -0.000009    0.000023
     12          6           0        1.431293   -1.092098    0.383678
     13          6           0        2.807173   -1.127047    0.387028
     14          6           0        3.512653    0.000013   -0.000182
     15          6           0        2.807072    1.127133   -0.387102
     16          6           0        1.431212    1.092102   -0.383432
     17          7           0        0.752343   -0.000008    0.000128
     18          1           0        4.593193    0.000013   -0.000292
     19          1           0        0.824024   -1.927048    0.697028
     20          1           0        3.312404   -2.027257    0.701928
     21          1           0        3.312202    2.027413   -0.701962
     22          1           0        0.823692    1.927032   -0.696352
 ---------------------------------------------------------------------

 SCF Done:  E(RHF) =  -463.814246163     A.U. after    2 cycles

 The electronic state is 1-A.
 Alpha  occ. eigenvalues --  -15.72392 -11.34025 -11.34013 -11.31666 -11.29515
 Alpha  occ. eigenvalues --  -11.29513 -11.19988 -11.19983 -11.17754 -11.16306
 Alpha  occ. eigenvalues --  -11.16286  -7.53490  -1.31775  -1.14281  -1.09045
 Alpha  occ. eigenvalues --   -1.05577  -0.95210  -0.92813  -0.92129  -0.87988
 Alpha  occ. eigenvalues --   -0.80340  -0.75705  -0.72712  -0.72089  -0.69670
 Alpha  occ. eigenvalues --   -0.66251  -0.65783  -0.62346  -0.62178  -0.57555
 Alpha  occ. eigenvalues --   -0.57253  -0.53936  -0.53506  -0.50760  -0.46065
 Alpha  occ. eigenvalues --   -0.45695  -0.42978  -0.40823  -0.40219  -0.29390
 Alpha  occ. eigenvalues --   -0.23644
 Alpha virt. eigenvalues --    0.01497   0.02756   0.02923   0.03910   0.05147
 Alpha virt. eigenvalues --    0.05342   0.05674   0.06400   0.06874   0.07018
 Alpha virt. eigenvalues --    0.07058   0.07787   0.08949   0.09351   0.09715

 Mulliken charges:
               1
     1  C    0.633575
     2  C    0.288609
     3  C   -0.070661
     4  C    0.288636
     5  C    0.633658
     6  H   -0.526464
     7  H   -0.658145
     8  H   -0.499417
     9  H   -0.499488
    10  H   -0.657958
    11  B    0.598071
    12  C    0.672203
    13  C    0.877001
    14  C   -0.066118
    15  C    0.877093
    16  C    0.671660
    17  N   -0.253870
    18  H   -0.407843
    19  H   -0.540791
    20  H   -0.409395
    21  H   -0.409347
    22  H   -0.541009
 Sum of Mulliken charges =   0.00000

 Dipole moment (field-independent basis, Debye):
    X=              9.0782    Y=              0.0004    Z=             -0.0003  Tot=              9.0782

 Test job not archived.
 1\1\GINC-SE186\SP\RHF\Aug-CC-pVDZ\C10H10B1N1\OHZDE\08-Apr-2025\0\\#t h
 f aug-cc-pvdz iop(5/13=1,5/36=2,99/5=2) pseudo=read geom=check guess=(
 read,tcheck) scf=(maxcycle=1)\\title\\0,1\C,0,1.50247,-1.23466,0.3641\
 C,0,2.89004,-1.1639,0.35008\C,0,3.57035,0.00003,-0.00005\C,0,2.88994,1
 .16394,-0.35001\C,0,1.50231,1.23471,-0.36415\H,0,4.65262,0.00005,-0.00
 012\H,0,1.05755,-2.17454,0.68087\H,0,3.47749,-2.03373,0.62581\H,0,3.47
 737,2.03366,-0.62612\H,0,1.05774,2.1745,-0.68165\B,0,0.76072,0.00001,0
 .00002\C,0,-1.3915755,1.0921,0.3836745\C,0,-2.7674555,1.12705,0.387024

 Normal termination of Gaussian 16 at Tue Apr  8 22:22:42 2025.
