 Gaussian 16, Revision C.01,

 ----------------------------------------------------------------------
 #t hf aug-cc-pvdz symm=none int=(grid=ultrafine) guess=(read,tcheck) s
 table=(opt,rrhf)
 ----------------------------------------------------------------------
 -----
 title
 -----
 Symbolic Z-matrix:
 Charge =  0 Multiplicity = 1

 SCF Done:  E(RHF) =  -481.923584396     A.U. after   14 cycles
 Normal termination of Gaussian 16 at Tue Apr  8 22:24:38 2025.
 Gaussian 16:  ES64L-G16RevC.01  3-Jul-2019

 ----------------------------------------------------------------------
 #t hf aug-cc-pvdz iop(5/13=1,5/36=2,99/5=2) pseudo=read geom=check gue
 ss=(read,tcheck) scf=(maxcycle=1)
 ----------------------------------------------------------------------
 -----
 title
 -----
 Structure from the checkpoint file:  "B-set_phenylboronicacid_h2o_095_dimer_mol1.chk"
 Charge =  0 Multiplicity = 1

                         Standard orientation:
 ---------------------------------------------------------------------
 Center     Atomic      Atomic             Coordinates (Angstroms)
 Number     Number       Type             X           Y           Z
 ---------------------------------------------------------------------
      1          6           0       -1.221256    1.196724   -0.000067
      2          6           0       -2.606806    1.199721    0.000843
      3          6           0       -0.502758    0.000315   -0.000567
      4          1           0       -0.681922    2.134890   -0.000367
      5          6           0       -3.300888   -0.001001    0.001243
      6          1           0       -3.147322    2.136865    0.001203
      7          6           0       -1.220129   -1.196766   -0.000127
      8          5           0        1.063682    0.001014   -0.001567
      9          6           0       -2.605680   -1.201070    0.000733
     10          1           0       -4.382868   -0.001503    0.001923
     11          1           0       -0.679924   -2.134430   -0.000537
     12          8           0        1.720694    1.200246   -0.001997
     13          8           0        1.721940   -1.197544   -0.001907
     14          1           0       -3.145314   -2.138715    0.001033
     15          1           0        2.676041    1.106131   -0.002357
     16          1           0        2.677183   -1.101719   -0.002447
     17          8           0        4.142317   -0.001184    0.002201
     18          1           0        4.711407   -0.003839    0.770851
     19          1           0        4.719807   -0.002439   -0.760179
 ---------------------------------------------------------------------

 SCF Done:  E(RHF) =  -482.077496561     A.U. after    2 cycles

 The electronic state is 1-A.
 Alpha  occ. eigenvalues --  -20.64203 -20.55171 -20.55155 -11.23080 -11.22485
 Alpha  occ. eigenvalues --  -11.22481 -11.22325 -11.22324 -11.19965  -7.63248
 Alpha  occ. eigenvalues --   -1.38572  -1.32116  -1.28179  -1.12529  -0.99283
 Alpha  occ. eigenvalues --   -0.99232  -0.81873  -0.81064  -0.80340  -0.76181
 Alpha  occ. eigenvalues --   -0.73179  -0.69080  -0.68255  -0.61775  -0.61141
 Alpha  occ. eigenvalues --   -0.60800  -0.59621  -0.57381  -0.56735  -0.54321
 Alpha  occ. eigenvalues --   -0.52633  -0.49792  -0.48734  -0.47410  -0.45695
 Alpha  occ. eigenvalues --   -0.32397  -0.32256
 Alpha virt. eigenvalues --    0.01430   0.04354   0.04383   0.04977   0.05511
 Alpha virt. eigenvalues --    0.06134   0.07144   0.07197   0.08264   0.08702
 Alpha virt. eigenvalues --    0.09387   0.10552   0.10735   0.10842   0.12547

 Mulliken charges:
               1
     1  C    0.282945
     2  C    0.566180
     3  C    0.046562
     4  H   -0.639265
     5  C    0.771050
     6  H   -0.447988
     7  C    0.283237
     8  B    0.624802
     9  C    0.566167
    10  H   -0.450581
    11  H   -0.639343
    12  O   -0.487163
    13  O   -0.487288
    14  H   -0.447992
    15  H    0.247639
    16  H    0.248772
    17  O   -0.455680
    18  H    0.209178
    19  H    0.208769
 Sum of Mulliken charges =  -0.00000

 Dipole moment (field-independent basis, Debye):
    X=              5.8037    Y=             -0.0043    Z=              0.0114  Tot=              5.8037

 Test job not archived.
 1\1\GINC-SE186\SP\RHF\Aug-CC-pVDZ\C6H9B1O3\OHZDE\08-Apr-2025\0\\#t hf
 aug-cc-pvdz iop(5/13=1,5/36=2,99/5=2) pseudo=read geom=check guess=(re
 ad,tcheck) scf=(maxcycle=1)\\title\\0,1\C,0,1.25953,-1.19671,-0.0001\C
 ,0,2.64508,-1.19967,0.00081\C,0,0.541,-0.00032,-0.0006\H,0,0.72022,-2.
 13489,-0.0004\C,0,3.33913,0.00107,0.00121\H,0,3.18562,-2.1368,0.00117\
 C,0,1.25834,1.19678,-0.00016\B,0,-1.02544,-0.00106,-0.0016\C,0,2.64389
 ,1.20112,0.0007\H,0,4.42111,0.0016,0.00189\H,0,0.71811,2.13443,-0.0005
 7\O,0,-1.68242,-1.20031,-0.00203\O,0,-1.68373,1.19748,-0.00194\H,0,3.1

 Normal termination of Gaussian 16 at Tue Apr  8 22:24:53 2025.
