 Gaussian 16, Revision C.01,

 ----------------------------------------------------------------------
 #t hf aug-cc-pvdz symm=none int=(grid=ultrafine) guess=(read,tcheck) s
 table=(opt,rrhf)
 ----------------------------------------------------------------------
 -----
 title
 -----
 Symbolic Z-matrix:
 Charge =  0 Multiplicity = 1

 SCF Done:  E(RHF) =  -251.236443217     A.U. after   11 cycles
 Normal termination of Gaussian 16 at Tue Apr  8 22:20:12 2025.
 Gaussian 16:  ES64L-G16RevC.01  3-Jul-2019

 ----------------------------------------------------------------------
 #t hf aug-cc-pvdz iop(5/13=1,5/36=2,99/5=2) pseudo=read geom=check gue
 ss=(read,tcheck) scf=(maxcycle=1)
 ----------------------------------------------------------------------
 -----
 title
 -----
 Structure from the checkpoint file:  "B-set_boricacid_boricacid_090_dimer_mol2.chk"
 Charge =  0 Multiplicity = 1

                         Standard orientation:
 ---------------------------------------------------------------------
 Center     Atomic      Atomic             Coordinates (Angstroms)
 Number     Number       Type             X           Y           Z
 ---------------------------------------------------------------------
      1          5           0       -0.020761    0.006753   -0.000017
      2          8           0        0.753433    1.131482    0.000012
      3          8           0       -1.367348    0.075053   -0.000069
      4          8           0        0.627820   -1.214224   -0.000033
      5          1           0        0.232742    1.932252    0.000113
      6          1           0       -1.819263   -0.782111    0.000525
      7          1           0        1.579088   -1.122395    0.000174
 ---------------------------------------------------------------------

 SCF Done:  E(RHF) =  -251.326594832     A.U. after    2 cycles

 The electronic state is 1-A.
 Alpha  occ. eigenvalues --  -20.58725 -20.58223 -20.57662  -7.68760  -1.36299
 Alpha  occ. eigenvalues --   -1.31790  -1.30793  -0.79801  -0.76313  -0.75303
 Alpha  occ. eigenvalues --   -0.61947  -0.59872  -0.58795  -0.58052  -0.53246
 Alpha  occ. eigenvalues --   -0.52471
 Alpha virt. eigenvalues --    0.03446   0.05397   0.05534   0.05985   0.07678
 Alpha virt. eigenvalues --    0.07757   0.09877   0.19448   0.20113   0.20448
 Alpha virt. eigenvalues --    0.20640   0.21163   0.23645   0.23970   0.24122

 Mulliken charges:
               1
     1  B    0.734337
     2  O   -0.413751
     3  O   -0.417194
     4  O   -0.443610
     5  H    0.174087
     6  H    0.195991
     7  H    0.170140
 Sum of Mulliken charges =  -0.00000

 Dipole moment (field-independent basis, Debye):
    X=             -0.2757    Y=              0.1523    Z=              0.0016  Tot=              0.3150

 Test job not archived.
 1\1\GINC-SE435\SP\RHF\Aug-CC-pVDZ\B1H3O3\OHZDE\08-Apr-2025\0\\#t hf au
 g-cc-pvdz iop(5/13=1,5/36=2,99/5=2) pseudo=read geom=check guess=(read
 ,tcheck) scf=(maxcycle=1)\\title\\0,1\B,0,2.06504,0.02667,-0.0001\O,0,
 3.42239,-0.12163,0.00046\O,0,1.48665,1.24463,-0.00073\O,0,1.2976,-1.12
 332,-0.00004\H,0,3.88051,0.71651,0.00047\H,0,0.51769,1.23606,-0.00048\
 H,0,1.82952,-1.9173,0.0006\\Version=ES64L-G16RevC.01\State=1-A\HF=-251
 .3265948\RMSD=2.762e-03\Dipole=0.001319,0.1239097,0.0006061\Quadrupole
 =0.696979,0.4608529,-1.1578319,-0.3146896,-0.0006052,0.000058\PG=C01 [

 Normal termination of Gaussian 16 at Tue Apr  8 22:20:13 2025.
