 Gaussian 16, Revision C.01,

 ----------------------------------------------------------------------
 #t hf aug-cc-pvdz symm=none int=(grid=ultrafine) guess=(read,tcheck) s
 table=(opt,rrhf)
 ----------------------------------------------------------------------
 -----
 title
 -----
 Symbolic Z-matrix:
 Charge =  0 Multiplicity = 1

 SCF Done:  E(RHF) =  -251.237453702     A.U. after   11 cycles
 Normal termination of Gaussian 16 at Tue Apr  8 22:20:11 2025.
 Gaussian 16:  ES64L-G16RevC.01  3-Jul-2019

 ----------------------------------------------------------------------
 #t hf aug-cc-pvdz iop(5/13=1,5/36=2,99/5=2) pseudo=read geom=check gue
 ss=(read,tcheck) scf=(maxcycle=1)
 ----------------------------------------------------------------------
 -----
 title
 -----
 Structure from the checkpoint file:  "B-set_boricacid_benzene_090_dimer_mol2.chk"
 Charge =  0 Multiplicity = 1

                         Standard orientation:
 ---------------------------------------------------------------------
 Center     Atomic      Atomic             Coordinates (Angstroms)
 Number     Number       Type             X           Y           Z
 ---------------------------------------------------------------------
      1          5           0       -0.006289   -0.005286    0.000021
      2          8           0        0.386402    1.305369    0.000014
      3          8           0       -1.329377   -0.318317   -0.000053
      4          8           0        0.949332   -0.986127   -0.000012
      5          1           0       -0.355749    1.906580    0.000005
      6          1           0       -1.497055   -1.263348    0.000314
      7          1           0        1.833383   -0.624198   -0.000022
 ---------------------------------------------------------------------

 SCF Done:  E(RHF) =  -251.327612865     A.U. after    2 cycles

 The electronic state is 1-A.
 Alpha  occ. eigenvalues --  -20.58459 -20.58150 -20.58127  -7.68787  -1.36402
 Alpha  occ. eigenvalues --   -1.31629  -1.31316  -0.79723  -0.76078  -0.75759
 Alpha  occ. eigenvalues --   -0.61975  -0.59560  -0.59132  -0.58489  -0.53074
 Alpha  occ. eigenvalues --   -0.52809
 Alpha virt. eigenvalues --    0.03460   0.05442   0.05501   0.05976   0.07699
 Alpha virt. eigenvalues --    0.07745   0.09871   0.19544   0.20234   0.20370
 Alpha virt. eigenvalues --    0.20791   0.21001   0.23689   0.23940   0.24165

 Mulliken charges:
               1
     1  B    0.731636
     2  O   -0.421066
     3  O   -0.417851
     4  O   -0.425987
     5  H    0.174746
     6  H    0.182349
     7  H    0.176171
 Sum of Mulliken charges =  -0.00000

 Dipole moment (field-independent basis, Debye):
    X=             -0.1281    Y=             -0.0107    Z=              0.0008  Tot=              0.1285

 Test job not archived.
 1\1\GINC-SE453\SP\RHF\Aug-CC-pVDZ\B1H3O3\OHZDE\08-Apr-2025\0\\#t hf au
 g-cc-pvdz iop(5/13=1,5/36=2,99/5=2) pseudo=read geom=check guess=(read
 ,tcheck) scf=(maxcycle=1)\\title\\0,1\B,0,2.47525,0.1904,0.00446\O,0,3
 .75759,0.66722,0.02093\O,0,1.42772,1.05703,0.01798\O,0,2.26904,-1.1630
 5,-0.02572\H,0,3.78968,1.62157,0.04163\H,0,0.57273,0.62112,0.00482\H,0
 ,3.09084,-1.65002,-0.03224\\Version=ES64L-G16RevC.01\State=1-A\HF=-251
 .3276129\RMSD=2.754e-03\Dipole=-0.0337568,0.0376452,0.0009483\Quadrupo
 le=0.6896624,0.4099698,-1.0996321,-0.0945621,0.0053889,0.0323203\PG=C0

 Normal termination of Gaussian 16 at Tue Apr  8 22:20:13 2025.
