 Gaussian 16, Revision C.01,

 ----------------------------------------------------------------------
 #t hf aug-cc-pvdz symm=none int=(grid=ultrafine) guess=(read,tcheck) s
 table=(opt,rrhf)
 ----------------------------------------------------------------------
 -----
 title
 -----
 Symbolic Z-matrix:
 Charge =  0 Multiplicity = 1

 SCF Done:  E(RHF) =  -327.287557208     A.U. after   11 cycles
 Normal termination of Gaussian 16 at Tue Apr  8 22:21:15 2025.
 Gaussian 16:  ES64L-G16RevC.01  3-Jul-2019

 ----------------------------------------------------------------------
 #t hf aug-cc-pvdz iop(5/13=1,5/36=2,99/5=2) pseudo=read geom=check gue
 ss=(read,tcheck) scf=(maxcycle=1)
 ----------------------------------------------------------------------
 -----
 title
 -----
 Structure from the checkpoint file:  "B-set_boricacid_h2o_100_dimer_mol1.chk"
 Charge =  0 Multiplicity = 1

                         Standard orientation:
 ---------------------------------------------------------------------
 Center     Atomic      Atomic             Coordinates (Angstroms)
 Number     Number       Type             X           Y           Z
 ---------------------------------------------------------------------
      1          5           0       -0.767910   -0.024651    0.003249
      2          8           0       -0.105689   -1.203790    0.001909
      3          8           0       -0.071092    1.167720    0.001919
      4          8           0       -2.132761    0.027507    0.009419
      5          1           0        0.855651   -1.091568   -0.019911
      6          1           0       -0.648784    1.928219   -0.013251
      7          1           0       -2.529399   -0.841464    0.003099
      8          8           0        2.461910   -0.064516   -0.087931
      9          1           0        1.896338    0.715543   -0.053581
     10          1           0        3.046800   -0.002845    0.664859
 ---------------------------------------------------------------------

 SCF Done:  E(RHF) =  -327.402845490     A.U. after    2 cycles

 The electronic state is 1-A.
 Alpha  occ. eigenvalues --  -20.58972 -20.58604 -20.58046 -20.56572  -7.68536
 Alpha  occ. eigenvalues --   -1.36325  -1.32577  -1.31573  -1.30430  -0.79503
 Alpha  occ. eigenvalues --   -0.77150  -0.75490  -0.73819  -0.62126  -0.61496
 Alpha  occ. eigenvalues --   -0.59792  -0.58893  -0.57918  -0.53504  -0.53255
 Alpha  occ. eigenvalues --   -0.51900
 Alpha virt. eigenvalues --    0.03245   0.04564   0.05420   0.06153   0.07289
 Alpha virt. eigenvalues --    0.07695   0.09379   0.09958   0.10778   0.17230
 Alpha virt. eigenvalues --    0.18650   0.20196   0.20443   0.21020   0.22873

 Mulliken charges:
               1
     1  B    0.716551
     2  O   -0.407928
     3  O   -0.461740
     4  O   -0.422790
     5  H    0.242820
     6  H    0.170048
     7  H    0.165821
     8  O   -0.354244
     9  H    0.183753
    10  H    0.167708
 Sum of Mulliken charges =   0.00000

 Dipole moment (field-independent basis, Debye):
    X=              0.1900    Y=              1.4515    Z=              1.2988  Tot=              1.9570

 Test job not archived.
 1\1\GINC-SE340\SP\RHF\Aug-CC-pVDZ\B1H5O4\OHZDE\08-Apr-2025\0\\#t hf au
 g-cc-pvdz iop(5/13=1,5/36=2,99/5=2) pseudo=read geom=check guess=(read
 ,tcheck) scf=(maxcycle=1)\\title\\0,1\B,0,-0.76791,-0.02465,0.00325\O,
 0,-0.10569,-1.20379,0.00191\O,0,-0.07109,1.16772,0.00192\O,0,-2.13276,
 0.02751,0.00942\H,0,0.85565,-1.09157,-0.01991\H,0,-0.64878,1.92822,-0.
 01325\H,0,-2.5294,-0.84146,0.0031\O,0,2.46191,-0.06452,-0.08793\H,0,1.
 89634,0.71554,-0.05358\H,0,3.0468,-0.00285,0.66486\\Version=ES64L-G16R
 evC.01\State=1-A\HF=-327.4028455\RMSD=2.340e-03\Dipole=0.0747643,0.571

 Normal termination of Gaussian 16 at Tue Apr  8 22:21:18 2025.
