 Gaussian 16, Revision C.01,

 ----------------------------------------------------------------------
 #t hf aug-cc-pvdz symm=none int=(grid=ultrafine) guess=(read,tcheck) s
 table=(opt,rrhf)
 ----------------------------------------------------------------------
 -----
 title
 -----
 Symbolic Z-matrix:
 Charge =  0 Multiplicity = 1

 SCF Done:  E(RHF) =  -736.579197462     A.U. after   12 cycles
 Normal termination of Gaussian 16 at Tue Apr  8 22:33:26 2025.
 Gaussian 16:  ES64L-G16RevC.01  3-Jul-2019

 ----------------------------------------------------------------------
 #t hf aug-cc-pvdz iop(5/13=1,5/36=2,99/5=2) pseudo=read geom=check gue
 ss=(read,tcheck) scf=(maxcycle=1)
 ----------------------------------------------------------------------
 -----
 title
 -----
 Structure from the checkpoint file:  "B-set_trimethylborate_trimethylborate_090_dimer_mol1.chk"
 Charge =  0 Multiplicity = 1

                         Standard orientation:
 ---------------------------------------------------------------------
 Center     Atomic      Atomic             Coordinates (Angstroms)
 Number     Number       Type             X           Y           Z
 ---------------------------------------------------------------------
      1          5           0        1.452387   -0.007737    0.003149
      2          8           0        1.447340   -1.346131    0.254949
      3          8           0        1.459340    0.879617    1.036217
      4          8           0        1.461511    0.443347   -1.281850
      5          6           0        1.382186   -1.833514    1.581551
      6          6           0        1.408666    2.272777    0.795141
      7          6           0        1.400482   -0.461397   -2.367749
      8          1           0        0.387651   -1.669278    1.997384
      9          1           0        1.584720   -2.901949    1.547268
     10          1           0        2.120165   -1.347384    2.219797
     11          1           0        1.621969    2.775235    1.736266
     12          1           0        2.145946    2.573929    0.050796
     13          1           0        0.415441    2.561874    0.450259
     14          1           0        1.609641    0.102036   -3.274652
     15          1           0        2.135892   -1.259085   -2.261933
     16          1           0        0.405339   -0.901258   -2.439498
     17          5           0       -1.452328    0.007554   -0.003150
     18          8           0       -1.458795   -0.878726   -1.037162
     19          8           0       -1.460966   -0.444664    1.281476
     20          8           0       -1.448091    1.346228   -0.253653
     21          6           0       -1.407660   -2.272103   -0.797095
     22          6           0       -1.399810    0.459494    2.367988
     23          6           0       -1.384162    1.835099   -1.579754
     24          1           0       -2.146991   -2.574480   -0.055297
     25          1           0       -1.617718   -2.773870   -1.739308
     26          1           0       -0.415258   -2.560693   -0.449416
     27          1           0       -1.609850   -0.104268    3.274491
     28          1           0       -0.404272    0.898395    2.440342
     29          1           0       -2.134538    1.257758    2.262100
     30          1           0       -0.389670    1.672429   -1.996365
     31          1           0       -2.121822    1.348746   -2.218189
     32          1           0       -1.587859    2.903265   -1.544351
 ---------------------------------------------------------------------

 SCF Done:  E(RHF) =  -736.838825570     A.U. after    2 cycles

 The electronic state is 1-A.
 Alpha  occ. eigenvalues --  -20.56435 -20.56434 -20.56434 -20.56432 -20.56432
 Alpha  occ. eigenvalues --  -20.56432 -11.27497 -11.27495 -11.27494 -11.27494
 Alpha  occ. eigenvalues --  -11.27493 -11.27490  -7.66771  -7.66769  -1.36039
 Alpha  occ. eigenvalues --   -1.35304  -1.31209  -1.31209  -1.30834  -1.30833
 Alpha  occ. eigenvalues --   -0.94496  -0.93942  -0.92884  -0.92883  -0.92770
 Alpha  occ. eigenvalues --   -0.92767  -0.73821  -0.73323  -0.70705  -0.70704
 Alpha  occ. eigenvalues --   -0.70184  -0.70182  -0.69442  -0.64158  -0.63587
 Alpha  occ. eigenvalues --   -0.63583  -0.62136  -0.62129  -0.60887  -0.60886
 Alpha  occ. eigenvalues --   -0.60302  -0.60299  -0.59007  -0.58743  -0.51892
 Alpha  occ. eigenvalues --   -0.51330  -0.49692  -0.49582  -0.49254  -0.49253
 Alpha  occ. eigenvalues --   -0.49220  -0.49215  -0.45877  -0.45871  -0.45320
 Alpha  occ. eigenvalues --   -0.45318
 Alpha virt. eigenvalues --    0.03088   0.04251   0.04321   0.04323   0.05360
 Alpha virt. eigenvalues --    0.05360   0.05603   0.05922   0.05924   0.07579
 Alpha virt. eigenvalues --    0.07747   0.07751   0.08076   0.08319   0.08320

 Mulliken charges:
               1
     1  B    0.923343
     2  O   -0.761886
     3  O   -0.762264
     4  O   -0.765006
     5  C    1.156290
     6  C    1.156139
     7  C    1.156765
     8  H   -0.159963
     9  H   -0.296358
    10  H   -0.244795
    11  H   -0.296215
    12  H   -0.244560
    13  H   -0.159686
    14  H   -0.296458
    15  H   -0.244248
    16  H   -0.161760
    17  B    0.922852
    18  O   -0.761624
    19  O   -0.763384
    20  O   -0.762678
    21  C    1.157062
    22  C    1.157274
    23  C    1.155338
    24  H   -0.245728
    25  H   -0.296536
    26  H   -0.159230
    27  H   -0.296608
    28  H   -0.160633
    29  H   -0.245337
    30  H   -0.158566
    31  H   -0.244959
    32  H   -0.296582
 Sum of Mulliken charges =   0.00000

 Dipole moment (field-independent basis, Debye):
    X=             -0.0019    Y=              0.0010    Z=              0.0004  Tot=              0.0022

 Test job not archived.
 1\1\GINC-SE339\SP\RHF\Aug-CC-pVDZ\C6H18B2O6\OHZDE\08-Apr-2025\0\\#t hf
  aug-cc-pvdz iop(5/13=1,5/36=2,99/5=2) pseudo=read geom=check guess=(r
 ead,tcheck) scf=(maxcycle=1)\\title\\0,1\B,0,1.60824,0.00191,-0.00082\
 O,0,1.60915,1.34156,-0.2459\O,0,1.61322,-0.88027,-1.03832\O,0,1.61338,
 -0.45565,1.28191\C,0,1.5482,1.83586,-1.57014\C,0,1.55638,-2.2744,-0.80
 433\C,0,1.55431,0.44388,2.37224\H,0,0.55368,1.67784,-1.98841\H,0,1.755
 1,2.90326,-1.53016\H,0,2.28521,1.34988,-2.20962\H,0,1.76915,-2.77301,-
 1.74762\H,0,2.29118,-2.58234,-0.06031\H,0,0.5614,-2.5611,-0.46252\H,0,

 Normal termination of Gaussian 16 at Tue Apr  8 22:34:02 2025.
