 Gaussian 16, Revision C.01,

 ----------------------------------------------------------------------
 #t hf aug-cc-pvdz symm=none int=(grid=ultrafine) guess=(read,tcheck) s
 table=(opt,rrhf)
 ----------------------------------------------------------------------
 -----
 title
 -----
 Symbolic Z-matrix:
 Charge =  0 Multiplicity = 1

 SCF Done:  E(RHF) =  -179.028369291     A.U. after   14 cycles
 Normal termination of Gaussian 16 at Tue Apr  8 22:22:18 2025.
 Gaussian 16:  ES64L-G16RevC.01  3-Jul-2019

 ----------------------------------------------------------------------
 #t hf aug-cc-pvdz iop(5/13=1,5/36=2,99/5=2) pseudo=read geom=check gue
 ss=(read,tcheck) scf=(maxcycle=1)
 ----------------------------------------------------------------------
 -----
 title
 -----
 Structure from the checkpoint file:  "B-set_borole_borolane_090_dimer_mol2.chk"
 Charge =  0 Multiplicity = 1

                         Standard orientation:
 ---------------------------------------------------------------------
 Center     Atomic      Atomic             Coordinates (Angstroms)
 Number     Number       Type             X           Y           Z
 ---------------------------------------------------------------------
      1          5           0        0.006370    1.313942   -0.001207
      2          6           0        1.249406    0.341527   -0.008760
      3          6           0       -1.246373    0.350156   -0.003460
      4          1           0        0.011548    2.504548    0.037750
      5          6           0        0.749155   -0.896582    0.002674
      6          1           0        2.307852    0.553310    0.003370
      7          6           0       -0.758075   -0.891296    0.002304
      8          1           0       -2.301947    0.576780   -0.008935
      9          1           0        1.318492   -1.817740    0.012280
     10          1           0       -1.332474   -1.809439    0.005017
 ---------------------------------------------------------------------

 SCF Done:  E(RHF) =  -179.081454556     A.U. after    2 cycles

 The electronic state is 1-A.
 Alpha  occ. eigenvalues --  -11.25969 -11.25901 -11.21251 -11.21215  -7.61503
 Alpha  occ. eigenvalues --   -1.10998  -0.96786  -0.83727  -0.71354  -0.70101
 Alpha  occ. eigenvalues --   -0.64124  -0.57442  -0.52061  -0.47259  -0.46487
 Alpha  occ. eigenvalues --   -0.46146  -0.32115
 Alpha virt. eigenvalues --    0.02287   0.03342   0.04410   0.04465   0.05830
 Alpha virt. eigenvalues --    0.06240   0.06423   0.08692   0.08732   0.12138
 Alpha virt. eigenvalues --    0.13390   0.13903   0.14203   0.15009   0.15244

 Mulliken charges:
               1
     1  B    0.184801
     2  C    0.316765
     3  C    0.311718
     4  H    0.311914
     5  C    0.155193
     6  H   -0.373834
     7  C    0.161863
     8  H   -0.374108
     9  H   -0.348093
    10  H   -0.346217
 Sum of Mulliken charges =  -0.00000

 Dipole moment (field-independent basis, Debye):
    X=             -0.0063    Y=             -0.9154    Z=             -0.0087  Tot=              0.9154

 Test job not archived.
 1\1\GINC-SE086\SP\RHF\Aug-CC-pVDZ\C4H5B1\OHZDE\08-Apr-2025\0\\#t hf au
 g-cc-pvdz iop(5/13=1,5/36=2,99/5=2) pseudo=read geom=check guess=(read
 ,tcheck) scf=(maxcycle=1)\\title\\0,1\B,0,-1.44421,-0.34378,-1.38976\C
 ,0,-1.35382,1.11975,-0.80607\C,0,-2.20691,-1.16484,-0.27513\H,0,-1.059
 79,-0.73225,-2.44825\C,0,-1.96773,1.08262,0.37927\H,0,-0.92918,2.01911
 ,-1.22576\C,0,-2.47978,-0.29789,0.7014\H,0,-2.48296,-2.20807,-0.24206\
 H,0,-2.10422,1.91644,1.05668\H,0,-2.99941,-0.51278,1.627\\Version=ES64
 L-G16RevC.01\State=1-A\HF=-179.0814546\RMSD=8.053e-03\Dipole=-0.123890

 Normal termination of Gaussian 16 at Tue Apr  8 22:22:21 2025.
