 Gaussian 16, Revision C.01,

 ----------------------------------------------------------------------
 #t hf aug-cc-pvdz symm=none int=(grid=ultrafine) guess=(read,tcheck) s
 table=(opt,rrhf)
 ----------------------------------------------------------------------
 -----
 title
 -----
 Symbolic Z-matrix:
 Charge =  0 Multiplicity = 1

 SCF Done:  E(RHF) =  -219.226194134     A.U. after   13 cycles
 Normal termination of Gaussian 16 at Tue Apr  8 22:22:35 2025.
 Gaussian 16:  ES64L-G16RevC.01  3-Jul-2019

 ----------------------------------------------------------------------
 #t hf aug-cc-pvdz iop(5/13=1,5/36=2,99/5=2) pseudo=read geom=check gue
 ss=(read,tcheck) scf=(maxcycle=1)
 ----------------------------------------------------------------------
 -----
 title
 -----
 Structure from the checkpoint file:  "B-set_borole_methane_100_dimer_mol1.chk"
 Charge =  0 Multiplicity = 1

                         Standard orientation:
 ---------------------------------------------------------------------
 Center     Atomic      Atomic             Coordinates (Angstroms)
 Number     Number       Type             X           Y           Z
 ---------------------------------------------------------------------
      1          5           0       -0.065129   -0.163800    1.201798
      2          6           0       -0.741701   -1.267199    0.295678
      3          6           0       -0.448158    1.204300    0.511938
      4          1           0        0.547830   -0.325441    2.210558
      5          6           0       -1.397320   -0.605669   -0.659482
      6          1           0       -0.741162   -2.343249    0.384298
      7          6           0       -1.219128    0.887491   -0.529392
      8          1           0       -0.195537    2.218800    0.781428
      9          1           0       -1.995770   -1.042698   -1.449672
     10          1           0       -1.680728    1.580212   -1.222512
     11          6           0        2.722671   -0.058053   -0.443032
     12          1           0        3.648470   -0.548104   -0.736092
     13          1           0        2.694022    0.950107   -0.848552
     14          1           0        1.876830   -0.625552   -0.826552
     15          1           0        2.673511   -0.010303    0.643858
 ---------------------------------------------------------------------

 SCF Done:  E(RHF) =  -219.296113549     A.U. after    2 cycles

 The electronic state is 1-A.
 Alpha  occ. eigenvalues --  -11.25814 -11.25730 -11.21536 -11.21174 -11.21150
 Alpha  occ. eigenvalues --   -7.61417  -1.10876  -0.96727  -0.93902  -0.83574
 Alpha  occ. eigenvalues --   -0.71265  -0.70002  -0.64133  -0.57395  -0.54831
 Alpha  occ. eigenvalues --   -0.54662  -0.54584  -0.51880  -0.47079  -0.46401
 Alpha  occ. eigenvalues --   -0.45814  -0.32085
 Alpha virt. eigenvalues --    0.02787   0.03216   0.04273   0.04408   0.04972
 Alpha virt. eigenvalues --    0.05821   0.06287   0.06437   0.07364   0.08095
 Alpha virt. eigenvalues --    0.08678   0.09557   0.12193   0.13392   0.14191

 Mulliken charges:
               1
     1  B   -0.008516
     2  C    0.318200
     3  C    0.426160
     4  H    0.444924
     5  C    0.268375
     6  H   -0.439705
     7  C    0.196845
     8  H   -0.454112
     9  H   -0.389816
    10  H   -0.397243
    11  C    0.713541
    12  H   -0.192707
    13  H   -0.122279
    14  H   -0.184467
    15  H   -0.179201
 Sum of Mulliken charges =  -0.00000

 Dipole moment (field-independent basis, Debye):
    X=             -0.4120    Y=              0.1392    Z=             -0.7911  Tot=              0.9027

 Test job not archived.
 1\1\GINC-SE080\SP\RHF\Aug-CC-pVDZ\C5H9B1\OHZDE\08-Apr-2025\0\\#t hf au
 g-cc-pvdz iop(5/13=1,5/36=2,99/5=2) pseudo=read geom=check guess=(read
 ,tcheck) scf=(maxcycle=1)\\title\\0,1\B,0,0.06513,-0.1638,-1.2018\C,0,
 0.7417,-1.2672,-0.29568\C,0,0.44816,1.2043,-0.51194\H,0,-0.54783,-0.32
 544,-2.21056\C,0,1.39732,-0.60567,0.65948\H,0,0.74116,-2.34325,-0.3843
 \C,0,1.21913,0.88749,0.52939\H,0,0.19554,2.2188,-0.78143\H,0,1.99577,-
 1.0427,1.44967\H,0,1.68073,1.58021,1.22251\C,0,-2.72267,-0.05805,0.443
 03\H,0,-3.64847,-0.5481,0.73609\H,0,-2.69402,0.95011,0.84855\H,0,-1.87

 Normal termination of Gaussian 16 at Tue Apr  8 22:22:39 2025.
