 Gaussian 16, Revision C.01,

 ----------------------------------------------------------------------
 #t hf aug-cc-pvdz symm=none int=(grid=ultrafine) guess=(read,tcheck) s
 table=(opt,rrhf)
 ----------------------------------------------------------------------
 -----
 title
 -----
 Symbolic Z-matrix:
 Charge =  0 Multiplicity = 1

 SCF Done:  E(RHF) =  -103.273734542     A.U. after   11 cycles
 Normal termination of Gaussian 16 at Tue Apr  8 22:21:12 2025.
 Gaussian 16:  ES64L-G16RevC.01  3-Jul-2019

 ----------------------------------------------------------------------
 #t hf aug-cc-pvdz iop(5/13=1,5/36=2,99/5=2) pseudo=read geom=check gue
 ss=(read,tcheck) scf=(maxcycle=1)
 ----------------------------------------------------------------------
 -----
 title
 -----
 Structure from the checkpoint file:  "B-set_borirane_methane_090_dimer_mol2.chk"
 Charge =  0 Multiplicity = 1

                         Standard orientation:
 ---------------------------------------------------------------------
 Center     Atomic      Atomic             Coordinates (Angstroms)
 Number     Number       Type             X           Y           Z
 ---------------------------------------------------------------------
      1          5           0       -0.000159    0.963996   -0.008169
      2          6           0        0.772311   -0.351964    0.001225
      3          6           0       -0.772189   -0.352221    0.001208
      4          1           0       -0.000427    2.145231    0.011486
      5          1           0        1.273612   -0.676574    0.905796
      6          1           0        1.270485   -0.693049   -0.898486
      7          1           0       -1.273308   -0.676856    0.905877
      8          1           0       -1.270296   -0.693622   -0.898423
 ---------------------------------------------------------------------

 SCF Done:  E(RHF) =  -103.308567609     A.U. after    2 cycles

 The electronic state is 1-A.
 Alpha  occ. eigenvalues --  -11.21477 -11.21466  -7.62130  -1.04843  -0.81078
 Alpha  occ. eigenvalues --   -0.65902  -0.62136  -0.58863  -0.50844  -0.41171
 Alpha  occ. eigenvalues --   -0.38448
 Alpha virt. eigenvalues --    0.03181   0.04515   0.04812   0.04922   0.06566
 Alpha virt. eigenvalues --    0.07383   0.07542   0.09943   0.12153   0.12304
 Alpha virt. eigenvalues --    0.14050   0.14742   0.14889   0.17327   0.17787

 Mulliken charges:
               1
     1  B   -0.074740
     2  C    0.455284
     3  C    0.455254
     4  H    0.316916
     5  H   -0.288633
     6  H   -0.287746
     7  H   -0.288635
     8  H   -0.287699
 Sum of Mulliken charges =  -0.00000

 Dipole moment (field-independent basis, Debye):
    X=              0.0000    Y=              0.0018    Z=             -0.0224  Tot=              0.0225

 Test job not archived.
 1\1\GINC-SE457\SP\RHF\Aug-CC-pVDZ\C2H5B1\OHZDE\08-Apr-2025\0\\#t hf au
 g-cc-pvdz iop(5/13=1,5/36=2,99/5=2) pseudo=read geom=check guess=(read
 ,tcheck) scf=(maxcycle=1)\\title\\0,1\B,0,0.70593,0.00043,0.93795\C,0,
 1.19139,0.77206,-0.28576\C,0,1.19085,-0.77244,-0.28519\H,0,0.29663,0.0
 0091,2.04618\H,0,2.15232,1.27299,-0.26115\H,0,0.47638,1.27018,-0.92968
 \H,0,2.15148,-1.27393,-0.26004\H,0,0.47563,-1.2706,-0.92885\\Version=E
 S64L-G16RevC.01\State=1-A\HF=-103.3085676\RMSD=3.096e-03\Dipole=-0.008
 4787,0.0000087,-0.0025459\Quadrupole=1.4166975,-0.8419993,-0.5746981,-

 Normal termination of Gaussian 16 at Tue Apr  8 22:21:15 2025.
