 Gaussian 16, Revision C.01,

 ----------------------------------------------------------------------
 #t hf aug-cc-pvdz symm=none int=(grid=ultrafine) guess=(read,tcheck) s
 table=(opt,rrhf)
 ----------------------------------------------------------------------
 -----
 title
 -----
 Symbolic Z-matrix:
 Charge =  0 Multiplicity = 1

 SCF Done:  E(RHF) =  -255.962267157     A.U. after   14 cycles
 Normal termination of Gaussian 16 at Tue Apr  8 22:19:32 2025.
 Gaussian 16:  ES64L-G16RevC.01  3-Jul-2019

 ----------------------------------------------------------------------
 #t hf aug-cc-pvdz iop(5/13=1,5/36=2,99/5=2) pseudo=read geom=check gue
 ss=(read,tcheck) scf=(maxcycle=1)
 ----------------------------------------------------------------------
 -----
 title
 -----
 Structure from the checkpoint file:  "B-set_borepin_borazine_090_dimer_mol2.chk"
 Charge =  0 Multiplicity = 1

                         Standard orientation:
 ---------------------------------------------------------------------
 Center     Atomic      Atomic             Coordinates (Angstroms)
 Number     Number       Type             X           Y           Z
 ---------------------------------------------------------------------
      1          6           0       -0.685404   -1.409326    0.003342
      2          6           0        0.676009   -1.414182    0.004412
      3          6           0       -1.598662   -0.322761   -0.007585
      4          1           0       -1.150325   -2.388306    0.017790
      5          6           0        1.596310   -0.332725   -0.006508
      6          1           0        1.134026   -2.396473    0.016926
      7          6           0       -1.341280    1.014503   -0.005797
      8          1           0       -2.640304   -0.630238   -0.003673
      9          6           0        1.348549    1.006931   -0.002303
     10          1           0        2.636144   -0.647567   -0.014854
     11          1           0       -2.233357    1.635042   -0.004299
     12          5           0        0.005427    1.725443    0.011007
     13          1           0        2.244814    1.621877   -0.009808
     14          1           0        0.008736    2.923810    0.029516
 ---------------------------------------------------------------------

 SCF Done:  E(RHF) =  -256.038441126     A.U. after    2 cycles

 The electronic state is 1-A.
 Alpha  occ. eigenvalues --  -11.26542 -11.26524 -11.26348 -11.26216 -11.22525
 Alpha  occ. eigenvalues --  -11.22502  -7.57716  -1.11874  -1.04665  -0.99056
 Alpha  occ. eigenvalues --   -0.87690  -0.81658  -0.70554  -0.68942  -0.66948
 Alpha  occ. eigenvalues --   -0.62629  -0.58336  -0.53428  -0.53278  -0.48765
 Alpha  occ. eigenvalues --   -0.45800  -0.45740  -0.38261  -0.32345
 Alpha virt. eigenvalues --    0.03070   0.03816   0.04185   0.04830   0.05259
 Alpha virt. eigenvalues --    0.05639   0.05788   0.07165   0.07533   0.07833
 Alpha virt. eigenvalues --    0.08869   0.10227   0.12232   0.13095   0.13367

 Mulliken charges:
               1
     1  C    0.068978
     2  C    0.067985
     3  C    0.591435
     4  H   -0.482938
     5  C    0.590079
     6  H   -0.483300
     7  C    0.659708
     8  H   -0.435484
     9  C    0.657850
    10  H   -0.434720
    11  H   -0.467779
    12  B   -0.251685
    13  H   -0.467366
    14  H    0.387237
 Sum of Mulliken charges =  -0.00000

 Dipole moment (field-independent basis, Debye):
    X=             -0.0078    Y=             -1.9975    Z=              0.0110  Tot=              1.9976

 Test job not archived.
 1\1\GINC-SE362\SP\RHF\Aug-CC-pVDZ\C6H7B1\OHZDE\08-Apr-2025\0\\#t hf au
 g-cc-pvdz iop(5/13=1,5/36=2,99/5=2) pseudo=read geom=check guess=(read
 ,tcheck) scf=(maxcycle=1)\\title\\0,1\C,0,-1.1002,-1.1557,1.24379\C,0,
 -1.87153,-1.52215,0.18349\C,0,-0.73895,0.13441,1.71272\H,0,-0.6909,-1.
 97601,1.822\C,0,-2.55047,-0.72416,-0.77509\H,0,-1.98729,-2.59084,0.044
 45\C,0,-1.06616,1.35478,1.20463\H,0,-0.10247,0.11476,2.59254\C,0,-2.58
 928,0.63268,-0.89154\H,0,-3.10457,-1.30369,-1.50828\H,0,-0.64323,2.189
 83,1.75662\B,0,-1.91408,1.68172,-0.01745\H,0,-3.18812,0.98737,-1.72646

 Normal termination of Gaussian 16 at Tue Apr  8 22:19:36 2025.
