 Gaussian 16, Revision C.01,

 ----------------------------------------------------------------------
 #t hf aug-cc-pvdz symm=none int=(grid=ultrafine) guess=(read,tcheck) s
 table=(opt,rrhf)
 ----------------------------------------------------------------------
 -----
 title
 -----
 Symbolic Z-matrix:
 Charge =  0 Multiplicity = 1

 SCF Done:  E(RHF) =  -497.142090670     A.U. after   14 cycles
 Normal termination of Gaussian 16 at Tue Apr  8 22:25:06 2025.
 Gaussian 16:  ES64L-G16RevC.01  3-Jul-2019

 ----------------------------------------------------------------------
 #t hf aug-cc-pvdz iop(5/13=1,5/36=2,99/5=2) pseudo=read geom=check gue
 ss=(read,tcheck) scf=(maxcycle=1)
 ----------------------------------------------------------------------
 -----
 title
 -----
 Structure from the checkpoint file:  "B-set_borepin_borazine_100_dimer_mol1.chk"
 Charge =  0 Multiplicity = 1

                         Standard orientation:
 ---------------------------------------------------------------------
 Center     Atomic      Atomic             Coordinates (Angstroms)
 Number     Number       Type             X           Y           Z
 ---------------------------------------------------------------------
      1          6           0       -1.100200   -1.155703    1.243790
      2          6           0       -1.871529   -1.522153    0.183490
      3          6           0       -0.738951    0.134408    1.712720
      4          1           0       -0.690899   -1.976012    1.822000
      5          6           0       -2.550470   -0.724164   -0.775090
      6          1           0       -1.987288   -2.590843    0.044450
      7          6           0       -1.066162    1.354777    1.204630
      8          1           0       -0.102471    0.114758    2.592540
      9          6           0       -2.589281    0.632676   -0.891540
     10          1           0       -3.104570   -1.303694   -1.508280
     11          1           0       -0.643233    2.189828    1.756620
     12          5           0       -1.914082    1.681717   -0.017450
     13          1           0       -3.188122    0.987366   -1.726460
     14          1           0       -2.064523    2.835337   -0.305490
     15          5           0        2.879619   -0.025589    0.638940
     16          7           0        2.422918    1.190680    0.058510
     17          7           0        2.360270   -1.240730    0.105460
     18          1           0        3.664989   -0.029819    1.540520
     19          5           0        1.468248    1.227470   -1.001270
     20          1           0        2.770008    2.059341    0.421730
     21          5           0        1.419190   -1.271010   -0.967220
     22          1           0        2.675941   -2.110549    0.493680
     23          7           0        1.003179   -0.021321   -1.503890
     24          1           0        1.082187    2.263149   -1.453680
     25          1           0        1.005131   -2.305831   -1.398670
     26          1           0        0.312949   -0.015421   -2.232540
 ---------------------------------------------------------------------

 SCF Done:  E(RHF) =  -497.296460248     A.U. after    2 cycles

 The electronic state is 1-A.
 Alpha  occ. eigenvalues --  -15.59423 -15.59190 -15.58919 -11.26474 -11.26309
 Alpha  occ. eigenvalues --  -11.26207 -11.26077 -11.22432 -11.22290  -7.61073
 Alpha  occ. eigenvalues --   -7.60981  -7.60834  -7.57622  -1.15988  -1.11735
 Alpha  occ. eigenvalues --   -1.08980  -1.08803  -1.04518  -0.98931  -0.87574
 Alpha  occ. eigenvalues --   -0.81550  -0.73829  -0.71941  -0.71808  -0.70430
 Alpha  occ. eigenvalues --   -0.68828  -0.66836  -0.62481  -0.60344  -0.59847
 Alpha  occ. eigenvalues --   -0.59715  -0.58191  -0.54630  -0.53305  -0.53124
 Alpha  occ. eigenvalues --   -0.51946  -0.47837  -0.46742  -0.46695  -0.45689
 Alpha  occ. eigenvalues --   -0.45617  -0.40291  -0.39996  -0.38021  -0.32118
 Alpha virt. eigenvalues --    0.02587   0.03056   0.03358   0.03777   0.04896
 Alpha virt. eigenvalues --    0.05121   0.05232   0.05630   0.05826   0.05890
 Alpha virt. eigenvalues --    0.06568   0.07130   0.07492   0.07857   0.08033

 Mulliken charges:
               1
     1  C    0.248837
     2  C    0.225497
     3  C    1.017436
     4  H   -0.606456
     5  C    0.676869
     6  H   -0.545940
     7  C    0.687758
     8  H   -0.548162
     9  C    0.640920
    10  H   -0.499950
    11  H   -0.577972
    12  B   -0.924455
    13  H   -0.513636
    14  H    0.600895
    15  B   -0.220579
    16  N   -0.097248
    17  N   -0.099474
    18  H    0.321262
    19  B   -0.073490
    20  H   -0.169347
    21  B   -0.098784
    22  H   -0.151615
    23  N    0.065201
    24  H    0.425817
    25  H    0.358341
    26  H   -0.141724
 Sum of Mulliken charges =   0.00000

 Dipole moment (field-independent basis, Debye):
    X=              0.1454    Y=             -1.8112    Z=              0.5127  Tot=              1.8879

 Test job not archived.
 1\1\GINC-SE048\SP\RHF\Aug-CC-pVDZ\C6H13B4N3\OHZDE\08-Apr-2025\0\\#t hf
  aug-cc-pvdz iop(5/13=1,5/36=2,99/5=2) pseudo=read geom=check guess=(r
 ead,tcheck) scf=(maxcycle=1)\\title\\0,1\C,0,-1.1002,-1.1557,1.24379\C
 ,0,-1.87153,-1.52215,0.18349\C,0,-0.73895,0.13441,1.71272\H,0,-0.6909,
 -1.97601,1.822\C,0,-2.55047,-0.72416,-0.77509\H,0,-1.98729,-2.59084,0.
 04445\C,0,-1.06616,1.35478,1.20463\H,0,-0.10247,0.11476,2.59254\C,0,-2
 .58928,0.63268,-0.89154\H,0,-3.10457,-1.30369,-1.50828\H,0,-0.64323,2.
 18983,1.75662\B,0,-1.91408,1.68172,-0.01745\H,0,-3.18812,0.98737,-1.72

 Normal termination of Gaussian 16 at Tue Apr  8 22:25:32 2025.
