 Gaussian 16, Revision C.01,

 ----------------------------------------------------------------------
 #t hf aug-cc-pvdz symm=none int=(grid=ultrafine) guess=(read,tcheck) s
 table=(opt,rrhf)
 ----------------------------------------------------------------------
 -----
 title
 -----
 Symbolic Z-matrix:
 Charge =  0 Multiplicity = 1

 SCF Done:  E(RHF) =  -481.965260678     A.U. after   14 cycles
 Normal termination of Gaussian 16 at Tue Apr  8 22:21:26 2025.
 Gaussian 16:  ES64L-G16RevC.01  3-Jul-2019

 ----------------------------------------------------------------------
 #t hf aug-cc-pvdz iop(5/13=1,5/36=2,99/5=2) pseudo=read geom=check gue
 ss=(read,tcheck) scf=(maxcycle=1)
 ----------------------------------------------------------------------
 -----
 title
 -----
 Structure from the checkpoint file:  "B-set_boricacid_benzene_095_dimer_mol1.chk"
 Charge =  0 Multiplicity = 1

                         Standard orientation:
 ---------------------------------------------------------------------
 Center     Atomic      Atomic             Coordinates (Angstroms)
 Number     Number       Type             X           Y           Z
 ---------------------------------------------------------------------
      1          5           0        2.349541   -0.200844   -0.004834
      2          8           0        3.627790   -0.688503   -0.021897
      3          8           0        1.294701   -1.058555   -0.018753
      4          8           0        2.154815    1.154284    0.026338
      5          1           0        3.651787   -1.643076   -0.043274
      6          1           0        0.443439   -0.615424   -0.005115
      7          1           0        2.980714    1.634266    0.033035
      8          6           0       -2.586373   -0.724175   -0.726177
      9          6           0       -1.789895    0.202140   -1.382880
     10          6           0       -2.594267   -0.773973    0.659800
     11          1           0       -3.198435   -1.410462   -1.295121
     12          6           0       -0.999699    1.078942   -0.653346
     13          1           0       -1.780000    0.237686   -2.463557
     14          6           0       -1.805723    0.102572    1.390274
     15          1           0       -3.212402   -1.499100    1.171090
     16          6           0       -1.007673    1.029123    0.734431
     17          1           0       -0.363254    1.790899   -1.159499
     18          1           0       -1.808212    0.060653    2.470765
     19          1           0       -0.378005    1.703205    1.297743
 ---------------------------------------------------------------------

 SCF Done:  E(RHF) =  -482.123978985     A.U. after    2 cycles

 The electronic state is 1-A.
 Alpha  occ. eigenvalues --  -20.57609 -20.57381 -20.56349 -11.24916 -11.24867
 Alpha  occ. eigenvalues --  -11.24802 -11.24730 -11.24661 -11.24558  -7.67734
 Alpha  occ. eigenvalues --   -1.35420  -1.30737  -1.30125  -1.15218  -1.01768
 Alpha  occ. eigenvalues --   -1.01754  -0.83234  -0.83174  -0.78730  -0.75116
 Alpha  occ. eigenvalues --   -0.74896  -0.72067  -0.64861  -0.63304  -0.61005
 Alpha  occ. eigenvalues --   -0.60051  -0.59828  -0.58579  -0.58228  -0.57424
 Alpha  occ. eigenvalues --   -0.52325  -0.51558  -0.51325  -0.50229  -0.50170
 Alpha  occ. eigenvalues --   -0.34826  -0.34789
 Alpha virt. eigenvalues --    0.03195   0.03911   0.04191   0.05136   0.05624
 Alpha virt. eigenvalues --    0.05824   0.06552   0.07158   0.07589   0.07680
 Alpha virt. eigenvalues --    0.09837   0.10047   0.10457   0.10990   0.12797

 Mulliken charges:
               1
     1  B    0.769508
     2  O   -0.480584
     3  O   -0.384123
     4  O   -0.486064
     5  H    0.167467
     6  H    0.281748
     7  H    0.186832
     8  C    0.435829
     9  C    0.444334
    10  C    0.433567
    11  H   -0.449275
    12  C    0.528360
    13  H   -0.471968
    14  C    0.446205
    15  H   -0.448834
    16  C    0.520691
    17  H   -0.511440
    18  H   -0.471456
    19  H   -0.510796
 Sum of Mulliken charges =  -0.00000

 Dipole moment (field-independent basis, Debye):
    X=             -0.4392    Y=              0.1462    Z=             -0.0002  Tot=              0.4629

 Test job not archived.
 1\1\GINC-SE339\SP\RHF\Aug-CC-pVDZ\C6H9B1O3\OHZDE\08-Apr-2025\0\\#t hf
 aug-cc-pvdz iop(5/13=1,5/36=2,99/5=2) pseudo=read geom=check guess=(re
 ad,tcheck) scf=(maxcycle=1)\\title\\0,1\B,0,2.47525,0.1904,0.00446\O,0
 ,3.75759,0.66722,0.02093\O,0,1.42772,1.05703,0.01798\O,0,2.26904,-1.16
 305,-0.02572\H,0,3.78968,1.62157,0.04163\H,0,0.57273,0.62112,0.00482\H
 ,0,3.09084,-1.65002,-0.03224\C,0,-2.45590624,0.75605226,0.7263947\C,0,
 -1.66717624,-0.17651774,1.3835947\C,0,-2.46365624,0.80494226,-0.659615
 3\H,0,-3.06201624,1.44790226,1.2949747\C,0,-0.88458624,-1.06049774,0.6

 Normal termination of Gaussian 16 at Tue Apr  8 22:21:36 2025.
