 Gaussian 16, Revision C.01,

 ----------------------------------------------------------------------
 #t hf aug-cc-pvdz symm=none int=(grid=ultrafine) guess=(read,tcheck) s
 table=(opt,rrhf)
 ----------------------------------------------------------------------
 -----
 title
 -----
 Symbolic Z-matrix:
 Charge =  0 Multiplicity = 1

 SCF Done:  E(RHF) =  -503.172368416     A.U. after   12 cycles
 Normal termination of Gaussian 16 at Tue Apr  8 22:19:21 2025.
 Gaussian 16:  ES64L-G16RevC.01  3-Jul-2019

 ----------------------------------------------------------------------
 #t hf aug-cc-pvdz iop(5/13=1,5/36=2,99/5=2) pseudo=read geom=check gue
 ss=(read,tcheck) scf=(maxcycle=1)
 ----------------------------------------------------------------------
 -----
 title
 -----
 Structure from the checkpoint file:  "B-set_borane_dms_100_dimer_mol1.chk"
 Charge =  0 Multiplicity = 1

                         Standard orientation:
 ---------------------------------------------------------------------
 Center     Atomic      Atomic             Coordinates (Angstroms)
 Number     Number       Type             X           Y           Z
 ---------------------------------------------------------------------
      1          5           0       -1.779209   -0.002933    0.306240
      2          1           0       -1.550189   -0.002201    1.494500
      3          1           0       -2.283165   -1.015939   -0.114480
      4          1           0       -2.286402    1.008210   -0.115090
      5         16           0       -0.023749   -0.000100   -0.530290
      6          6           0        0.803858    1.377603    0.266010
      7          1           0        1.854277    1.394839   -0.013690
      8          1           0        0.313401    2.282657   -0.082310
      9          1           0        0.683783    1.293327    1.343970
     10          6           0        0.808693   -1.374866    0.266060
     11          1           0        0.321781   -2.281712   -0.082570
     12          1           0        1.859254   -1.388111   -0.013310
     13          1           0        0.687979   -1.291223    1.343990
 ---------------------------------------------------------------------

 SCF Done:  E(RHF) =  -503.235073669     A.U. after    2 cycles

 The electronic state is 1-A.
 Alpha  occ. eigenvalues --  -93.58741 -11.28502 -11.28484  -8.88513  -7.54415
 Alpha  occ. eigenvalues --   -6.22658  -6.22528  -6.22268  -1.10496  -0.98109
 Alpha  occ. eigenvalues --   -0.85775  -0.68976  -0.64074  -0.61433  -0.61233
 Alpha  occ. eigenvalues --   -0.59849  -0.53577  -0.48752  -0.42746  -0.42689
 Alpha  occ. eigenvalues --   -0.39773
 Alpha virt. eigenvalues --    0.02771   0.04322   0.04876   0.05121   0.06463
 Alpha virt. eigenvalues --    0.06668   0.07444   0.07587   0.09028   0.09307
 Alpha virt. eigenvalues --    0.11604   0.12917   0.12934   0.14168   0.14286

 Mulliken charges:
               1
     1  B   -0.391078
     2  H    0.125099
     3  H    0.162894
     4  H    0.162719
     5  S    0.073003
     6  C    0.214282
     7  H   -0.102444
     8  H   -0.093222
     9  H   -0.084893
    10  C    0.214268
    11  H   -0.093243
    12  H   -0.102439
    13  H   -0.084947
 Sum of Mulliken charges =  -0.00000

 Dipole moment (field-independent basis, Debye):
    X=              4.8377    Y=              0.0079    Z=             -0.0315  Tot=              4.8378

 Test job not archived.
 1\1\GINC-SE424\SP\RHF\Aug-CC-pVDZ\C2H9B1S1\OHZDE\08-Apr-2025\0\\#t hf
 aug-cc-pvdz iop(5/13=1,5/36=2,99/5=2) pseudo=read geom=check guess=(re
 ad,tcheck) scf=(maxcycle=1)\\title\\0,1\B,0,1.77921,0.00284,0.30624\H,
 0,1.55019,0.00212,1.4945\H,0,2.28322,1.01582,-0.11448\H,0,2.28635,-1.0
 0833,-0.11509\S,0,0.02375,0.0001,-0.53029\C,0,-0.80393,-1.37756,0.2660
 1\H,0,-1.85435,-1.39474,-0.01369\H,0,-0.31352,-2.28264,-0.08231\H,0,-0
 .68385,-1.29329,1.34397\C,0,-0.80862,1.37491,0.26606\H,0,-0.32166,2.28
 173,-0.08257\H,0,-1.85918,1.38821,-0.01331\H,0,-0.68791,1.29126,1.3439

 Normal termination of Gaussian 16 at Tue Apr  8 22:19:24 2025.
