 Gaussian 16, Revision C.01,

 ----------------------------------------------------------------------
 #t hf aug-cc-pvdz symm=none int=(grid=ultrafine) guess=(read,tcheck) s
 table=(opt,rrhf)
 ----------------------------------------------------------------------
 -----
 title
 -----
 Symbolic Z-matrix:
 Charge =  0 Multiplicity = 1

 SCF Done:  E(RHF) =  -464.895448977     A.U. after   15 cycles
 Normal termination of Gaussian 16 at Tue Apr  8 22:22:11 2025.
 Gaussian 16:  ES64L-G16RevC.01  3-Jul-2019

 ----------------------------------------------------------------------
 #t hf aug-cc-pvdz iop(5/13=1,5/36=2,99/5=2) pseudo=read geom=check gue
 ss=(read,tcheck) scf=(maxcycle=1)
 ----------------------------------------------------------------------
 -----
 title
 -----
 Structure from the checkpoint file:  "B-set_azaborine_benzene_110_dimer_mol1.chk"
 Charge =  0 Multiplicity = 1

                         Standard orientation:
 ---------------------------------------------------------------------
 Center     Atomic      Atomic             Coordinates (Angstroms)
 Number     Number       Type             X           Y           Z
 ---------------------------------------------------------------------
      1          7           0        1.220980    0.199052   -0.055398
      2          5           0        2.024859    1.376909   -0.031015
      3          6           0        1.732108   -1.057225   -0.037649
      4          1           0        0.215767    0.261359   -0.085915
      5          6           0        3.514265    1.127391    0.015778
      6          1           0        1.470220    2.434726   -0.048987
      7          6           0        3.072775   -1.267028    0.004534
      8          1           0        1.021367   -1.871887   -0.058332
      9          6           0        3.962975   -0.162619    0.031072
     10          1           0        4.249097    1.922671    0.038025
     11          1           0        3.450041   -2.278412    0.017727
     12          1           0        5.025966   -0.377429    0.064431
     13          6           0       -2.535280   -0.168325    1.390277
     14          6           0       -2.591970    1.105701    0.843874
     15          6           0       -2.511121   -1.279131    0.559284
     16          1           0       -2.504334   -0.295120    2.463464
     17          6           0       -2.623802    1.269111   -0.533763
     18          1           0       -2.602584    1.971643    1.490840
     19          6           0       -2.542773   -1.116072   -0.818432
     20          1           0       -2.466812   -2.271910    0.985867
     21          6           0       -2.598923    0.158164   -1.364955
     22          1           0       -2.659442    2.262162   -0.959387
     23          1           0       -2.522378   -1.981362   -1.466659
     24          1           0       -2.617578    0.285838   -2.438329
 ---------------------------------------------------------------------

 SCF Done:  E(RHF) =  -465.035973774     A.U. after    2 cycles

 The electronic state is 1-A.
 Alpha  occ. eigenvalues --  -15.63986 -11.28593 -11.25563 -11.25491 -11.25474
 Alpha  occ. eigenvalues --  -11.25382 -11.25356 -11.25295 -11.24648 -11.22194
 Alpha  occ. eigenvalues --  -11.19418  -7.57742  -1.20615  -1.15757  -1.05836
 Alpha  occ. eigenvalues --   -1.02343  -1.02331  -0.96496  -0.83844  -0.83837
 Alpha  occ. eigenvalues --   -0.82599  -0.77478  -0.72750  -0.72302  -0.65540
 Alpha  occ. eigenvalues --   -0.63929  -0.62469  -0.62049  -0.60445  -0.60433
 Alpha  occ. eigenvalues --   -0.59285  -0.55222  -0.52841  -0.52100  -0.50918
 Alpha  occ. eigenvalues --   -0.50908  -0.48246  -0.45379  -0.38710  -0.35397
 Alpha  occ. eigenvalues --   -0.35340  -0.30026
 Alpha virt. eigenvalues --    0.02913   0.03604   0.03824   0.04151   0.05358
 Alpha virt. eigenvalues --    0.05481   0.05611   0.06132   0.06887   0.07422
 Alpha virt. eigenvalues --    0.07539   0.08097   0.08677   0.09356   0.09808

 Mulliken charges:
               1
     1  N   -0.007589
     2  B   -0.355999
     3  C    0.738663
     4  H   -0.083164
     5  C    0.716588
     6  H    0.383463
     7  C    0.464513
     8  H   -0.522303
     9  C   -0.023658
    10  H   -0.463136
    11  H   -0.442629
    12  H   -0.431205
    13  C    0.511761
    14  C    0.525686
    15  C    0.510252
    16  H   -0.493276
    17  C    0.486466
    18  H   -0.509780
    19  C    0.503628
    20  H   -0.525730
    21  C    0.550969
    22  H   -0.509978
    23  H   -0.521210
    24  H   -0.502331
 Sum of Mulliken charges =  -0.00000

 Dipole moment (field-independent basis, Debye):
    X=             -1.9947    Y=             -1.4642    Z=             -0.0137  Tot=              2.4744

 Test job not archived.
 1\1\GINC-SE220\SP\RHF\Aug-CC-pVDZ\C10H12B1N1\OHZDE\08-Apr-2025\0\\#t h
 f aug-cc-pvdz iop(5/13=1,5/36=2,99/5=2) pseudo=read geom=check guess=(
 read,tcheck) scf=(maxcycle=1)\\title\\0,1\N,0,-0.98689,0.19856,0.05529
 \B,0,-1.78972,1.37715,0.03178\C,0,-1.49918,-1.05725,0.03801\H,0,0.0184
 1,0.25995,0.08478\C,0,-3.2794,1.12899,-0.0135\H,0,-1.2341,2.43446,0.04
 923\C,0,-2.84008,-1.26583,-0.00281\H,0,-0.78916,-1.87256,0.05793\C,0,-
 3.7293,-0.16061,-0.02839\H,0,-4.01353,1.92494,-0.03496\H,0,-3.21828,-2
 .27687,-0.01566\H,0,-4.79252,-0.37445,-0.06067\C,0,2.76755242,-0.17217

 Normal termination of Gaussian 16 at Tue Apr  8 22:22:30 2025.
