 Gaussian 16, Revision C.01,

 ----------------------------------------------------------------------
 #t hf aug-cc-pvdz symm=none int=(grid=ultrafine) guess=(read,tcheck) s
 table=(opt,rrhf)
 ----------------------------------------------------------------------
 -----
 title
 -----
 Symbolic Z-matrix:
 Charge =  0 Multiplicity = 1

 SCF Done:  E(RHF) =  -481.928950635     A.U. after   14 cycles
 Normal termination of Gaussian 16 at Tue Apr  8 22:24:34 2025.
 Gaussian 16:  ES64L-G16RevC.01  3-Jul-2019

 ----------------------------------------------------------------------
 #t hf aug-cc-pvdz iop(5/13=1,5/36=2,99/5=2) pseudo=read geom=check gue
 ss=(read,tcheck) scf=(maxcycle=1)
 ----------------------------------------------------------------------
 -----
 title
 -----
 Structure from the checkpoint file:  "B-set_phenylboronicacid_h2o_100_dimer_mol1.chk"
 Charge =  0 Multiplicity = 1

                         Standard orientation:
 ---------------------------------------------------------------------
 Center     Atomic      Atomic             Coordinates (Angstroms)
 Number     Number       Type             X           Y           Z
 ---------------------------------------------------------------------
      1          6           0       -1.259530    1.196709   -0.000100
      2          6           0       -2.645080    1.199668    0.000810
      3          6           0       -0.540999    0.000320   -0.000600
      4          1           0       -0.720220    2.134889   -0.000400
      5          6           0       -3.339129   -0.001072    0.001210
      6          1           0       -3.185620    2.136798    0.001170
      7          6           0       -1.258339   -1.196781   -0.000160
      8          5           0        1.025441    0.001060   -0.001600
      9          6           0       -2.643889   -1.201122    0.000700
     10          1           0       -4.421109   -0.001603    0.001890
     11          1           0       -0.718108   -2.134431   -0.000570
     12          8           0        1.682420    1.200311   -0.002030
     13          8           0        1.683731   -1.197479   -0.001940
     14          1           0       -3.183498   -2.138782    0.001000
     15          1           0        2.637770    1.106221   -0.002390
     16          1           0        2.638971   -1.101629   -0.002480
     17          8           0        4.387061   -0.001188    0.002410
     18          1           0        4.956151   -0.003827    0.771060
     19          1           0        4.964551   -0.002427   -0.759970
 ---------------------------------------------------------------------

 SCF Done:  E(RHF) =  -482.082912242     A.U. after    2 cycles

 The electronic state is 1-A.
 Alpha  occ. eigenvalues --  -20.63203 -20.55982 -20.55973 -11.23271 -11.22703
 Alpha  occ. eigenvalues --  -11.22701 -11.22513 -11.22510 -11.20230  -7.63751
 Alpha  occ. eigenvalues --   -1.37077  -1.32776  -1.28753  -1.12734  -0.99482
 Alpha  occ. eigenvalues --   -0.99452  -0.82048  -0.81269  -0.79141  -0.75952
 Alpha  occ. eigenvalues --   -0.73197  -0.68926  -0.67199  -0.62535  -0.61696
 Alpha  occ. eigenvalues --   -0.60805  -0.58593  -0.57585  -0.57336  -0.54752
 Alpha  occ. eigenvalues --   -0.53308  -0.50446  -0.48944  -0.47622  -0.46007
 Alpha  occ. eigenvalues --   -0.32621  -0.32444
 Alpha virt. eigenvalues --    0.01651   0.04285   0.04490   0.04938   0.05452
 Alpha virt. eigenvalues --    0.06226   0.07104   0.07159   0.08392   0.08701
 Alpha virt. eigenvalues --    0.09368   0.10521   0.10731   0.10957   0.12392

 Mulliken charges:
               1
     1  C    0.280152
     2  C    0.572697
     3  C    0.052607
     4  H   -0.638007
     5  C    0.767978
     6  H   -0.447277
     7  C    0.280481
     8  B    0.636043
     9  C    0.572680
    10  H   -0.449648
    11  H   -0.638041
    12  O   -0.479205
    13  O   -0.479172
    14  H   -0.447285
    15  H    0.217332
    16  H    0.218006
    17  O   -0.417218
    18  H    0.199009
    19  H    0.198867
 Sum of Mulliken charges =  -0.00000

 Dipole moment (field-independent basis, Debye):
    X=              5.4695    Y=             -0.0045    Z=              0.0110  Tot=              5.4696

 Test job not archived.
 1\1\GINC-SE059\SP\RHF\Aug-CC-pVDZ\C6H9B1O3\OHZDE\08-Apr-2025\0\\#t hf
 aug-cc-pvdz iop(5/13=1,5/36=2,99/5=2) pseudo=read geom=check guess=(re
 ad,tcheck) scf=(maxcycle=1)\\title\\0,1\C,0,1.25953,-1.19671,-0.0001\C
 ,0,2.64508,-1.19967,0.00081\C,0,0.541,-0.00032,-0.0006\H,0,0.72022,-2.
 13489,-0.0004\C,0,3.33913,0.00107,0.00121\H,0,3.18562,-2.1368,0.00117\
 C,0,1.25834,1.19678,-0.00016\B,0,-1.02544,-0.00106,-0.0016\C,0,2.64389
 ,1.20112,0.0007\H,0,4.42111,0.0016,0.00189\H,0,0.71811,2.13443,-0.0005
 7\O,0,-1.68242,-1.20031,-0.00203\O,0,-1.68373,1.19748,-0.00194\H,0,3.1

 Normal termination of Gaussian 16 at Tue Apr  8 22:24:52 2025.
