 Gaussian 16, Revision C.01,

 ----------------------------------------------------------------------
 #t hf aug-cc-pvdz symm=none int=(grid=ultrafine) guess=(read,tcheck) s
 table=(opt,rrhf)
 ----------------------------------------------------------------------
 -----
 title
 -----
 Symbolic Z-matrix:
 Charge =  0 Multiplicity = 1

 SCF Done:  E(RHF) =  -463.630115143     A.U. after   14 cycles
 Normal termination of Gaussian 16 at Tue Apr  8 22:22:46 2025.
 Gaussian 16:  ES64L-G16RevC.01  3-Jul-2019

 ----------------------------------------------------------------------
 #t hf aug-cc-pvdz iop(5/13=1,5/36=2,99/5=2) pseudo=read geom=check gue
 ss=(read,tcheck) scf=(maxcycle=1)
 ----------------------------------------------------------------------
 -----
 title
 -----
 Structure from the checkpoint file:  "B-set_borabenzene_pyridine_150_dimer_mol1.chk"
 Charge =  0 Multiplicity = 1

                         Standard orientation:
 ---------------------------------------------------------------------
 Center     Atomic      Atomic             Coordinates (Angstroms)
 Number     Number       Type             X           Y           Z
 ---------------------------------------------------------------------
      1          6           0       -1.899649    1.234663    0.364072
      2          6           0       -3.287219    1.163903    0.350052
      3          6           0       -3.967530   -0.000026   -0.000078
      4          6           0       -3.287121   -1.163937   -0.350038
      5          6           0       -1.899491   -1.234707   -0.364178
      6          1           0       -5.049800   -0.000045   -0.000148
      7          1           0       -1.454728    2.174542    0.680842
      8          1           0       -3.874668    2.033734    0.625782
      9          1           0       -3.874551   -2.033656   -0.626148
     10          1           0       -1.454921   -2.174498   -0.681678
     11          5           0       -1.157900   -0.000008   -0.000008
     12          6           0        1.847384   -1.092100    0.383707
     13          6           0        3.223264   -1.127051    0.387057
     14          6           0        3.928745    0.000009   -0.000153
     15          6           0        3.223166    1.127129   -0.387073
     16          6           0        1.847306    1.092100   -0.383403
     17          7           0        1.168435   -0.000010    0.000157
     18          1           0        5.009285    0.000008   -0.000263
     19          1           0        1.240114   -1.927050    0.697057
     20          1           0        3.728494   -2.027261    0.701957
     21          1           0        3.728297    2.027409   -0.701933
     22          1           0        1.239787    1.927030   -0.696323
 ---------------------------------------------------------------------

 SCF Done:  E(RHF) =  -463.765467195     A.U. after    2 cycles

 The electronic state is 1-A.
 Alpha  occ. eigenvalues --  -15.68763 -11.32012 -11.31999 -11.29935 -11.27865
 Alpha  occ. eigenvalues --  -11.27863 -11.21955 -11.21951 -11.19549 -11.19187
 Alpha  occ. eigenvalues --  -11.19169  -7.61424  -1.27207  -1.11216  -1.07606
 Alpha  occ. eigenvalues --   -1.06843  -0.97082  -0.89781  -0.89306  -0.89166
 Alpha  occ. eigenvalues --   -0.77079  -0.76268  -0.70786  -0.70241  -0.68420
 Alpha  occ. eigenvalues --   -0.65250  -0.64031  -0.61482  -0.58363  -0.55898
 Alpha  occ. eigenvalues --   -0.55737  -0.55487  -0.55056  -0.49760  -0.45872
 Alpha  occ. eigenvalues --   -0.45353  -0.43802  -0.42054  -0.38482  -0.31212
 Alpha  occ. eigenvalues --   -0.26354
 Alpha virt. eigenvalues --    0.02009   0.03060   0.04020   0.04915   0.05040
 Alpha virt. eigenvalues --    0.05531   0.06224   0.06284   0.06742   0.07368
 Alpha virt. eigenvalues --    0.07762   0.08229   0.09051   0.09391   0.09577

 Mulliken charges:
               1
     1  C    0.728215
     2  C    0.203713
     3  C   -0.000795
     4  C    0.203640
     5  C    0.728182
     6  H   -0.493307
     7  H   -0.584417
     8  H   -0.480527
     9  H   -0.480622
    10  H   -0.584199
    11  B    0.710210
    12  C    0.508280
    13  C    0.904134
    14  C   -0.147488
    15  C    0.904253
    16  C    0.507998
    17  N   -0.395578
    18  H   -0.415973
    19  H   -0.496650
    20  H   -0.411148
    21  H   -0.411104
    22  H   -0.496817
 Sum of Mulliken charges =  -0.00000

 Dipole moment (field-independent basis, Debye):
    X=              7.1942    Y=              0.0004    Z=             -0.0005  Tot=              7.1942

 Test job not archived.
 1\1\GINC-SE059\SP\RHF\Aug-CC-pVDZ\C10H10B1N1\OHZDE\08-Apr-2025\0\\#t h
 f aug-cc-pvdz iop(5/13=1,5/36=2,99/5=2) pseudo=read geom=check guess=(
 read,tcheck) scf=(maxcycle=1)\\title\\0,1\C,0,1.50247,-1.23466,0.3641\
 C,0,2.89004,-1.1639,0.35008\C,0,3.57035,0.00003,-0.00005\C,0,2.88994,1
 .16394,-0.35001\C,0,1.50231,1.23471,-0.36415\H,0,4.65262,0.00005,-0.00
 012\H,0,1.05755,-2.17454,0.68087\H,0,3.47749,-2.03373,0.62581\H,0,3.47
 737,2.03366,-0.62612\H,0,1.05774,2.1745,-0.68165\B,0,0.76072,0.00001,0
 .00002\C,0,-2.244565,1.0921,0.383735\C,0,-3.620445,1.12705,0.387085\C,

 Normal termination of Gaussian 16 at Tue Apr  8 22:23:02 2025.
