 Gaussian 16, Revision C.01,

 ----------------------------------------------------------------------
 #t hf aug-cc-pvdz symm=none int=(grid=ultrafine) guess=(read,tcheck) s
 table=(opt,rrhf)
 ----------------------------------------------------------------------
 -----
 title
 -----
 Symbolic Z-matrix:
 Charge =  0 Multiplicity = 1

 SCF Done:  E(RHF) =  -481.959765906     A.U. after   14 cycles
 Normal termination of Gaussian 16 at Tue Apr  8 22:21:29 2025.
 Gaussian 16:  ES64L-G16RevC.01  3-Jul-2019

 ----------------------------------------------------------------------
 #t hf aug-cc-pvdz iop(5/13=1,5/36=2,99/5=2) pseudo=read geom=check gue
 ss=(read,tcheck) scf=(maxcycle=1)
 ----------------------------------------------------------------------
 -----
 title
 -----
 Structure from the checkpoint file:  "B-set_boricacid_benzene_090_dimer_mol1.chk"
 Charge =  0 Multiplicity = 1

                         Standard orientation:
 ---------------------------------------------------------------------
 Center     Atomic      Atomic             Coordinates (Angstroms)
 Number     Number       Type             X           Y           Z
 ---------------------------------------------------------------------
      1          5           0        2.223527   -0.212495   -0.005291
      2          8           0        3.496846   -0.712860   -0.023099
      3          8           0        1.160184   -1.059633   -0.019715
      4          8           0        2.042330    1.144478    0.027132
      5          1           0        3.511319   -1.667605   -0.045330
      6          1           0        0.313386   -0.608049   -0.005475
      7          1           0        2.872975    1.616196    0.034054
      8          6           0       -2.499241   -0.706664   -0.726414
      9          6           0       -1.693721    0.212247   -1.382488
     10          6           0       -2.507305   -0.757616    0.659520
     11          1           0       -3.118249   -1.386308   -1.295818
     12          6           0       -0.894650    1.080477   -0.652368
     13          1           0       -1.683727    0.248656   -2.463135
     14          6           0       -1.709889    0.110372    1.390580
     15          1           0       -3.132519   -1.476999    1.170317
     16          6           0       -0.902794    1.029503    0.735366
     17          1           0       -0.251257    1.786503   -1.158043
     18          1           0       -1.712541    0.067517    2.471034
     19          1           0       -0.266303    1.696771    1.299123
 ---------------------------------------------------------------------

 SCF Done:  E(RHF) =  -482.118279191     A.U. after    2 cycles

 The electronic state is 1-A.
 Alpha  occ. eigenvalues --  -20.57558 -20.57281 -20.55931 -11.24916 -11.24857
 Alpha  occ. eigenvalues --  -11.24785 -11.24730 -11.24574 -11.24464  -7.67590
 Alpha  occ. eigenvalues --   -1.35335  -1.30703  -1.29923  -1.15282  -1.01803
 Alpha  occ. eigenvalues --   -1.01774  -0.83243  -0.83161  -0.78647  -0.75104
 Alpha  occ. eigenvalues --   -0.74845  -0.72029  -0.64855  -0.63308  -0.60911
 Alpha  occ. eigenvalues --   -0.60271  -0.59817  -0.58527  -0.58063  -0.57245
 Alpha  occ. eigenvalues --   -0.52350  -0.51345  -0.51097  -0.50206  -0.50059
 Alpha  occ. eigenvalues --   -0.34860  -0.34738
 Alpha virt. eigenvalues --    0.03160   0.03917   0.04205   0.05172   0.05625
 Alpha virt. eigenvalues --    0.05812   0.06575   0.07168   0.07631   0.07665
 Alpha virt. eigenvalues --    0.09885   0.10112   0.10485   0.11122   0.12463

 Mulliken charges:
               1
     1  B    0.755498
     2  O   -0.491716
     3  O   -0.385589
     4  O   -0.498150
     5  H    0.163187
     6  H    0.330932
     7  H    0.188839
     8  C    0.437579
     9  C    0.463229
    10  C    0.435484
    11  H   -0.453209
    12  C    0.502059
    13  H   -0.476748
    14  C    0.465001
    15  H   -0.452865
    16  C    0.498146
    17  H   -0.502579
    18  H   -0.476359
    19  H   -0.502739
 Sum of Mulliken charges =  -0.00000

 Dipole moment (field-independent basis, Debye):
    X=             -0.4136    Y=              0.2083    Z=              0.0013  Tot=              0.4631

 Test job not archived.
 1\1\GINC-SE393\SP\RHF\Aug-CC-pVDZ\C6H9B1O3\OHZDE\08-Apr-2025\0\\#t hf
 aug-cc-pvdz iop(5/13=1,5/36=2,99/5=2) pseudo=read geom=check guess=(re
 ad,tcheck) scf=(maxcycle=1)\\title\\0,1\B,0,2.47525,0.1904,0.00446\O,0
 ,3.75759,0.66722,0.02093\O,0,1.42772,1.05703,0.01798\O,0,2.26904,-1.16
 305,-0.02572\H,0,3.78968,1.62157,0.04163\H,0,0.57273,0.62112,0.00482\H
 ,0,3.09084,-1.65002,-0.03224\C,0,-2.23727249,0.77274452,0.72678939\C,0
 ,-1.44854249,-0.15982548,1.38398939\C,0,-2.24502249,0.82163452,-0.6592
 2061\H,0,-2.84338249,1.46459452,1.29536939\C,0,-0.66595249,-1.04380548

 Normal termination of Gaussian 16 at Tue Apr  8 22:21:39 2025.
