 Gaussian 16, Revision C.01,

 ----------------------------------------------------------------------
 #t hf aug-cc-pvdz symm=none int=(grid=ultrafine) guess=(read,tcheck) s
 table=(opt,rrhf)
 ----------------------------------------------------------------------
 -----
 title
 -----
 Symbolic Z-matrix:
 Charge =  0 Multiplicity = 1

 SCF Done:  E(RHF) =  -497.147202563     A.U. after   14 cycles
 Normal termination of Gaussian 16 at Tue Apr  8 22:25:14 2025.
 Gaussian 16:  ES64L-G16RevC.01  3-Jul-2019

 ----------------------------------------------------------------------
 #t hf aug-cc-pvdz iop(5/13=1,5/36=2,99/5=2) pseudo=read geom=check gue
 ss=(read,tcheck) scf=(maxcycle=1)
 ----------------------------------------------------------------------
 -----
 title
 -----
 Structure from the checkpoint file:  "B-set_borepin_borazine_125_dimer_mol1.chk"
 Charge =  0 Multiplicity = 1

                         Standard orientation:
 ---------------------------------------------------------------------
 Center     Atomic      Atomic             Coordinates (Angstroms)
 Number     Number       Type             X           Y           Z
 ---------------------------------------------------------------------
      1          6           0       -1.631227   -1.143260    1.207413
      2          6           0       -2.297695   -1.529462    0.084853
      3          6           0       -1.324528    0.155625    1.690749
      4          1           0       -1.271750   -1.952778    1.832089
      5          6           0       -2.890007   -0.749303   -0.943321
      6          1           0       -2.392324   -2.600748   -0.050137
      7          6           0       -1.611680    1.366726    1.138207
      8          1           0       -0.772725    0.152371    2.626206
      9          6           0       -2.927515    0.605592   -1.080916
     10          1           0       -3.369167   -1.342628   -1.717157
     11          1           0       -1.248053    2.212164    1.716031
     12          5           0       -2.344288    1.671159   -0.161771
     13          1           0       -3.448430    0.944727   -1.972622
     14          1           0       -2.475482    2.819766   -0.477888
     15          5           0        3.296948   -0.000160    0.840369
     16          7           0        2.887647    1.204847    0.203802
     17          7           0        2.838322   -1.226220    0.277048
     18          1           0        3.994849    0.013525    1.811151
     19          5           0        2.035705    1.220310   -0.940679
     20          1           0        3.193126    2.080882    0.586184
     21          5           0        2.001593   -1.277867   -0.878118
     22          1           0        3.122648   -2.088415    0.704514
     23          7           0        1.628485   -0.038553   -1.467774
     24          1           0        1.686093    2.246950   -1.440812
     25          1           0        1.636990   -2.321462   -1.332454
     26          1           0        1.009172   -0.047597   -2.257554
 ---------------------------------------------------------------------

 SCF Done:  E(RHF) =  -497.301890173     A.U. after    2 cycles

 The electronic state is 1-A.
 Alpha  occ. eigenvalues --  -15.59545 -15.59439 -15.59280 -11.26522 -11.26400
 Alpha  occ. eigenvalues --  -11.26259 -11.26127 -11.22486 -11.22384  -7.61192
 Alpha  occ. eigenvalues --   -7.61148  -7.61041  -7.57643  -1.16152  -1.11768
 Alpha  occ. eigenvalues --   -1.09110  -1.09034  -1.04576  -0.98968  -0.87610
 Alpha  occ. eigenvalues --   -0.81577  -0.74005  -0.72060  -0.71979  -0.70467
 Alpha  occ. eigenvalues --   -0.68864  -0.66869  -0.62540  -0.60526  -0.59984
 Alpha  occ. eigenvalues --   -0.59915  -0.58246  -0.54630  -0.53351  -0.53186
 Alpha  occ. eigenvalues --   -0.51201  -0.48602  -0.46872  -0.46844  -0.45724
 Alpha  occ. eigenvalues --   -0.45671  -0.40228  -0.40151  -0.38178  -0.32259
 Alpha virt. eigenvalues --    0.02616   0.03033   0.03338   0.03808   0.04840
 Alpha virt. eigenvalues --    0.04913   0.05035   0.05561   0.05744   0.05876
 Alpha virt. eigenvalues --    0.06581   0.07068   0.07348   0.07722   0.07817

 Mulliken charges:
               1
     1  C    0.220395
     2  C    0.198054
     3  C    0.877486
     4  H   -0.585159
     5  C    0.660431
     6  H   -0.533200
     7  C    0.697066
     8  H   -0.562275
     9  C    0.677553
    10  H   -0.476500
    11  H   -0.544453
    12  B   -0.635838
    13  H   -0.499791
    14  H    0.524727
    15  B   -0.041469
    16  N   -0.147742
    17  N   -0.166941
    18  H    0.267061
    19  B    0.033074
    20  H   -0.142805
    21  B   -0.037250
    22  H   -0.122437
    23  N   -0.144576
    24  H    0.304611
    25  H    0.313067
    26  H   -0.133092
 Sum of Mulliken charges =   0.00000

 Dipole moment (field-independent basis, Debye):
    X=              0.1261    Y=             -1.8288    Z=              0.5284  Tot=              1.9077

 Test job not archived.
 1\1\GINC-SE127\SP\RHF\Aug-CC-pVDZ\C6H13B4N3\OHZDE\08-Apr-2025\0\\#t hf
  aug-cc-pvdz iop(5/13=1,5/36=2,99/5=2) pseudo=read geom=check guess=(r
 ead,tcheck) scf=(maxcycle=1)\\title\\0,1\C,0,-1.1002,-1.1557,1.24379\C
 ,0,-1.87153,-1.52215,0.18349\C,0,-0.73895,0.13441,1.71272\H,0,-0.6909,
 -1.97601,1.822\C,0,-2.55047,-0.72416,-0.77509\H,0,-1.98729,-2.59084,0.
 04445\C,0,-1.06616,1.35478,1.20463\H,0,-0.10247,0.11476,2.59254\C,0,-2
 .58928,0.63268,-0.89154\H,0,-3.10457,-1.30369,-1.50828\H,0,-0.64323,2.
 18983,1.75662\B,0,-1.91408,1.68172,-0.01745\H,0,-3.18812,0.98737,-1.72

 Normal termination of Gaussian 16 at Tue Apr  8 22:25:38 2025.
