 Gaussian 16, Revision C.01,

 ----------------------------------------------------------------------
 #t hf aug-cc-pvdz symm=none int=(grid=ultrafine) guess=(read,tcheck) s
 table=(opt,rrhf)
 ----------------------------------------------------------------------
 -----
 title
 -----
 Symbolic Z-matrix:
 Charge =  0 Multiplicity = 1

 SCF Done:  E(RHF) =  -360.431973700     A.U. after   15 cycles

 1\1\GINC-SE362\Stability\RHF\Aug-CC-pVDZ\C8H14B2\OHZDE\08-Apr-2025\0\\
 #t hf aug-cc-pvdz symm=none int=(grid=ultrafine) guess=(read,tcheck) s
 table=(opt,rrhf)\\title\\0,1\B,0,-1.44421,-0.34378,-1.38976\C,0,-1.353
 82,1.11975,-0.80607\C,0,-2.20691,-1.16484,-0.27513\H,0,-1.05979,-0.732
 25,-2.44825\C,0,-1.96773,1.08262,0.37927\H,0,-0.92918,2.01911,-1.22576
 \C,0,-2.47978,-0.29789,0.7014\H,0,-2.48296,-2.20807,-0.24206\H,0,-2.10
 422,1.91644,1.05668\H,0,-2.99941,-0.51278,1.627\B,0,1.30377,1.04969,0.
 87592\C,0,1.05693,-0.42791,1.33827\C,0,2.13873,0.99762,-0.4568\H,0,0.9

 Normal termination of Gaussian 16 at Tue Apr  8 22:24:46 2025.
 Gaussian 16:  ES64L-G16RevC.01  3-Jul-2019

 ----------------------------------------------------------------------
 #t hf aug-cc-pvdz iop(5/13=1,5/36=2,99/5=2) pseudo=read geom=check gue
 ss=(read,tcheck) scf=(maxcycle=1)
 ----------------------------------------------------------------------
 -----
 title
 -----
 Structure from the checkpoint file:  "B-set_borole_borolane_100_dimer_mol1.chk"
 Charge =  0 Multiplicity = 1

                         Standard orientation:
 ---------------------------------------------------------------------
 Center     Atomic      Atomic             Coordinates (Angstroms)
 Number     Number       Type             X           Y           Z
 ---------------------------------------------------------------------
      1          5           0       -1.444211   -0.343782   -1.389759
      2          6           0       -1.353822    1.119749   -0.806069
      3          6           0       -2.206910   -1.164842   -0.275129
      4          1           0       -1.059791   -0.732251   -2.448249
      5          6           0       -1.967732    1.082618    0.379271
      6          1           0       -0.929182    2.019109   -1.225759
      7          6           0       -2.479781   -0.297892    0.701401
      8          1           0       -2.482960   -2.208072   -0.242059
      9          1           0       -2.104222    1.916438    1.056681
     10          1           0       -2.999411   -0.512783    1.627001
     11          5           0        1.303768    1.049690    0.875921
     12          6           0        1.056929   -0.427910    1.338271
     13          6           0        2.138728    0.997621   -0.456799
     14          1           0        0.979448    2.037940    1.464391
     15          1           0        1.800679   -0.612779    2.128271
     16          1           0        0.087979   -0.657250    1.780741
     17          6           0        1.404710   -1.266140    0.100301
     18          6           0        2.514709   -0.488239   -0.615859
     19          1           0        1.468088    1.306450   -1.267779
     20          1           0        2.986838    1.681861   -0.505259
     21          1           0        0.525340   -1.327810   -0.554339
     22          1           0        1.685480   -2.294739    0.327291
     23          1           0        2.638029   -0.796989   -1.653769
     24          1           0        3.464909   -0.678458   -0.110329
 ---------------------------------------------------------------------

 SCF Done:  E(RHF) =  -360.539904847     A.U. after    2 cycles

 The electronic state is 1-A.
 Alpha  occ. eigenvalues --  -11.26371 -11.25954 -11.22172 -11.21895 -11.21540
 Alpha  occ. eigenvalues --  -11.21482 -11.19536 -11.19493  -7.61737  -7.58976
 Alpha  occ. eigenvalues --   -1.11336  -1.07341  -0.97133  -0.94316  -0.87604
 Alpha  occ. eigenvalues --   -0.84089  -0.76961  -0.71658  -0.70436  -0.65052
 Alpha  occ. eigenvalues --   -0.64785  -0.62534  -0.60092  -0.57784  -0.56243
 Alpha  occ. eigenvalues --   -0.52537  -0.51204  -0.47695  -0.47513  -0.46827
 Alpha  occ. eigenvalues --   -0.46604  -0.46226  -0.44934  -0.44376  -0.42479
 Alpha  occ. eigenvalues --   -0.32469
 Alpha virt. eigenvalues --    0.02523   0.03015   0.03856   0.04097   0.04171
 Alpha virt. eigenvalues --    0.05499   0.05568   0.05634   0.05886   0.06074
 Alpha virt. eigenvalues --    0.07575   0.07794   0.07904   0.08363   0.08616

 Mulliken charges:
               1
     1  B   -0.027360
     2  C    0.512359
     3  C    0.350071
     4  H    0.411155
     5  C    0.315954
     6  H   -0.584417
     7  C    0.403461
     8  H   -0.485989
     9  H   -0.465023
    10  H   -0.466666
    11  B   -0.158626
    12  C    0.543203
    13  C    0.505651
    14  H    0.358662
    15  H   -0.248248
    16  H   -0.259823
    17  C    0.472115
    18  C    0.207502
    19  H   -0.224140
    20  H   -0.277700
    21  H   -0.441837
    22  H   -0.132915
    23  H   -0.148873
    24  H   -0.158517
 Sum of Mulliken charges =  -0.00000

 Dipole moment (field-independent basis, Debye):
    X=             -0.4408    Y=              0.0340    Z=              0.7114  Tot=              0.8376

 Test job not archived.
 1\1\GINC-SE362\SP\RHF\Aug-CC-pVDZ\C8H14B2\OHZDE\08-Apr-2025\0\\#t hf a
 ug-cc-pvdz iop(5/13=1,5/36=2,99/5=2) pseudo=read geom=check guess=(rea
 d,tcheck) scf=(maxcycle=1)\\title\\0,1\B,0,-1.44421,-0.34378,-1.38976\
 C,0,-1.35382,1.11975,-0.80607\C,0,-2.20691,-1.16484,-0.27513\H,0,-1.05
 979,-0.73225,-2.44825\C,0,-1.96773,1.08262,0.37927\H,0,-0.92918,2.0191
 1,-1.22576\C,0,-2.47978,-0.29789,0.7014\H,0,-2.48296,-2.20807,-0.24206
 \H,0,-2.10422,1.91644,1.05668\H,0,-2.99941,-0.51278,1.627\B,0,1.30377,
 1.04969,0.87592\C,0,1.05693,-0.42791,1.33827\C,0,2.13873,0.99762,-0.45

 Normal termination of Gaussian 16 at Tue Apr  8 22:25:00 2025.
