 Gaussian 16, Revision C.01,

 ----------------------------------------------------------------------
 #t hf aug-cc-pvdz symm=none int=(grid=ultrafine) guess=(read,tcheck) s
 table=(opt,rrhf)
 ----------------------------------------------------------------------
 -----
 title
 -----
 Symbolic Z-matrix:
 Charge =  0 Multiplicity = 1

 SCF Done:  E(RHF) =  -2334.96447055     A.U. after   12 cycles

 1\1\GINC-SE109\Stability\RHF\Aug-CC-pVDZ\B4Cl4F4\OHZDE\08-Apr-2025\0\\
 #t hf aug-cc-pvdz symm=none int=(grid=ultrafine) guess=(read,tcheck) s
 table=(opt,rrhf)\\title\\0,1\B,0,-1.57438,-0.71073,0.17185\B,0,-1.4340
 6,0.93593,-0.18667\Cl,0,-2.09565,-1.82193,-1.067\Cl,0,-1.25402,-1.2836
 8,1.78589\Cl,0,-2.80515,1.98794,0.03394\Cl,0,0.06371,1.62548,-0.79315\
 B,0,1.98024517,-0.66228583,-0.67585867\B,0,2.35950517,0.30717417,0.703
 49133\F,0,1.09033517,-1.63363583,-0.60606867\F,0,2.56664517,-0.4691758
 3,-1.83677867\F,0,1.84010517,0.05143417,1.88566133\F,0,3.17579517,1.33

 Normal termination of Gaussian 16 at Tue Apr  8 22:19:06 2025.
 Gaussian 16:  ES64L-G16RevC.01  3-Jul-2019

 ----------------------------------------------------------------------
 #t hf aug-cc-pvdz iop(5/13=1,5/36=2,99/5=2) pseudo=read geom=check gue
 ss=(read,tcheck) scf=(maxcycle=1)
 ----------------------------------------------------------------------
 -----
 title
 -----
 Structure from the checkpoint file:  "B-set_b2f4_b2cl4_090_dimer_mol1.chk"
 Charge =  0 Multiplicity = 1

                         Standard orientation:
 ---------------------------------------------------------------------
 Center     Atomic      Atomic             Coordinates (Angstroms)
 Number     Number       Type             X           Y           Z
 ---------------------------------------------------------------------
      1          5           0       -1.444337   -0.678913    0.170789
      2          5           0       -1.252821    0.962389   -0.188606
      3         17           0       -1.997377   -1.774470   -1.068218
      4         17           0       -1.144556   -1.260256    1.785781
      5         17           0       -2.591293    2.056226    0.028872
      6         17           0        0.266498    1.605108   -0.792918
      7          5           0        2.111566   -0.740425   -0.670691
      8          5           0        2.518060    0.217929    0.708663
      9          9           0        1.192085   -1.683898   -0.601806
     10          9           0        2.705645   -0.566293   -1.830708
     11          9           0        1.988986   -0.020848    1.890090
     12          9           0        3.365732    1.220234    0.619029
 ---------------------------------------------------------------------

 SCF Done:  E(RHF) =  -2335.22923173     A.U. after    2 cycles

 The electronic state is 1-A.
 Alpha  occ. eigenvalues -- -103.70775-103.69682-103.68586-103.68559 -26.16010
 Alpha  occ. eigenvalues --  -26.15451 -26.15404 -26.15322 -10.74319 -10.73174
 Alpha  occ. eigenvalues --  -10.72096 -10.72057  -8.39996  -8.39783  -8.39760
 Alpha  occ. eigenvalues --   -8.38867  -8.38640  -8.38602  -8.37784  -8.37757
 Alpha  occ. eigenvalues --   -8.37554  -8.37530  -8.37521  -8.37493  -7.75343
 Alpha  occ. eigenvalues --   -7.75183  -7.75102  -7.74222  -1.71407  -1.70910
 Alpha  occ. eigenvalues --   -1.69035  -1.68638  -1.21921  -1.19862  -1.17906
 Alpha  occ. eigenvalues --   -1.16399  -0.90447  -0.89286  -0.84730  -0.83143
 Alpha  occ. eigenvalues --   -0.82902  -0.79296  -0.78273  -0.77918  -0.76622
 Alpha  occ. eigenvalues --   -0.74044  -0.73746  -0.73570  -0.72787  -0.69048
 Alpha  occ. eigenvalues --   -0.62293  -0.61865  -0.60775  -0.56174  -0.55014
 Alpha  occ. eigenvalues --   -0.53972  -0.52869  -0.51143  -0.49673  -0.49390
 Alpha  occ. eigenvalues --   -0.48579  -0.44855
 Alpha virt. eigenvalues --    0.03240   0.03903   0.04231   0.04466   0.04791
 Alpha virt. eigenvalues --    0.05120   0.06073   0.06544   0.06738   0.07048
 Alpha virt. eigenvalues --    0.07251   0.07828   0.08801   0.08961   0.09454

 Mulliken charges:
               1
     1  B    0.766301
     2  B    0.588769
     3  Cl  -0.364441
     4  Cl  -0.352397
     5  Cl  -0.333453
     6  Cl  -0.322407
     7  B    0.977435
     8  B    1.046451
     9  F   -0.494596
    10  F   -0.523335
    11  F   -0.469607
    12  F   -0.518719
 Sum of Mulliken charges =  -0.00000

 Dipole moment (field-independent basis, Debye):
    X=             -0.4768    Y=              0.1398    Z=             -0.0246  Tot=              0.4975

 Test job not archived.
 1\1\GINC-SE109\SP\RHF\Aug-CC-pVDZ\B4Cl4F4\OHZDE\08-Apr-2025\0\\#t hf a
 ug-cc-pvdz iop(5/13=1,5/36=2,99/5=2) pseudo=read geom=check guess=(rea
 d,tcheck) scf=(maxcycle=1)\\title\\0,1\B,0,-1.57438,-0.71073,0.17185\B
 ,0,-1.43406,0.93593,-0.18667\Cl,0,-2.09565,-1.82193,-1.067\Cl,0,-1.254
 02,-1.28368,1.78589\Cl,0,-2.80515,1.98794,0.03394\Cl,0,0.06371,1.62548
 ,-0.79315\B,0,1.98024517,-0.66228583,-0.67585867\B,0,2.35950517,0.3071
 7417,0.70349133\F,0,1.09033517,-1.63363583,-0.60606867\F,0,2.56664517,
 -0.46917583,-1.83677867\F,0,1.84010517,0.05143417,1.88566133\F,0,3.175

 Normal termination of Gaussian 16 at Tue Apr  8 22:19:19 2025.
