 Gaussian 16, Revision C.01,

 ----------------------------------------------------------------------
 #t hf aug-cc-pvdz symm=none int=(grid=ultrafine) guess=(read,tcheck) s
 table=(opt,rrhf)
 ----------------------------------------------------------------------
 -----
 title
 -----
 Symbolic Z-matrix:
 Charge =  0 Multiplicity = 1

 SCF Done:  E(RHF) =  -219.228272252     A.U. after   12 cycles
 Normal termination of Gaussian 16 at Tue Apr  8 22:22:54 2025.
 Gaussian 16:  ES64L-G16RevC.01  3-Jul-2019

 ----------------------------------------------------------------------
 #t hf aug-cc-pvdz iop(5/13=1,5/36=2,99/5=2) pseudo=read geom=check gue
 ss=(read,tcheck) scf=(maxcycle=1)
 ----------------------------------------------------------------------
 -----
 title
 -----
 Structure from the checkpoint file:  "B-set_borole_methane_125_dimer_mol1.chk"
 Charge =  0 Multiplicity = 1

                         Standard orientation:
 ---------------------------------------------------------------------
 Center     Atomic      Atomic             Coordinates (Angstroms)
 Number     Number       Type             X           Y           Z
 ---------------------------------------------------------------------
      1          5           0       -0.344498   -0.153002    1.216658
      2          6           0       -0.949376   -1.269792    0.276874
      3          6           0       -0.693886    1.206037    0.491911
      4          1           0        0.201957   -0.301012    2.264954
      5          6           0       -1.546612   -0.621950   -0.724824
      6          1           0       -0.944632   -2.345089    0.374092
      7          6           0       -1.391375    0.873830   -0.595416
      8          1           0       -0.469120    2.224974    0.769219
      9          1           0       -2.087434   -1.070780   -1.549203
     10          1           0       -1.812628    1.556741   -1.323103
     11          6           0        3.432000   -0.042699   -0.331546
     12          1           0        4.379681   -0.525776   -0.558870
     13          1           0        3.420781    0.962058   -0.746265
     14          1           0        2.618690   -0.621379   -0.765419
     15          1           0        3.310692    0.012718    0.749306
 ---------------------------------------------------------------------

 SCF Done:  E(RHF) =  -219.298381102     A.U. after    2 cycles

 The electronic state is 1-A.
 Alpha  occ. eigenvalues --  -11.25950 -11.25885 -11.21611 -11.21228 -11.21210
 Alpha  occ. eigenvalues --   -7.61471  -1.10958  -0.96800  -0.93792  -0.83659
 Alpha  occ. eigenvalues --   -0.71335  -0.70066  -0.64088  -0.57470  -0.54644
 Alpha  occ. eigenvalues --   -0.54592  -0.54425  -0.52023  -0.47170  -0.46457
 Alpha  occ. eigenvalues --   -0.46107  -0.32136
 Alpha virt. eigenvalues --    0.02530   0.03103   0.04277   0.04394   0.04944
 Alpha virt. eigenvalues --    0.05822   0.06311   0.06531   0.07260   0.07923
 Alpha virt. eigenvalues --    0.08651   0.08989   0.12252   0.13208   0.13901

 Mulliken charges:
               1
     1  B    0.131272
     2  C    0.347081
     3  C    0.344646
     4  H    0.374799
     5  C    0.199479
     6  H   -0.431131
     7  C    0.213968
     8  H   -0.413157
     9  H   -0.377204
    10  H   -0.381316
    11  C    0.668953
    12  H   -0.188291
    13  H   -0.130794
    14  H   -0.178760
    15  H   -0.179544
 Sum of Mulliken charges =  -0.00000

 Dipole moment (field-independent basis, Debye):
    X=             -0.4461    Y=              0.1265    Z=             -0.7959  Tot=              0.9211

 Test job not archived.
 1\1\GINC-SE094\SP\RHF\Aug-CC-pVDZ\C5H9B1\OHZDE\08-Apr-2025\0\\#t hf au
 g-cc-pvdz iop(5/13=1,5/36=2,99/5=2) pseudo=read geom=check guess=(read
 ,tcheck) scf=(maxcycle=1)\\title\\0,1\B,0,0.06513,-0.1638,-1.2018\C,0,
 0.7417,-1.2672,-0.29568\C,0,0.44816,1.2043,-0.51194\H,0,-0.54783,-0.32
 544,-2.21056\C,0,1.39732,-0.60567,0.65948\H,0,0.74116,-2.34325,-0.3843
 \C,0,1.21913,0.88749,0.52939\H,0,0.19554,2.2188,-0.78143\H,0,1.99577,-
 1.0427,1.44967\H,0,1.68073,1.58021,1.22251\C,0,-3.60186525,-0.076213,0
 .5916645\H,0,-4.52766525,-0.566263,0.8847245\H,0,-3.57321525,0.931947,

 Normal termination of Gaussian 16 at Tue Apr  8 22:22:59 2025.
