 Gaussian 16, Revision C.01,

 ----------------------------------------------------------------------
 #t hf aug-cc-pvdz symm=none int=(grid=ultrafine) guess=(read,tcheck) s
 table=(opt,rrhf)
 ----------------------------------------------------------------------
 -----
 title
 -----
 Symbolic Z-matrix:
 Charge =  0 Multiplicity = 1

 SCF Done:  E(RHF) =  -497.146892016     A.U. after   13 cycles
 Normal termination of Gaussian 16 at Tue Apr  8 22:23:29 2025.
 Gaussian 16:  ES64L-G16RevC.01  3-Jul-2019

 ----------------------------------------------------------------------
 #t hf aug-cc-pvdz iop(5/13=1,5/36=2,99/5=2) pseudo=read geom=check gue
 ss=(read,tcheck) scf=(maxcycle=1)
 ----------------------------------------------------------------------
 -----
 title
 -----
 Structure from the checkpoint file:  "B-set_borepin_borazine_200_dimer_mol1.chk"
 Charge =  0 Multiplicity = 1

                         Standard orientation:
 ---------------------------------------------------------------------
 Center     Atomic      Atomic             Coordinates (Angstroms)
 Number     Number       Type             X           Y           Z
 ---------------------------------------------------------------------
      1          6           0       -3.013777   -1.128786    1.142431
      2          6           0       -3.579140   -1.539828   -0.025850
      3          6           0       -2.759316    0.180767    1.627302
      4          1           0       -2.702710   -1.924397    1.809516
      5          6           0       -4.087559   -0.782464   -1.114212
      6          1           0       -3.653745   -2.614046   -0.149628
      7          6           0       -3.007535    1.379758    1.031203
      8          1           0       -2.289275    0.198241    2.606247
      9          6           0       -4.123527    0.569533   -1.278202
     10          1           0       -4.494457   -1.393031   -1.915518
     11          1           0       -2.700956    2.238051    1.622991
     12          5           0       -3.628934    1.655644   -0.331547
     13          1           0       -4.569086    0.888896   -2.216813
     14          1           0       -3.741450    2.797539   -0.677746
     15          5           0        4.692399    0.033847    1.051065
     16          7           0        4.329690    1.224223    0.360969
     17          7           0        4.292834   -1.205618    0.472304
     18          1           0        5.304861    0.070177    2.077340
     19          5           0        3.578340    1.212719   -0.851971
     20          1           0        4.594765    2.109297    0.752567
     21          5           0        3.558064   -1.284262   -0.748810
     22          1           0        4.546242   -2.057892    0.937451
     23          7           0        3.227154   -0.058468   -1.389693
     24          1           0        3.264828    2.227594   -1.397946
     25          1           0        3.241495   -2.338611   -1.214190
     26          1           0        2.677523   -0.086404   -2.229043
 ---------------------------------------------------------------------

 SCF Done:  E(RHF) =  -497.302687906     A.U. after    2 cycles

 The electronic state is 1-A.
 Alpha  occ. eigenvalues --  -15.59652 -15.59640 -15.59630 -11.26526 -11.26484
 Alpha  occ. eigenvalues --  -11.26317 -11.26184 -11.22503 -11.22468  -7.61353
 Alpha  occ. eigenvalues --   -7.61333  -7.61312  -7.57690  -1.16377  -1.11840
 Alpha  occ. eigenvalues --   -1.09325  -1.09259  -1.04636  -0.99027  -0.87661
 Alpha  occ. eigenvalues --   -0.81629  -0.74220  -0.72251  -0.72209  -0.70523
 Alpha  occ. eigenvalues --   -0.68913  -0.66920  -0.62599  -0.60737  -0.60173
 Alpha  occ. eigenvalues --   -0.60151  -0.58307  -0.54798  -0.53400  -0.53247
 Alpha  occ. eigenvalues --   -0.51320  -0.48733  -0.47096  -0.46997  -0.45771
 Alpha  occ. eigenvalues --   -0.45716  -0.40442  -0.40368  -0.38230  -0.32317
 Alpha virt. eigenvalues --    0.02600   0.03010   0.03202   0.03901   0.04200
 Alpha virt. eigenvalues --    0.04539   0.04853   0.05200   0.05644   0.05762
 Alpha virt. eigenvalues --    0.06140   0.06790   0.06905   0.07507   0.07578

 Mulliken charges:
               1
     1  C    0.115216
     2  C    0.087657
     3  C    0.658480
     4  H   -0.495007
     5  C    0.594667
     6  H   -0.493726
     7  C    0.658651
     8  H   -0.449012
     9  C    0.643470
    10  H   -0.440693
    11  H   -0.472918
    12  B   -0.337570
    13  H   -0.476322
    14  H    0.409078
    15  B    0.026441
    16  N   -0.149275
    17  N   -0.152725
    18  H    0.219045
    19  B    0.061456
    20  H   -0.114980
    21  B    0.053232
    22  H   -0.114952
    23  N   -0.145625
    24  H    0.213832
    25  H    0.221584
    26  H   -0.120004
 Sum of Mulliken charges =   0.00000

 Dipole moment (field-independent basis, Debye):
    X=              0.1414    Y=             -1.8550    Z=              0.5603  Tot=              1.9429

 Test job not archived.
 1\1\GINC-SE334\SP\RHF\Aug-CC-pVDZ\C6H13B4N3\OHZDE\08-Apr-2025\0\\#t hf
  aug-cc-pvdz iop(5/13=1,5/36=2,99/5=2) pseudo=read geom=check guess=(r
 ead,tcheck) scf=(maxcycle=1)\\title\\0,1\C,0,-1.1002,-1.1557,1.24379\C
 ,0,-1.87153,-1.52215,0.18349\C,0,-0.73895,0.13441,1.71272\H,0,-0.6909,
 -1.97601,1.822\C,0,-2.55047,-0.72416,-0.77509\H,0,-1.98729,-2.59084,0.
 04445\C,0,-1.06616,1.35478,1.20463\H,0,-0.10247,0.11476,2.59254\C,0,-2
 .58928,0.63268,-0.89154\H,0,-3.10457,-1.30369,-1.50828\H,0,-0.64323,2.
 18983,1.75662\B,0,-1.91408,1.68172,-0.01745\H,0,-3.18812,0.98737,-1.72

 Normal termination of Gaussian 16 at Tue Apr  8 22:23:47 2025.
