 Gaussian 16, Revision C.01,

 ----------------------------------------------------------------------
 #t hf aug-cc-pvdz symm=none int=(grid=ultrafine) guess=(read,tcheck) s
 table=(opt,rrhf)
 ----------------------------------------------------------------------
 -----
 title
 -----
 Symbolic Z-matrix:
 Charge =  0 Multiplicity = 1

 SCF Done:  E(RHF) =  -497.130786069     A.U. after   15 cycles
 Normal termination of Gaussian 16 at Tue Apr  8 22:24:22 2025.
 Gaussian 16:  ES64L-G16RevC.01  3-Jul-2019

 ----------------------------------------------------------------------
 #t hf aug-cc-pvdz iop(5/13=1,5/36=2,99/5=2) pseudo=read geom=check gue
 ss=(read,tcheck) scf=(maxcycle=1)
 ----------------------------------------------------------------------
 -----
 title
 -----
 Structure from the checkpoint file:  "B-set_borepin_borazine_090_dimer_mol1.chk"
 Charge =  0 Multiplicity = 1

                         Standard orientation:
 ---------------------------------------------------------------------
 Center     Atomic      Atomic             Coordinates (Angstroms)
 Number     Number       Type             X           Y           Z
 ---------------------------------------------------------------------
      1          6           0       -0.855986   -1.163327    1.256358
      2          6           0       -1.698033   -1.517987    0.247079
      3          6           0       -0.457346    0.121423    1.709441
      4          1           0       -0.413668   -1.989969    1.800214
      5          6           0       -2.434780   -0.709475   -0.658534
      6          1           0       -1.828607   -2.585017    0.108413
      7          6           0       -0.810915    1.347176    1.232948
      8          1           0        0.236054    0.092021    2.544850
      9          6           0       -2.473830    0.648375   -0.762457
     10          1           0       -3.039515   -1.280736   -1.357395
     11          1           0       -0.347699    2.175955    1.761557
     12          5           0       -1.736342    1.687470    0.072292
     13          1           0       -3.124862    1.012280   -1.553175
     14          1           0       -1.899281    2.843948   -0.196868
     15          5           0        2.726422   -0.040318    0.502534
     16          7           0        2.238824    1.182520   -0.037559
     17          7           0        2.166155   -1.248832   -0.003911
     18          1           0        3.569911   -0.055205    1.349869
     19          5           0        1.216081    1.231992   -1.031255
     20          1           0        2.614013    2.046699    0.307982
     21          5           0        1.155749   -1.266398   -1.011860
     22          1           0        2.502161   -2.123093    0.356250
     23          7           0        0.711839   -0.010671   -1.510757
     24          1           0        0.806483    2.272937   -1.449600
     25          1           0        0.708300   -2.295887   -1.422214
     26          1           0       -0.025225    0.004117   -2.191860
 ---------------------------------------------------------------------

 SCF Done:  E(RHF) =  -497.284918202     A.U. after    2 cycles

 The electronic state is 1-A.
 Alpha  occ. eigenvalues --  -15.59293 -15.58949 -15.58670 -11.26361 -11.26256
 Alpha  occ. eigenvalues --  -11.26165 -11.26016 -11.22334 -11.22263  -7.60975
 Alpha  occ. eigenvalues --   -7.60892  -7.60740  -7.57645  -1.15954  -1.11742
 Alpha  occ. eigenvalues --   -1.08908  -1.08692  -1.04495  -0.98948  -0.87576
 Alpha  occ. eigenvalues --   -0.81581  -0.73743  -0.71900  -0.71775  -0.70436
 Alpha  occ. eigenvalues --   -0.68816  -0.66841  -0.62460  -0.60241  -0.59772
 Alpha  occ. eigenvalues --   -0.59640  -0.58173  -0.54825  -0.53275  -0.53108
 Alpha  occ. eigenvalues --   -0.52748  -0.47224  -0.46765  -0.46372  -0.45691
 Alpha  occ. eigenvalues --   -0.45553  -0.40526  -0.40120  -0.37598  -0.31856
 Alpha virt. eigenvalues --    0.02561   0.03056   0.03345   0.03763   0.04922
 Alpha virt. eigenvalues --    0.05202   0.05319   0.05654   0.05862   0.05911
 Alpha virt. eigenvalues --    0.06531   0.07152   0.07542   0.07901   0.08144

 Mulliken charges:
               1
     1  C    0.209206
     2  C    0.301717
     3  C    1.024928
     4  H   -0.602046
     5  C    0.647415
     6  H   -0.552956
     7  C    0.688647
     8  H   -0.529026
     9  C    0.649617
    10  H   -0.511659
    11  H   -0.577667
    12  B   -1.014828
    13  H   -0.523808
    14  H    0.651693
    15  B   -0.352052
    16  N   -0.051806
    17  N   -0.028469
    18  H    0.368369
    19  B   -0.165668
    20  H   -0.184064
    21  B   -0.209232
    22  H   -0.178457
    23  N    0.180847
    24  H    0.459122
    25  H    0.420512
    26  H   -0.120332
 Sum of Mulliken charges =  -0.00000

 Dipole moment (field-independent basis, Debye):
    X=              0.1839    Y=             -1.7899    Z=              0.5075  Tot=              1.8695

 Test job not archived.
 1\1\GINC-SE343\SP\RHF\Aug-CC-pVDZ\C6H13B4N3\OHZDE\08-Apr-2025\0\\#t hf
  aug-cc-pvdz iop(5/13=1,5/36=2,99/5=2) pseudo=read geom=check guess=(r
 ead,tcheck) scf=(maxcycle=1)\\title\\0,1\C,0,-1.1002,-1.1557,1.24379\C
 ,0,-1.87153,-1.52215,0.18349\C,0,-0.73895,0.13441,1.71272\H,0,-0.6909,
 -1.97601,1.822\C,0,-2.55047,-0.72416,-0.77509\H,0,-1.98729,-2.59084,0.
 04445\C,0,-1.06616,1.35478,1.20463\H,0,-0.10247,0.11476,2.59254\C,0,-2
 .58928,0.63268,-0.89154\H,0,-3.10457,-1.30369,-1.50828\H,0,-0.64323,2.
 18983,1.75662\B,0,-1.91408,1.68172,-0.01745\H,0,-3.18812,0.98737,-1.72

 Normal termination of Gaussian 16 at Tue Apr  8 22:25:07 2025.
