 Gaussian 16, Revision C.01,

 ----------------------------------------------------------------------
 #t hf aug-cc-pvdz symm=none int=(grid=ultrafine) guess=(read,tcheck) s
 table=(opt,rrhf)
 ----------------------------------------------------------------------
 -----
 title
 -----
 Symbolic Z-matrix:
 Charge =  0 Multiplicity = 1

 SCF Done:  E(RHF) =  -894.816196769     A.U. after   12 cycles
 Normal termination of Gaussian 16 at Tue Apr  8 22:18:41 2025.
 Gaussian 16:  ES64L-G16RevC.01  3-Jul-2019

 ----------------------------------------------------------------------
 #t hf aug-cc-pvdz iop(5/13=1,5/36=2,99/5=2) pseudo=read geom=check gue
 ss=(read,tcheck) scf=(maxcycle=1)
 ----------------------------------------------------------------------
 -----
 title
 -----
 Structure from the checkpoint file:  "B-set_b2f4_b2f4_090_dimer_mol1.chk"
 Charge =  0 Multiplicity = 1

                         Standard orientation:
 ---------------------------------------------------------------------
 Center     Atomic      Atomic             Coordinates (Angstroms)
 Number     Number       Type             X           Y           Z
 ---------------------------------------------------------------------
      1          5           0        1.744601   -0.601131    0.489913
      2          5           0        1.469291    1.010046   -0.074431
      3          9           0        0.741522   -1.339284    0.930712
      4          9           0        2.939945   -1.141225    0.504323
      5          9           0        0.363467    1.656400    0.250703
      6          9           0        2.337632    1.643532   -0.825551
      7          5           0       -1.269903   -0.801704   -0.735442
      8          5           0       -1.914682    0.396459    0.324569
      9          9           0       -0.284934   -0.522754   -1.578769
     10          9           0       -1.739162   -2.028803   -0.768585
     11          9           0       -2.490445    1.482900   -0.147026
     12          9           0       -1.884306    0.247194    1.631634
 ---------------------------------------------------------------------

 SCF Done:  E(RHF) =  -895.179528474     A.U. after    2 cycles

 The electronic state is 1-A.
 Alpha  occ. eigenvalues --  -26.17576 -26.17554 -26.17210 -26.16791 -26.16694
 Alpha  occ. eigenvalues --  -26.15975 -26.15217 -26.15145  -7.76907  -7.76853
 Alpha  occ. eigenvalues --   -7.76023  -7.75217  -1.73041  -1.72699  -1.72298
 Alpha  occ. eigenvalues --   -1.70785  -1.70474  -1.70316  -1.69719  -1.68480
 Alpha  occ. eigenvalues --   -0.92192  -0.91033  -0.90984  -0.89330  -0.86327
 Alpha  occ. eigenvalues --   -0.85151  -0.84890  -0.84792  -0.83492  -0.83037
 Alpha  occ. eigenvalues --   -0.81387  -0.80058  -0.79587  -0.78970  -0.78495
 Alpha  occ. eigenvalues --   -0.78114  -0.75422  -0.75203  -0.75099  -0.74777
 Alpha  occ. eigenvalues --   -0.74441  -0.74197  -0.73356  -0.72839  -0.55615
 Alpha  occ. eigenvalues --   -0.54306
 Alpha virt. eigenvalues --    0.02717   0.03824   0.04202   0.04438   0.05105
 Alpha virt. eigenvalues --    0.06469   0.06782   0.07066   0.07179   0.07527
 Alpha virt. eigenvalues --    0.08958   0.09156   0.09382   0.09896   0.10433

 Mulliken charges:
               1
     1  B    1.034130
     2  B    1.032799
     3  F   -0.531832
     4  F   -0.496607
     5  F   -0.571393
     6  F   -0.498059
     7  B    0.926489
     8  B    0.999615
     9  F   -0.491617
    10  F   -0.465860
    11  F   -0.465226
    12  F   -0.472439
 Sum of Mulliken charges =  -0.00000

 Dipole moment (field-independent basis, Debye):
    X=              0.3922    Y=              0.0166    Z=              0.0490  Tot=              0.3956

 Test job not archived.
 1\1\GINC-SE424\SP\RHF\Aug-CC-pVDZ\B4F8\OHZDE\08-Apr-2025\0\\#t hf aug-
 cc-pvdz iop(5/13=1,5/36=2,99/5=2) pseudo=read geom=check guess=(read,t
 check) scf=(maxcycle=1)\\title\\0,1\B,0,1.91416,-0.63907,0.46973\B,0,1
 .67914,0.97528,-0.10369\F,0,0.89841,-1.33833,0.94368\F,0,3.09043,-1.21
 961,0.45886\F,0,0.60477,1.6621,0.24321\F,0,2.54863,1.57167,-0.88331\B,
 0,-1.13633717,-0.7476955,-0.6755325\B,0,-1.71217717,0.4816245,0.388487
 5\F,0,-0.16477717,-0.5104655,-1.5467225\F,0,-1.64772717,-1.9582655,-0.
 6841125\F,0,-2.26278717,1.5827145,-0.0791525\F,0,-1.65282717,0.3435445

 Normal termination of Gaussian 16 at Tue Apr  8 22:18:49 2025.
