 Gaussian 16, Revision C.01,

 ----------------------------------------------------------------------
 #t hf aug-cc-pvdz symm=none int=(grid=ultrafine) guess=(read,tcheck) s
 table=(opt,rrhf)
 ----------------------------------------------------------------------
 -----
 title
 -----
 Symbolic Z-matrix:
 Charge =  0 Multiplicity = 1

 SCF Done:  E(RHF) =  -502.474949509     A.U. after   11 cycles
 Normal termination of Gaussian 16 at Tue Apr  8 22:21:00 2025.
 Gaussian 16:  ES64L-G16RevC.01  3-Jul-2019

 ----------------------------------------------------------------------
 #t hf aug-cc-pvdz iop(5/13=1,5/36=2,99/5=2) pseudo=read geom=check gue
 ss=(read,tcheck) scf=(maxcycle=1)
 ----------------------------------------------------------------------
 -----
 title
 -----
 Structure from the checkpoint file:  "B-set_boricacid_boricacid_150_dimer_mol1.chk"
 Charge =  0 Multiplicity = 1

                         Standard orientation:
 ---------------------------------------------------------------------
 Center     Atomic      Atomic             Coordinates (Angstroms)
 Number     Number       Type             X           Y           Z
 ---------------------------------------------------------------------
      1          5           0        3.100762    0.024940   -0.000112
      2          8           0        4.457815   -0.126048    0.000448
      3          8           0        2.524784    1.244042   -0.000742
      4          8           0        2.331046   -1.123529   -0.000052
      5          1           0        4.917594    0.711184    0.000458
      6          1           0        1.555809    1.237391   -0.000492
      7          1           0        2.861393   -1.918560    0.000588
      8          5           0       -3.100724   -0.024897    0.000083
      9          8           0       -2.331098    1.123581    0.000423
     10          8           0       -4.457828    0.125960    0.000123
     11          8           0       -2.524756   -1.244010   -0.000287
     12          1           0       -2.861525    1.918573    0.000743
     13          1           0       -4.917396   -0.711382   -0.000087
     14          1           0       -1.555771   -1.237398   -0.000367
 ---------------------------------------------------------------------

 SCF Done:  E(RHF) =  -502.655169607     A.U. after    2 cycles

 The electronic state is 1-A.
 Alpha  occ. eigenvalues --  -20.58651 -20.58650 -20.58292 -20.58291 -20.57971
 Alpha  occ. eigenvalues --  -20.57970  -7.68861  -7.68861  -1.36376  -1.36371
 Alpha  occ. eigenvalues --   -1.31785  -1.31781  -1.31026  -1.31023  -0.79869
 Alpha  occ. eigenvalues --   -0.79847  -0.76355  -0.76325  -0.75516  -0.75491
 Alpha  occ. eigenvalues --   -0.62033  -0.62027  -0.59912  -0.59910  -0.58892
 Alpha  occ. eigenvalues --   -0.58797  -0.58343  -0.58312  -0.53229  -0.53227
 Alpha  occ. eigenvalues --   -0.52713  -0.52711
 Alpha virt. eigenvalues --    0.03165   0.04104   0.05039   0.05461   0.05620
 Alpha virt. eigenvalues --    0.06171   0.06796   0.07473   0.07931   0.07997
 Alpha virt. eigenvalues --    0.10711   0.10885   0.11390   0.13305   0.16775

 Mulliken charges:
               1
     1  B    0.760866
     2  O   -0.424141
     3  O   -0.426871
     4  O   -0.474591
     5  H    0.173612
     6  H    0.212491
     7  H    0.178633
     8  B    0.760836
     9  O   -0.474562
    10  O   -0.424168
    11  O   -0.426881
    12  H    0.178665
    13  H    0.173613
    14  H    0.212498
 Sum of Mulliken charges =  -0.00000

 Dipole moment (field-independent basis, Debye):
    X=              0.0008    Y=              0.0000    Z=              0.0015  Tot=              0.0017

 Test job not archived.
 1\1\GINC-SE252\SP\RHF\Aug-CC-pVDZ\B2H6O6\OHZDE\08-Apr-2025\0\\#t hf au
 g-cc-pvdz iop(5/13=1,5/36=2,99/5=2) pseudo=read geom=check guess=(read
 ,tcheck) scf=(maxcycle=1)\\title\\0,1\B,0,2.06504,0.02667,-0.0001\O,0,
 3.42239,-0.12163,0.00046\O,0,1.48665,1.24463,-0.00073\O,0,1.2976,-1.12
 332,-0.00004\H,0,3.88051,0.71651,0.00047\H,0,0.51769,1.23606,-0.00048\
 H,0,1.82952,-1.9173,0.0006\B,0,-4.13633429,-0.035445,0.00009571\O,0,-3
 .36898429,1.114555,0.00043571\O,0,-5.49373429,0.112725,0.00013571\O,0,
 -3.55795429,-1.253415,-0.00027429\H,0,-3.90098429,1.908495,0.00075571\

 Normal termination of Gaussian 16 at Tue Apr  8 22:21:03 2025.
