 Gaussian 16, Revision C.01,

 ----------------------------------------------------------------------
 #t hf aug-cc-pvdz symm=none int=(grid=ultrafine) guess=(read,tcheck) s
 table=(opt,rrhf)
 ----------------------------------------------------------------------
 -----
 title
 -----
 Symbolic Z-matrix:
 Charge =  0 Multiplicity = 1

 SCF Done:  E(RHF) =  -503.155029050     A.U. after   12 cycles
 Normal termination of Gaussian 16 at Tue Apr  8 22:19:21 2025.
 Gaussian 16:  ES64L-G16RevC.01  3-Jul-2019

 ----------------------------------------------------------------------
 #t hf aug-cc-pvdz iop(5/13=1,5/36=2,99/5=2) pseudo=read geom=check gue
 ss=(read,tcheck) scf=(maxcycle=1)
 ----------------------------------------------------------------------
 -----
 title
 -----
 Structure from the checkpoint file:  "B-set_borane_dms_090_dimer_mol1.chk"
 Charge =  0 Multiplicity = 1

                         Standard orientation:
 ---------------------------------------------------------------------
 Center     Atomic      Atomic             Coordinates (Angstroms)
 Number     Number       Type             X           Y           Z
 ---------------------------------------------------------------------
      1          5           0        0.001903    1.620394    0.333639
      2          1           0        0.001913    1.322429    1.506511
      3          1           0       -1.009650    2.150898   -0.056855
      4          1           0        1.014501    2.148453   -0.057481
      5         16           0        0.000040    0.087102   -0.510143
      6          6           0        1.375351   -0.789444    0.236370
      7          1           0        1.389639   -1.821797   -0.104147
      8          1           0        2.281808   -0.282053   -0.082830
      9          1           0        1.291346   -0.732234    1.319509
     10          6           0       -1.377121   -0.786507    0.236417
     11          1           0       -2.282567   -0.277524   -0.083116
     12          1           0       -1.393314   -1.818935   -0.103775
     13          1           0       -1.293206   -0.729131    1.319546
 ---------------------------------------------------------------------

 SCF Done:  E(RHF) =  -503.221712520     A.U. after    2 cycles

 The electronic state is 1-A.
 Alpha  occ. eigenvalues --  -93.58787 -11.28280 -11.28262  -8.88789  -7.52776
 Alpha  occ. eigenvalues --   -6.22910  -6.22853  -6.22567  -1.11375  -0.98112
 Alpha  occ. eigenvalues --   -0.87527  -0.69914  -0.64283  -0.61767  -0.60726
 Alpha  occ. eigenvalues --   -0.59777  -0.53934  -0.49622  -0.43560  -0.42598
 Alpha  occ. eigenvalues --   -0.39321
 Alpha virt. eigenvalues --    0.02785   0.04362   0.04849   0.05097   0.06436
 Alpha virt. eigenvalues --    0.06739   0.07466   0.07578   0.09098   0.09363
 Alpha virt. eigenvalues --    0.11725   0.13035   0.13041   0.14199   0.14224

 Mulliken charges:
               1
     1  B   -0.148580
     2  H    0.005873
     3  H    0.064081
     4  H    0.063876
     5  S    0.145890
     6  C    0.200495
     7  H   -0.102881
     8  H   -0.080490
     9  H   -0.082644
    10  C    0.200466
    11  H   -0.080549
    12  H   -0.102876
    13  H   -0.082660
 Sum of Mulliken charges =  -0.00000

 Dipole moment (field-independent basis, Debye):
    X=             -0.0056    Y=             -4.7073    Z=             -0.2980  Tot=              4.7167

 Test job not archived.
 1\1\GINC-SE247\SP\RHF\Aug-CC-pVDZ\C2H9B1S1\OHZDE\08-Apr-2025\0\\#t hf
 aug-cc-pvdz iop(5/13=1,5/36=2,99/5=2) pseudo=read geom=check guess=(re
 ad,tcheck) scf=(maxcycle=1)\\title\\0,1\B,0,1.77921,0.00284,0.30624\H,
 0,1.55019,0.00212,1.4945\H,0,2.28322,1.01582,-0.11448\H,0,2.28635,-1.0
 0833,-0.11509\S,0,0.199296,0.000374,-0.446637\C,0,-0.628384,-1.377286,
 0.349663\H,0,-1.678804,-1.394466,0.069963\H,0,-0.137974,-2.282366,0.00
 1343\H,0,-0.508304,-1.293016,1.427623\C,0,-0.633074,1.375184,0.349713\
 H,0,-0.146114,2.282004,0.001083\H,0,-1.683634,1.388484,0.070343\H,0,-0

 Normal termination of Gaussian 16 at Tue Apr  8 22:19:24 2025.
