 Gaussian 16, Revision C.01,

 ----------------------------------------------------------------------
 #t hf aug-cc-pvdz symm=none int=(grid=ultrafine) guess=(read,tcheck) s
 table=(opt,rrhf)
 ----------------------------------------------------------------------
 -----
 title
 -----
 Symbolic Z-matrix:
 Charge =  0 Multiplicity = 1

 SCF Done:  E(RHF) =  -481.917982770     A.U. after   14 cycles
 Normal termination of Gaussian 16 at Tue Apr  8 22:24:20 2025.
 Gaussian 16:  ES64L-G16RevC.01  3-Jul-2019

 ----------------------------------------------------------------------
 #t hf aug-cc-pvdz iop(5/13=1,5/36=2,99/5=2) pseudo=read geom=check gue
 ss=(read,tcheck) scf=(maxcycle=1)
 ----------------------------------------------------------------------
 -----
 title
 -----
 Structure from the checkpoint file:  "B-set_phenylboronicacid_h2o_200_dimer_mol1.chk"
 Charge =  0 Multiplicity = 1

                         Standard orientation:
 ---------------------------------------------------------------------
 Center     Atomic      Atomic             Coordinates (Angstroms)
 Number     Number       Type             X           Y           Z
 ---------------------------------------------------------------------
      1          6           0       -2.024697    1.196491    0.000250
      2          6           0       -3.410248    1.199053    0.001846
      3          6           0       -1.305825    0.000307   -0.000608
      4          1           0       -1.485657    2.134825   -0.000315
      5          6           0       -4.103953   -0.001886    0.002588
      6          1           0       -3.951056    2.136028    0.002476
      7          6           0       -2.022821   -1.196999    0.000186
      8          5           0        0.260614    0.001496   -0.002383
      9          6           0       -3.408369   -1.201736    0.001732
     10          1           0       -5.185932   -0.002726    0.003804
     11          1           0       -1.482322   -2.134494   -0.000494
     12          8           0        0.917250    1.200935   -0.003137
     13          8           0        0.919248   -1.196855   -0.003051
     14          1           0       -3.947710   -2.139551    0.002297
     15          1           0        1.872627    1.107119   -0.003970
     16          1           0        1.874460   -1.100731   -0.004064
     17          8           0        9.281942   -0.000842    0.002002
     18          1           0        9.851413   -0.003320    0.770370
     19          1           0        9.859055   -0.001915   -0.760664
 ---------------------------------------------------------------------

 SCF Done:  E(RHF) =  -482.073115616     A.U. after    2 cycles

 The electronic state is 1-A.
 Alpha  occ. eigenvalues --  -20.58615 -20.58614 -20.58461 -11.24068 -11.23618
 Alpha  occ. eigenvalues --  -11.23617 -11.23287 -11.23281 -11.21297  -7.65695
 Alpha  occ. eigenvalues --   -1.35267  -1.31996  -1.31177  -1.13589  -1.00370
 Alpha  occ. eigenvalues --   -1.00312  -0.83173  -0.82198  -0.77338  -0.75142
 Alpha  occ. eigenvalues --   -0.74333  -0.69990  -0.65852  -0.62659  -0.61681
 Alpha  occ. eigenvalues --   -0.60345  -0.59641  -0.58465  -0.55983  -0.55600
 Alpha  occ. eigenvalues --   -0.53419  -0.52895  -0.49810  -0.48490  -0.47142
 Alpha  occ. eigenvalues --   -0.33545  -0.33235
 Alpha virt. eigenvalues --    0.02506   0.03609   0.04139   0.04650   0.05388
 Alpha virt. eigenvalues --    0.05839   0.05947   0.06011   0.07597   0.08168
 Alpha virt. eigenvalues --    0.08398   0.09592   0.10329   0.11138   0.11697

 Mulliken charges:
               1
     1  C    0.339773
     2  C    0.550143
     3  C    0.009031
     4  H   -0.627337
     5  C    0.780528
     6  H   -0.447468
     7  C    0.339658
     8  B    0.659654
     9  C    0.550339
    10  H   -0.443884
    11  H   -0.627399
    12  O   -0.474899
    13  O   -0.474876
    14  H   -0.447466
    15  H    0.157041
    16  H    0.157221
    17  O   -0.265728
    18  H    0.132821
    19  H    0.132847
 Sum of Mulliken charges =  -0.00000

 Dipole moment (field-independent basis, Debye):
    X=              4.2719    Y=             -0.0033    Z=              0.0080  Tot=              4.2720

 Test job not archived.
 1\1\GINC-SE249\SP\RHF\Aug-CC-pVDZ\C6H9B1O3\OHZDE\08-Apr-2025\0\\#t hf
 aug-cc-pvdz iop(5/13=1,5/36=2,99/5=2) pseudo=read geom=check guess=(re
 ad,tcheck) scf=(maxcycle=1)\\title\\0,1\C,0,1.25953,-1.19671,-0.0001\C
 ,0,2.64508,-1.19967,0.00081\C,0,0.541,-0.00032,-0.0006\H,0,0.72022,-2.
 13489,-0.0004\C,0,3.33913,0.00107,0.00121\H,0,3.18562,-2.1368,0.00117\
 C,0,1.25834,1.19678,-0.00016\B,0,-1.02544,-0.00106,-0.0016\C,0,2.64389
 ,1.20112,0.0007\H,0,4.42111,0.0016,0.00189\H,0,0.71811,2.13443,-0.0005
 7\O,0,-1.68242,-1.20031,-0.00203\O,0,-1.68373,1.19748,-0.00194\H,0,3.1

 Normal termination of Gaussian 16 at Tue Apr  8 22:24:51 2025.
