 Gaussian 16, Revision C.01,

 ----------------------------------------------------------------------
 #t hf aug-cc-pvdz symm=none int=(grid=ultrafine) guess=(read,tcheck) s
 table=(opt,rrhf)
 ----------------------------------------------------------------------
 -----
 title
 -----
 Symbolic Z-matrix:
 Charge =  0 Multiplicity = 1

 SCF Done:  E(RHF) =  -447.406925031     A.U. after   11 cycles
 Normal termination of Gaussian 16 at Tue Apr  8 22:18:11 2025.
 Gaussian 16:  ES64L-G16RevC.01  3-Jul-2019

 ----------------------------------------------------------------------
 #t hf aug-cc-pvdz iop(5/13=1,5/36=2,99/5=2) pseudo=read geom=check gue
 ss=(read,tcheck) scf=(maxcycle=1)
 ----------------------------------------------------------------------
 -----
 title
 -----
 Structure from the checkpoint file:  "B-set_b2f4_b2f4_090_dimer_mol2.chk"
 Charge =  0 Multiplicity = 1

                         Standard orientation:
 ---------------------------------------------------------------------
 Center     Atomic      Atomic             Coordinates (Angstroms)
 Number     Number       Type             X           Y           Z
 ---------------------------------------------------------------------
      1          5           0       -0.864438   -0.010464   -0.001270
      2          5           0        0.864771   -0.010014   -0.003706
      3          9           0       -1.536909    1.112508   -0.180312
      4          9           0       -1.562143   -1.106676    0.178408
      5          9           0        1.536924    1.112567    0.181645
      6          9           0        1.561943   -1.107023   -0.176977
 ---------------------------------------------------------------------

 SCF Done:  E(RHF) =  -447.591204204     A.U. after    2 cycles

 The electronic state is 1-A.
 Alpha  occ. eigenvalues --  -26.16030 -26.16016 -26.15678 -26.15675  -7.75830
 Alpha  occ. eigenvalues --   -7.75776  -1.71569  -1.71286  -1.69142  -1.68967
 Alpha  occ. eigenvalues --   -0.90608  -0.89537  -0.84925  -0.83456  -0.83067
 Alpha  occ. eigenvalues --   -0.79208  -0.78382  -0.78184  -0.74006  -0.73869
 Alpha  occ. eigenvalues --   -0.73805  -0.73071  -0.54625
 Alpha virt. eigenvalues --    0.02658   0.04466   0.04942   0.05957   0.07380
 Alpha virt. eigenvalues --    0.07521   0.07769   0.07781   0.13728   0.20208
 Alpha virt. eigenvalues --    0.21871   0.22595   0.24531   0.24902   0.25914

 Mulliken charges:
               1
     1  B    0.949986
     2  B    0.950696
     3  F   -0.485618
     4  F   -0.465018
     5  F   -0.486643
     6  F   -0.463402
 Sum of Mulliken charges =  -0.00000

 Dipole moment (field-independent basis, Debye):
    X=              0.0026    Y=             -0.1336    Z=             -0.0208  Tot=              0.1353

 Test job not archived.
 1\1\GINC-SE393\SP\RHF\Aug-CC-pVDZ\B2F4\OHZDE\08-Apr-2025\0\\#t hf aug-
 cc-pvdz iop(5/13=1,5/36=2,99/5=2) pseudo=read geom=check guess=(read,t
 check) scf=(maxcycle=1)\\title\\0,1\B,0,1.91416,-0.63907,0.46973\B,0,1
 .67914,0.97528,-0.10369\F,0,0.89841,-1.33833,0.94368\F,0,3.09043,-1.21
 961,0.45886\F,0,0.60477,1.6621,0.24321\F,0,2.54863,1.57167,-0.88331\\V
 ersion=ES64L-G16RevC.01\State=1-A\HF=-447.5912042\RMSD=7.733e-03\Dipol
 e=0.0460942,-0.0016296,-0.0265593\Quadrupole=-1.2769195,-1.7491569,3.0
 260764,0.8847825,1.9553657,2.2767861\PG=C01 [X(B2F4)]\\@

 Normal termination of Gaussian 16 at Tue Apr  8 22:18:13 2025.
