 Gaussian 16, Revision C.01,

 ----------------------------------------------------------------------
 #t hf aug-cc-pvdz symm=none int=(grid=ultrafine) guess=(read,tcheck) s
 table=(opt,rrhf)
 ----------------------------------------------------------------------
 -----
 title
 -----
 Symbolic Z-matrix:
 Charge =  0 Multiplicity = 1

 SCF Done:  E(RHF) =  -736.593399662     A.U. after   11 cycles
 Normal termination of Gaussian 16 at Tue Apr  8 22:34:33 2025.
 Gaussian 16:  ES64L-G16RevC.01  3-Jul-2019

 ----------------------------------------------------------------------
 #t hf aug-cc-pvdz iop(5/13=1,5/36=2,99/5=2) pseudo=read geom=check gue
 ss=(read,tcheck) scf=(maxcycle=1)
 ----------------------------------------------------------------------
 -----
 title
 -----
 Structure from the checkpoint file:  "B-set_trimethylborate_trimethylborate_110_dimer_mol1.chk"
 Charge =  0 Multiplicity = 1

                         Standard orientation:
 ---------------------------------------------------------------------
 Center     Atomic      Atomic             Coordinates (Angstroms)
 Number     Number       Type             X           Y           Z
 ---------------------------------------------------------------------
      1          5           0        1.764071   -0.001137    0.000514
      2          8           0        1.765762   -1.340679    0.246177
      3          8           0        1.768793    0.881498    1.037629
      4          8           0        1.768689    0.455867   -1.282416
      5          6           0        1.705363   -1.834436    1.570645
      6          6           0        1.711145    2.275494    0.803044
      7          6           0        1.709876   -0.444169   -2.372342
      8          1           0        0.710847   -1.676774    1.989058
      9          1           0        1.912835   -2.901740    1.531085
     10          1           0        2.442245   -1.347776    2.209756
     11          1           0        1.923845    2.774631    1.746071
     12          1           0        2.445619    2.583510    0.058733
     13          1           0        0.715936    2.561505    0.461321
     14          1           0        1.914704    0.124388   -3.277033
     15          1           0        2.449210   -1.238874   -2.271544
     16          1           0        0.716672   -0.888361   -2.444277
     17          5           0       -1.764011    0.000955   -0.000516
     18          8           0       -1.768254   -0.880600   -1.038571
     19          8           0       -1.768139   -0.457179    1.282035
     20          8           0       -1.766512    1.340767   -0.244878
     21          6           0       -1.710146   -2.274807   -0.804996
     22          6           0       -1.709195    0.442268    2.372571
     23          6           0       -1.707344    1.836003   -1.568837
     24          1           0       -2.446669   -2.584045   -0.063234
     25          1           0       -1.919606   -2.773232   -1.749114
     26          1           0       -0.715757   -2.560326   -0.460474
     27          1           0       -1.914902   -0.126621    3.276863
     28          1           0       -0.715590    0.885500    2.445106
     29          1           0       -2.447849    1.237552    2.271702
     30          1           0       -0.712878    1.679911   -1.988021
     31          1           0       -2.443906    1.349124   -2.208138
     32          1           0       -1.915975    2.903028   -1.528157
 ---------------------------------------------------------------------

 SCF Done:  E(RHF) =  -736.855485378     A.U. after    2 cycles

 The electronic state is 1-A.
 Alpha  occ. eigenvalues --  -20.56480 -20.56479 -20.56479 -20.56478 -20.56478
 Alpha  occ. eigenvalues --  -20.56478 -11.27862 -11.27860 -11.27860 -11.27860
 Alpha  occ. eigenvalues --  -11.27859 -11.27859  -7.66760  -7.66759  -1.35689
 Alpha  occ. eigenvalues --   -1.35544  -1.31028  -1.31028  -1.30940  -1.30939
 Alpha  occ. eigenvalues --   -0.94412  -0.94254  -0.92943  -0.92942  -0.92939
 Alpha  occ. eigenvalues --   -0.92938  -0.73575  -0.73481  -0.70436  -0.70435
 Alpha  occ. eigenvalues --   -0.70230  -0.70228  -0.67915  -0.65779  -0.62920
 Alpha  occ. eigenvalues --   -0.62918  -0.61977  -0.61973  -0.61250  -0.61249
 Alpha  occ. eigenvalues --   -0.61195  -0.61192  -0.58954  -0.58887  -0.51526
 Alpha  occ. eigenvalues --   -0.51234  -0.50134  -0.50077  -0.49254  -0.49253
 Alpha  occ. eigenvalues --   -0.49226  -0.49223  -0.45995  -0.45990  -0.45703
 Alpha  occ. eigenvalues --   -0.45701
 Alpha virt. eigenvalues --    0.03109   0.04176   0.04325   0.04326   0.05388
 Alpha virt. eigenvalues --    0.05389   0.05645   0.05831   0.05833   0.07529
 Alpha virt. eigenvalues --    0.07532   0.07583   0.08043   0.08146   0.08147

 Mulliken charges:
               1
     1  B    0.805305
     2  O   -0.696982
     3  O   -0.696430
     4  O   -0.698962
     5  C    1.151265
     6  C    1.151174
     7  C    1.151046
     8  H   -0.234052
     9  H   -0.283678
    10  H   -0.204455
    11  H   -0.283424
    12  H   -0.204631
    13  H   -0.233959
    14  H   -0.284030
    15  H   -0.203941
    16  H   -0.234199
    17  B    0.805259
    18  O   -0.696670
    19  O   -0.698889
    20  O   -0.696984
    21  C    1.151687
    22  C    1.151658
    23  C    1.150460
    24  H   -0.204895
    25  H   -0.283690
    26  H   -0.233878
    27  H   -0.283921
    28  H   -0.234048
    29  H   -0.204745
    30  H   -0.233078
    31  H   -0.204668
    32  H   -0.283643
 Sum of Mulliken charges =   0.00000

 Dipole moment (field-independent basis, Debye):
    X=             -0.0014    Y=              0.0006    Z=              0.0002  Tot=              0.0015

 Test job not archived.
 1\1\GINC-SE126\SP\RHF\Aug-CC-pVDZ\C6H18B2O6\OHZDE\08-Apr-2025\0\\#t hf
  aug-cc-pvdz iop(5/13=1,5/36=2,99/5=2) pseudo=read geom=check guess=(r
 ead,tcheck) scf=(maxcycle=1)\\title\\0,1\B,0,1.60824,0.00191,-0.00082\
 O,0,1.60915,1.34156,-0.2459\O,0,1.61322,-0.88027,-1.03832\O,0,1.61338,
 -0.45565,1.28191\C,0,1.5482,1.83586,-1.57014\C,0,1.55638,-2.2744,-0.80
 433\C,0,1.55431,0.44388,2.37224\H,0,0.55368,1.67784,-1.98841\H,0,1.755
 1,2.90326,-1.53016\H,0,2.28521,1.34988,-2.20962\H,0,1.76915,-2.77301,-
 1.74762\H,0,2.29118,-2.58234,-0.06031\H,0,0.5614,-2.5611,-0.46252\H,0,

 Normal termination of Gaussian 16 at Tue Apr  8 22:35:12 2025.
