 Gaussian 16, Revision C.01,

 ----------------------------------------------------------------------
 #t hf aug-cc-pvdz symm=none int=(grid=ultrafine) guess=(read,tcheck) s
 table=(opt,rrhf)
 ----------------------------------------------------------------------
 -----
 title
 -----
 Symbolic Z-matrix:
 Charge =  0 Multiplicity = 1

 SCF Done:  E(RHF) =  -736.586159055     A.U. after   12 cycles
 Normal termination of Gaussian 16 at Tue Apr  8 22:34:42 2025.
 Gaussian 16:  ES64L-G16RevC.01  3-Jul-2019

 ----------------------------------------------------------------------
 #t hf aug-cc-pvdz iop(5/13=1,5/36=2,99/5=2) pseudo=read geom=check gue
 ss=(read,tcheck) scf=(maxcycle=1)
 ----------------------------------------------------------------------
 -----
 title
 -----
 Structure from the checkpoint file:  "B-set_trimethylborate_trimethylborate_095_dimer_mol1.chk"
 Charge =  0 Multiplicity = 1

                         Standard orientation:
 ---------------------------------------------------------------------
 Center     Atomic      Atomic             Coordinates (Angstroms)
 Number     Number       Type             X           Y           Z
 ---------------------------------------------------------------------
      1          5           0        1.530323   -0.003014    0.001258
      2          8           0        1.530109   -1.342241    0.248641
      3          8           0        1.535675    0.880945    1.037241
      4          8           0        1.536214    0.452335   -1.282255
      5          6           0        1.468366   -1.834215    1.573710
      6          6           0        1.479998    2.274714    0.800837
      7          6           0        1.476774   -0.449022   -2.371055
      8          1           0        0.473842   -1.674699    1.991402
      9          1           0        1.674443   -2.901844    1.535629
     10          1           0        2.205560   -1.347713    2.212581
     11          1           0        1.692869    2.774779    1.743334
     12          1           0        2.215267    2.580800    0.056515
     13          1           0        0.485347    2.561604    0.458229
     14          1           0        1.682827    0.118102   -3.276368
     15          1           0        2.215001   -1.244575   -2.268850
     16          1           0        0.483019   -0.891988   -2.442938
     17          5           0       -1.530263    0.002832   -0.001260
     18          8           0       -1.535134   -0.880049   -1.038185
     19          8           0       -1.535665   -0.453649    1.281876
     20          8           0       -1.530859    1.342332   -0.247344
     21          6           0       -1.478997   -2.274030   -0.802790
     22          6           0       -1.476096    0.447119    2.371287
     23          6           0       -1.470346    1.835788   -1.571906
     24          1           0       -2.216316   -2.581339   -0.061017
     25          1           0       -1.688627   -2.773390   -1.746377
     26          1           0       -0.485167   -2.560425   -0.457382
     27          1           0       -1.683028   -0.120334    3.276200
     28          1           0       -0.481942    0.889127    2.443771
     29          1           0       -2.213642    1.243252    2.269011
     30          1           0       -0.475870    1.677840   -1.990370
     31          1           0       -2.207220    1.349065   -2.210965
     32          1           0       -1.677583    2.903139   -1.532704
 ---------------------------------------------------------------------

 SCF Done:  E(RHF) =  -736.846461983     A.U. after    2 cycles

 The electronic state is 1-A.
 Alpha  occ. eigenvalues --  -20.56456 -20.56455 -20.56455 -20.56454 -20.56453
 Alpha  occ. eigenvalues --  -20.56453 -11.27617 -11.27615 -11.27615 -11.27614
 Alpha  occ. eigenvalues --  -11.27614 -11.27611  -7.66753  -7.66751  -1.35887
 Alpha  occ. eigenvalues --   -1.35396  -1.31129  -1.31128  -1.30868  -1.30867
 Alpha  occ. eigenvalues --   -0.94451  -0.94042  -0.92890  -0.92889  -0.92822
 Alpha  occ. eigenvalues --   -0.92820  -0.73711  -0.73362  -0.70588  -0.70588
 Alpha  occ. eigenvalues --   -0.70177  -0.70175  -0.68948  -0.64672  -0.63371
 Alpha  occ. eigenvalues --   -0.63368  -0.62025  -0.62019  -0.61020  -0.61019
 Alpha  occ. eigenvalues --   -0.60627  -0.60623  -0.58976  -0.58787  -0.51750
 Alpha  occ. eigenvalues --   -0.51264  -0.49854  -0.49786  -0.49244  -0.49243
 Alpha  occ. eigenvalues --   -0.49208  -0.49204  -0.45940  -0.45933  -0.45445
 Alpha  occ. eigenvalues --   -0.45442
 Alpha virt. eigenvalues --    0.03096   0.04231   0.04324   0.04326   0.05369
 Alpha virt. eigenvalues --    0.05370   0.05616   0.05901   0.05903   0.07591
 Alpha virt. eigenvalues --    0.07688   0.07691   0.08067   0.08273   0.08274

 Mulliken charges:
               1
     1  B    0.901217
     2  O   -0.751318
     3  O   -0.751478
     4  O   -0.754208
     5  C    1.162758
     6  C    1.162519
     7  C    1.163072
     8  H   -0.184390
     9  H   -0.291931
    10  H   -0.234487
    11  H   -0.291637
    12  H   -0.234266
    13  H   -0.184370
    14  H   -0.292188
    15  H   -0.233883
    16  H   -0.185789
    17  B    0.900827
    18  O   -0.751022
    19  O   -0.752968
    20  O   -0.751819
    21  C    1.163463
    22  C    1.163595
    23  C    1.161735
    24  H   -0.235265
    25  H   -0.292107
    26  H   -0.183958
    27  H   -0.292394
    28  H   -0.184919
    29  H   -0.234943
    30  H   -0.183046
    31  H   -0.234677
    32  H   -0.292123
 Sum of Mulliken charges =  -0.00000

 Dipole moment (field-independent basis, Debye):
    X=             -0.0018    Y=              0.0009    Z=              0.0003  Tot=              0.0020

 Test job not archived.
 1\1\GINC-SE082\SP\RHF\Aug-CC-pVDZ\C6H18B2O6\OHZDE\08-Apr-2025\0\\#t hf
  aug-cc-pvdz iop(5/13=1,5/36=2,99/5=2) pseudo=read geom=check guess=(r
 ead,tcheck) scf=(maxcycle=1)\\title\\0,1\B,0,1.60824,0.00191,-0.00082\
 O,0,1.60915,1.34156,-0.2459\O,0,1.61322,-0.88027,-1.03832\O,0,1.61338,
 -0.45565,1.28191\C,0,1.5482,1.83586,-1.57014\C,0,1.55638,-2.2744,-0.80
 433\C,0,1.55431,0.44388,2.37224\H,0,0.55368,1.67784,-1.98841\H,0,1.755
 1,2.90326,-1.53016\H,0,2.28521,1.34988,-2.20962\H,0,1.76915,-2.77301,-
 1.74762\H,0,2.29118,-2.58234,-0.06031\H,0,0.5614,-2.5611,-0.46252\H,0,

 Normal termination of Gaussian 16 at Tue Apr  8 22:35:23 2025.
