 Gaussian 16, Revision C.01,

 ----------------------------------------------------------------------
 #t hf aug-cc-pvdz symm=none int=(grid=ultrafine) guess=(read,tcheck) s
 table=(opt,rrhf)
 ----------------------------------------------------------------------
 -----
 title
 -----
 Symbolic Z-matrix:
 Charge =  0 Multiplicity = 1

 SCF Done:  E(RHF) =  -3775.12175326     A.U. after   11 cycles
 Normal termination of Gaussian 16 at Tue Apr  8 22:19:09 2025.
 Gaussian 16:  ES64L-G16RevC.01  3-Jul-2019

 ----------------------------------------------------------------------
 #t hf aug-cc-pvdz iop(5/13=1,5/36=2,99/5=2) pseudo=read geom=check gue
 ss=(read,tcheck) scf=(maxcycle=1)
 ----------------------------------------------------------------------
 -----
 title
 -----
 Structure from the checkpoint file:  "B-set_b2cl4_b2cl4_150_dimer_mol1.chk"
 Charge =  0 Multiplicity = 1

                         Standard orientation:
 ---------------------------------------------------------------------
 Center     Atomic      Atomic             Coordinates (Angstroms)
 Number     Number       Type             X           Y           Z
 ---------------------------------------------------------------------
      1          5           0        3.133680    0.833613    0.150301
      2          5           0        3.133812   -0.833577   -0.150339
      3         17           0        2.261497    1.506482    1.506831
      4         17           0        4.055571    1.893604   -0.885249
      5         17           0        4.056051   -1.893346    0.885131
      6         17           0        2.261515   -1.506688   -1.506669
      7          5           0       -3.133770    0.833578   -0.150341
      8          5           0       -3.133818   -0.833592    0.150349
      9         17           0       -2.261313    1.506428   -1.506701
     10         17           0       -4.055889    1.893577    0.884999
     11         17           0       -2.261625   -1.506522    1.506849
     12         17           0       -4.055779   -1.893543   -0.885181
 ---------------------------------------------------------------------

 SCF Done:  E(RHF) =  -3775.28832506     A.U. after    2 cycles

 The electronic state is 1-A.
 Alpha  occ. eigenvalues -- -103.68763-103.68763-103.68763-103.68763-103.68740
 Alpha  occ. eigenvalues -- -103.68740-103.68740-103.68740 -10.72277 -10.72277
 Alpha  occ. eigenvalues --  -10.72276 -10.72276 -10.72242 -10.72242 -10.72241
 Alpha  occ. eigenvalues --  -10.72241  -8.37958  -8.37958  -8.37957  -8.37957
 Alpha  occ. eigenvalues --   -8.37942  -8.37942  -8.37942  -8.37941  -8.37733
 Alpha  occ. eigenvalues --   -8.37732  -8.37732  -8.37731  -8.37717  -8.37717
 Alpha  occ. eigenvalues --   -8.37717  -8.37716  -8.37696  -8.37696  -8.37693
 Alpha  occ. eigenvalues --   -8.37692  -8.37680  -8.37680  -8.37678  -8.37678
 Alpha  occ. eigenvalues --   -7.74128  -7.74127  -7.74061  -7.74061  -1.20720
 Alpha  occ. eigenvalues --   -1.20706  -1.19557  -1.19555  -1.16564  -1.16562
 Alpha  occ. eigenvalues --   -1.16360  -1.16356  -0.75808  -0.75807  -0.68391
 Alpha  occ. eigenvalues --   -0.68381  -0.61434  -0.61406  -0.61204  -0.61198
 Alpha  occ. eigenvalues --   -0.60120  -0.60114  -0.54432  -0.54335  -0.54090
 Alpha  occ. eigenvalues --   -0.54037  -0.52784  -0.52757  -0.50060  -0.49970
 Alpha  occ. eigenvalues --   -0.49347  -0.49308  -0.48852  -0.48798  -0.48493
 Alpha  occ. eigenvalues --   -0.48447  -0.44352  -0.44332
 Alpha virt. eigenvalues --    0.03513   0.03566   0.03790   0.04328   0.04768
 Alpha virt. eigenvalues --    0.05091   0.05325   0.06275   0.06352   0.06970
 Alpha virt. eigenvalues --    0.07039   0.07356   0.07434   0.07958   0.08259

 Mulliken charges:
               1
     1  B    0.641956
     2  B    0.641926
     3  Cl  -0.319600
     4  Cl  -0.322349
     5  Cl  -0.322346
     6  Cl  -0.319587
     7  B    0.641939
     8  B    0.641946
     9  Cl  -0.319587
    10  Cl  -0.322345
    11  Cl  -0.319604
    12  Cl  -0.322349
 Sum of Mulliken charges =   0.00000

 Dipole moment (field-independent basis, Debye):
    X=             -0.0002    Y=              0.0001    Z=             -0.0001  Tot=              0.0002

 Test job not archived.
 1\1\GINC-SE083\SP\RHF\Aug-CC-pVDZ\B4Cl8\OHZDE\08-Apr-2025\0\\#t hf aug
 -cc-pvdz iop(5/13=1,5/36=2,99/5=2) pseudo=read geom=check guess=(read,
 tcheck) scf=(maxcycle=1)\\title\\0,1\B,0,2.08355,-0.83363,-0.1503\B,0,
 2.0837,0.83356,0.15034\Cl,0,1.21136,-1.50649,-1.50683\Cl,0,3.00543,-1.
 89363,0.88525\Cl,0,3.00595,1.89332,-0.88513\Cl,0,1.21141,1.50668,1.506
 67\B,0,-4.1839,-0.83352917,0.15034167\B,0,-4.18393,0.83364083,-0.15034
 833\Cl,0,-3.31145,-1.50638917,1.50670167\Cl,0,-5.10603,-1.89351917,-0.
 88499833\Cl,0,-3.31173,1.50656083,-1.50684833\Cl,0,-5.10588,1.89360083

 Normal termination of Gaussian 16 at Tue Apr  8 22:19:22 2025.
