 Gaussian 16, Revision C.01,

 ----------------------------------------------------------------------
 #t hf aug-cc-pvdz symm=none int=(grid=ultrafine) guess=(read,tcheck) s
 table=(opt,rrhf)
 ----------------------------------------------------------------------
 -----
 title
 -----
 Symbolic Z-matrix:
 Charge =  0 Multiplicity = 1

 SCF Done:  E(RHF) =  -26.3720794922     A.U. after    9 cycles
 Normal termination of Gaussian 16 at Tue Apr  8 22:19:09 2025.
 Gaussian 16:  ES64L-G16RevC.01  3-Jul-2019

 ----------------------------------------------------------------------
 #t hf aug-cc-pvdz iop(5/13=1,5/36=2,99/5=2) pseudo=read geom=check gue
 ss=(read,tcheck) scf=(maxcycle=1)
 ----------------------------------------------------------------------
 -----
 title
 -----
 Structure from the checkpoint file:  "B-set_borane_dms_090_dimer_mol2.chk"
 Charge =  0 Multiplicity = 1

                         Standard orientation:
 ---------------------------------------------------------------------
 Center     Atomic      Atomic             Coordinates (Angstroms)
 Number     Number       Type             X           Y           Z
 ---------------------------------------------------------------------
      1          5           0        0.001326   -0.000002   -0.106908
      2          1           0        1.177135   -0.000144    0.179249
      3          1           0       -0.592012   -1.011999    0.177647
      4          1           0       -0.591755    1.012154    0.177644
 ---------------------------------------------------------------------

 SCF Done:  E(RHF) =  -26.3829438860     A.U. after    2 cycles

 The electronic state is 1-A.
 Alpha  occ. eigenvalues --   -7.63612  -0.69811  -0.48747  -0.48588
 Alpha virt. eigenvalues --    0.02436   0.04369   0.05617   0.05632   0.09814
 Alpha virt. eigenvalues --    0.10661   0.10683   0.15217   0.24422   0.24473
 Alpha virt. eigenvalues --    0.25665   0.26116   0.26137   0.36251   0.36275

 Mulliken charges:
               1
     1  B   -0.625314
     2  H    0.204758
     3  H    0.210284
     4  H    0.210271
 Sum of Mulliken charges =   0.00000

 Dipole moment (field-independent basis, Debye):
    X=              0.0019    Y=             -0.0000    Z=             -0.6670  Tot=              0.6670

 Test job not archived.
 1\1\GINC-SE332\SP\RHF\Aug-CC-pVDZ\B1H3\OHZDE\08-Apr-2025\0\\#t hf aug-
 cc-pvdz iop(5/13=1,5/36=2,99/5=2) pseudo=read geom=check guess=(read,t
 check) scf=(maxcycle=1)\\title\\0,1\B,0,1.77921,0.00284,0.30624\H,0,1.
 55019,0.00212,1.4945\H,0,2.28322,1.01582,-0.11448\H,0,2.28635,-1.00833
 ,-0.11509\\Version=ES64L-G16RevC.01\State=1-A\HF=-26.3829439\RMSD=2.41
 2e-03\Dipole=-0.2389224,-0.0003316,-0.1085126\Quadrupole=1.0080906,-0.
 688844,-0.3192466,0.0023943,0.7653329,0.0010611\PG=C01 [X(B1H3)]\\@

 Normal termination of Gaussian 16 at Tue Apr  8 22:19:10 2025.
