 Gaussian 16, Revision C.01,

 ----------------------------------------------------------------------
 #t hf aug-cc-pvdz symm=none int=(grid=ultrafine) guess=(read,tcheck) s
 table=(opt,rrhf)
 ----------------------------------------------------------------------
 -----
 title
 -----
 Symbolic Z-matrix:
 Charge =  0 Multiplicity = 1

 SCF Done:  E(RHF) =  -502.486882469     A.U. after   11 cycles
 Normal termination of Gaussian 16 at Tue Apr  8 22:20:40 2025.
 Gaussian 16:  ES64L-G16RevC.01  3-Jul-2019

 ----------------------------------------------------------------------
 #t hf aug-cc-pvdz iop(5/13=1,5/36=2,99/5=2) pseudo=read geom=check gue
 ss=(read,tcheck) scf=(maxcycle=1)
 ----------------------------------------------------------------------
 -----
 title
 -----
 Structure from the checkpoint file:  "B-set_boricacid_boricacid_105_dimer_mol1.chk"
 Charge =  0 Multiplicity = 1

                         Standard orientation:
 ---------------------------------------------------------------------
 Center     Atomic      Atomic             Coordinates (Angstroms)
 Number     Number       Type             X           Y           Z
 ---------------------------------------------------------------------
      1          5           0        2.168614    0.026425   -0.000101
      2          8           0        3.525917   -0.122305    0.000459
      3          8           0        1.590610    1.244568   -0.000731
      4          8           0        1.400810   -1.123322   -0.000041
      5          1           0        3.984303    0.715689    0.000469
      6          1           0        0.621647    1.236305   -0.000481
      7          1           0        1.932478   -1.917470    0.000599
      8          5           0       -2.168576   -0.026382    0.000072
      9          8           0       -1.400862    1.123374    0.000412
     10          8           0       -3.525929    0.122218    0.000112
     11          8           0       -1.590582   -1.244536   -0.000298
     12          1           0       -1.932610    1.917483    0.000732
     13          1           0       -3.984105   -0.715887   -0.000098
     14          1           0       -0.621610   -1.236313   -0.000378
 ---------------------------------------------------------------------

 SCF Done:  E(RHF) =  -502.665704145     A.U. after    2 cycles

 The electronic state is 1-A.
 Alpha  occ. eigenvalues --  -20.59232 -20.59231 -20.58308 -20.58307 -20.57377
 Alpha  occ. eigenvalues --  -20.57376  -7.68945  -7.68944  -1.36730  -1.36377
 Alpha  occ. eigenvalues --   -1.32019  -1.31836  -1.31115  -1.31018  -0.80354
 Alpha  occ. eigenvalues --   -0.79668  -0.76998  -0.76769  -0.75644  -0.75331
 Alpha  occ. eigenvalues --   -0.62374  -0.61955  -0.61523  -0.60317  -0.59608
 Alpha  occ. eigenvalues --   -0.59396  -0.57411  -0.57370  -0.53767  -0.53584
 Alpha  occ. eigenvalues --   -0.52549  -0.52430
 Alpha virt. eigenvalues --    0.03281   0.04135   0.04912   0.05691   0.05774
 Alpha virt. eigenvalues --    0.06510   0.07049   0.08244   0.08514   0.08637
 Alpha virt. eigenvalues --    0.11560   0.11795   0.13140   0.13264   0.18167

 Mulliken charges:
               1
     1  B    0.726813
     2  O   -0.459329
     3  O   -0.378475
     4  O   -0.467171
     5  H    0.160379
     6  H    0.245916
     7  H    0.171858
     8  B    0.726761
     9  O   -0.467108
    10  O   -0.459372
    11  O   -0.378462
    12  H    0.171890
    13  H    0.160372
    14  H    0.245928
 Sum of Mulliken charges =  -0.00000

 Dipole moment (field-independent basis, Debye):
    X=              0.0009    Y=              0.0001    Z=              0.0017  Tot=              0.0019

 Test job not archived.
 1\1\GINC-SE074\SP\RHF\Aug-CC-pVDZ\B2H6O6\OHZDE\08-Apr-2025\0\\#t hf au
 g-cc-pvdz iop(5/13=1,5/36=2,99/5=2) pseudo=read geom=check guess=(read
 ,tcheck) scf=(maxcycle=1)\\title\\0,1\B,0,2.06504,0.02667,-0.0001\O,0,
 3.42239,-0.12163,0.00046\O,0,1.48665,1.24463,-0.00073\O,0,1.2976,-1.12
 332,-0.00004\H,0,3.88051,0.71651,0.00047\H,0,0.51769,1.23606,-0.00048\
 H,0,1.82952,-1.9173,0.0006\B,0,-2.27213343,-0.0275115,0.00007257\O,0,-
 1.50478343,1.1224885,0.00041257\O,0,-3.62953343,0.1206585,0.00011257\O
 ,0,-1.69375343,-1.2454815,-0.00029743\H,0,-2.03678343,1.9164285,0.0007

 Normal termination of Gaussian 16 at Tue Apr  8 22:20:45 2025.
