 Gaussian 16, Revision C.01,

 ----------------------------------------------------------------------
 #t hf aug-cc-pvdz symm=none int=(grid=ultrafine) guess=(read,tcheck) s
 table=(opt,rrhf)
 ----------------------------------------------------------------------
 -----
 title
 -----
 Symbolic Z-matrix:
 Charge =  0 Multiplicity = 1

 SCF Done:  E(RHF) =  -736.590221273     A.U. after   11 cycles
 Normal termination of Gaussian 16 at Tue Apr  8 22:33:31 2025.
 Gaussian 16:  ES64L-G16RevC.01  3-Jul-2019

 ----------------------------------------------------------------------
 #t hf aug-cc-pvdz iop(5/13=1,5/36=2,99/5=2) pseudo=read geom=check gue
 ss=(read,tcheck) scf=(maxcycle=1)
 ----------------------------------------------------------------------
 -----
 title
 -----
 Structure from the checkpoint file:  "B-set_trimethylborate_trimethylborate_100_dimer_mol1.chk"
 Charge =  0 Multiplicity = 1

                         Standard orientation:
 ---------------------------------------------------------------------
 Center     Atomic      Atomic             Coordinates (Angstroms)
 Number     Number       Type             X           Y           Z
 ---------------------------------------------------------------------
      1          5           0        1.608240   -0.001910    0.000820
      2          8           0        1.609150   -1.341325    0.247185
      3          8           0        1.613220    0.881264    1.037474
      4          8           0        1.613380    0.454419   -1.282348
      5          6           0        1.548201   -1.834354    1.571899
      6          6           0        1.556380    2.275169    0.802147
      7          6           0        1.554309   -0.446156   -2.371815
      8          1           0        0.553681   -1.675933    1.990017
      9          1           0        1.755101   -2.901792    1.532942
     10          1           0        2.285211   -1.347761    2.210912
     11          1           0        1.769151    2.774684    1.744958
     12          1           0        2.291180    2.582396    0.057832
     13          1           0        0.561400    2.561541    0.460062
     14          1           0        1.759639    0.121816   -3.276760
     15          1           0        2.293189   -1.241209   -2.270442
     16          1           0        0.560879   -0.889845   -2.443729
     17          5           0       -1.608180    0.001728   -0.000822
     18          8           0       -1.612680   -0.880367   -1.038416
     19          8           0       -1.612830   -0.455732    1.281967
     20          8           0       -1.609900    1.341414   -0.245887
     21          6           0       -1.555380   -2.274483   -0.804099
     22          6           0       -1.553629    0.444254    2.372045
     23          6           0       -1.550181    1.835924   -1.570092
     24          1           0       -2.292230   -2.582932   -0.062333
     25          1           0       -1.764911   -2.773289   -1.748001
     26          1           0       -0.561220   -2.560363   -0.459215
     27          1           0       -1.759839   -0.124049    3.276590
     28          1           0       -0.559799    0.886984    2.444560
     29          1           0       -2.291829    1.239887    2.270602
     30          1           0       -0.555711    1.679072   -1.988982
     31          1           0       -2.286871    1.349111   -2.209295
     32          1           0       -1.758241    2.903083   -1.530015
 ---------------------------------------------------------------------

 SCF Done:  E(RHF) =  -736.851146714     A.U. after    2 cycles

 The electronic state is 1-A.
 Alpha  occ. eigenvalues --  -20.56469 -20.56468 -20.56468 -20.56467 -20.56467
 Alpha  occ. eigenvalues --  -20.56467 -11.27715 -11.27714 -11.27713 -11.27713
 Alpha  occ. eigenvalues --  -11.27712 -11.27711  -7.66747  -7.66745  -1.35788
 Alpha  occ. eigenvalues --   -1.35462  -1.31078  -1.31077  -1.30896  -1.30895
 Alpha  occ. eigenvalues --   -0.94426  -0.94126  -0.92903  -0.92902  -0.92868
 Alpha  occ. eigenvalues --   -0.92866  -0.73641  -0.73405  -0.70513  -0.70513
 Alpha  occ. eigenvalues --   -0.70188  -0.70185  -0.68533  -0.65111  -0.63189
 Alpha  occ. eigenvalues --   -0.63187  -0.61965  -0.61960  -0.61119  -0.61119
 Alpha  occ. eigenvalues --   -0.60881  -0.60877  -0.58959  -0.58826  -0.51648
 Alpha  occ. eigenvalues --   -0.51231  -0.49975  -0.49924  -0.49243  -0.49242
 Alpha  occ. eigenvalues --   -0.49208  -0.49204  -0.45973  -0.45968  -0.45547
 Alpha  occ. eigenvalues --   -0.45545
 Alpha virt. eigenvalues --    0.03103   0.04212   0.04326   0.04328   0.05377
 Alpha virt. eigenvalues --    0.05378   0.05627   0.05878   0.05880   0.07596
 Alpha virt. eigenvalues --    0.07632   0.07635   0.08059   0.08229   0.08229

 Mulliken charges:
               1
     1  B    0.872943
     2  O   -0.736415
     3  O   -0.736305
     4  O   -0.739031
     5  C    1.163343
     6  C    1.163089
     7  C    1.163466
     8  H   -0.206564
     9  H   -0.287719
    10  H   -0.222715
    11  H   -0.287380
    12  H   -0.222589
    13  H   -0.206608
    14  H   -0.288064
    15  H   -0.222142
    16  H   -0.207482
    17  B    0.872668
    18  O   -0.736074
    19  O   -0.738198
    20  O   -0.736698
    21  C    1.163956
    22  C    1.164030
    23  C    1.162336
    24  H   -0.223369
    25  H   -0.287864
    26  H   -0.206289
    27  H   -0.288222
    28  H   -0.206879
    29  H   -0.223151
    30  H   -0.205304
    31  H   -0.222933
    32  H   -0.287835
 Sum of Mulliken charges =  -0.00000

 Dipole moment (field-independent basis, Debye):
    X=             -0.0016    Y=              0.0008    Z=              0.0003  Tot=              0.0018

 Test job not archived.
 1\1\GINC-SE458\SP\RHF\Aug-CC-pVDZ\C6H18B2O6\OHZDE\08-Apr-2025\0\\#t hf
  aug-cc-pvdz iop(5/13=1,5/36=2,99/5=2) pseudo=read geom=check guess=(r
 ead,tcheck) scf=(maxcycle=1)\\title\\0,1\B,0,1.60824,0.00191,-0.00082\
 O,0,1.60915,1.34156,-0.2459\O,0,1.61322,-0.88027,-1.03832\O,0,1.61338,
 -0.45565,1.28191\C,0,1.5482,1.83586,-1.57014\C,0,1.55638,-2.2744,-0.80
 433\C,0,1.55431,0.44388,2.37224\H,0,0.55368,1.67784,-1.98841\H,0,1.755
 1,2.90326,-1.53016\H,0,2.28521,1.34988,-2.20962\H,0,1.76915,-2.77301,-
 1.74762\H,0,2.29118,-2.58234,-0.06031\H,0,0.5614,-2.5611,-0.46252\H,0,

 Normal termination of Gaussian 16 at Tue Apr  8 22:34:09 2025.
