 Gaussian 16, Revision C.01,

 ----------------------------------------------------------------------
 #t hf aug-cc-pvdz symm=none int=(grid=ultrafine) guess=(read,tcheck) s
 table=(opt,rrhf)
 ----------------------------------------------------------------------
 -----
 title
 -----
 Symbolic Z-matrix:
 Charge =  0 Multiplicity = 1

 SCF Done:  E(RHF) =  -234.163367867     A.U. after   15 cycles
 Normal termination of Gaussian 16 at Tue Apr  8 22:17:17 2025.
 Gaussian 16:  ES64L-G16RevC.01  3-Jul-2019

 ----------------------------------------------------------------------
 #t hf aug-cc-pvdz iop(5/13=1,5/36=2,99/5=2) pseudo=read geom=check gue
 ss=(read,tcheck) scf=(maxcycle=1)
 ----------------------------------------------------------------------
 -----
 title
 -----
 Structure from the checkpoint file:  "B-set_azaborine_benzene_090_dimer_mol2.chk"
 Charge =  0 Multiplicity = 1

                         Standard orientation:
 ---------------------------------------------------------------------
 Center     Atomic      Atomic             Coordinates (Angstroms)
 Number     Number       Type             X           Y           Z
 ---------------------------------------------------------------------
      1          7           0       -1.271789    0.482340   -0.000399
      2          5           0       -0.230483    1.456941    0.000101
      3          6           0       -1.046014   -0.855129    0.000017
      4          1           0       -2.239801    0.762015    0.000593
      5          6           0        1.169640    0.889107    0.000041
      6          1           0       -0.541903    2.610171    0.000610
      7          6           0        0.217509   -1.351813    0.000041
      8          1           0       -1.917305   -1.495525    0.000693
      9          6           0        1.327107   -0.467692   -0.000082
     10          1           0        2.060263    1.505334    0.000154
     11          1           0        0.365850   -2.421111    0.000349
     12          1           0        2.318382   -0.908803   -0.000203
 ---------------------------------------------------------------------

 SCF Done:  E(RHF) =  -234.234995177     A.U. after    2 cycles

 The electronic state is 1-A.
 Alpha  occ. eigenvalues --  -15.65107 -11.29385 -11.25275 -11.22926 -11.20077
 Alpha  occ. eigenvalues --   -7.58555  -1.21616  -1.06584  -0.97232  -0.83377
 Alpha  occ. eigenvalues --   -0.78322  -0.73165  -0.63287  -0.62781  -0.60007
 Alpha  occ. eigenvalues --   -0.55888  -0.53762  -0.48972  -0.46115  -0.39457
 Alpha  occ. eigenvalues --   -0.30748
 Alpha virt. eigenvalues --    0.02868   0.04057   0.04319   0.05440   0.05991
 Alpha virt. eigenvalues --    0.06274   0.07936   0.08978   0.09434   0.09701
 Alpha virt. eigenvalues --    0.12228   0.12509   0.13451   0.13827   0.14613

 Mulliken charges:
               1
     1  N   -0.220197
     2  B   -0.322030
     3  C    0.778528
     4  H   -0.052532
     5  C    0.615776
     6  H    0.352729
     7  C    0.447878
     8  H   -0.411776
     9  C    0.075078
    10  H   -0.440001
    11  H   -0.416374
    12  H   -0.407079
 Sum of Mulliken charges =  -0.00000

 Dipole moment (field-independent basis, Debye):
    X=             -1.6553    Y=             -1.2370    Z=              0.0020  Tot=              2.0665

 Test job not archived.
 1\1\GINC-SE343\SP\RHF\Aug-CC-pVDZ\C4H6B1N1\OHZDE\08-Apr-2025\0\\#t hf
 aug-cc-pvdz iop(5/13=1,5/36=2,99/5=2) pseudo=read geom=check guess=(re
 ad,tcheck) scf=(maxcycle=1)\\title\\0,1\N,0,-0.98689,0.19856,0.05529\B
 ,0,-1.78972,1.37715,0.03178\C,0,-1.49918,-1.05725,0.03801\H,0,0.01841,
 0.25995,0.08478\C,0,-3.2794,1.12899,-0.0135\H,0,-1.2341,2.43446,0.0492
 3\C,0,-2.84008,-1.26583,-0.00281\H,0,-0.78916,-1.87256,0.05793\C,0,-3.
 7293,-0.16061,-0.02839\H,0,-4.01353,1.92494,-0.03496\H,0,-3.21828,-2.2
 7687,-0.01566\H,0,-4.79252,-0.37445,-0.06067\\Version=ES64L-G16RevC.01

 Normal termination of Gaussian 16 at Tue Apr  8 22:17:20 2025.
