 Gaussian 16, Revision C.01,

 ----------------------------------------------------------------------
 #t hf aug-cc-pvdz symm=none int=(grid=ultrafine) guess=(read,tcheck) s
 table=(opt,rrhf)
 ----------------------------------------------------------------------
 -----
 title
 -----
 Symbolic Z-matrix:
 Charge =  0 Multiplicity = 1

 SCF Done:  E(RHF) =  -181.408537193     A.U. after   12 cycles
 Normal termination of Gaussian 16 at Tue Apr  8 22:22:27 2025.
 Gaussian 16:  ES64L-G16RevC.01  3-Jul-2019

 ----------------------------------------------------------------------
 #t hf aug-cc-pvdz iop(5/13=1,5/36=2,99/5=2) pseudo=read geom=check gue
 ss=(read,tcheck) scf=(maxcycle=1)
 ----------------------------------------------------------------------
 -----
 title
 -----
 Structure from the checkpoint file:  "B-set_borole_borolane_090_dimer_mol3.chk"
 Charge =  0 Multiplicity = 1

                         Standard orientation:
 ---------------------------------------------------------------------
 Center     Atomic      Atomic             Coordinates (Angstroms)
 Number     Number       Type             X           Y           Z
 ---------------------------------------------------------------------
      1          5           0        0.005170    1.372288   -0.033192
      2          6           0       -1.256023    0.454963    0.127765
      3          6           0        1.268281    0.436345   -0.100808
      4          1           0        0.014629    2.567290   -0.032996
      5          1           0       -1.506201    0.491060    1.199002
      6          1           0       -2.161063    0.753415   -0.400505
      7          6           0       -0.742922   -0.946260   -0.232029
      8          6           0        0.722029   -0.968537    0.219122
      9          1           0        1.638826    0.471628   -1.132445
     10          1           0        2.111141    0.741389    0.520770
     11          1           0       -0.788663   -1.080434   -1.320860
     12          1           0       -1.331965   -1.756727    0.197560
     13          1           0        1.290404   -1.772872   -0.247555
     14          1           0        0.758853   -1.135253    1.298693
 ---------------------------------------------------------------------

 SCF Done:  E(RHF) =  -181.464893354     A.U. after    2 cycles

 The electronic state is 1-A.
 Alpha  occ. eigenvalues --  -11.22219 -11.22151 -11.20090 -11.20066  -7.59565
 Alpha  occ. eigenvalues --   -1.07657  -0.94699  -0.87943  -0.77188  -0.65412
 Alpha  occ. eigenvalues --   -0.63000  -0.60465  -0.56465  -0.51648  -0.47982
 Alpha  occ. eigenvalues --   -0.46709  -0.45632  -0.44823  -0.42947
 Alpha virt. eigenvalues --    0.03068   0.04510   0.04572   0.04713   0.06473
 Alpha virt. eigenvalues --    0.06541   0.06747   0.06913   0.07306   0.09252
 Alpha virt. eigenvalues --    0.09679   0.11347   0.12762   0.13083   0.14322

 Mulliken charges:
               1
     1  B   -0.054164
     2  C    0.401059
     3  C    0.447134
     4  H    0.245448
     5  H   -0.161765
     6  H   -0.219982
     7  C    0.096125
     8  C    0.122128
     9  H   -0.193970
    10  H   -0.221091
    11  H   -0.117813
    12  H   -0.110356
    13  H   -0.111541
    14  H   -0.121212
 Sum of Mulliken charges =  -0.00000

 Dipole moment (field-independent basis, Debye):
    X=             -0.0003    Y=             -0.2490    Z=             -0.0207  Tot=              0.2498

 Test job not archived.
 1\1\GINC-SE110\SP\RHF\Aug-CC-pVDZ\C4H9B1\OHZDE\08-Apr-2025\0\\#t hf au
 g-cc-pvdz iop(5/13=1,5/36=2,99/5=2) pseudo=read geom=check guess=(read
 ,tcheck) scf=(maxcycle=1)\\title\\0,1\B,0,1.30377,1.04969,0.87592\C,0,
 1.05693,-0.42791,1.33827\C,0,2.13873,0.99762,-0.4568\H,0,0.97945,2.037
 94,1.46439\H,0,1.80068,-0.61278,2.12827\H,0,0.08798,-0.65725,1.78074\C
 ,0,1.40471,-1.26614,0.1003\C,0,2.51471,-0.48824,-0.61586\H,0,1.46809,1
 .30645,-1.26778\H,0,2.98684,1.68186,-0.50526\H,0,0.52534,-1.32781,-0.5
 5434\H,0,1.68548,-2.29474,0.32729\H,0,2.63803,-0.79699,-1.65377\H,0,3.

 Normal termination of Gaussian 16 at Tue Apr  8 22:22:31 2025.
