 Gaussian 16, Revision C.01,

 ----------------------------------------------------------------------
 #t hf aug-cc-pvdz symm=none int=(grid=ultrafine) guess=(read,tcheck) s
 table=(opt,rrhf)
 ----------------------------------------------------------------------
 -----
 title
 -----
 Symbolic Z-matrix:
 Charge =  0 Multiplicity = 1

 SCF Done:  E(RHF) =  -463.659882535     A.U. after   15 cycles
 Normal termination of Gaussian 16 at Tue Apr  8 22:23:38 2025.
 Gaussian 16:  ES64L-G16RevC.01  3-Jul-2019

 ----------------------------------------------------------------------
 #t hf aug-cc-pvdz iop(5/13=1,5/36=2,99/5=2) pseudo=read geom=check gue
 ss=(read,tcheck) scf=(maxcycle=1)
 ----------------------------------------------------------------------
 -----
 title
 -----
 Structure from the checkpoint file:  "B-set_borabenzene_pyridine_125_dimer_mol1.chk"
 Charge =  0 Multiplicity = 1

                         Standard orientation:
 ---------------------------------------------------------------------
 Center     Atomic      Atomic             Coordinates (Angstroms)
 Number     Number       Type             X           Y           Z
 ---------------------------------------------------------------------
      1          6           0       -1.701060    1.234662    0.364086
      2          6           0       -3.088630    1.163902    0.350066
      3          6           0       -3.768940   -0.000028   -0.000064
      4          6           0       -3.088530   -1.163938   -0.350024
      5          6           0       -1.700901   -1.234708   -0.364164
      6          1           0       -4.851210   -0.000047   -0.000134
      7          1           0       -1.256140    2.174542    0.680856
      8          1           0       -3.676080    2.033732    0.625796
      9          1           0       -3.675961   -2.033658   -0.626134
     10          1           0       -1.256331   -2.174498   -0.681664
     11          5           0       -0.959310   -0.000009    0.000006
     12          6           0        1.658252   -1.092099    0.383694
     13          6           0        3.034132   -1.127050    0.387044
     14          6           0        3.739612    0.000010   -0.000166
     15          6           0        3.034033    1.127130   -0.387086
     16          6           0        1.658173    1.092101   -0.383416
     17          7           0        0.979302   -0.000009    0.000144
     18          1           0        4.820152    0.000010   -0.000276
     19          1           0        1.050982   -1.927049    0.697044
     20          1           0        3.539362   -2.027260    0.701944
     21          1           0        3.539163    2.027410   -0.701946
     22          1           0        1.050653    1.927031   -0.696336
 ---------------------------------------------------------------------

 SCF Done:  E(RHF) =  -463.795304350     A.U. after    2 cycles

 The electronic state is 1-A.
 Alpha  occ. eigenvalues --  -15.71248 -11.33334 -11.33322 -11.31076 -11.28875
 Alpha  occ. eigenvalues --  -11.28873 -11.20843 -11.20839 -11.18500 -11.17669
 Alpha  occ. eigenvalues --  -11.17650  -7.58511  -1.29119  -1.12641  -1.08081
 Alpha  occ. eigenvalues --   -1.06469  -0.95942  -0.90737  -0.90702  -0.88577
 Alpha  occ. eigenvalues --   -0.77812  -0.76078  -0.71635  -0.70205  -0.69351
 Alpha  occ. eigenvalues --   -0.65112  -0.65097  -0.62454  -0.60093  -0.56710
 Alpha  occ. eigenvalues --   -0.55037  -0.54779  -0.54547  -0.50440  -0.46189
 Alpha  occ. eigenvalues --   -0.44535  -0.43606  -0.42273  -0.39533  -0.30148
 Alpha  occ. eigenvalues --   -0.25050
 Alpha virt. eigenvalues --    0.01677   0.02858   0.03950   0.04222   0.05220
 Alpha virt. eigenvalues --    0.05360   0.05781   0.06411   0.06859   0.07186
 Alpha virt. eigenvalues --    0.07266   0.07882   0.08979   0.09445   0.09648

 Mulliken charges:
               1
     1  C    0.750808
     2  C    0.209697
     3  C   -0.011851
     4  C    0.209675
     5  C    0.750808
     6  H   -0.510782
     7  H   -0.617882
     8  H   -0.490649
     9  H   -0.490741
    10  H   -0.617661
    11  B    0.810606
    12  C    0.585367
    13  C    0.896293
    14  C   -0.107285
    15  C    0.896438
    16  C    0.585010
    17  N   -0.572679
    18  H   -0.411774
    19  H   -0.525045
    20  H   -0.406589
    21  H   -0.406538
    22  H   -0.525225
 Sum of Mulliken charges =  -0.00000

 Dipole moment (field-independent basis, Debye):
    X=              8.5486    Y=              0.0004    Z=             -0.0004  Tot=              8.5486

 Test job not archived.
 1\1\GINC-SE159\SP\RHF\Aug-CC-pVDZ\C10H10B1N1\OHZDE\08-Apr-2025\0\\#t h
 f aug-cc-pvdz iop(5/13=1,5/36=2,99/5=2) pseudo=read geom=check guess=(
 read,tcheck) scf=(maxcycle=1)\\title\\0,1\C,0,1.50247,-1.23466,0.3641\
 C,0,2.89004,-1.1639,0.35008\C,0,3.57035,0.00003,-0.00005\C,0,2.88994,1
 .16394,-0.35001\C,0,1.50231,1.23471,-0.36415\H,0,4.65262,0.00005,-0.00
 012\H,0,1.05755,-2.17454,0.68087\H,0,3.47749,-2.03373,0.62581\H,0,3.47
 737,2.03366,-0.62612\H,0,1.05774,2.1745,-0.68165\B,0,0.76072,0.00001,0
 .00002\C,0,-1.8568425,1.0921,0.3837075\C,0,-3.2327225,1.12705,0.387057

 Normal termination of Gaussian 16 at Tue Apr  8 22:23:58 2025.
