 Gaussian 16, Revision C.01,

 ----------------------------------------------------------------------
 #t hf aug-cc-pvdz symm=none int=(grid=ultrafine) guess=(read,tcheck) s
 table=(opt,rrhf)
 ----------------------------------------------------------------------
 -----
 title
 -----
 Symbolic Z-matrix:
 Charge =  0 Multiplicity = 1

 SCF Done:  E(RHF) =  -2334.96754630     A.U. after   12 cycles

 1\1\GINC-SE332\Stability\RHF\Aug-CC-pVDZ\B4Cl4F4\OHZDE\08-Apr-2025\0\\
 #t hf aug-cc-pvdz symm=none int=(grid=ultrafine) guess=(read,tcheck) s
 table=(opt,rrhf)\\title\\0,1\B,0,-1.57438,-0.71073,0.17185\B,0,-1.4340
 6,0.93593,-0.18667\Cl,0,-2.09565,-1.82193,-1.067\Cl,0,-1.25402,-1.2836
 8,1.78589\Cl,0,-2.80515,1.98794,0.03394\Cl,0,0.06371,1.62548,-0.79315\
 B,0,2.18498758,-0.67899292,-0.67457433\B,0,2.56424758,0.29046708,0.704
 77567\F,0,1.29507758,-1.65034292,-0.60478433\F,0,2.77138758,-0.4858829
 2,-1.83549433\F,0,2.04484758,0.03472708,1.88694567\F,0,3.38053758,1.31

 Normal termination of Gaussian 16 at Tue Apr  8 22:18:53 2025.
 Gaussian 16:  ES64L-G16RevC.01  3-Jul-2019

 ----------------------------------------------------------------------
 #t hf aug-cc-pvdz iop(5/13=1,5/36=2,99/5=2) pseudo=read geom=check gue
 ss=(read,tcheck) scf=(maxcycle=1)
 ----------------------------------------------------------------------
 -----
 title
 -----
 Structure from the checkpoint file:  "B-set_b2f4_b2cl4_095_dimer_mol1.chk"
 Charge =  0 Multiplicity = 1

                         Standard orientation:
 ---------------------------------------------------------------------
 Center     Atomic      Atomic             Coordinates (Angstroms)
 Number     Number       Type             X           Y           Z
 ---------------------------------------------------------------------
      1          5           0       -1.508012   -0.696779    0.171357
      2          5           0       -1.345410    0.947744   -0.187557
      3         17           0       -2.043112   -1.801305   -1.067566
      4         17           0       -1.196612   -1.273448    1.785826
      5         17           0       -2.702488    2.018058    0.031643
      6         17           0        0.161922    1.617019   -0.793061
      7          5           0        2.252111   -0.715566   -0.672097
      8          5           0        2.643208    0.249176    0.707256
      9          9           0        1.349241   -1.674911   -0.602714
     10          9           0        2.841955   -0.530680   -1.832610
     11          9           0        2.119504    0.000776    1.889093
     12          9           0        3.473237    1.266104    0.617218
 ---------------------------------------------------------------------

 SCF Done:  E(RHF) =  -2335.23259029     A.U. after    2 cycles

 The electronic state is 1-A.
 Alpha  occ. eigenvalues -- -103.70479-103.69564-103.68704-103.68674 -26.15932
 Alpha  occ. eigenvalues --  -26.15551 -26.15502 -26.15444 -10.74003 -10.73060
 Alpha  occ. eigenvalues --  -10.72211 -10.72169  -8.39686  -8.39469  -8.39445
 Alpha  occ. eigenvalues --   -8.38753  -8.38525  -8.38488  -8.37898  -8.37869
 Alpha  occ. eigenvalues --   -8.37669  -8.37642  -8.37634  -8.37605  -7.75449
 Alpha  occ. eigenvalues --   -7.75264  -7.75041  -7.74227  -1.71371  -1.70986
 Alpha  occ. eigenvalues --   -1.69033  -1.68720  -1.21672  -1.19905  -1.17689
 Alpha  occ. eigenvalues --   -1.16481  -0.90441  -0.89325  -0.84756  -0.83192
 Alpha  occ. eigenvalues --   -0.82906  -0.79198  -0.78242  -0.77943  -0.76503
 Alpha  occ. eigenvalues --   -0.74013  -0.73747  -0.73605  -0.72829  -0.69001
 Alpha  occ. eigenvalues --   -0.62167  -0.61690  -0.60824  -0.55772  -0.54820
 Alpha  occ. eigenvalues --   -0.54081  -0.53038  -0.50986  -0.49693  -0.49480
 Alpha  occ. eigenvalues --   -0.48669  -0.44812
 Alpha virt. eigenvalues --    0.03178   0.03928   0.04308   0.04464   0.04793
 Alpha virt. eigenvalues --    0.05017   0.05920   0.06509   0.06719   0.07010
 Alpha virt. eigenvalues --    0.07249   0.07740   0.08784   0.08945   0.09413

 Mulliken charges:
               1
     1  B    0.761284
     2  B    0.579417
     3  Cl  -0.359623
     4  Cl  -0.346370
     5  Cl  -0.329042
     6  Cl  -0.310663
     7  B    0.988410
     8  B    1.048989
     9  F   -0.511963
    10  F   -0.521236
    11  F   -0.485366
    12  F   -0.513837
 Sum of Mulliken charges =  -0.00000

 Dipole moment (field-independent basis, Debye):
    X=             -0.4445    Y=              0.0545    Z=              0.0109  Tot=              0.4479

 Test job not archived.
 1\1\GINC-SE332\SP\RHF\Aug-CC-pVDZ\B4Cl4F4\OHZDE\08-Apr-2025\0\\#t hf a
 ug-cc-pvdz iop(5/13=1,5/36=2,99/5=2) pseudo=read geom=check guess=(rea
 d,tcheck) scf=(maxcycle=1)\\title\\0,1\B,0,-1.57438,-0.71073,0.17185\B
 ,0,-1.43406,0.93593,-0.18667\Cl,0,-2.09565,-1.82193,-1.067\Cl,0,-1.254
 02,-1.28368,1.78589\Cl,0,-2.80515,1.98794,0.03394\Cl,0,0.06371,1.62548
 ,-0.79315\B,0,2.18498758,-0.67899292,-0.67457433\B,0,2.56424758,0.2904
 6708,0.70477567\F,0,1.29507758,-1.65034292,-0.60478433\F,0,2.77138758,
 -0.48588292,-1.83549433\F,0,2.04484758,0.03472708,1.88694567\F,0,3.380

 Normal termination of Gaussian 16 at Tue Apr  8 22:19:02 2025.
