 Gaussian 16, Revision C.01,

 ----------------------------------------------------------------------
 #t hf aug-cc-pvdz symm=none int=(grid=ultrafine) guess=(read,tcheck) s
 table=(opt,rrhf)
 ----------------------------------------------------------------------
 -----
 title
 -----
 Symbolic Z-matrix:
 Charge =  0 Multiplicity = 1

 SCF Done:  E(RHF) =  -497.145897683     A.U. after   14 cycles
 Normal termination of Gaussian 16 at Tue Apr  8 22:23:55 2025.
 Gaussian 16:  ES64L-G16RevC.01  3-Jul-2019

 ----------------------------------------------------------------------
 #t hf aug-cc-pvdz iop(5/13=1,5/36=2,99/5=2) pseudo=read geom=check gue
 ss=(read,tcheck) scf=(maxcycle=1)
 ----------------------------------------------------------------------
 -----
 title
 -----
 Structure from the checkpoint file:  "B-set_borepin_borazine_110_dimer_mol1.chk"
 Charge =  0 Multiplicity = 1

                         Standard orientation:
 ---------------------------------------------------------------------
 Center     Atomic      Atomic             Coordinates (Angstroms)
 Number     Number       Type             X           Y           Z
 ---------------------------------------------------------------------
      1          6           0       -1.322731   -1.149819    1.228704
      2          6           0       -2.042517   -1.525509    0.135892
      3          6           0       -0.988399    0.144429    1.706120
      4          1           0       -0.937819   -1.965109    1.830291
      5          6           0       -2.678983   -0.735829   -0.858059
      6          1           0       -2.147792   -2.595443   -0.001913
      7          6           0       -1.296030    1.360502    1.175975
      8          1           0       -0.393509    0.132440    2.614712
      9          6           0       -2.717260    0.620141   -0.984400
     10          1           0       -3.196232   -1.321822   -1.612721
     11          1           0       -0.902298    2.200430    1.741985
     12          5           0       -2.087310    1.676933   -0.086200
     13          1           0       -3.277860    0.967572   -1.848417
     14          1           0       -2.228367    2.828243   -0.387907
     15          5           0        3.041125   -0.013825    0.737561
     16          7           0        2.607529    1.197217    0.129153
     17          7           0        2.551599   -1.234102    0.187854
     18          1           0        3.783673   -0.009683    1.674724
     19          5           0        1.703113    1.224042   -0.974112
     20          1           0        2.934170    2.069348    0.502869
     21          5           0        1.661602   -1.274367   -0.927259
     22          1           0        2.852009   -2.100383    0.595602
     23          7           0        1.266493   -0.029490   -1.490263
     24          1           0        1.334775    2.255527   -1.450260
     25          1           0        1.271845   -2.313317   -1.371240
     26          1           0        0.610922   -0.030574   -2.250270
 ---------------------------------------------------------------------

 SCF Done:  E(RHF) =  -497.300340373     A.U. after    2 cycles

 The electronic state is 1-A.
 Alpha  occ. eigenvalues --  -15.59491 -15.59327 -15.59099 -11.26511 -11.26353
 Alpha  occ. eigenvalues --  -11.26233 -11.26103 -11.22469 -11.22330  -7.61135
 Alpha  occ. eigenvalues --   -7.61059  -7.60926  -7.57626  -1.16059  -1.11743
 Alpha  occ. eigenvalues --   -1.09043  -1.08908  -1.04543  -0.98942  -0.87588
 Alpha  occ. eigenvalues --   -0.81556  -0.73911  -0.71994  -0.71878  -0.70443
 Alpha  occ. eigenvalues --   -0.68843  -0.66847  -0.62507  -0.60431  -0.59912
 Alpha  occ. eigenvalues --   -0.59804  -0.58214  -0.54600  -0.53327  -0.53154
 Alpha  occ. eigenvalues --   -0.51458  -0.48306  -0.46793  -0.46776  -0.45704
 Alpha  occ. eigenvalues --   -0.45645  -0.40222  -0.40035  -0.38141  -0.32213
 Alpha virt. eigenvalues --    0.02603   0.03049   0.03356   0.03790   0.04880
 Alpha virt. eigenvalues --    0.05033   0.05149   0.05603   0.05791   0.05884
 Alpha virt. eigenvalues --    0.06580   0.07105   0.07437   0.07808   0.07933

 Mulliken charges:
               1
     1  C    0.248141
     2  C    0.202369
     3  C    0.935751
     4  H   -0.591897
     5  C    0.691880
     6  H   -0.537028
     7  C    0.687738
     8  H   -0.554353
     9  C    0.648367
    10  H   -0.488919
    11  H   -0.558563
    12  B   -0.798368
    13  H   -0.509897
    14  H    0.559776
    15  B   -0.124934
    16  N   -0.128558
    17  N   -0.139416
    18  H    0.295700
    19  B   -0.008265
    20  H   -0.156719
    21  B   -0.065246
    22  H   -0.130851
    23  N   -0.042767
    24  H    0.378013
    25  H    0.335383
    26  H   -0.147335
 Sum of Mulliken charges =  -0.00000

 Dipole moment (field-independent basis, Debye):
    X=              0.1307    Y=             -1.8205    Z=              0.5196  Tot=              1.8977

 Test job not archived.
 1\1\GINC-SE332\SP\RHF\Aug-CC-pVDZ\C6H13B4N3\OHZDE\08-Apr-2025\0\\#t hf
  aug-cc-pvdz iop(5/13=1,5/36=2,99/5=2) pseudo=read geom=check guess=(r
 ead,tcheck) scf=(maxcycle=1)\\title\\0,1\C,0,-1.1002,-1.1557,1.24379\C
 ,0,-1.87153,-1.52215,0.18349\C,0,-0.73895,0.13441,1.71272\H,0,-0.6909,
 -1.97601,1.822\C,0,-2.55047,-0.72416,-0.77509\H,0,-1.98729,-2.59084,0.
 04445\C,0,-1.06616,1.35478,1.20463\H,0,-0.10247,0.11476,2.59254\C,0,-2
 .58928,0.63268,-0.89154\H,0,-3.10457,-1.30369,-1.50828\H,0,-0.64323,2.
 18983,1.75662\B,0,-1.91408,1.68172,-0.01745\H,0,-3.18812,0.98737,-1.72

 Normal termination of Gaussian 16 at Tue Apr  8 22:24:16 2025.
