 Gaussian 16, Revision C.01,

 ----------------------------------------------------------------------
 #t hf aug-cc-pvdz symm=none int=(grid=ultrafine) guess=(read,tcheck) s
 table=(opt,rrhf)
 ----------------------------------------------------------------------
 -----
 title
 -----
 Symbolic Z-matrix:
 Charge =  0 Multiplicity = 1

 SCF Done:  E(RHF) =  -736.593303733     A.U. after   11 cycles
 Normal termination of Gaussian 16 at Tue Apr  8 22:32:49 2025.
 Gaussian 16:  ES64L-G16RevC.01  3-Jul-2019

 ----------------------------------------------------------------------
 #t hf aug-cc-pvdz iop(5/13=1,5/36=2,99/5=2) pseudo=read geom=check gue
 ss=(read,tcheck) scf=(maxcycle=1)
 ----------------------------------------------------------------------
 -----
 title
 -----
 Structure from the checkpoint file:  "B-set_trimethylborate_trimethylborate_125_dimer_mol1.chk"
 Charge =  0 Multiplicity = 1

                         Standard orientation:
 ---------------------------------------------------------------------
 Center     Atomic      Atomic             Coordinates (Angstroms)
 Number     Number       Type             X           Y           Z
 ---------------------------------------------------------------------
      1          5           0        1.997818   -0.000735    0.000354
      2          8           0        1.999905   -1.340343    0.245656
      3          8           0        2.002407    0.881621    1.037706
      4          8           0        2.002171    0.456616   -1.282454
      5          6           0        1.939786   -1.834472    1.569998
      6          6           0        1.944348    2.275665    0.803502
      7          6           0        1.943489   -0.443144   -2.372615
      8          1           0        0.945271   -1.677199    1.988561
      9          1           0        2.147549   -2.901709    1.530129
     10          1           0        2.676602   -1.347781    2.209161
     11          1           0        2.157012    2.774607    1.746641
     12          1           0        2.678656    2.584084    0.059195
     13          1           0        0.949023    2.561492    0.461964
     14          1           0        2.148062    0.125714   -3.277175
     15          1           0        2.683053   -1.237671   -2.272110
     16          1           0        0.950400   -0.887591   -2.444562
     17          5           0       -1.997757    0.000553   -0.000356
     18          8           0       -2.001868   -0.880723   -1.038648
     19          8           0       -2.001620   -0.457927    1.282072
     20          8           0       -2.000655    1.340430   -0.244358
     21          6           0       -1.943349   -2.274977   -0.805454
     22          6           0       -1.942807    0.441243    2.372843
     23          6           0       -1.941766    1.836039   -1.568189
     24          1           0       -2.679707   -2.584618   -0.063697
     25          1           0       -2.152774   -2.773206   -1.749684
     26          1           0       -0.948844   -2.560314   -0.461116
     27          1           0       -2.148260   -0.127946    3.277004
     28          1           0       -0.949317    0.884730    2.445391
     29          1           0       -2.681692    1.236350    2.272268
     30          1           0       -0.947303    1.680335   -1.987523
     31          1           0       -2.678263    1.349128   -2.207542
     32          1           0       -2.150689    2.902995   -1.527200
 ---------------------------------------------------------------------

 SCF Done:  E(RHF) =  -736.856831463     A.U. after    2 cycles

 The electronic state is 1-A.
 Alpha  occ. eigenvalues --  -20.56481 -20.56481 -20.56480 -20.56480 -20.56479
 Alpha  occ. eigenvalues --  -20.56479 -11.27997 -11.27996 -11.27996 -11.27996
 Alpha  occ. eigenvalues --  -11.27996 -11.27995  -7.66800  -7.66799  -1.35654
 Alpha  occ. eigenvalues --   -1.35608  -1.31017  -1.31017  -1.30987  -1.30986
 Alpha  occ. eigenvalues --   -0.94428  -0.94377  -0.93018  -0.93017  -0.92994
 Alpha  occ. eigenvalues --   -0.92993  -0.73567  -0.73553  -0.70405  -0.70403
 Alpha  occ. eigenvalues --   -0.70299  -0.70297  -0.67388  -0.66373  -0.62694
 Alpha  occ. eigenvalues --   -0.62692  -0.62163  -0.62161  -0.61355  -0.61353
 Alpha  occ. eigenvalues --   -0.61347  -0.61347  -0.58975  -0.58950  -0.51454
 Alpha  occ. eigenvalues --   -0.51297  -0.50259  -0.50180  -0.49283  -0.49281
 Alpha  occ. eigenvalues --   -0.49265  -0.49262  -0.45988  -0.45984  -0.45853
 Alpha  occ. eigenvalues --   -0.45850
 Alpha virt. eigenvalues --    0.03106   0.04126   0.04313   0.04314   0.05387
 Alpha virt. eigenvalues --    0.05388   0.05677   0.05766   0.05768   0.07397
 Alpha virt. eigenvalues --    0.07400   0.07516   0.08021   0.08039   0.08041

 Mulliken charges:
               1
     1  B    0.723361
     2  O   -0.636959
     3  O   -0.636348
     4  O   -0.637974
     5  C    1.117833
     6  C    1.117896
     7  C    1.117288
     8  H   -0.239166
     9  H   -0.289387
    10  H   -0.193381
    11  H   -0.289279
    12  H   -0.193761
    13  H   -0.238740
    14  H   -0.289713
    15  H   -0.192710
    16  H   -0.238870
    17  B    0.723500
    18  O   -0.636856
    19  O   -0.638359
    20  O   -0.636761
    21  C    1.117900
    22  C    1.117666
    23  C    1.117252
    24  H   -0.193481
    25  H   -0.289327
    26  H   -0.238841
    27  H   -0.289389
    28  H   -0.238971
    29  H   -0.193066
    30  H   -0.238550
    31  H   -0.193483
    32  H   -0.289319
 Sum of Mulliken charges =   0.00000

 Dipole moment (field-independent basis, Debye):
    X=             -0.0012    Y=              0.0005    Z=              0.0002  Tot=              0.0013

 Test job not archived.
 1\1\GINC-SE221\SP\RHF\Aug-CC-pVDZ\C6H18B2O6\OHZDE\08-Apr-2025\0\\#t hf
  aug-cc-pvdz iop(5/13=1,5/36=2,99/5=2) pseudo=read geom=check guess=(r
 ead,tcheck) scf=(maxcycle=1)\\title\\0,1\B,0,1.60824,0.00191,-0.00082\
 O,0,1.60915,1.34156,-0.2459\O,0,1.61322,-0.88027,-1.03832\O,0,1.61338,
 -0.45565,1.28191\C,0,1.5482,1.83586,-1.57014\C,0,1.55638,-2.2744,-0.80
 433\C,0,1.55431,0.44388,2.37224\H,0,0.55368,1.67784,-1.98841\H,0,1.755
 1,2.90326,-1.53016\H,0,2.28521,1.34988,-2.20962\H,0,1.76915,-2.77301,-
 1.74762\H,0,2.29118,-2.58234,-0.06031\H,0,0.5614,-2.5611,-0.46252\H,0,

 Normal termination of Gaussian 16 at Tue Apr  8 22:33:27 2025.
