 Gaussian 16, Revision C.01,

 ----------------------------------------------------------------------
 #t hf aug-cc-pvdz symm=none int=(grid=ultrafine) guess=(read,tcheck) s
 table=(opt,rrhf)
 ----------------------------------------------------------------------
 -----
 title
 -----
 Symbolic Z-matrix:
 Charge =  0 Multiplicity = 1

 SCF Done:  E(RHF) =  -143.467557607     A.U. after   12 cycles
 Normal termination of Gaussian 16 at Tue Apr  8 22:21:20 2025.
 Gaussian 16:  ES64L-G16RevC.01  3-Jul-2019

 ----------------------------------------------------------------------
 #t hf aug-cc-pvdz iop(5/13=1,5/36=2,99/5=2) pseudo=read geom=check gue
 ss=(read,tcheck) scf=(maxcycle=1)
 ----------------------------------------------------------------------
 -----
 title
 -----
 Structure from the checkpoint file:  "B-set_borirane_methane_090_dimer_mol1.chk"
 Charge =  0 Multiplicity = 1

                         Standard orientation:
 ---------------------------------------------------------------------
 Center     Atomic      Atomic             Coordinates (Angstroms)
 Number     Number       Type             X           Y           Z
 ---------------------------------------------------------------------
      1          5           0       -0.590564   -0.000435    0.940339
      2          6           0       -1.087167   -0.772053   -0.278899
      3          6           0       -1.086610    0.772447   -0.278324
      4          1           0       -0.171176   -0.000925    2.044791
      5          1           0       -2.047836   -1.272976   -0.245532
      6          1           0       -0.378061   -1.270174   -0.929315
      7          1           0       -2.046967    1.273944   -0.244413
      8          1           0       -0.377284    1.270606   -0.928475
      9          6           0        2.101145   -0.000068   -0.105610
     10          1           0        1.718775   -0.890928    0.389361
     11          1           0        3.187254   -0.000386   -0.054680
     12          1           0        1.784633    0.000342   -1.146347
     13          1           0        1.719274    0.890712    0.389909
 ---------------------------------------------------------------------

 SCF Done:  E(RHF) =  -143.518990975     A.U. after    2 cycles

 The electronic state is 1-A.
 Alpha  occ. eigenvalues --  -11.22490 -11.21123 -11.21111  -7.61781  -1.04663
 Alpha  occ. eigenvalues --   -0.95078  -0.80852  -0.65812  -0.62345  -0.59284
 Alpha  occ. eigenvalues --   -0.56124  -0.55421  -0.54585  -0.50346  -0.40899
 Alpha  occ. eigenvalues --   -0.38131
 Alpha virt. eigenvalues --    0.03171   0.04243   0.04734   0.05004   0.06300
 Alpha virt. eigenvalues --    0.06803   0.06990   0.07431   0.09123   0.09604
 Alpha virt. eigenvalues --    0.10151   0.11316   0.12418   0.14276   0.14614

 Mulliken charges:
               1
     1  B   -0.417617
     2  C    0.569229
     3  C    0.569205
     4  H    0.504093
     5  H   -0.358503
     6  H   -0.321606
     7  H   -0.358535
     8  H   -0.321585
     9  C    0.674152
    10  H   -0.079923
    11  H   -0.231405
    12  H   -0.147773
    13  H   -0.079735
 Sum of Mulliken charges =   0.00000

 Dipole moment (field-independent basis, Debye):
    X=              0.2861    Y=              0.0001    Z=             -0.0412  Tot=              0.2890

 Test job not archived.
 1\1\GINC-SE070\SP\RHF\Aug-CC-pVDZ\C3H9B1\OHZDE\08-Apr-2025\0\\#t hf au
 g-cc-pvdz iop(5/13=1,5/36=2,99/5=2) pseudo=read geom=check guess=(read
 ,tcheck) scf=(maxcycle=1)\\title\\0,1\B,0,0.70593,0.00043,0.93795\C,0,
 1.19139,0.77206,-0.28576\C,0,1.19085,-0.77244,-0.28519\H,0,0.29663,0.0
 0091,2.04618\H,0,2.15232,1.27299,-0.26115\H,0,0.47638,1.27018,-0.92968
 \H,0,2.15148,-1.27393,-0.26004\H,0,0.47563,-1.2706,-0.92885\C,0,-1.995
 20338,0.0000492,-0.08341335\H,0,-1.60834338,0.8909092,0.40805665\H,0,-
 3.08080337,0.0003592,-0.02258335\H,0,-1.68819337,-0.0003508,-1.1269933

 Normal termination of Gaussian 16 at Tue Apr  8 22:21:23 2025.
