 Gaussian 16, Revision C.01,

 ----------------------------------------------------------------------
 #t hf aug-cc-pvdz symm=none int=(grid=ultrafine) guess=(read,tcheck) s
 table=(opt,rrhf)
 ----------------------------------------------------------------------
 -----
 title
 -----
 Symbolic Z-matrix:
 Charge =  0 Multiplicity = 1

 SCF Done:  E(RHF) =  -494.086292400     A.U. after   13 cycles
 Normal termination of Gaussian 16 at Tue Apr  8 22:27:46 2025.
 Gaussian 16:  ES64L-G16RevC.01  3-Jul-2019

 ----------------------------------------------------------------------
 #t hf aug-cc-pvdz iop(5/13=1,5/36=2,99/5=2) pseudo=read geom=check gue
 ss=(read,tcheck) scf=(maxcycle=1)
 ----------------------------------------------------------------------
 -----
 title
 -----
 Structure from the checkpoint file:  "BBI-008TRP-251HIE-2_mol1.chk"
 Charge =  0 Multiplicity = 1

                         Standard orientation:
 ---------------------------------------------------------------------
 Center     Atomic      Atomic             Coordinates (Angstroms)
 Number     Number       Type             X           Y           Z
 ---------------------------------------------------------------------
      1          6           0       -2.313447    2.056860   -0.094430
      2          6           0       -3.479145   -1.560724    0.077483
      3          6           0       -2.247830    0.546617   -0.028708
      4          8           0       -1.185803   -0.005525    0.257024
      5          7           0       -3.391080   -0.117355   -0.204350
      6          1           0       -3.342123    2.364989   -0.295927
      7          1           0       -4.233933    0.392372   -0.437816
      8          1           0       -2.714345   -1.810105    0.814752
      9          1           0       -1.984265    2.446036    0.880342
     10          1           0       -1.674140    2.427073   -0.909438
     11          1           0       -4.440415   -1.804488    0.553444
     12          1           0       -3.263090   -2.208798   -0.784674
     13          6           0        1.785586   -1.973573   -0.010190
     14          6           0        2.735446    1.709795    0.172359
     15          6           0        2.889005    0.210044   -0.040601
     16          8           0        3.995001   -0.301401   -0.221264
     17          7           0        1.775797   -0.513837    0.018868
     18          1           0        0.876021   -0.056033    0.136523
     19          1           0        2.756514   -2.365781    0.295214
     20          1           0        1.701575    1.981791   -0.039974
     21          1           0        1.010898   -2.337546    0.680742
     22          1           0        1.561908   -2.307621   -1.034096
     23          1           0        2.985452    1.942036    1.218093
     24          1           0        3.375649    2.275720   -0.520371
 ---------------------------------------------------------------------

 SCF Done:  E(RHF) =  -494.245322053     A.U. after    2 cycles

 The electronic state is 1-A.
 Alpha  occ. eigenvalues --  -20.54621 -20.49424 -15.67663 -15.61811 -11.38012
 Alpha  occ. eigenvalues --  -11.32995 -11.29126 -11.26567 -11.24914 -11.22902
 Alpha  occ. eigenvalues --   -1.36003  -1.30756  -1.21845  -1.16787  -1.02900
 Alpha  occ. eigenvalues --   -0.98786  -0.94510  -0.90261  -0.81456  -0.76027
 Alpha  occ. eigenvalues --   -0.70986  -0.68097  -0.66323  -0.65665  -0.62833
 Alpha  occ. eigenvalues --   -0.61376  -0.60802  -0.60259  -0.57285  -0.56759
 Alpha  occ. eigenvalues --   -0.56332  -0.55162  -0.53259  -0.52946  -0.52423
 Alpha  occ. eigenvalues --   -0.48889  -0.45648  -0.42019  -0.40572  -0.36411
 Alpha virt. eigenvalues --    0.01845   0.03125   0.03932   0.03994   0.05343
 Alpha virt. eigenvalues --    0.05736   0.06177   0.06963   0.07147   0.07821
 Alpha virt. eigenvalues --    0.08009   0.09159   0.10589   0.10831   0.11425

 Mulliken charges:
               1
     1  C    0.184663
     2  C    0.782635
     3  C    0.277048
     4  O   -0.596798
     5  N   -0.312266
     6  H   -0.124392
     7  H   -0.057631
     8  H   -0.159825
     9  H    0.098024
    10  H    0.087422
    11  H   -0.145261
    12  H   -0.075448
    13  C    0.706412
    14  C    0.350574
    15  C    0.200118
    16  O   -0.602622
    17  N   -0.126576
    18  H   -0.013489
    19  H   -0.168261
    20  H   -0.195028
    21  H   -0.129039
    22  H   -0.073245
    23  H    0.064082
    24  H    0.028904
 Sum of Mulliken charges =  -0.00000

 Dipole moment (field-independent basis, Debye):
    X=             -9.9871    Y=              2.0211    Z=              0.0702  Tot=             10.1898

 Test job not archived.
 1\1\GINC-SE073\SP\RHF\Aug-CC-pVDZ\C6H14N2O2\OHZDE\08-Apr-2025\0\\#t hf
  aug-cc-pvdz iop(5/13=1,5/36=2,99/5=2) pseudo=read geom=check guess=(r
 ead,tcheck) scf=(maxcycle=1)\\title\\0,1\C,0,-2.67381842,0.70378354,-1
 .48543505\C,0,-2.86881842,1.20078354,2.28156495\C,0,-2.24881842,0.7267
 8354,-0.03343505\O,0,-1.05481842,0.64678354,0.25356495\N,0,-3.20581842
 ,0.92278354,0.87456495\H,0,-3.75481842,0.84978354,-1.54743505\H,0,-4.1
 7181842,0.98078354,0.57756495\H,0,-1.87381842,1.64778354,2.31056495\H,
 0,-2.14963842,1.52407354,-1.99764505\H,0,-2.42861842,-0.26982646,-1.93

 Normal termination of Gaussian 16 at Tue Apr  8 22:27:59 2025.
