 Gaussian 16, Revision C.01,

 ----------------------------------------------------------------------
 #t hf aug-cc-pvdz symm=none int=(grid=ultrafine) guess=(read,tcheck) s
 table=(opt,rrhf)
 ----------------------------------------------------------------------
 -----
 title
 -----
 Symbolic Z-matrix:
 Charge =  0 Multiplicity = 1

 SCF Done:  E(RHF) =  -247.038380568     A.U. after   13 cycles
 Normal termination of Gaussian 16 at Tue Apr  8 22:25:21 2025.
 Gaussian 16:  ES64L-G16RevC.01  3-Jul-2019

 ----------------------------------------------------------------------
 #t hf aug-cc-pvdz iop(5/13=1,5/36=2,99/5=2) pseudo=read geom=check gue
 ss=(read,tcheck) scf=(maxcycle=1)
 ----------------------------------------------------------------------
 -----
 title
 -----
 Structure from the checkpoint file:  "BBI-024PHE-028ALA-1_mol2.chk"
 Charge =  0 Multiplicity = 1

                         Standard orientation:
 ---------------------------------------------------------------------
 Center     Atomic      Atomic             Coordinates (Angstroms)
 Number     Number       Type             X           Y           Z
 ---------------------------------------------------------------------
      1          6           0       -1.836263   -0.523794    0.022781
      2          6           0        1.939968   -0.100883    0.027501
      3          6           0       -0.452784    0.148707   -0.012904
      4          8           0       -0.365269    1.385253   -0.010782
      5          7           0        0.602738   -0.671825   -0.067002
      6          1           0       -1.768195   -1.544349    0.389331
      7          1           0        0.475539   -1.681096   -0.013731
      8          1           0        2.085001    0.290982    1.034597
      9          1           0       -2.452938    0.068535    0.714776
     10          1           0       -2.307998   -0.508026   -0.970811
     11          1           0        2.688775   -0.886551   -0.151400
     12          1           0        2.077278    0.737076   -0.671758
 ---------------------------------------------------------------------

 SCF Done:  E(RHF) =  -247.117669024     A.U. after    2 cycles

 The electronic state is 1-A.
 Alpha  occ. eigenvalues --  -20.52466 -15.65734 -11.35961 -11.27527 -11.24763
 Alpha  occ. eigenvalues --   -1.32972  -1.19983  -1.00613  -0.92628  -0.79335
 Alpha  occ. eigenvalues --   -0.68934  -0.65422  -0.63604  -0.58321  -0.58043
 Alpha  occ. eigenvalues --   -0.55965  -0.54830  -0.50657  -0.43111  -0.39676
 Alpha virt. eigenvalues --    0.02688   0.03992   0.05013   0.05224   0.06943
 Alpha virt. eigenvalues --    0.07263   0.07845   0.11502   0.12226   0.12971
 Alpha virt. eigenvalues --    0.13586   0.14642   0.15334   0.15768   0.16826

 Mulliken charges:
               1
     1  C    0.304517
     2  C    0.700653
     3  C    0.277711
     4  O   -0.583845
     5  N   -0.290826
     6  H   -0.119868
     7  H   -0.061044
     8  H   -0.069727
     9  H    0.033261
    10  H    0.062164
    11  H   -0.184056
    12  H   -0.068941
 Sum of Mulliken charges =  -0.00000

 Dipole moment (field-independent basis, Debye):
    X=              0.7092    Y=             -4.5089    Z=              0.1710  Tot=              4.5676

 Test job not archived.
 1\1\GINC-SE366\SP\RHF\Aug-CC-pVDZ\C3H7N1O1\OHZDE\08-Apr-2025\0\\#t hf
 aug-cc-pvdz iop(5/13=1,5/36=2,99/5=2) pseudo=read geom=check guess=(re
 ad,tcheck) scf=(maxcycle=1)\\title\\0,1\C,0,0.43005695,-1.22596079,1.4
 0422318\C,0,0.07105695,1.64003921,-1.06477682\C,0,-0.06594305,-0.39896
 079,0.20522318\O,0,-0.99794305,-0.82096079,-0.49477682\N,0,0.57605695,
 0.75203921,-0.02577682\H,0,0.95505695,-0.60196079,2.12222318\H,0,1.301
 05695,1.07603921,0.61222318\H,0,-0.88894305,2.04603921,-0.74477682\H,0
 ,-0.46529305,-1.65112079,1.88128318\H,0,1.07794695,-2.05094079,1.07308

 Normal termination of Gaussian 16 at Tue Apr  8 22:25:24 2025.
