 Gaussian 16, Revision C.01,

 ----------------------------------------------------------------------
 #t hf aug-cc-pvdz symm=none int=(grid=ultrafine) guess=(read,tcheck) s
 table=(opt,rrhf)
 ----------------------------------------------------------------------
 -----
 title
 -----
 Symbolic Z-matrix:
 Charge =  0 Multiplicity = 1

 SCF Done:  E(RHF) =  -494.088475647     A.U. after   13 cycles
 Normal termination of Gaussian 16 at Tue Apr  8 22:28:57 2025.
 Gaussian 16:  ES64L-G16RevC.01  3-Jul-2019

 ----------------------------------------------------------------------
 #t hf aug-cc-pvdz iop(5/13=1,5/36=2,99/5=2) pseudo=read geom=check gue
 ss=(read,tcheck) scf=(maxcycle=1)
 ----------------------------------------------------------------------
 -----
 title
 -----
 Structure from the checkpoint file:  "BBI-051ALA-055ASN-1_mol1.chk"
 Charge =  0 Multiplicity = 1

                         Standard orientation:
 ---------------------------------------------------------------------
 Center     Atomic      Atomic             Coordinates (Angstroms)
 Number     Number       Type             X           Y           Z
 ---------------------------------------------------------------------
      1          6           0       -2.879099   -1.672199   -0.839588
      2          6           0       -2.541521    1.635957    1.032778
      3          6           0       -2.280760   -0.354796   -0.352691
      4          8           0       -1.202585    0.043471   -0.781146
      5          7           0       -2.982487    0.349521    0.532288
      6          1           0       -2.069159   -2.251982   -1.286437
      7          1           0       -3.878645   -0.020337    0.840417
      8          1           0       -2.298484    2.285698    0.191200
      9          1           0       -3.294997   -2.247266    0.000842
     10          1           0       -3.638192   -1.501383   -1.617141
     11          1           0       -3.370803    2.091452    1.593860
     12          1           0       -1.622635    1.526417    1.627464
     13          6           0        2.253841    1.724895   -0.865995
     14          6           0        1.947098   -1.584714    1.015051
     15          6           0        2.586903   -0.442609    0.239680
     16          8           0        3.789562   -0.414114    0.054971
     17          7           0        1.789062    0.549497   -0.150992
     18          1           0        0.789309    0.445437   -0.010881
     19          1           0        2.866656    1.406206   -1.713908
     20          1           0        2.731194   -2.026093    1.635596
     21          1           0        1.375105    2.273196   -1.236381
     22          1           0        2.858060    2.402159   -0.244527
     23          1           0        1.139767   -1.204154    1.658005
     24          1           0        1.552206   -2.346534    0.326799
 ---------------------------------------------------------------------

 SCF Done:  E(RHF) =  -494.247804627     A.U. after    2 cycles

 The electronic state is 1-A.
 Alpha  occ. eigenvalues --  -20.54544 -20.50057 -15.67051 -15.61943 -11.37660
 Alpha  occ. eigenvalues --  -11.33093 -11.29203 -11.26297 -11.25361 -11.22982
 Alpha  occ. eigenvalues --   -1.36125  -1.32082  -1.21913  -1.17231  -1.02591
 Alpha  occ. eigenvalues --   -0.98913  -0.94594  -0.90706  -0.80843  -0.76129
 Alpha  occ. eigenvalues --   -0.71031  -0.67879  -0.66771  -0.65761  -0.63381
 Alpha  occ. eigenvalues --   -0.61673  -0.60365  -0.59942  -0.57561  -0.56664
 Alpha  occ. eigenvalues --   -0.56565  -0.56291  -0.53591  -0.53255  -0.52527
 Alpha  occ. eigenvalues --   -0.49280  -0.45497  -0.41470  -0.41049  -0.36795
 Alpha virt. eigenvalues --    0.01783   0.03152   0.03782   0.04054   0.05586
 Alpha virt. eigenvalues --    0.05821   0.06162   0.06636   0.07231   0.07890
 Alpha virt. eigenvalues --    0.08888   0.08938   0.09351   0.10927   0.11365

 Mulliken charges:
               1
     1  C    0.337860
     2  C    0.807738
     3  C    0.189464
     4  O   -0.542487
     5  N   -0.336875
     6  H   -0.052659
     7  H   -0.050837
     8  H   -0.115295
     9  H   -0.020292
    10  H    0.051990
    11  H   -0.181837
    12  H   -0.081599
    13  C    0.759385
    14  C    0.280712
    15  C    0.254703
    16  O   -0.570143
    17  N   -0.211542
    18  H   -0.070541
    19  H   -0.122586
    20  H   -0.043016
    21  H   -0.220678
    22  H   -0.074735
    23  H   -0.052112
    24  H    0.065383
 Sum of Mulliken charges =  -0.00000

 Dipole moment (field-independent basis, Debye):
    X=             -9.4338    Y=              0.1697    Z=              1.9713  Tot=              9.6390

 Test job not archived.
 1\1\GINC-SE080\SP\RHF\Aug-CC-pVDZ\C6H14N2O2\OHZDE\08-Apr-2025\0\\#t hf
  aug-cc-pvdz iop(5/13=1,5/36=2,99/5=2) pseudo=read geom=check guess=(r
 ead,tcheck) scf=(maxcycle=1)\\title\\0,1\C,0,-1.34378644,-3.08290328,0
 .84343186\C,0,1.24121356,-2.33890328,-1.86356814\C,0,-0.23478644,-2.36
 490328,0.07843186\O,0,0.27721356,-1.34290328,0.52343186\N,0,0.16621356
 ,-2.90190328,-1.07156814\H,0,-1.75878644,-2.37090328,1.55943186\H,0,-0
 .28178644,-3.75990328,-1.38456814\H,0,2.11621356,-2.19090328,-1.229568
 14\H,0,-2.14768644,-3.39877328,0.16228186\H,0,-0.94690644,-3.93728328,

 Normal termination of Gaussian 16 at Tue Apr  8 22:29:11 2025.
