 Gaussian 16, Revision C.01,

 ----------------------------------------------------------------------
 #t hf aug-cc-pvdz symm=none int=(grid=ultrafine) guess=(read,tcheck) s
 table=(opt,rrhf)
 ----------------------------------------------------------------------
 -----
 title
 -----
 Symbolic Z-matrix:
 Charge =  0 Multiplicity = 1

 SCF Done:  E(RHF) =  -494.075594196     A.U. after   14 cycles
 Normal termination of Gaussian 16 at Tue Apr  8 22:28:25 2025.
 Gaussian 16:  ES64L-G16RevC.01  3-Jul-2019

 ----------------------------------------------------------------------
 #t hf aug-cc-pvdz iop(5/13=1,5/36=2,99/5=2) pseudo=read geom=check gue
 ss=(read,tcheck) scf=(maxcycle=1)
 ----------------------------------------------------------------------
 -----
 title
 -----
 Structure from the checkpoint file:  "BBI-007GLN-010ASN-1_mol1.chk"
 Charge =  0 Multiplicity = 1

                         Standard orientation:
 ---------------------------------------------------------------------
 Center     Atomic      Atomic             Coordinates (Angstroms)
 Number     Number       Type             X           Y           Z
 ---------------------------------------------------------------------
      1          6           0       -2.916024   -1.307991    0.895747
      2          6           0       -1.700764    1.905223   -0.783109
      3          6           0       -2.177572   -0.401622   -0.083304
      4          8           0       -1.433712   -0.880548   -0.941877
      5          7           0       -2.376693    0.907943    0.051779
      6          1           0       -2.456836   -2.296766    0.852012
      7          1           0       -3.050159    1.227146    0.742020
      8          1           0       -1.893018    1.672385   -1.833219
      9          1           0       -2.849173   -0.915907    1.921321
     10          1           0       -3.962195   -1.383627    0.564387
     11          1           0       -2.101803    2.908757   -0.577953
     12          1           0       -0.609354    1.868997   -0.650760
     13          6           0        1.990960   -1.979563   -0.328590
     14          6           0        1.731324    1.602619    0.923711
     15          6           0        2.287764    0.381908    0.192075
     16          8           0        3.372520    0.425009   -0.394265
     17          7           0        1.541177   -0.718080    0.246806
     18          1           0        0.691113   -0.704142    0.801330
     19          1           0        3.020165   -2.159153   -0.009045
     20          1           0        2.279448    2.477132    0.567826
     21          1           0        1.371154   -2.812344    0.035159
     22          1           0        2.020298   -1.959493   -1.428016
     23          1           0        0.657736    1.724463    0.717420
     24          1           0        1.926646    1.464379    1.997372
 ---------------------------------------------------------------------

 SCF Done:  E(RHF) =  -494.233749605     A.U. after    2 cycles

 The electronic state is 1-A.
 Alpha  occ. eigenvalues --  -20.53733 -20.51149 -15.66749 -15.63735 -11.36979
 Alpha  occ. eigenvalues --  -11.34437 -11.28819 -11.26078 -11.25885 -11.24182
 Alpha  occ. eigenvalues --   -1.34772  -1.32085  -1.21158  -1.18414  -1.02239
 Alpha  occ. eigenvalues --   -1.00018  -0.94181  -0.91438  -0.80248  -0.77542
 Alpha  occ. eigenvalues --   -0.70233  -0.67847  -0.66749  -0.65534  -0.64155
 Alpha  occ. eigenvalues --   -0.62528  -0.60165  -0.59320  -0.57636  -0.56838
 Alpha  occ. eigenvalues --   -0.56664  -0.56420  -0.54610  -0.53715  -0.52286
 Alpha  occ. eigenvalues --   -0.49694  -0.44485  -0.41985  -0.40935  -0.37855
 Alpha virt. eigenvalues --    0.01822   0.03137   0.03763   0.04361   0.05485
 Alpha virt. eigenvalues --    0.05851   0.06367   0.06569   0.07347   0.07922
 Alpha virt. eigenvalues --    0.08453   0.08820   0.09396   0.09978   0.11616

 Mulliken charges:
               1
     1  C    0.348640
     2  C    0.963688
     3  C    0.126459
     4  O   -0.534982
     5  N   -0.303613
     6  H   -0.048284
     7  H   -0.080637
     8  H   -0.076811
     9  H   -0.020731
    10  H    0.066030
    11  H   -0.186150
    12  H   -0.237820
    13  C    0.754244
    14  C    0.573566
    15  C    0.186703
    16  O   -0.576197
    17  N   -0.191837
    18  H   -0.024438
    19  H   -0.161590
    20  H   -0.013884
    21  H   -0.190786
    22  H   -0.053112
    23  H   -0.389367
    24  H    0.070908
 Sum of Mulliken charges =  -0.00000

 Dipole moment (field-independent basis, Debye):
    X=             -6.8734    Y=              1.3595    Z=              4.3934  Tot=              8.2701

 Test job not archived.
 1\1\GINC-SE097\SP\RHF\Aug-CC-pVDZ\C6H14N2O2\OHZDE\08-Apr-2025\0\\#t hf
  aug-cc-pvdz iop(5/13=1,5/36=2,99/5=2) pseudo=read geom=check guess=(r
 ead,tcheck) scf=(maxcycle=1)\\title\\0,1\C,0,-2.91012335,1.19531259,-1
 .15828453\C,0,0.79987665,1.67031259,-1.95228453\C,0,-1.46412335,0.8373
 1259,-1.48428453\O,0,-1.11012335,-0.34168741,-1.55128453\N,0,-0.628123
 35,1.85531259,-1.67828453\H,0,-3.39712335,0.30331259,-0.76128453\H,0,-
 1.00312335,2.79931259,-1.66728453\H,0,0.90887665,1.01431259,-2.8192845
 3\H,0,-2.95661535,2.00293159,-0.41290453\H,0,-3.40636435,1.48759859,-2

 Normal termination of Gaussian 16 at Tue Apr  8 22:28:40 2025.
