 Gaussian 16, Revision C.01,

 ----------------------------------------------------------------------
 #t hf aug-cc-pvdz symm=none int=(grid=ultrafine) guess=(read,tcheck) s
 table=(opt,rrhf)
 ----------------------------------------------------------------------
 -----
 title
 -----
 Symbolic Z-matrix:
 Charge =  0 Multiplicity = 1

 SCF Done:  E(RHF) =  -494.080737548     A.U. after   13 cycles
 Normal termination of Gaussian 16 at Tue Apr  8 22:28:42 2025.
 Gaussian 16:  ES64L-G16RevC.01  3-Jul-2019

 ----------------------------------------------------------------------
 #t hf aug-cc-pvdz iop(5/13=1,5/36=2,99/5=2) pseudo=read geom=check gue
 ss=(read,tcheck) scf=(maxcycle=1)
 ----------------------------------------------------------------------
 -----
 title
 -----
 Structure from the checkpoint file:  "BBI-007VAL-041VAL-1_mol1.chk"
 Charge =  0 Multiplicity = 1

                         Standard orientation:
 ---------------------------------------------------------------------
 Center     Atomic      Atomic             Coordinates (Angstroms)
 Number     Number       Type             X           Y           Z
 ---------------------------------------------------------------------
      1          6           0       -2.548554   -1.708696   -0.977091
      2          6           0       -2.849429    1.600806    0.860315
      3          6           0       -2.088210   -0.404606   -0.292460
      4          8           0       -0.922017    0.010822   -0.327360
      5          7           0       -3.054682    0.257643    0.334472
      6          1           0       -3.450337   -1.463889   -1.543917
      7          1           0       -3.994589   -0.134064    0.343963
      8          1           0       -2.320881    2.225629    0.138160
      9          1           0       -1.776407   -2.106929   -1.651776
     10          1           0       -2.840926   -2.433770   -0.203277
     11          1           0       -3.854061    1.981714    1.096143
     12          1           0       -2.259861    1.551662    1.787676
     13          6           0        2.287431    1.797523   -0.844374
     14          6           0        1.823146   -1.520469    1.022383
     15          6           0        2.490299   -0.386410    0.280499
     16          8           0        3.670579   -0.483609    0.007267
     17          7           0        1.750923    0.655450   -0.084662
     18          1           0        0.749808    0.627792    0.081567
     19          1           0        3.354303    1.674513   -1.038827
     20          1           0        0.783914   -1.563325    0.702732
     21          1           0        1.764923    1.891659   -1.807766
     22          1           0        2.135285    2.695467   -0.227488
     23          1           0        2.335910   -2.447488    0.726237
     24          1           0        1.822635   -1.377209    2.113015
 ---------------------------------------------------------------------

 SCF Done:  E(RHF) =  -494.239855866     A.U. after    2 cycles

 The electronic state is 1-A.
 Alpha  occ. eigenvalues --  -20.55246 -20.48609 -15.67516 -15.60667 -11.38544
 Alpha  occ. eigenvalues --  -11.31888 -11.29556 -11.26965 -11.24827 -11.21516
 Alpha  occ. eigenvalues --   -1.36105  -1.31044  -1.22436  -1.15924  -1.03044
 Alpha  occ. eigenvalues --   -0.97913  -0.94630  -0.89923  -0.81740  -0.75766
 Alpha  occ. eigenvalues --   -0.70944  -0.68212  -0.66063  -0.65782  -0.62359
 Alpha  occ. eigenvalues --   -0.60908  -0.60333  -0.60054  -0.58324  -0.57313
 Alpha  occ. eigenvalues --   -0.56238  -0.54860  -0.53469  -0.52227  -0.51505
 Alpha  occ. eigenvalues --   -0.48655  -0.46068  -0.42041  -0.39851  -0.35712
 Alpha virt. eigenvalues --    0.01597   0.03104   0.03675   0.03855   0.05511
 Alpha virt. eigenvalues --    0.05752   0.06240   0.06674   0.06896   0.07845
 Alpha virt. eigenvalues --    0.08473   0.09406   0.09811   0.10903   0.11222

 Mulliken charges:
               1
     1  C    0.284785
     2  C    0.749866
     3  C    0.262507
     4  O   -0.552082
     5  N   -0.369724
     6  H   -0.055057
     7  H   -0.042263
     8  H   -0.090976
     9  H   -0.047522
    10  H    0.066709
    11  H   -0.178392
    12  H   -0.063934
    13  C    0.716551
    14  C    0.463388
    15  C    0.246791
    16  O   -0.581210
    17  N   -0.211342
    18  H   -0.065667
    19  H   -0.190432
    20  H   -0.205458
    21  H   -0.109904
    22  H   -0.097408
    23  H    0.041362
    24  H    0.029412
 Sum of Mulliken charges =  -0.00000

 Dipole moment (field-independent basis, Debye):
    X=            -10.4194    Y=              0.5339    Z=              0.6550  Tot=             10.4536

 Test job not archived.
 1\1\GINC-SE334\SP\RHF\Aug-CC-pVDZ\C6H14N2O2\OHZDE\08-Apr-2025\0\\#t hf
  aug-cc-pvdz iop(5/13=1,5/36=2,99/5=2) pseudo=read geom=check guess=(r
 ead,tcheck) scf=(maxcycle=1)\\title\\0,1\C,0,-0.50820164,-1.50404925,2
 .84248291\C,0,-3.29020164,0.23495075,0.93048291\C,0,-1.19020164,-0.735
 04925,1.69148291\O,0,-0.65020164,-0.52204925,0.59748291\N,0,-2.4252016
 4,-0.32504925,1.96048291\H,0,-1.22820164,-2.24804925,3.19248291\H,0,-2
 .81820164,-0.51504925,2.88048291\H,0,-3.24120164,-0.35804925,0.0154829
 1\H,0,0.41407836,-2.00123935,2.50751791\H,0,-0.32899164,-0.81087755,3.

 Normal termination of Gaussian 16 at Tue Apr  8 22:28:55 2025.
