 Gaussian 16, Revision C.01,

 ----------------------------------------------------------------------
 #t hf aug-cc-pvdz symm=none int=(grid=ultrafine) guess=(read,tcheck) s
 table=(opt,rrhf)
 ----------------------------------------------------------------------
 -----
 title
 -----
 Symbolic Z-matrix:
 Charge =  0 Multiplicity = 1

 SCF Done:  E(RHF) =  -494.072619548     A.U. after   14 cycles
 Normal termination of Gaussian 16 at Tue Apr  8 22:29:01 2025.
 Gaussian 16:  ES64L-G16RevC.01  3-Jul-2019

 ----------------------------------------------------------------------
 #t hf aug-cc-pvdz iop(5/13=1,5/36=2,99/5=2) pseudo=read geom=check gue
 ss=(read,tcheck) scf=(maxcycle=1)
 ----------------------------------------------------------------------
 -----
 title
 -----
 Structure from the checkpoint file:  "BBI-015GLN-018LEU-1_mol1.chk"
 Charge =  0 Multiplicity = 1

                         Standard orientation:
 ---------------------------------------------------------------------
 Center     Atomic      Atomic             Coordinates (Angstroms)
 Number     Number       Type             X           Y           Z
 ---------------------------------------------------------------------
      1          6           0       -2.779784   -1.379955    0.859379
      2          6           0       -1.713958    1.878239   -0.798979
      3          6           0       -2.137461   -0.383118   -0.073912
      4          8           0       -1.381812   -0.823546   -0.947669
      5          7           0       -2.356790    0.912765    0.105674
      6          1           0       -2.114436   -2.246348    0.878879
      7          1           0       -3.032584    1.228186    0.797175
      8          1           0       -1.880003    1.529672   -1.812691
      9          1           0       -2.861364   -0.974097    1.878508
     10          1           0       -3.772207   -1.707141    0.515796
     11          1           0       -2.149240    2.875294   -0.636450
     12          1           0       -0.625707    1.879691   -0.638638
     13          6           0        1.971951   -1.940472   -0.373278
     14          6           0        1.677278    1.611351    0.915716
     15          6           0        2.222750    0.383548    0.210491
     16          8           0        3.291773    0.438751   -0.407192
     17          7           0        1.507797   -0.736993    0.307913
     18          1           0        0.667873   -0.757853    0.876728
     19          1           0        2.990705   -2.131641   -0.041543
     20          1           0        2.206531    2.485021    0.528732
     21          1           0        1.335683   -2.794075   -0.096641
     22          1           0        1.997137   -1.776523   -1.460699
     23          1           0        0.597787    1.692948    0.720679
     24          1           0        1.858425    1.527267    1.997434
 ---------------------------------------------------------------------

 SCF Done:  E(RHF) =  -494.230821930     A.U. after    2 cycles

 The electronic state is 1-A.
 Alpha  occ. eigenvalues --  -20.53437 -20.51041 -15.66953 -15.63568 -11.36786
 Alpha  occ. eigenvalues --  -11.34278 -11.28599 -11.25823 -11.25661 -11.23987
 Alpha  occ. eigenvalues --   -1.34735  -1.31974  -1.21183  -1.18214  -1.02191
 Alpha  occ. eigenvalues --   -1.00049  -0.94151  -0.91185  -0.80646  -0.77629
 Alpha  occ. eigenvalues --   -0.70453  -0.67831  -0.66545  -0.65613  -0.63875
 Alpha  occ. eigenvalues --   -0.62452  -0.59961  -0.59189  -0.57746  -0.56920
 Alpha  occ. eigenvalues --   -0.56527  -0.56146  -0.54693  -0.53635  -0.51889
 Alpha  occ. eigenvalues --   -0.49403  -0.44511  -0.41970  -0.41081  -0.37710
 Alpha virt. eigenvalues --    0.01833   0.03151   0.03799   0.04389   0.05513
 Alpha virt. eigenvalues --    0.05948   0.06422   0.06569   0.07306   0.07969
 Alpha virt. eigenvalues --    0.08557   0.08888   0.09590   0.10018   0.11813

 Mulliken charges:
               1
     1  C    0.398530
     2  C    0.984457
     3  C    0.066853
     4  O   -0.552310
     5  N   -0.277758
     6  H   -0.053288
     7  H   -0.090968
     8  H   -0.069608
     9  H   -0.038691
    10  H    0.052371
    11  H   -0.173774
    12  H   -0.235450
    13  C    0.731737
    14  C    0.591210
    15  C    0.188032
    16  O   -0.582002
    17  N   -0.194197
    18  H   -0.040755
    19  H   -0.135774
    20  H   -0.019122
    21  H   -0.193343
    22  H   -0.024950
    23  H   -0.386363
    24  H    0.055162
 Sum of Mulliken charges =   0.00000

 Dipole moment (field-independent basis, Debye):
    X=             -6.8917    Y=              1.2205    Z=              4.3834  Tot=              8.2583

 Test job not archived.
 1\1\GINC-SE249\SP\RHF\Aug-CC-pVDZ\C6H14N2O2\OHZDE\08-Apr-2025\0\\#t hf
  aug-cc-pvdz iop(5/13=1,5/36=2,99/5=2) pseudo=read geom=check guess=(r
 ead,tcheck) scf=(maxcycle=1)\\title\\0,1\C,0,1.34048334,-1.77854483,2.
 37000086\C,0,-2.14951666,-0.51254483,1.52200086\C,0,0.05848334,-1.4775
 4483,1.63300086\O,0,-0.01351666,-1.82254483,0.44800086\N,0,-0.90951666
 ,-0.81554483,2.25300086\H,0,2.12048334,-1.83454483,1.60700086\H,0,-0.8
 3351666,-0.60454483,3.24500086\H,0,-2.46951666,-1.42854483,1.03700086\
 H,0,1.59229234,-0.97185283,3.07416086\H,0,1.30716234,-2.73689583,2.908

 Normal termination of Gaussian 16 at Tue Apr  8 22:29:16 2025.
