 Gaussian 16, Revision C.01,

 ----------------------------------------------------------------------
 #t hf aug-cc-pvdz symm=none int=(grid=ultrafine) guess=(read,tcheck) s
 table=(opt,rrhf)
 ----------------------------------------------------------------------
 -----
 title
 -----
 Symbolic Z-matrix:
 Charge =  0 Multiplicity = 1

 SCF Done:  E(RHF) =  -494.074620912     A.U. after   14 cycles
 Normal termination of Gaussian 16 at Tue Apr  8 22:28:23 2025.
 Gaussian 16:  ES64L-G16RevC.01  3-Jul-2019

 ----------------------------------------------------------------------
 #t hf aug-cc-pvdz iop(5/13=1,5/36=2,99/5=2) pseudo=read geom=check gue
 ss=(read,tcheck) scf=(maxcycle=1)
 ----------------------------------------------------------------------
 -----
 title
 -----
 Structure from the checkpoint file:  "BBI-011ILE-014PHE-1_mol1.chk"
 Charge =  0 Multiplicity = 1

                         Standard orientation:
 ---------------------------------------------------------------------
 Center     Atomic      Atomic             Coordinates (Angstroms)
 Number     Number       Type             X           Y           Z
 ---------------------------------------------------------------------
      1          6           0       -2.751828   -1.467692    0.843192
      2          6           0       -1.855144    1.914376   -0.695750
      3          6           0       -2.128455   -0.440785   -0.100733
      4          8           0       -1.355558   -0.791564   -0.993415
      5          7           0       -2.442609    0.835638    0.106209
      6          1           0       -2.103813   -2.345012    0.828446
      7          1           0       -3.105038    1.064800    0.839480
      8          1           0       -2.101754    1.743304   -1.745168
      9          1           0       -2.778019   -1.068322    1.867795
     10          1           0       -3.740961   -1.777011    0.474494
     11          1           0       -2.283981    2.884499   -0.404260
     12          1           0       -0.758109    1.915744   -0.615085
     13          6           0        2.056409   -1.957244   -0.332088
     14          6           0        1.646699    1.664809    0.856514
     15          6           0        2.251426    0.422518    0.203398
     16          8           0        3.323135    0.497434   -0.399937
     17          7           0        1.572329   -0.722762    0.301627
     18          1           0        0.725250   -0.757863    0.863411
     19          1           0        3.085945   -2.134881   -0.024232
     20          1           0        2.130898    2.534853    0.411766
     21          1           0        1.446059   -2.826787   -0.046833
     22          1           0        2.085513   -1.878607   -1.428890
     23          1           0        0.561554    1.735776    0.690923
     24          1           0        1.873164    1.656517    1.932914
 ---------------------------------------------------------------------

 SCF Done:  E(RHF) =  -494.232866970     A.U. after    2 cycles

 The electronic state is 1-A.
 Alpha  occ. eigenvalues --  -20.53605 -20.51066 -15.66685 -15.63785 -11.36891
 Alpha  occ. eigenvalues --  -11.34510 -11.28708 -11.26137 -11.25980 -11.24101
 Alpha  occ. eigenvalues --   -1.34805  -1.32120  -1.21043  -1.17903  -1.02144
 Alpha  occ. eigenvalues --   -0.99719  -0.94134  -0.91495  -0.80255  -0.77418
 Alpha  occ. eigenvalues --   -0.70215  -0.68028  -0.66673  -0.65462  -0.63945
 Alpha  occ. eigenvalues --   -0.62224  -0.60177  -0.59206  -0.57467  -0.56844
 Alpha  occ. eigenvalues --   -0.56549  -0.56212  -0.54501  -0.53729  -0.52309
 Alpha  occ. eigenvalues --   -0.49669  -0.44439  -0.42026  -0.40886  -0.37763
 Alpha virt. eigenvalues --    0.01852   0.03152   0.03760   0.04365   0.05447
 Alpha virt. eigenvalues --    0.05902   0.06355   0.06561   0.07376   0.07936
 Alpha virt. eigenvalues --    0.08486   0.08805   0.09617   0.10134   0.11713

 Mulliken charges:
               1
     1  C    0.360900
     2  C    0.975126
     3  C    0.101561
     4  O   -0.531508
     5  N   -0.274109
     6  H   -0.066337
     7  H   -0.090241
     8  H   -0.077028
     9  H   -0.025580
    10  H    0.067133
    11  H   -0.188101
    12  H   -0.245677
    13  C    0.763823
    14  C    0.595992
    15  C    0.200309
    16  O   -0.576878
    17  N   -0.203287
    18  H   -0.031980
    19  H   -0.160232
    20  H   -0.024800
    21  H   -0.193103
    22  H   -0.050724
    23  H   -0.384092
    24  H    0.058834
 Sum of Mulliken charges =  -0.00000

 Dipole moment (field-independent basis, Debye):
    X=             -6.8995    Y=              0.8466    Z=              4.5132  Tot=              8.2878

 Test job not archived.
 1\1\GINC-SE457\SP\RHF\Aug-CC-pVDZ\C6H14N2O2\OHZDE\08-Apr-2025\0\\#t hf
  aug-cc-pvdz iop(5/13=1,5/36=2,99/5=2) pseudo=read geom=check guess=(r
 ead,tcheck) scf=(maxcycle=1)\\title\\0,1\C,0,-2.06462623,1.62744846,-1
 .93389649\C,0,1.48137378,2.25444846,-0.65189649\C,0,-0.59062622,1.3844
 4846,-1.61389649\O,0,-0.06662622,0.29344846,-1.84289649\N,0,0.07937377
 ,2.39244846,-1.06089649\H,0,-2.54662622,0.64944846,-1.96589649\H,0,-0.
 39562622,3.27744846,-0.91889649\H,0,2.07537378,1.98444846,-1.52689649\
 H,0,-2.52950922,2.22142346,-1.13322649\H,0,-2.17098023,2.08476846,-2.9

 Normal termination of Gaussian 16 at Tue Apr  8 22:28:38 2025.
