 Gaussian 16, Revision C.01,

 ----------------------------------------------------------------------
 #t hf aug-cc-pvdz symm=none int=(grid=ultrafine) guess=(read,tcheck) s
 table=(opt,rrhf)
 ----------------------------------------------------------------------
 -----
 title
 -----
 Symbolic Z-matrix:
 Charge =  0 Multiplicity = 1

 SCF Done:  E(RHF) =  -494.078628860     A.U. after   14 cycles
 Normal termination of Gaussian 16 at Tue Apr  8 22:29:50 2025.
 Gaussian 16:  ES64L-G16RevC.01  3-Jul-2019

 ----------------------------------------------------------------------
 #t hf aug-cc-pvdz iop(5/13=1,5/36=2,99/5=2) pseudo=read geom=check gue
 ss=(read,tcheck) scf=(maxcycle=1)
 ----------------------------------------------------------------------
 -----
 title
 -----
 Structure from the checkpoint file:  "BBI-097GLU-100THR-2_mol1.chk"
 Charge =  0 Multiplicity = 1

                         Standard orientation:
 ---------------------------------------------------------------------
 Center     Atomic      Atomic             Coordinates (Angstroms)
 Number     Number       Type             X           Y           Z
 ---------------------------------------------------------------------
      1          6           0       -2.619406   -1.400400    1.179172
      2          6           0       -2.000614    1.736893   -0.934323
      3          6           0       -2.150329   -0.514487    0.012845
      4          8           0       -1.380399   -0.986333   -0.844474
      5          7           0       -2.541974    0.769009    0.017927
      6          1           0       -1.761573   -2.013618    1.464384
      7          1           0       -3.194841    1.100384    0.715975
      8          1           0       -2.218357    1.414609   -1.951373
      9          1           0       -2.930550   -0.839935    2.073075
     10          1           0       -3.427029   -2.079056    0.867440
     11          1           0       -2.435684    2.733243   -0.767007
     12          1           0       -0.909684    1.815163   -0.817113
     13          6           0        2.311314   -1.798441   -0.597600
     14          6           0        1.418800    1.677024    0.708170
     15          6           0        2.226013    0.479108    0.260147
     16          8           0        3.454618    0.546268    0.290376
     17          7           0        1.579207   -0.591338   -0.168220
     18          1           0        0.565960   -0.617678   -0.142566
     19          1           0        3.377526   -1.625015   -0.570400
     20          1           0        1.813895    2.516554    0.129532
     21          1           0        2.114762   -2.651915    0.067946
     22          1           0        2.058965   -2.052683   -1.637639
     23          1           0        0.337434    1.614522    0.516518
     24          1           0        1.640126    1.884077    1.765592
 ---------------------------------------------------------------------

 SCF Done:  E(RHF) =  -494.236696493     A.U. after    2 cycles

 The electronic state is 1-A.
 Alpha  occ. eigenvalues --  -20.54947 -20.49963 -15.67787 -15.63039 -11.38649
 Alpha  occ. eigenvalues --  -11.33825 -11.29226 -11.26639 -11.25358 -11.23754
 Alpha  occ. eigenvalues --   -1.35254  -1.31739  -1.21883  -1.17594  -1.02384
 Alpha  occ. eigenvalues --   -0.99638  -0.94693  -0.91341  -0.81429  -0.77175
 Alpha  occ. eigenvalues --   -0.71139  -0.67893  -0.67427  -0.65958  -0.63644
 Alpha  occ. eigenvalues --   -0.62030  -0.60360  -0.60219  -0.57707  -0.57081
 Alpha  occ. eigenvalues --   -0.56649  -0.56040  -0.54414  -0.52709  -0.52203
 Alpha  occ. eigenvalues --   -0.49557  -0.45729  -0.41842  -0.41492  -0.37521
 Alpha virt. eigenvalues --    0.01816   0.03140   0.03913   0.04255   0.05483
 Alpha virt. eigenvalues --    0.06036   0.06242   0.06404   0.07537   0.07768
 Alpha virt. eigenvalues --    0.08775   0.09475   0.09871   0.10266   0.12388

 Mulliken charges:
               1
     1  C    0.352758
     2  C    0.947625
     3  C    0.320111
     4  O   -0.614587
     5  N   -0.300096
     6  H   -0.041721
     7  H   -0.093025
     8  H   -0.069461
     9  H   -0.102208
    10  H    0.044798
    11  H   -0.154342
    12  H   -0.305733
    13  C    0.774929
    14  C    0.594135
    15  C    0.192462
    16  O   -0.610935
    17  N   -0.124204
    18  H   -0.060649
    19  H   -0.257739
    20  H    0.051732
    21  H   -0.101373
    22  H   -0.090456
    23  H   -0.418891
    24  H    0.066870
 Sum of Mulliken charges =  -0.00000

 Dipole moment (field-independent basis, Debye):
    X=             -7.7545    Y=              1.2823    Z=              2.0829  Tot=              8.1311

 Test job not archived.
 1\1\GINC-SE329\SP\RHF\Aug-CC-pVDZ\C6H14N2O2\OHZDE\08-Apr-2025\0\\#t hf
  aug-cc-pvdz iop(5/13=1,5/36=2,99/5=2) pseudo=read geom=check guess=(r
 ead,tcheck) scf=(maxcycle=1)\\title\\0,1\C,0,-0.90885373,-1.18440364,2
 .85767884\C,0,1.59414627,1.51459636,1.78867884\C,0,-0.35485373,0.09659
 636,2.21167884\O,0,-1.06185373,0.73359636,1.40867884\N,0,0.91414627,0.
 42959636,2.49367884\H,0,-1.48685373,-1.69440364,2.08367884\H,0,1.44014
 627,-0.09840364,3.17767884\H,0,1.05314627,2.44759636,1.93867884\H,0,-0
 .13461373,-1.88613264,3.20136884\H,0,-1.59269873,-0.95157464,3.6872288

 Normal termination of Gaussian 16 at Tue Apr  8 22:30:05 2025.
