 Gaussian 16, Revision C.01,

 ----------------------------------------------------------------------
 #t hf aug-cc-pvdz symm=none int=(grid=ultrafine) guess=(read,tcheck) s
 table=(opt,rrhf)
 ----------------------------------------------------------------------
 -----
 title
 -----
 Symbolic Z-matrix:
 Charge =  0 Multiplicity = 1

 SCF Done:  E(RHF) =  -247.039488641     A.U. after   13 cycles
 Normal termination of Gaussian 16 at Tue Apr  8 22:24:51 2025.
 Gaussian 16:  ES64L-G16RevC.01  3-Jul-2019

 ----------------------------------------------------------------------
 #t hf aug-cc-pvdz iop(5/13=1,5/36=2,99/5=2) pseudo=read geom=check gue
 ss=(read,tcheck) scf=(maxcycle=1)
 ----------------------------------------------------------------------
 -----
 title
 -----
 Structure from the checkpoint file:  "BBI-011ILE-014PHE-1_mol2.chk"
 Charge =  0 Multiplicity = 1

                         Standard orientation:
 ---------------------------------------------------------------------
 Center     Atomic      Atomic             Coordinates (Angstroms)
 Number     Number       Type             X           Y           Z
 ---------------------------------------------------------------------
      1          6           0       -1.837330   -0.530606   -0.012111
      2          6           0        1.961831   -0.109812   -0.020938
      3          6           0       -0.468780    0.148030    0.013373
      4          8           0       -0.373060    1.376071    0.006295
      5          7           0        0.597698   -0.647811    0.019395
      6          1           0       -2.540305    0.190938   -0.430481
      7          1           0        0.459652   -1.652266    0.051446
      8          1           0        2.106419    0.540396    0.843750
      9          1           0       -1.806917   -1.412125   -0.669373
     10          1           0       -2.168453   -0.765071    1.010329
     11          1           0        2.696670   -0.925596    0.046231
     12          1           0        2.119205    0.504158   -0.919975
 ---------------------------------------------------------------------

 SCF Done:  E(RHF) =  -247.119111450     A.U. after    2 cycles

 The electronic state is 1-A.
 Alpha  occ. eigenvalues --  -20.52197 -15.65360 -11.35529 -11.27751 -11.24748
 Alpha  occ. eigenvalues --   -1.33351  -1.19712  -1.00785  -0.92878  -0.78948
 Alpha  occ. eigenvalues --   -0.68898  -0.65283  -0.63774  -0.58688  -0.57846
 Alpha  occ. eigenvalues --   -0.55720  -0.55015  -0.50964  -0.43034  -0.39508
 Alpha virt. eigenvalues --    0.02704   0.04012   0.05012   0.05026   0.06915
 Alpha virt. eigenvalues --    0.07359   0.07955   0.10744   0.12202   0.13410
 Alpha virt. eigenvalues --    0.13899   0.14648   0.15303   0.15883   0.16845

 Mulliken charges:
               1
     1  C    0.275012
     2  C    0.716249
     3  C    0.271688
     4  O   -0.570705
     5  N   -0.315151
     6  H   -0.025056
     7  H   -0.068873
     8  H   -0.090630
     9  H   -0.025664
    10  H    0.068175
    11  H   -0.177191
    12  H   -0.057853
 Sum of Mulliken charges =   0.00000

 Dipole moment (field-independent basis, Debye):
    X=              0.7164    Y=             -4.4706    Z=              0.0308  Tot=              4.5277

 Test job not archived.
 1\1\GINC-SE454\SP\RHF\Aug-CC-pVDZ\C3H7N1O1\OHZDE\08-Apr-2025\0\\#t hf
 aug-cc-pvdz iop(5/13=1,5/36=2,99/5=2) pseudo=read geom=check guess=(re
 ad,tcheck) scf=(maxcycle=1)\\title\\0,1\C,0,-1.8434289,0.03429523,-0.5
 1773446\C,0,1.7025711,0.66129523,0.76426554\C,0,-0.3694289,-0.20870477
 ,-0.19773446\O,0,0.1545711,-1.29970477,-0.42673446\N,0,0.3005711,0.799
 29523,0.35526554\H,0,-2.3254289,-0.94370477,-0.54973446\H,0,-0.1744289
 ,1.68429523,0.49726554\H,0,2.2965711,0.39129523,-0.11073446\H,0,-2.308
 3119,0.62827023,0.28293554\H,0,-1.9497829,0.49161523,-1.51249446\H,0,2

 Normal termination of Gaussian 16 at Tue Apr  8 22:24:55 2025.
