 Gaussian 16, Revision C.01,

 ----------------------------------------------------------------------
 #t hf aug-cc-pvdz symm=none int=(grid=ultrafine) guess=(read,tcheck) s
 table=(opt,rrhf)
 ----------------------------------------------------------------------
 -----
 title
 -----
 Symbolic Z-matrix:
 Charge =  0 Multiplicity = 1

 SCF Done:  E(RHF) =  -494.087706833     A.U. after   13 cycles
 Normal termination of Gaussian 16 at Tue Apr  8 22:29:01 2025.
 Gaussian 16:  ES64L-G16RevC.01  3-Jul-2019

 ----------------------------------------------------------------------
 #t hf aug-cc-pvdz iop(5/13=1,5/36=2,99/5=2) pseudo=read geom=check gue
 ss=(read,tcheck) scf=(maxcycle=1)
 ----------------------------------------------------------------------
 -----
 title
 -----
 Structure from the checkpoint file:  "BBI-012LEU-085ASP-1_mol1.chk"
 Charge =  0 Multiplicity = 1

                         Standard orientation:
 ---------------------------------------------------------------------
 Center     Atomic      Atomic             Coordinates (Angstroms)
 Number     Number       Type             X           Y           Z
 ---------------------------------------------------------------------
      1          6           0       -2.530921    1.932164   -0.494973
      2          6           0       -2.875717   -1.776652    0.366636
      3          6           0       -2.165952    0.525086   -0.052596
      4          8           0       -1.000812    0.272200    0.255941
      5          7           0       -3.133821   -0.387820    0.001834
      6          1           0       -1.814572    2.181466   -1.278209
      7          1           0       -4.079946   -0.107470   -0.220308
      8          1           0       -1.843009   -2.019361    0.114158
      9          1           0       -3.559071    2.034979   -0.872241
     10          1           0       -2.383830    2.636986    0.336649
     11          1           0       -3.040399   -1.926795    1.443828
     12          1           0       -3.548623   -2.397145   -0.243439
     13          6           0        2.565454    1.778733    0.455665
     14          6           0        1.604386   -1.790788   -0.279464
     15          6           0        2.478755   -0.559260   -0.169566
     16          8           0        3.707020   -0.622886   -0.281555
     17          7           0        1.844156    0.561054    0.139191
     18          1           0        0.834307    0.542486    0.243448
     19          1           0        3.189061    2.061136   -0.393792
     20          1           0        0.564961   -1.481976   -0.200842
     21          1           0        1.835548    2.577207    0.654849
     22          1           0        3.194317    1.625432    1.345064
     23          1           0        1.764417   -2.322431   -1.229068
     24          1           0        1.808800   -2.467367    0.563421
 ---------------------------------------------------------------------

 SCF Done:  E(RHF) =  -494.246484525     A.U. after    2 cycles

 The electronic state is 1-A.
 Alpha  occ. eigenvalues --  -20.55013 -20.49096 -15.67816 -15.61186 -11.38595
 Alpha  occ. eigenvalues --  -11.32351 -11.29430 -11.26808 -11.24995 -11.21753
 Alpha  occ. eigenvalues --   -1.36618  -1.30243  -1.22508  -1.16832  -1.03153
 Alpha  occ. eigenvalues --   -0.98465  -0.95041  -0.89991  -0.81964  -0.76105
 Alpha  occ. eigenvalues --   -0.71576  -0.68345  -0.66278  -0.66222  -0.62643
 Alpha  occ. eigenvalues --   -0.61259  -0.61069  -0.60644  -0.57808  -0.56847
 Alpha  occ. eigenvalues --   -0.55995  -0.54906  -0.53727  -0.52609  -0.52075
 Alpha  occ. eigenvalues --   -0.48041  -0.46303  -0.42244  -0.40155  -0.36210
 Alpha virt. eigenvalues --    0.01681   0.03066   0.03719   0.03965   0.05156
 Alpha virt. eigenvalues --    0.05959   0.06010   0.06506   0.07688   0.08015
 Alpha virt. eigenvalues --    0.08480   0.08978   0.10027   0.11290   0.11594

 Mulliken charges:
               1
     1  C    0.262662
     2  C    0.916150
     3  C    0.269392
     4  O   -0.652944
     5  N   -0.318497
     6  H    0.048103
     7  H   -0.074782
     8  H   -0.317473
     9  H   -0.101190
    10  H    0.074184
    11  H   -0.060942
    12  H   -0.094786
    13  C    0.736042
    14  C    0.574814
    15  C    0.149575
    16  O   -0.611908
    17  N   -0.066158
    18  H   -0.057403
    19  H   -0.107941
    20  H   -0.442772
    21  H   -0.225095
    22  H   -0.045189
    23  H    0.076167
    24  H    0.069991
 Sum of Mulliken charges =  -0.00000

 Dipole moment (field-independent basis, Debye):
    X=            -10.4885    Y=              1.3038    Z=             -0.0375  Tot=             10.5693

 Test job not archived.
 1\1\GINC-SE059\SP\RHF\Aug-CC-pVDZ\C6H14N2O2\OHZDE\08-Apr-2025\0\\#t hf
  aug-cc-pvdz iop(5/13=1,5/36=2,99/5=2) pseudo=read geom=check guess=(r
 ead,tcheck) scf=(maxcycle=1)\\title\\0,1\C,0,1.56791592,2.62003439,-1.
 15268062\C,0,1.77491592,-0.80896561,-2.83068062\C,0,1.26091592,1.17103
 439,-1.49168062\O,0,0.37191592,0.58203439,-0.87568062\N,0,1.96091592,0
 .59103439,-2.46468062\H,0,1.70891592,2.63803439,-0.07168062\H,0,2.6469
 1592,1.14103439,-2.96468062\H,0,1.40191592,-1.35196561,-1.96168062\H,0
 ,2.45649592,3.02434839,-1.65958162\H,0,0.70111592,3.25332439,-1.392694

 Normal termination of Gaussian 16 at Tue Apr  8 22:29:15 2025.
