 Gaussian 16, Revision C.01,

 ----------------------------------------------------------------------
 #t hf aug-cc-pvdz symm=none int=(grid=ultrafine) guess=(read,tcheck) s
 table=(opt,rrhf)
 ----------------------------------------------------------------------
 -----
 title
 -----
 Symbolic Z-matrix:
 Charge =  0 Multiplicity = 1

 SCF Done:  E(RHF) =  -494.083823505     A.U. after   14 cycles
 Normal termination of Gaussian 16 at Tue Apr  8 22:28:49 2025.
 Gaussian 16:  ES64L-G16RevC.01  3-Jul-2019

 ----------------------------------------------------------------------
 #t hf aug-cc-pvdz iop(5/13=1,5/36=2,99/5=2) pseudo=read geom=check gue
 ss=(read,tcheck) scf=(maxcycle=1)
 ----------------------------------------------------------------------
 -----
 title
 -----
 Structure from the checkpoint file:  "BBI-004GLU-063LEU-2_mol1.chk"
 Charge =  0 Multiplicity = 1

                         Standard orientation:
 ---------------------------------------------------------------------
 Center     Atomic      Atomic             Coordinates (Angstroms)
 Number     Number       Type             X           Y           Z
 ---------------------------------------------------------------------
      1          6           0        2.490334    1.884149    0.054817
      2          6           0        1.751699   -1.854661    0.046076
      3          6           0        2.549697   -0.551528   -0.019901
      4          8           0        3.804271   -0.557238   -0.149166
      5          7           0        1.834393    0.579536    0.030709
      6          1           0        0.820942    0.535466    0.111230
      7          1           0        3.569427    1.768877    0.158827
      8          1           0        0.699203   -1.648424    0.238004
      9          1           0        2.292391    2.419738   -0.885376
     10          1           0        2.135169    2.469773    0.915579
     11          1           0        1.893757   -2.360158   -0.920514
     12          1           0        2.154499   -2.480979    0.855693
     13          6           0       -2.621462    1.958049   -0.075769
     14          6           0       -2.914501   -1.827270   -0.004142
     15          6           0       -2.197080    0.499388   -0.013640
     16          8           0       -1.011879    0.188417    0.153453
     17          7           0       -3.179596   -0.392480   -0.041037
     18          1           0       -3.707610    2.030486   -0.136773
     19          1           0       -4.141902   -0.076257   -0.117460
     20          1           0       -1.856580   -2.034958   -0.142168
     21          1           0       -2.253532    2.432913    0.845717
     22          1           0       -2.171884    2.446538   -0.952846
     23          1           0       -3.220366   -2.233569    0.971237
     24          1           0       -3.488352   -2.277028   -0.827794
 ---------------------------------------------------------------------

 SCF Done:  E(RHF) =  -494.241766353     A.U. after    2 cycles

 The electronic state is 1-A.
 Alpha  occ. eigenvalues --  -20.54970 -20.49041 -15.67988 -15.61633 -11.38573
 Alpha  occ. eigenvalues --  -11.33151 -11.29322 -11.26896 -11.24771 -11.22214
 Alpha  occ. eigenvalues --   -1.36260  -1.28619  -1.22669  -1.16074  -1.03402
 Alpha  occ. eigenvalues --   -0.98142  -0.94892  -0.89887  -0.82123  -0.76006
 Alpha  occ. eigenvalues --   -0.71304  -0.68527  -0.66202  -0.65734  -0.62423
 Alpha  occ. eigenvalues --   -0.60983  -0.60714  -0.60568  -0.58009  -0.56780
 Alpha  occ. eigenvalues --   -0.56232  -0.54358  -0.53812  -0.52561  -0.51510
 Alpha  occ. eigenvalues --   -0.47847  -0.46171  -0.42238  -0.40081  -0.36055
 Alpha virt. eigenvalues --    0.01629   0.03043   0.03778   0.03933   0.05301
 Alpha virt. eigenvalues --    0.05808   0.06108   0.06752   0.07099   0.08339
 Alpha virt. eigenvalues --    0.08598   0.09051   0.09831   0.11092   0.11529

 Mulliken charges:
               1
     1  C    0.734227
     2  C    0.529265
     3  C    0.239549
     4  O   -0.654900
     5  N   -0.117489
     6  H   -0.074713
     7  H   -0.214762
     8  H   -0.284266
     9  H   -0.094144
    10  H   -0.095433
    11  H    0.055360
    12  H    0.052792
    13  C    0.196751
    14  C    0.911875
    15  C    0.314164
    16  O   -0.658669
    17  N   -0.346127
    18  H   -0.129209
    19  H   -0.060911
    20  H   -0.303801
    21  H    0.097332
    22  H    0.083930
    23  H   -0.095785
    24  H   -0.085038
 Sum of Mulliken charges =  -0.00000

 Dipole moment (field-independent basis, Debye):
    X=            -10.7361    Y=              1.2396    Z=              0.0270  Tot=             10.8075

 Test job not archived.
 1\1\GINC-SE058\SP\RHF\Aug-CC-pVDZ\C6H14N2O2\OHZDE\08-Apr-2025\0\\#t hf
  aug-cc-pvdz iop(5/13=1,5/36=2,99/5=2) pseudo=read geom=check guess=(r
 ead,tcheck) scf=(maxcycle=1)\\title\\0,1\C,0,-0.35331962,2.93529294,-0
 .89244818\C,0,1.41168038,0.95729294,1.84555182\C,0,1.00368038,2.144292
 94,0.97155182\O,0,1.46268038,3.30029294,1.18055182\N,0,0.16768038,1.87
 129294,-0.03844818\H,0,-0.15831962,0.91829294,-0.18344818\H,0,-0.07331
 962,3.91329294,-0.50044818\H,0,0.85368038,0.06529294,1.56255182\H,0,0.
 06459038,2.84018294,-1.90551618\H,0,-1.45208962,2.89228794,-0.92183418

 Normal termination of Gaussian 16 at Tue Apr  8 22:29:03 2025.
