 Gaussian 16, Revision C.01,

 ----------------------------------------------------------------------
 #t hf aug-cc-pvdz symm=none int=(grid=ultrafine) guess=(read,tcheck) s
 table=(opt,rrhf)
 ----------------------------------------------------------------------
 -----
 title
 -----
 Symbolic Z-matrix:
 Charge =  0 Multiplicity = 1

 SCF Done:  E(RHF) =  -247.038925664     A.U. after   13 cycles
 Normal termination of Gaussian 16 at Tue Apr  8 22:24:52 2025.
 Gaussian 16:  ES64L-G16RevC.01  3-Jul-2019

 ----------------------------------------------------------------------
 #t hf aug-cc-pvdz iop(5/13=1,5/36=2,99/5=2) pseudo=read geom=check gue
 ss=(read,tcheck) scf=(maxcycle=1)
 ----------------------------------------------------------------------
 -----
 title
 -----
 Structure from the checkpoint file:  "BBI-008TRP-251HIE-2_mol3.chk"
 Charge =  0 Multiplicity = 1

                         Standard orientation:
 ---------------------------------------------------------------------
 Center     Atomic      Atomic             Coordinates (Angstroms)
 Number     Number       Type             X           Y           Z
 ---------------------------------------------------------------------
      1          6           0        1.957474   -0.108580    0.038782
      2          6           0       -1.826431   -0.538476    0.036481
      3          6           0       -0.473862    0.157747   -0.026889
      4          8           0       -0.384507    1.386276   -0.013654
      5          7           0        0.596804   -0.629370   -0.056745
      6          1           0        0.486061   -1.638771   -0.099976
      7          1           0        1.968421    0.878070    0.503758
      8          1           0       -1.705597   -1.556025   -0.334932
      9          1           0        2.551760   -0.805866    0.647571
     10          1           0        2.381040   -0.040207   -0.974094
     11          1           0       -2.164978   -0.550522    1.083018
     12          1           0       -2.561366   -0.035445   -0.609149
 ---------------------------------------------------------------------

 SCF Done:  E(RHF) =  -247.118732378     A.U. after    2 cycles

 The electronic state is 1-A.
 Alpha  occ. eigenvalues --  -20.51884 -15.65408 -11.35548 -11.27561 -11.24857
 Alpha  occ. eigenvalues --   -1.33250  -1.19895  -1.01095  -0.92807  -0.79135
 Alpha  occ. eigenvalues --   -0.68897  -0.65357  -0.63920  -0.59036  -0.57583
 Alpha  occ. eigenvalues --   -0.55660  -0.55019  -0.51143  -0.42922  -0.39408
 Alpha virt. eigenvalues --    0.02743   0.04038   0.04849   0.05120   0.06750
 Alpha virt. eigenvalues --    0.07405   0.08123   0.11021   0.12416   0.13221
 Alpha virt. eigenvalues --    0.13468   0.14387   0.15303   0.16333   0.16859

 Mulliken charges:
               1
     1  C    0.668182
     2  C    0.284915
     3  C    0.312533
     4  O   -0.581173
     5  N   -0.315919
     6  H   -0.052787
     7  H   -0.126750
     8  H   -0.101506
     9  H   -0.134674
    10  H   -0.073042
    11  H    0.085420
    12  H    0.034801
 Sum of Mulliken charges =  -0.00000

 Dipole moment (field-independent basis, Debye):
    X=              0.7469    Y=             -4.5164    Z=              0.0905  Tot=              4.5786

 Test job not archived.
 1\1\GINC-SE080\SP\RHF\Aug-CC-pVDZ\C3H7N1O1\OHZDE\08-Apr-2025\0\\#t hf
 aug-cc-pvdz iop(5/13=1,5/36=2,99/5=2) pseudo=read geom=check guess=(re
 ad,tcheck) scf=(maxcycle=1)\\title\\0,1\C,0,-0.36801652,0.25608135,1.9
 2577029\C,0,-0.27401652,0.16508135,-1.88022971\C,0,0.14098348,-0.10391
 865,-0.44022971\O,0,1.21798348,-0.63891865,-0.17322971\N,0,-0.70001652
 ,0.30408135,0.50477029\H,0,-1.59501652,0.71208135,0.24877029\H,0,0.711
 98348,0.22608135,2.07577029\H,0,-1.35501652,0.30208135,-1.90522971\H,0
 ,-0.77867652,1.15620135,2.40655029\H,0,-0.82324652,-0.64418865,2.36427

 Normal termination of Gaussian 16 at Tue Apr  8 22:24:56 2025.
