 Gaussian 16, Revision C.01,

 ----------------------------------------------------------------------
 #t hf aug-cc-pvdz symm=none int=(grid=ultrafine) guess=(read,tcheck) s
 table=(opt,rrhf)
 ----------------------------------------------------------------------
 -----
 title
 -----
 Symbolic Z-matrix:
 Charge =  0 Multiplicity = 1

 SCF Done:  E(RHF) =  -494.085852337     A.U. after   13 cycles
 Normal termination of Gaussian 16 at Tue Apr  8 22:29:08 2025.
 Gaussian 16:  ES64L-G16RevC.01  3-Jul-2019

 ----------------------------------------------------------------------
 #t hf aug-cc-pvdz iop(5/13=1,5/36=2,99/5=2) pseudo=read geom=check gue
 ss=(read,tcheck) scf=(maxcycle=1)
 ----------------------------------------------------------------------
 -----
 title
 -----
 Structure from the checkpoint file:  "BBI-025ILE-070TRP-1_mol1.chk"
 Charge =  0 Multiplicity = 1

                         Standard orientation:
 ---------------------------------------------------------------------
 Center     Atomic      Atomic             Coordinates (Angstroms)
 Number     Number       Type             X           Y           Z
 ---------------------------------------------------------------------
      1          6           0       -2.542411    1.882847    0.556894
      2          6           0       -3.027636   -1.699525   -0.625578
      3          6           0       -2.185107    0.465628    0.119643
      4          8           0       -1.007940    0.160941   -0.082189
      5          7           0       -3.198156   -0.387217   -0.019675
      6          1           0       -3.590998    1.906171    0.857216
      7          1           0       -4.146191   -0.064423    0.136130
      8          1           0       -2.124548   -2.190628   -0.260828
      9          1           0       -1.891295    2.179942    1.392229
     10          1           0       -2.396831    2.565388   -0.293366
     11          1           0       -3.910417   -2.324952   -0.426733
     12          1           0       -2.988065   -1.569079   -1.717100
     13          6           0        2.516800    1.838603   -0.509872
     14          6           0        1.740141   -1.681469    0.717516
     15          6           0        2.569954   -0.561180    0.108046
     16          8           0        3.779223   -0.719029   -0.117067
     17          7           0        1.904540    0.568157   -0.138789
     18          1           0        0.900580    0.569072    0.012489
     19          1           0        3.598855    1.734881   -0.520218
     20          1           0        0.698238   -1.448786    0.532309
     21          1           0        2.165279    2.134345   -1.509356
     22          1           0        2.232416    2.589343    0.242133
     23          1           0        1.991220   -2.647617    0.255440
     24          1           0        1.916356   -1.704959    1.803056
 ---------------------------------------------------------------------

 SCF Done:  E(RHF) =  -494.244542155     A.U. after    2 cycles

 The electronic state is 1-A.
 Alpha  occ. eigenvalues --  -20.55050 -20.49091 -15.67832 -15.61523 -11.38450
 Alpha  occ. eigenvalues --  -11.32746 -11.29381 -11.26842 -11.25262 -11.21656
 Alpha  occ. eigenvalues --   -1.36300  -1.29694  -1.22617  -1.16712  -1.03124
 Alpha  occ. eigenvalues --   -0.98348  -0.94821  -0.90160  -0.81833  -0.75795
 Alpha  occ. eigenvalues --   -0.71344  -0.68414  -0.66080  -0.65823  -0.62601
 Alpha  occ. eigenvalues --   -0.61067  -0.60735  -0.60583  -0.57711  -0.57309
 Alpha  occ. eigenvalues --   -0.56443  -0.54771  -0.53612  -0.52559  -0.52227
 Alpha  occ. eigenvalues --   -0.48366  -0.45972  -0.42088  -0.39980  -0.36173
 Alpha virt. eigenvalues --    0.01634   0.03024   0.03778   0.04020   0.05260
 Alpha virt. eigenvalues --    0.05956   0.06074   0.06546   0.07231   0.07861
 Alpha virt. eigenvalues --    0.08697   0.09258   0.10113   0.11297   0.11410

 Mulliken charges:
               1
     1  C    0.200836
     2  C    0.778319
     3  C    0.290163
     4  O   -0.624125
     5  N   -0.300765
     6  H   -0.122755
     7  H   -0.051983
     8  H   -0.128480
     9  H    0.076113
    10  H    0.092422
    11  H   -0.179158
    12  H   -0.067663
    13  C    0.736760
    14  C    0.553700
    15  C    0.279129
    16  O   -0.614347
    17  N   -0.181647
    18  H   -0.095190
    19  H   -0.218659
    20  H   -0.370005
    21  H   -0.087731
    22  H   -0.087078
    23  H    0.040232
    24  H    0.081912
 Sum of Mulliken charges =  -0.00000

 Dipole moment (field-independent basis, Debye):
    X=            -10.5168    Y=              1.9018    Z=              0.7727  Tot=             10.7152

 Test job not archived.
 1\1\GINC-SE454\SP\RHF\Aug-CC-pVDZ\C6H14N2O2\OHZDE\08-Apr-2025\0\\#t hf
  aug-cc-pvdz iop(5/13=1,5/36=2,99/5=2) pseudo=read geom=check guess=(r
 ead,tcheck) scf=(maxcycle=1)\\title\\0,1\C,0,-0.05733484,3.23459655,-0
 .4047127\C,0,-1.81733484,1.66259655,2.5782873\C,0,-0.54633484,2.153596
 55,0.5542873\O,0,-0.39433484,0.96359655,0.2712873\N,0,-1.12433484,2.57
 259655,1.6782873\H,0,-0.11433484,4.20259655,0.0952873\H,0,-1.24233484,
 3.56659655,1.8372873\H,0,-1.25033484,0.74259655,2.7262873\H,0,0.977014
 16,3.01192655,-0.7056137\H,0,-0.71079684,3.24807655,-1.2894757\H,0,-2.

 Normal termination of Gaussian 16 at Tue Apr  8 22:29:22 2025.
