 Gaussian 16, Revision C.01,

 ----------------------------------------------------------------------
 #t hf aug-cc-pvdz symm=none int=(grid=ultrafine) guess=(read,tcheck) s
 table=(opt,rrhf)
 ----------------------------------------------------------------------
 -----
 title
 -----
 Symbolic Z-matrix:
 Charge =  0 Multiplicity = 1

 SCF Done:  E(RHF) =  -494.084293565     A.U. after   14 cycles
 Normal termination of Gaussian 16 at Tue Apr  8 22:28:37 2025.
 Gaussian 16:  ES64L-G16RevC.01  3-Jul-2019

 ----------------------------------------------------------------------
 #t hf aug-cc-pvdz iop(5/13=1,5/36=2,99/5=2) pseudo=read geom=check gue
 ss=(read,tcheck) scf=(maxcycle=1)
 ----------------------------------------------------------------------
 -----
 title
 -----
 Structure from the checkpoint file:  "BBI-060LEU-064TYR-1_mol1.chk"
 Charge =  0 Multiplicity = 1

                         Standard orientation:
 ---------------------------------------------------------------------
 Center     Atomic      Atomic             Coordinates (Angstroms)
 Number     Number       Type             X           Y           Z
 ---------------------------------------------------------------------
      1          6           0       -2.343159   -0.536819    1.910582
      2          6           0       -2.960872    0.787479   -1.587769
      3          6           0       -2.173336   -0.274104    0.424978
      4          8           0       -1.204419   -0.724534   -0.185872
      5          7           0       -3.085596    0.483974   -0.167229
      6          1           0       -1.349434   -0.739218    2.302493
      7          1           0       -3.933023    0.736526    0.328234
      8          1           0       -2.865057   -0.144856   -2.147298
      9          1           0       -2.757866    0.342607    2.424999
     10          1           0       -2.973319   -1.420858    2.087722
     11          1           0       -3.881382    1.292813   -1.915328
     12          1           0       -2.074059    1.402349   -1.801065
     13          6           0        1.895803   -1.765286   -0.693044
     14          6           0        2.295223    1.844544    0.488165
     15          6           0        2.615169    0.425546    0.078547
     16          8           0        3.801380    0.067976    0.102240
     17          7           0        1.617367   -0.365342   -0.330362
     18          1           0        0.655291   -0.055959   -0.270218
     19          1           0        2.967927   -1.944154   -0.780326
     20          1           0        3.092463    2.455429    0.061038
     21          1           0        1.502537   -2.456787    0.066667
     22          1           0        1.460314   -2.042698   -1.664327
     23          1           0        1.305871    2.185076    0.148722
     24          1           0        2.378682    1.923610    1.582141
 ---------------------------------------------------------------------

 SCF Done:  E(RHF) =  -494.242966575     A.U. after    2 cycles

 The electronic state is 1-A.
 Alpha  occ. eigenvalues --  -20.54733 -20.49476 -15.67382 -15.62207 -11.37868
 Alpha  occ. eigenvalues --  -11.33299 -11.29147 -11.26301 -11.24534 -11.22994
 Alpha  occ. eigenvalues --   -1.36345  -1.30462  -1.22195  -1.16459  -1.02858
 Alpha  occ. eigenvalues --   -0.98722  -0.94571  -0.90189  -0.81575  -0.76389
 Alpha  occ. eigenvalues --   -0.71159  -0.68019  -0.66559  -0.65870  -0.62974
 Alpha  occ. eigenvalues --   -0.60949  -0.60290  -0.60068  -0.57730  -0.56502
 Alpha  occ. eigenvalues --   -0.56133  -0.55711  -0.53879  -0.52785  -0.51449
 Alpha  occ. eigenvalues --   -0.48500  -0.45861  -0.41937  -0.40751  -0.36604
 Alpha virt. eigenvalues --    0.01716   0.03163   0.03676   0.04041   0.05654
 Alpha virt. eigenvalues --    0.05900   0.06048   0.06477   0.07378   0.08257
 Alpha virt. eigenvalues --    0.08449   0.08860   0.09293   0.10483   0.11369

 Mulliken charges:
               1
     1  C    0.318995
     2  C    0.775776
     3  C    0.230798
     4  O   -0.578192
     5  N   -0.320214
     6  H   -0.049708
     7  H   -0.065376
     8  H   -0.088625
     9  H   -0.035037
    10  H    0.062284
    11  H   -0.199373
    12  H   -0.070416
    13  C    0.729051
    14  C    0.357849
    15  C    0.259304
    16  O   -0.622924
    17  N   -0.131086
    18  H   -0.071401
    19  H   -0.224133
    20  H   -0.000524
    21  H   -0.095260
    22  H   -0.112872
    23  H   -0.122983
    24  H    0.054065
 Sum of Mulliken charges =  -0.00000

 Dipole moment (field-independent basis, Debye):
    X=             -9.5535    Y=              2.0269    Z=              1.0052  Tot=              9.8177

 Test job not archived.
 1\1\GINC-SE455\SP\RHF\Aug-CC-pVDZ\C6H14N2O2\OHZDE\08-Apr-2025\0\\#t hf
  aug-cc-pvdz iop(5/13=1,5/36=2,99/5=2) pseudo=read geom=check guess=(r
 ead,tcheck) scf=(maxcycle=1)\\title\\0,1\C,0,-1.28882937,2.78861656,-0
 .44574848\C,0,1.90917063,1.85561656,-2.25574848\C,0,-0.21782937,1.9596
 1656,-1.13174848\O,0,-0.32282937,0.73561656,-1.20674848\N,0,0.83917063
 ,2.60361656,-1.60674848\H,0,-1.79282937,2.12361656,0.25125152\H,0,0.84
 117063,3.61661656,-1.64174848\H,0,1.48617063,1.24261656,-3.05374848\H,
 0,-0.84591937,3.62489556,0.11502352\H,0,-2.02919937,3.15844156,-1.1703

 Normal termination of Gaussian 16 at Tue Apr  8 22:28:48 2025.
