 Gaussian 16, Revision C.01,

 ----------------------------------------------------------------------
 #t hf aug-cc-pvdz symm=none int=(grid=ultrafine) guess=(read,tcheck) s
 table=(opt,rrhf)
 ----------------------------------------------------------------------
 -----
 title
 -----
 Symbolic Z-matrix:
 Charge =  0 Multiplicity = 1

 SCF Done:  E(RHF) =  -494.073896631     A.U. after   13 cycles
 Normal termination of Gaussian 16 at Tue Apr  8 22:28:43 2025.
 Gaussian 16:  ES64L-G16RevC.01  3-Jul-2019

 ----------------------------------------------------------------------
 #t hf aug-cc-pvdz iop(5/13=1,5/36=2,99/5=2) pseudo=read geom=check gue
 ss=(read,tcheck) scf=(maxcycle=1)
 ----------------------------------------------------------------------
 -----
 title
 -----
 Structure from the checkpoint file:  "BBI-112TRP-115ARG-1_mol1.chk"
 Charge =  0 Multiplicity = 1

                         Standard orientation:
 ---------------------------------------------------------------------
 Center     Atomic      Atomic             Coordinates (Angstroms)
 Number     Number       Type             X           Y           Z
 ---------------------------------------------------------------------
      1          6           0       -3.035113   -1.244231    0.934241
      2          6           0       -1.661205    1.868213   -0.829158
      3          6           0       -2.235223   -0.383494   -0.061705
      4          8           0       -1.488873   -0.897167   -0.893263
      5          7           0       -2.369519    0.937656    0.039351
      6          1           0       -2.570182   -2.232531    0.973557
      7          1           0       -3.027025    1.315233    0.714944
      8          1           0       -1.875321    1.617456   -1.869174
      9          1           0       -2.989365   -0.777309    1.929175
     10          1           0       -4.075697   -1.368993    0.600149
     11          1           0       -2.025089    2.886555   -0.627746
     12          1           0       -0.570229    1.816099   -0.698721
     13          6           0        1.966001   -1.983757   -0.363101
     14          6           0        1.786452    1.655565    0.814339
     15          6           0        2.338963    0.362231    0.199538
     16          8           0        3.494333    0.306437   -0.230814
     17          7           0        1.536360   -0.707961    0.208230
     18          1           0        0.625781   -0.653843    0.651043
     19          1           0        3.043209   -2.090415   -0.221141
     20          1           0        2.250747    2.571866    0.451988
     21          1           0        1.455303   -2.830550    0.118669
     22          1           0        1.820848   -2.057266   -1.451000
     23          1           0        0.701211    1.727114    0.649908
     24          1           0        2.064999    1.547400    1.872973
 ---------------------------------------------------------------------

 SCF Done:  E(RHF) =  -494.232051319     A.U. after    2 cycles

 The electronic state is 1-A.
 Alpha  occ. eigenvalues --  -20.53980 -20.50950 -15.66833 -15.63757 -11.37254
 Alpha  occ. eigenvalues --  -11.34730 -11.28807 -11.26346 -11.25653 -11.24408
 Alpha  occ. eigenvalues --   -1.35243  -1.31972  -1.21384  -1.17958  -1.02119
 Alpha  occ. eigenvalues --   -0.99872  -0.94275  -0.91311  -0.80481  -0.77523
 Alpha  occ. eigenvalues --   -0.70441  -0.67990  -0.66999  -0.65644  -0.64015
 Alpha  occ. eigenvalues --   -0.62304  -0.60123  -0.59455  -0.57717  -0.56991
 Alpha  occ. eigenvalues --   -0.56473  -0.55870  -0.55202  -0.53389  -0.52606
 Alpha  occ. eigenvalues --   -0.49610  -0.44691  -0.41770  -0.41073  -0.37731
 Alpha virt. eigenvalues --    0.01816   0.03162   0.03787   0.04323   0.05482
 Alpha virt. eigenvalues --    0.05918   0.06304   0.06467   0.07392   0.07856
 Alpha virt. eigenvalues --    0.08434   0.08883   0.09526   0.09905   0.11705

 Mulliken charges:
               1
     1  C    0.332858
     2  C    0.981677
     3  C    0.162896
     4  O   -0.539107
     5  N   -0.296763
     6  H   -0.038014
     7  H   -0.082215
     8  H   -0.072901
     9  H   -0.029607
    10  H    0.052242
    11  H   -0.183759
    12  H   -0.269944
    13  C    0.738447
    14  C    0.647042
    15  C    0.185913
    16  O   -0.580495
    17  N   -0.198362
    18  H   -0.023398
    19  H   -0.185719
    20  H   -0.022813
    21  H   -0.171189
    22  H   -0.064137
    23  H   -0.435871
    24  H    0.093220
 Sum of Mulliken charges =  -0.00000

 Dipole moment (field-independent basis, Debye):
    X=             -7.1536    Y=              1.8529    Z=              3.7274  Tot=              8.2765

 Test job not archived.
 1\1\GINC-SE338\SP\RHF\Aug-CC-pVDZ\C6H14N2O2\OHZDE\08-Apr-2025\0\\#t hf
  aug-cc-pvdz iop(5/13=1,5/36=2,99/5=2) pseudo=read geom=check guess=(r
 ead,tcheck) scf=(maxcycle=1)\\title\\0,1\C,0,0.51033317,-3.34724131,-0
 .63019171\C,0,-1.17166682,-1.19924131,2.06080829\C,0,-0.38766682,-2.26
 824131,0.00380829\O,0,-1.05866682,-1.50724131,-0.69119171\N,0,-0.38066
 682,-2.18224131,1.33280829\H,0,0.67733318,-3.07424131,-1.67519171\H,0,
 0.15833317,-2.85724131,1.86680829\H,0,-2.21766682,-1.29524131,1.765808
 29\H,0,1.47306318,-3.37034131,-0.09857171\H,0,0.01935318,-4.33134131,-

 Normal termination of Gaussian 16 at Tue Apr  8 22:28:55 2025.
