 Gaussian 16, Revision C.01,

 ----------------------------------------------------------------------
 #t hf aug-cc-pvdz symm=none int=(grid=ultrafine) guess=(read,tcheck) s
 table=(opt,rrhf)
 ----------------------------------------------------------------------
 -----
 title
 -----
 Symbolic Z-matrix:
 Charge =  0 Multiplicity = 1

 SCF Done:  E(RHF) =  -494.069502760     A.U. after   14 cycles
 Normal termination of Gaussian 16 at Tue Apr  8 22:28:33 2025.
 Gaussian 16:  ES64L-G16RevC.01  3-Jul-2019

 ----------------------------------------------------------------------
 #t hf aug-cc-pvdz iop(5/13=1,5/36=2,99/5=2) pseudo=read geom=check gue
 ss=(read,tcheck) scf=(maxcycle=1)
 ----------------------------------------------------------------------
 -----
 title
 -----
 Structure from the checkpoint file:  "BBI-051ALA-054VAL-1_mol1.chk"
 Charge =  0 Multiplicity = 1

                         Standard orientation:
 ---------------------------------------------------------------------
 Center     Atomic      Atomic             Coordinates (Angstroms)
 Number     Number       Type             X           Y           Z
 ---------------------------------------------------------------------
      1          6           0       -3.257438   -1.879720   -0.233942
      2          6           0       -3.058646    1.897330    0.101185
      3          6           0       -2.684887   -0.474563   -0.230990
      4          8           0       -1.499578   -0.286330   -0.506628
      5          7           0       -3.506897    0.510793    0.102219
      6          1           0       -2.445823   -2.546191    0.050473
      7          1           0       -4.465454    0.309468    0.363437
      8          1           0       -2.397209    2.038812   -0.757204
      9          1           0       -4.066750   -2.016224    0.498443
     10          1           0       -3.580566   -2.157295   -1.248109
     11          1           0       -3.905027    2.584547   -0.044969
     12          1           0       -2.455808    2.168557    0.980405
     13          6           0        1.933543   -0.289751    1.762986
     14          6           0        4.282809    0.044356   -1.166354
     15          6           0        2.414693    0.085362    0.380504
     16          8           0        1.645269    0.562651   -0.474680
     17          7           0        3.689520   -0.167024    0.142111
     18          1           0        2.661130    0.073068    2.484226
     19          1           0        4.293702   -0.461599    0.903036
     20          1           0        3.509330    0.075541   -1.937560
     21          1           0        0.957587    0.187997    1.934067
     22          1           0        1.886065   -1.387161    1.821564
     23          1           0        4.822019    1.002958   -1.184906
     24          1           0        4.962468   -0.787521   -1.403082
 ---------------------------------------------------------------------

 SCF Done:  E(RHF) =  -494.228507745     A.U. after    2 cycles

 The electronic state is 1-A.
 Alpha  occ. eigenvalues --  -20.50652 -20.50004 -15.64398 -15.63963 -11.34200
 Alpha  occ. eigenvalues --  -11.33705 -11.26341 -11.26237 -11.23742 -11.23165
 Alpha  occ. eigenvalues --   -1.32104  -1.30781  -1.18880  -1.18650  -1.00044
 Alpha  occ. eigenvalues --   -0.99963  -0.91842  -0.91426  -0.78267  -0.77892
 Alpha  occ. eigenvalues --   -0.68130  -0.67292  -0.64245  -0.63822  -0.62758
 Alpha  occ. eigenvalues --   -0.62720  -0.57752  -0.57625  -0.56720  -0.55809
 Alpha  occ. eigenvalues --   -0.54300  -0.54194  -0.53656  -0.53224  -0.49532
 Alpha  occ. eigenvalues --   -0.49139  -0.41777  -0.41043  -0.38356  -0.37819
 Alpha virt. eigenvalues --    0.03092   0.03355   0.04295   0.04539   0.05265
 Alpha virt. eigenvalues --    0.05497   0.05599   0.06867   0.07297   0.08016
 Alpha virt. eigenvalues --    0.08480   0.09167   0.09663   0.10345   0.11472

 Mulliken charges:
               1
     1  C    0.283845
     2  C    0.765932
     3  C    0.222926
     4  O   -0.496569
     5  N   -0.294738
     6  H   -0.019751
     7  H   -0.066522
     8  H   -0.124391
     9  H   -0.068089
    10  H    0.063419
    11  H   -0.186207
    12  H   -0.074149
    13  C    0.296828
    14  C    0.697413
    15  C    0.263276
    16  O   -0.564046
    17  N   -0.310345
    18  H   -0.064490
    19  H   -0.061385
    20  H   -0.136352
    21  H    0.016066
    22  H    0.093242
    23  H   -0.087401
    24  H   -0.148509
 Sum of Mulliken charges =   0.00000

 Dipole moment (field-independent basis, Debye):
    X=             -0.8265    Y=             -1.2943    Z=              3.2499  Tot=              3.5945

 Test job not archived.
 1\1\GINC-SE393\SP\RHF\Aug-CC-pVDZ\C6H14N2O2\OHZDE\08-Apr-2025\0\\#t hf
  aug-cc-pvdz iop(5/13=1,5/36=2,99/5=2) pseudo=read geom=check guess=(r
 ead,tcheck) scf=(maxcycle=1)\\title\\0,1\C,0,3.18382991,-1.92653099,0.
 6135734\C,0,3.03282991,1.86646901,0.5225734\C,0,2.61582991,-0.51953099
 ,0.6175734\O,0,1.40082991,-0.34053099,0.7075734\N,0,3.47882991,0.47946
 901,0.4955734\H,0,2.43182991,-2.56353099,0.1525734\H,0,4.46782991,0.28
 846901,0.3815734\H,0,2.23882991,1.95246901,1.2685734\H,0,4.10294991,-2
 .01791099,0.0161834\H,0,3.33646991,-2.27867099,1.6444434\H,0,3.8418099

 Normal termination of Gaussian 16 at Tue Apr  8 22:28:46 2025.
