 Gaussian 16, Revision C.01,

 ----------------------------------------------------------------------
 #t hf aug-cc-pvdz symm=none int=(grid=ultrafine) guess=(read,tcheck) s
 table=(opt,rrhf)
 ----------------------------------------------------------------------
 -----
 title
 -----
 Symbolic Z-matrix:
 Charge =  0 Multiplicity = 1

 SCF Done:  E(RHF) =  -494.079701184     A.U. after   14 cycles
 Normal termination of Gaussian 16 at Tue Apr  8 22:29:09 2025.
 Gaussian 16:  ES64L-G16RevC.01  3-Jul-2019

 ----------------------------------------------------------------------
 #t hf aug-cc-pvdz iop(5/13=1,5/36=2,99/5=2) pseudo=read geom=check gue
 ss=(read,tcheck) scf=(maxcycle=1)
 ----------------------------------------------------------------------
 -----
 title
 -----
 Structure from the checkpoint file:  "BBI-064TYR-067GLU-1_mol1.chk"
 Charge =  0 Multiplicity = 1

                         Standard orientation:
 ---------------------------------------------------------------------
 Center     Atomic      Atomic             Coordinates (Angstroms)
 Number     Number       Type             X           Y           Z
 ---------------------------------------------------------------------
      1          6           0        2.982153   -1.542605    0.819451
      2          6           0        2.071254    1.895394   -0.498838
      3          6           0        2.280238   -0.468971   -0.001423
      4          8           0        1.336847   -0.769919   -0.729679
      5          7           0        2.725350    0.780758    0.133374
      6          1           0        3.866851   -1.120775    1.289294
      7          1           0        3.503558    0.955668    0.759896
      8          1           0        2.621634    2.821860   -0.328370
      9          1           0        1.941356    1.722322   -1.567281
     10          1           0        2.259137   -1.889330    1.572467
     11          1           0        3.296565   -2.390185    0.192754
     12          1           0        1.099770    1.937851    0.015378
     13          6           0       -2.270184   -1.963047   -0.497055
     14          6           0       -1.747119    1.807678    0.129542
     15          6           0       -2.433784    0.433967    0.214022
     16          8           0       -3.575702    0.354140    0.710619
     17          7           0       -1.742873   -0.610207   -0.281713
     18          1           0       -0.789018   -0.446106   -0.576942
     19          1           0       -3.356949   -1.914405   -0.521887
     20          1           0       -1.655103    2.152346    1.158881
     21          1           0       -1.887252   -2.365255   -1.446574
     22          1           0       -1.961066   -2.588891    0.353107
     23          1           0       -0.753713    1.783816   -0.342238
     24          1           0       -2.447620    2.498952   -0.361820
 ---------------------------------------------------------------------

 SCF Done:  E(RHF) =  -494.237858876     A.U. after    2 cycles

 The electronic state is 1-A.
 Alpha  occ. eigenvalues --  -20.54480 -20.50382 -15.67251 -15.62805 -11.37762
 Alpha  occ. eigenvalues --  -11.34404 -11.29003 -11.26248 -11.25835 -11.23564
 Alpha  occ. eigenvalues --   -1.35935  -1.30229  -1.22426  -1.17186  -1.02901
 Alpha  occ. eigenvalues --   -0.99045  -0.94620  -0.91130  -0.81146  -0.76453
 Alpha  occ. eigenvalues --   -0.71066  -0.67908  -0.66837  -0.66334  -0.63202
 Alpha  occ. eigenvalues --   -0.61423  -0.60667  -0.60270  -0.57795  -0.57228
 Alpha  occ. eigenvalues --   -0.56995  -0.56060  -0.54015  -0.53488  -0.52400
 Alpha  occ. eigenvalues --   -0.48823  -0.45351  -0.41544  -0.41100  -0.37102
 Alpha virt. eigenvalues --    0.01873   0.03205   0.03904   0.04429   0.05443
 Alpha virt. eigenvalues --    0.05781   0.06434   0.06571   0.07314   0.07726
 Alpha virt. eigenvalues --    0.08822   0.08982   0.10562   0.10840   0.11582

 Mulliken charges:
               1
     1  C    0.338193
     2  C    0.865576
     3  C    0.204337
     4  O   -0.622858
     5  N   -0.234070
     6  H   -0.136396
     7  H   -0.067861
     8  H   -0.165748
     9  H   -0.130873
    10  H    0.071048
    11  H    0.054714
    12  H   -0.196991
    13  C    0.738662
    14  C    0.540644
    15  C    0.238750
    16  O   -0.623264
    17  N   -0.182873
    18  H   -0.028141
    19  H   -0.202121
    20  H   -0.005929
    21  H   -0.105467
    22  H   -0.070899
    23  H   -0.344282
    24  H    0.065850
 Sum of Mulliken charges =  -0.00000

 Dipole moment (field-independent basis, Debye):
    X=              8.3754    Y=              1.2577    Z=              0.2768  Tot=              8.4738

 Test job not archived.
 1\1\GINC-SE095\SP\RHF\Aug-CC-pVDZ\C6H14N2O2\OHZDE\08-Apr-2025\0\\#t hf
  aug-cc-pvdz iop(5/13=1,5/36=2,99/5=2) pseudo=read geom=check guess=(r
 ead,tcheck) scf=(maxcycle=1)\\title\\0,1\C,0,-0.98549638,2.4303157,2.2
 9741501\C,0,2.35250362,0.8463157,1.43941501\C,0,0.03450362,1.3593157,1
 .93441501\O,0,-0.33749638,0.2143157,1.68641501\N,0,1.31250362,1.736315
 7,1.88241501\H,0,-0.46849638,3.3323157,2.61441501\H,0,1.54450362,2.701
 3157,2.09141501\H,0,3.33450362,1.3123157,1.53341501\H,0,2.32550362,-0.
 0956843,1.98741501\H,0,-1.58767638,2.6134557,1.39528201\H,0,-1.6410563

 Normal termination of Gaussian 16 at Tue Apr  8 22:29:23 2025.
