 Gaussian 16, Revision C.01,

 ----------------------------------------------------------------------
 #t hf aug-cc-pvdz symm=none int=(grid=ultrafine) guess=(read,tcheck) s
 table=(opt,rrhf)
 ----------------------------------------------------------------------
 -----
 title
 -----
 Symbolic Z-matrix:
 Charge =  0 Multiplicity = 1

 SCF Done:  E(RHF) =  -247.036420300     A.U. after   13 cycles
 Normal termination of Gaussian 16 at Tue Apr  8 22:25:22 2025.
 Gaussian 16:  ES64L-G16RevC.01  3-Jul-2019

 ----------------------------------------------------------------------
 #t hf aug-cc-pvdz iop(5/13=1,5/36=2,99/5=2) pseudo=read geom=check gue
 ss=(read,tcheck) scf=(maxcycle=1)
 ----------------------------------------------------------------------
 -----
 title
 -----
 Structure from the checkpoint file:  "BBI-014VAL-017GLU-1_mol2.chk"
 Charge =  0 Multiplicity = 1

                         Standard orientation:
 ---------------------------------------------------------------------
 Center     Atomic      Atomic             Coordinates (Angstroms)
 Number     Number       Type             X           Y           Z
 ---------------------------------------------------------------------
      1          6           0        2.000613   -0.093973   -0.003138
      2          6           0       -1.816329   -0.574759    0.001396
      3          6           0       -0.477429    0.155032    0.009665
      4          8           0       -0.455433    1.400711   -0.006223
      5          7           0        0.619978   -0.619344    0.007552
      6          1           0        0.502412   -1.631755    0.022109
      7          1           0        1.915389    0.952082   -0.305538
      8          1           0       -1.609341   -1.643915    0.051135
      9          1           0        2.486757   -0.118044    0.983311
     10          1           0        2.558061   -0.702120   -0.730740
     11          1           0       -2.431192   -0.273297    0.862245
     12          1           0       -2.359598   -0.371026   -0.933140
 ---------------------------------------------------------------------

 SCF Done:  E(RHF) =  -247.115685613     A.U. after    2 cycles

 The electronic state is 1-A.
 Alpha  occ. eigenvalues --  -20.52089 -15.65875 -11.36095 -11.27965 -11.24911
 Alpha  occ. eigenvalues --   -1.32250  -1.19549  -1.00957  -0.92828  -0.78898
 Alpha  occ. eigenvalues --   -0.68774  -0.65183  -0.63306  -0.58792  -0.57674
 Alpha  occ. eigenvalues --   -0.55584  -0.55440  -0.50891  -0.42888  -0.39570
 Alpha virt. eigenvalues --    0.02755   0.04016   0.04873   0.05155   0.06917
 Alpha virt. eigenvalues --    0.07257   0.08113   0.11184   0.12350   0.13153
 Alpha virt. eigenvalues --    0.13632   0.14473   0.15247   0.16399   0.16814

 Mulliken charges:
               1
     1  C    0.669032
     2  C    0.287690
     3  C    0.363824
     4  O   -0.602472
     5  N   -0.352583
     6  H   -0.048368
     7  H   -0.135442
     8  H   -0.129345
     9  H   -0.063453
    10  H   -0.108248
    11  H    0.059017
    12  H    0.060349
 Sum of Mulliken charges =   0.00000

 Dipole moment (field-independent basis, Debye):
    X=              0.9847    Y=             -4.5494    Z=              0.0237  Tot=              4.6548

 Test job not archived.
 1\1\GINC-SE110\SP\RHF\Aug-CC-pVDZ\C3H7N1O1\OHZDE\08-Apr-2025\0\\#t hf
 aug-cc-pvdz iop(5/13=1,5/36=2,99/5=2) pseudo=read geom=check guess=(re
 ad,tcheck) scf=(maxcycle=1)\\title\\0,1\C,0,1.25111888,1.58425868,0.07
 82205\C,0,-0.55288112,-1.80974132,0.2412205\C,0,-0.34288112,-0.3257413
 2,-0.0397795\O,0,-1.25588112,0.33525868,-0.5707795\N,0,0.85811888,0.17
 625868,0.2912205\H,0,1.54311888,-0.44274132,0.7232205\H,0,0.52611888,1
 .98825868,-0.6317795\H,0,0.34611888,-2.18274132,0.7322205\H,0,1.201748
 88,2.19632868,0.9908705\H,0,2.27410888,1.56285868,-0.3255495\H,0,-1.42

 Normal termination of Gaussian 16 at Tue Apr  8 22:25:25 2025.
