 Gaussian 16, Revision C.01,

 ----------------------------------------------------------------------
 #t hf aug-cc-pvdz symm=none int=(grid=ultrafine) guess=(read,tcheck) s
 table=(opt,rrhf)
 ----------------------------------------------------------------------
 -----
 title
 -----
 Symbolic Z-matrix:
 Charge =  0 Multiplicity = 1

 SCF Done:  E(RHF) =  -494.076301372     A.U. after   13 cycles
 Normal termination of Gaussian 16 at Tue Apr  8 22:28:44 2025.
 Gaussian 16:  ES64L-G16RevC.01  3-Jul-2019

 ----------------------------------------------------------------------
 #t hf aug-cc-pvdz iop(5/13=1,5/36=2,99/5=2) pseudo=read geom=check gue
 ss=(read,tcheck) scf=(maxcycle=1)
 ----------------------------------------------------------------------
 -----
 title
 -----
 Structure from the checkpoint file:  "BBI-005ASP-008SER-2_mol1.chk"
 Charge =  0 Multiplicity = 1

                         Standard orientation:
 ---------------------------------------------------------------------
 Center     Atomic      Atomic             Coordinates (Angstroms)
 Number     Number       Type             X           Y           Z
 ---------------------------------------------------------------------
      1          6           0       -2.819207   -1.396403    0.872913
      2          6           0       -1.793373    1.892041   -0.740548
      3          6           0       -2.143899   -0.428564   -0.090540
      4          8           0       -1.373503   -0.830778   -0.956353
      5          7           0       -2.418068    0.864329    0.078883
      6          1           0       -2.290990   -2.350072    0.819063
      7          1           0       -3.104682    1.137553    0.774427
      8          1           0       -2.041948    1.693329   -1.784100
      9          1           0       -2.749144   -1.014150    1.901978
     10          1           0       -3.866694   -1.565636    0.582867
     11          1           0       -2.179118    2.885344   -0.467520
     12          1           0       -0.698528    1.852423   -0.641836
     13          6           0        2.039439   -1.951662   -0.348112
     14          6           0        1.664662    1.649228    0.853383
     15          6           0        2.262411    0.401011    0.209249
     16          8           0        3.363978    0.452959   -0.339484
     17          7           0        1.547082   -0.717329    0.263074
     18          1           0        0.651580   -0.723916    0.739664
     19          1           0        3.045300   -2.137959    0.031258
     20          1           0        2.140316    2.499558    0.370866
     21          1           0        1.421102   -2.815476   -0.062664
     22          1           0        2.108365   -1.869795   -1.442891
     23          1           0        0.580290    1.726861    0.685735
     24          1           0        1.897047    1.681570    1.928067
 ---------------------------------------------------------------------

 SCF Done:  E(RHF) =  -494.234749839     A.U. after    2 cycles

 The electronic state is 1-A.
 Alpha  occ. eigenvalues --  -20.53974 -20.50938 -15.66642 -15.63665 -11.37041
 Alpha  occ. eigenvalues --  -11.34336 -11.28614 -11.26127 -11.25844 -11.23948
 Alpha  occ. eigenvalues --   -1.35397  -1.32162  -1.21411  -1.18186  -1.02373
 Alpha  occ. eigenvalues --   -0.99768  -0.94125  -0.91453  -0.80446  -0.77582
 Alpha  occ. eigenvalues --   -0.70541  -0.68063  -0.66927  -0.65768  -0.63942
 Alpha  occ. eigenvalues --   -0.62419  -0.60225  -0.59630  -0.57667  -0.56950
 Alpha  occ. eigenvalues --   -0.56572  -0.56225  -0.54271  -0.53411  -0.52504
 Alpha  occ. eigenvalues --   -0.49702  -0.44760  -0.41982  -0.40976  -0.37802
 Alpha virt. eigenvalues --    0.01827   0.03164   0.03736   0.04354   0.05458
 Alpha virt. eigenvalues --    0.05906   0.06342   0.06604   0.07353   0.07960
 Alpha virt. eigenvalues --    0.08522   0.08838   0.09496   0.10161   0.11621

 Mulliken charges:
               1
     1  C    0.360855
     2  C    0.963643
     3  C    0.116605
     4  O   -0.518897
     5  N   -0.292376
     6  H   -0.061012
     7  H   -0.087306
     8  H   -0.074943
     9  H   -0.018115
    10  H    0.053368
    11  H   -0.184657
    12  H   -0.248268
    13  C    0.748633
    14  C    0.628806
    15  C    0.154709
    16  O   -0.579120
    17  N   -0.174782
    18  H   -0.027526
    19  H   -0.146117
    20  H   -0.014091
    21  H   -0.197072
    22  H   -0.041934
    23  H   -0.417683
    24  H    0.057281
 Sum of Mulliken charges =   0.00000

 Dipole moment (field-independent basis, Debye):
    X=             -7.1261    Y=              1.0620    Z=              4.1752  Tot=              8.3271

 Test job not archived.
 1\1\GINC-SE159\SP\RHF\Aug-CC-pVDZ\C6H14N2O2\OHZDE\08-Apr-2025\0\\#t hf
  aug-cc-pvdz iop(5/13=1,5/36=2,99/5=2) pseudo=read geom=check guess=(r
 ead,tcheck) scf=(maxcycle=1)\\title\\0,1\C,0,0.56967306,1.77858999,-2.
 71840338\C,0,-2.38532694,-0.16641001,-1.32040338\C,0,-0.48732694,1.303
 58999,-1.72940338\O,0,-0.50532694,1.71658999,-0.57440338\N,0,-1.362326
 94,0.40658999,-2.18240338\H,0,1.37067306,2.25758999,-2.15240338\H,0,-1
 .33632694,0.14058999,-3.16140338\H,0,-3.00132694,0.64758999,-0.9354033
 8\H,0,0.98965306,0.91981299,-3.26257138\H,0,0.14695306,2.51997299,-3.4

 Normal termination of Gaussian 16 at Tue Apr  8 22:29:01 2025.
