 Gaussian 16, Revision C.01,

 ----------------------------------------------------------------------
 #t hf aug-cc-pvdz symm=none int=(grid=ultrafine) guess=(read,tcheck) s
 table=(opt,rrhf)
 ----------------------------------------------------------------------
 -----
 title
 -----
 Symbolic Z-matrix:
 Charge =  0 Multiplicity = 1

 SCF Done:  E(RHF) =  -247.040485211     A.U. after   13 cycles
 Normal termination of Gaussian 16 at Tue Apr  8 22:24:55 2025.
 Gaussian 16:  ES64L-G16RevC.01  3-Jul-2019

 ----------------------------------------------------------------------
 #t hf aug-cc-pvdz iop(5/13=1,5/36=2,99/5=2) pseudo=read geom=check gue
 ss=(read,tcheck) scf=(maxcycle=1)
 ----------------------------------------------------------------------
 -----
 title
 -----
 Structure from the checkpoint file:  "BBI-005ASP-008SER-2_mol2.chk"
 Charge =  0 Multiplicity = 1

                         Standard orientation:
 ---------------------------------------------------------------------
 Center     Atomic      Atomic             Coordinates (Angstroms)
 Number     Number       Type             X           Y           Z
 ---------------------------------------------------------------------
      1          6           0       -1.827251   -0.532191   -0.013610
      2          6           0        1.953173   -0.110497   -0.018652
      3          6           0       -0.467467    0.154334    0.012196
      4          8           0       -0.375221    1.377606    0.008459
      5          7           0        0.599497   -0.643807    0.013650
      6          1           0       -2.573401    0.207516   -0.309399
      7          1           0        0.466101   -1.648119    0.072270
      8          1           0        2.088037    0.529400    0.854629
      9          1           0       -1.825307   -1.344521   -0.755309
     10          1           0       -2.091662   -0.907954    0.985833
     11          1           0        2.687313   -0.928505    0.024882
     12          1           0        2.103473    0.508103   -0.915728
 ---------------------------------------------------------------------

 SCF Done:  E(RHF) =  -247.120265183     A.U. after    2 cycles

 The electronic state is 1-A.
 Alpha  occ. eigenvalues --  -20.52358 -15.65177 -11.35502 -11.27564 -11.24672
 Alpha  occ. eigenvalues --   -1.33728  -1.19932  -1.00911  -0.92762  -0.78995
 Alpha  occ. eigenvalues --   -0.69091  -0.65380  -0.63946  -0.58589  -0.58140
 Alpha  occ. eigenvalues --   -0.55698  -0.54988  -0.51051  -0.43165  -0.39443
 Alpha virt. eigenvalues --    0.02688   0.04019   0.04973   0.05046   0.06889
 Alpha virt. eigenvalues --    0.07380   0.07963   0.10641   0.12215   0.13435
 Alpha virt. eigenvalues --    0.14048   0.14653   0.15261   0.16009   0.16815

 Mulliken charges:
               1
     1  C    0.279495
     2  C    0.705031
     3  C    0.279603
     4  O   -0.556016
     5  N   -0.327816
     6  H   -0.033813
     7  H   -0.067164
     8  H   -0.084418
     9  H   -0.013303
    10  H    0.055595
    11  H   -0.179539
    12  H   -0.057654
 Sum of Mulliken charges =  -0.00000

 Dipole moment (field-independent basis, Debye):
    X=              0.6869    Y=             -4.4642    Z=              0.0616  Tot=              4.5172

 Test job not archived.
 1\1\GINC-SE015\SP\RHF\Aug-CC-pVDZ\C3H7N1O1\OHZDE\08-Apr-2025\0\\#t hf
 aug-cc-pvdz iop(5/13=1,5/36=2,99/5=2) pseudo=read geom=check guess=(re
 ad,tcheck) scf=(maxcycle=1)\\title\\0,1\C,0,1.41329664,0.77749316,-1.0
 1602898\C,0,-1.54170336,-1.16750684,0.38197102\C,0,0.35629664,0.302493
 16,-0.02702898\O,0,0.33829664,0.71549316,1.12797102\N,0,-0.51870336,-0
 .59450684,-0.48002898\H,0,2.21429664,1.25649316,-0.45002898\H,0,-0.492
 70336,-0.86050684,-1.45902898\H,0,-2.15770336,-0.35350684,0.76697102\H
 ,0,1.83327664,-0.08128384,-1.56019698\H,0,0.99057664,1.51887616,-1.710

 Normal termination of Gaussian 16 at Tue Apr  8 22:25:00 2025.
