 Gaussian 16, Revision C.01,

 ----------------------------------------------------------------------
 #t hf aug-cc-pvdz symm=none int=(grid=ultrafine) guess=(read,tcheck) s
 table=(opt,rrhf)
 ----------------------------------------------------------------------
 -----
 title
 -----
 Symbolic Z-matrix:
 Charge =  0 Multiplicity = 1

 SCF Done:  E(RHF) =  -307.048229462     A.U. after   12 cycles

 1\1\GINC-SE252\Stability\RHF\Aug-CC-pVDZ\C4H10O2\OHZDE\08-Apr-2025\0\\
 #t hf aug-cc-pvdz symm=none int=(grid=ultrafine) guess=(read,tcheck) s
 table=(opt,rrhf)\\title\\0,1\C,0,1.392977,0.251812,-0.685299\H,0,0.798
 345,1.121323,-0.97958\O,0,2.215852,0.557522,0.44143\C,0,0.492488,-0.95
 6477,-0.460561\H,0,-0.069485,-1.137183,-1.37811\H,0,1.120648,-1.830367
 ,-0.279152\C,0,-0.4873,-0.80134,0.706668\H,0,0.059272,-0.735098,1.6512
 59\H,0,-1.109908,-1.695102,0.770127\H,0,1.642052,0.873627,1.143317\H,0
 ,2.085737,0.043566,-1.498809\C,0,-1.396798,0.41135,0.592379\H,0,-2.104

 Normal termination of Gaussian 16 at Tue Apr  8 22:26:40 2025.
 Gaussian 16:  ES64L-G16RevC.01  3-Jul-2019

 ----------------------------------------------------------------------
 #t hf aug-cc-pvdz iop(5/13=1,5/36=2,99/5=2) pseudo=read geom=check gue
 ss=(read,tcheck) scf=(maxcycle=1)
 ----------------------------------------------------------------------
 -----
 title
 -----
 Structure from the checkpoint file:  "BCONF_B36_mol1.chk"
 Charge =  0 Multiplicity = 1

                         Standard orientation:
 ---------------------------------------------------------------------
 Center     Atomic      Atomic             Coordinates (Angstroms)
 Number     Number       Type             X           Y           Z
 ---------------------------------------------------------------------
      1          6           0       -1.392977   -0.251812   -0.685299
      2          1           0       -0.798345   -1.121323   -0.979580
      3          8           0       -2.215852   -0.557522    0.441430
      4          6           0       -0.492488    0.956477   -0.460561
      5          1           0        0.069485    1.137183   -1.378110
      6          1           0       -1.120648    1.830367   -0.279152
      7          6           0        0.487300    0.801340    0.706668
      8          1           0       -0.059272    0.735098    1.651259
      9          1           0        1.109908    1.695102    0.770127
     10          1           0       -1.642052   -0.873627    1.143317
     11          1           0       -2.085737   -0.043566   -1.498809
     12          6           0        1.396798   -0.411350    0.592379
     13          1           0        2.104441   -0.416674    1.426437
     14          1           0        0.813796   -1.337540    0.647826
     15          8           0        2.082929   -0.329199   -0.654948
     16          1           0        2.680014   -1.079182   -0.714288
 ---------------------------------------------------------------------

 SCF Done:  E(RHF) =  -307.146386216     A.U. after    2 cycles

 The electronic state is 1-A.
 Alpha  occ. eigenvalues --  -20.57857 -20.56696 -11.29294 -11.27779 -11.23380
 Alpha  occ. eigenvalues --  -11.22411  -1.32797  -1.31510  -1.06092  -0.96759
 Alpha  occ. eigenvalues --   -0.87463  -0.78511  -0.72493  -0.70431  -0.65634
 Alpha  occ. eigenvalues --   -0.62885  -0.60432  -0.59092  -0.55906  -0.53967
 Alpha  occ. eigenvalues --   -0.50177  -0.49488  -0.47587  -0.45784  -0.44086
 Alpha virt. eigenvalues --    0.03018   0.04358   0.04623   0.04897   0.06341
 Alpha virt. eigenvalues --    0.06787   0.06984   0.07359   0.08163   0.09502
 Alpha virt. eigenvalues --    0.13021   0.13956   0.14484   0.14699   0.15124

 Mulliken charges:
               1
     1  C    0.766259
     2  H   -0.108249
     3  O   -0.558281
     4  C    0.092088
     5  H    0.004254
     6  H   -0.067063
     7  C    0.025132
     8  H   -0.053501
     9  H   -0.083696
    10  H    0.144329
    11  H   -0.185607
    12  C    0.834633
    13  H   -0.157261
    14  H   -0.215679
    15  O   -0.573476
    16  H    0.136119
 Sum of Mulliken charges =  -0.00000

 Dipole moment (field-independent basis, Debye):
    X=              2.2905    Y=             -1.1349    Z=              0.9647  Tot=              2.7323

 Test job not archived.
 1\1\GINC-SE252\SP\RHF\Aug-CC-pVDZ\C4H10O2\OHZDE\08-Apr-2025\0\\#t hf a
 ug-cc-pvdz iop(5/13=1,5/36=2,99/5=2) pseudo=read geom=check guess=(rea
 d,tcheck) scf=(maxcycle=1)\\title\\0,1\C,0,1.392977,0.251812,-0.685299
 \H,0,0.798345,1.121323,-0.97958\O,0,2.215852,0.557522,0.44143\C,0,0.49
 2488,-0.956477,-0.460561\H,0,-0.069485,-1.137183,-1.37811\H,0,1.120648
 ,-1.830367,-0.279152\C,0,-0.4873,-0.80134,0.706668\H,0,0.059272,-0.735
 098,1.651259\H,0,-1.109908,-1.695102,0.770127\H,0,1.642052,0.873627,1.
 143317\H,0,2.085737,0.043566,-1.498809\C,0,-1.396798,0.41135,0.592379\

 Normal termination of Gaussian 16 at Tue Apr  8 22:26:44 2025.
