 Gaussian 16, Revision C.01,

 ----------------------------------------------------------------------
 #t hf aug-cc-pvdz symm=none int=(grid=ultrafine) guess=(read,tcheck) s
 table=(opt,rrhf)
 ----------------------------------------------------------------------
 -----
 title
 -----
 Symbolic Z-matrix:
 Charge =  0 Multiplicity = 1

 SCF Done:  E(RHF) =  -307.050408118     A.U. after   12 cycles

 1\1\GINC-SE186\Stability\RHF\Aug-CC-pVDZ\C4H10O2\OHZDE\08-Apr-2025\0\\
 #t hf aug-cc-pvdz symm=none int=(grid=ultrafine) guess=(read,tcheck) s
 table=(opt,rrhf)\\title\\0,1\C,0,2.041092,0.351425,-0.324587\H,0,2.813
 519,1.08153,-0.065718\O,0,2.385216,-0.941345,0.170137\C,0,0.680041,0.8
 28725,0.16804\H,0,0.700547,0.891317,1.2614\H,0,0.514623,1.846117,-0.19
 8619\C,0,-0.462451,-0.079619,-0.28027\H,0,-0.246411,-1.10501,0.028744\
 H,0,-0.53006,-0.081175,-1.370459\H,0,2.503171,-0.861875,1.120703\H,0,2
 .030361,0.251489,-1.409683\C,0,-1.80363,0.353671,0.293404\H,0,-1.75716

 Normal termination of Gaussian 16 at Tue Apr  8 22:26:41 2025.
 Gaussian 16:  ES64L-G16RevC.01  3-Jul-2019

 ----------------------------------------------------------------------
 #t hf aug-cc-pvdz iop(5/13=1,5/36=2,99/5=2) pseudo=read geom=check gue
 ss=(read,tcheck) scf=(maxcycle=1)
 ----------------------------------------------------------------------
 -----
 title
 -----
 Structure from the checkpoint file:  "BCONF_B18_mol1.chk"
 Charge =  0 Multiplicity = 1

                         Standard orientation:
 ---------------------------------------------------------------------
 Center     Atomic      Atomic             Coordinates (Angstroms)
 Number     Number       Type             X           Y           Z
 ---------------------------------------------------------------------
      1          6           0        2.041092    0.351425   -0.324587
      2          1           0        2.813519    1.081530   -0.065718
      3          8           0        2.385216   -0.941345    0.170137
      4          6           0        0.680041    0.828725    0.168040
      5          1           0        0.700547    0.891317    1.261400
      6          1           0        0.514623    1.846117   -0.198619
      7          6           0       -0.462451   -0.079619   -0.280270
      8          1           0       -0.246411   -1.105010    0.028744
      9          1           0       -0.530060   -0.081175   -1.370459
     10          1           0        2.503171   -0.861875    1.120703
     11          1           0        2.030361    0.251489   -1.409683
     12          6           0       -1.803630    0.353671    0.293404
     13          1           0       -1.757166    0.355919    1.388316
     14          1           0       -2.039716    1.368996   -0.025013
     15          8           0       -2.887612   -0.448333   -0.165291
     16          1           0       -2.700003   -1.355099    0.092046
 ---------------------------------------------------------------------

 SCF Done:  E(RHF) =  -307.148869039     A.U. after    2 cycles

 The electronic state is 1-A.
 Alpha  occ. eigenvalues --  -20.57508 -20.56911 -11.28936 -11.28355 -11.23936
 Alpha  occ. eigenvalues --  -11.23000  -1.32429  -1.31814  -1.06647  -0.96783
 Alpha  occ. eigenvalues --   -0.86632  -0.81535  -0.70201  -0.69688  -0.65962
 Alpha  occ. eigenvalues --   -0.63163  -0.61262  -0.59555  -0.56852  -0.53400
 Alpha  occ. eigenvalues --   -0.50880  -0.48433  -0.48032  -0.47007  -0.44024
 Alpha virt. eigenvalues --    0.03139   0.04093   0.04543   0.04834   0.06165
 Alpha virt. eigenvalues --    0.06583   0.07180   0.07439   0.09041   0.09406
 Alpha virt. eigenvalues --    0.11370   0.12760   0.13944   0.15031   0.15380

 Mulliken charges:
               1
     1  C    0.913725
     2  H   -0.103810
     3  O   -0.593907
     4  C    0.008603
     5  H   -0.158179
     6  H   -0.106179
     7  C    0.077918
     8  H   -0.131437
     9  H   -0.105729
    10  H    0.162998
    11  H   -0.185314
    12  C    0.980034
    13  H   -0.137784
    14  H   -0.203336
    15  O   -0.560113
    16  H    0.142511
 Sum of Mulliken charges =  -0.00000

 Dipole moment (field-independent basis, Debye):
    X=              1.4612    Y=              1.0591    Z=              1.7767  Tot=              2.5325

 Test job not archived.
 1\1\GINC-SE186\SP\RHF\Aug-CC-pVDZ\C4H10O2\OHZDE\08-Apr-2025\0\\#t hf a
 ug-cc-pvdz iop(5/13=1,5/36=2,99/5=2) pseudo=read geom=check guess=(rea
 d,tcheck) scf=(maxcycle=1)\\title\\0,1\C,0,2.041092,0.351425,-0.324587
 \H,0,2.813519,1.08153,-0.065718\O,0,2.385216,-0.941345,0.170137\C,0,0.
 680041,0.828725,0.16804\H,0,0.700547,0.891317,1.2614\H,0,0.514623,1.84
 6117,-0.198619\C,0,-0.462451,-0.079619,-0.28027\H,0,-0.246411,-1.10501
 ,0.028744\H,0,-0.53006,-0.081175,-1.370459\H,0,2.503171,-0.861875,1.12
 0703\H,0,2.030361,0.251489,-1.409683\C,0,-1.80363,0.353671,0.293404\H,

 Normal termination of Gaussian 16 at Tue Apr  8 22:26:46 2025.
