 Gaussian 16, Revision C.01,

 ----------------------------------------------------------------------
 #t hf aug-cc-pvdz symm=none int=(grid=ultrafine) guess=(read,tcheck) s
 table=(opt,rrhf)
 ----------------------------------------------------------------------
 -----
 title
 -----
 Symbolic Z-matrix:
 Charge =  0 Multiplicity = 1

 SCF Done:  E(RHF) =  -307.050566395     A.U. after   12 cycles

 1\1\GINC-SE043\Stability\RHF\Aug-CC-pVDZ\C4H10O2\OHZDE\08-Apr-2025\0\\
 #t hf aug-cc-pvdz symm=none int=(grid=ultrafine) guess=(read,tcheck) s
 table=(opt,rrhf)\\title\\0,1\C,0,2.046373,0.354631,0.32139\H,0,2.04438
 2,0.24001,1.410792\O,0,2.462541,-0.852415,-0.311477\C,0,0.679427,0.834
 504,-0.151869\H,0,0.48614,1.813229,0.29777\H,0,0.71619,0.975438,-1.234
 491\C,0,-0.449077,-0.128363,0.210783\H,0,-0.469658,-0.295035,1.290804\
 H,0,-0.292182,-1.097521,-0.267034\H,0,1.897684,-1.559049,0.010687\H,0,
 2.807259,1.091009,0.068123\C,0,-1.807219,0.388704,-0.223631\H,0,-2.011

 Normal termination of Gaussian 16 at Tue Apr  8 22:26:41 2025.
 Gaussian 16:  ES64L-G16RevC.01  3-Jul-2019

 ----------------------------------------------------------------------
 #t hf aug-cc-pvdz iop(5/13=1,5/36=2,99/5=2) pseudo=read geom=check gue
 ss=(read,tcheck) scf=(maxcycle=1)
 ----------------------------------------------------------------------
 -----
 title
 -----
 Structure from the checkpoint file:  "BCONF_B21_mol1.chk"
 Charge =  0 Multiplicity = 1

                         Standard orientation:
 ---------------------------------------------------------------------
 Center     Atomic      Atomic             Coordinates (Angstroms)
 Number     Number       Type             X           Y           Z
 ---------------------------------------------------------------------
      1          6           0        2.046373    0.354631    0.321390
      2          1           0        2.044382    0.240010    1.410792
      3          8           0        2.462541   -0.852415   -0.311477
      4          6           0        0.679427    0.834504   -0.151869
      5          1           0        0.486140    1.813229    0.297770
      6          1           0        0.716190    0.975438   -1.234491
      7          6           0       -0.449077   -0.128363    0.210783
      8          1           0       -0.469658   -0.295035    1.290804
      9          1           0       -0.292182   -1.097521   -0.267034
     10          1           0        1.897684   -1.559049    0.010687
     11          1           0        2.807259    1.091009    0.068123
     12          6           0       -1.807219    0.388704   -0.223631
     13          1           0       -2.011490    1.347766    0.263948
     14          1           0       -1.809647    0.553967   -1.306023
     15          8           0       -2.780715   -0.585286    0.144620
     16          1           0       -3.640316   -0.265062   -0.139761
 ---------------------------------------------------------------------

 SCF Done:  E(RHF) =  -307.149118538     A.U. after    2 cycles

 The electronic state is 1-A.
 Alpha  occ. eigenvalues --  -20.57450 -20.56921 -11.28901 -11.28463 -11.23394
 Alpha  occ. eigenvalues --  -11.23279  -1.32334  -1.31881  -1.06684  -0.97064
 Alpha  occ. eigenvalues --   -0.86327  -0.80355  -0.70857  -0.70497  -0.67057
 Alpha  occ. eigenvalues --   -0.63368  -0.60472  -0.58926  -0.56619  -0.53111
 Alpha  occ. eigenvalues --   -0.49918  -0.49666  -0.47715  -0.45989  -0.44957
 Alpha virt. eigenvalues --    0.03264   0.04165   0.04606   0.04941   0.06120
 Alpha virt. eigenvalues --    0.06616   0.07353   0.07438   0.08954   0.09622
 Alpha virt. eigenvalues --    0.11770   0.12763   0.14595   0.14964   0.15168

 Mulliken charges:
               1
     1  C    0.869103
     2  H   -0.139127
     3  O   -0.546905
     4  C    0.153795
     5  H   -0.064050
     6  H   -0.155516
     7  C   -0.080802
     8  H   -0.102289
     9  H   -0.129621
    10  H    0.155416
    11  H   -0.159551
    12  C    0.951469
    13  H   -0.171693
    14  H   -0.155164
    15  O   -0.573734
    16  H    0.148669
 Sum of Mulliken charges =  -0.00000

 Dipole moment (field-independent basis, Debye):
    X=             -1.7440    Y=              1.9019    Z=              0.3151  Tot=              2.5997

 Test job not archived.
 1\1\GINC-SE043\SP\RHF\Aug-CC-pVDZ\C4H10O2\OHZDE\08-Apr-2025\0\\#t hf a
 ug-cc-pvdz iop(5/13=1,5/36=2,99/5=2) pseudo=read geom=check guess=(rea
 d,tcheck) scf=(maxcycle=1)\\title\\0,1\C,0,2.046373,0.354631,0.32139\H
 ,0,2.044382,0.24001,1.410792\O,0,2.462541,-0.852415,-0.311477\C,0,0.67
 9427,0.834504,-0.151869\H,0,0.48614,1.813229,0.29777\H,0,0.71619,0.975
 438,-1.234491\C,0,-0.449077,-0.128363,0.210783\H,0,-0.469658,-0.295035
 ,1.290804\H,0,-0.292182,-1.097521,-0.267034\H,0,1.897684,-1.559049,0.0
 10687\H,0,2.807259,1.091009,0.068123\C,0,-1.807219,0.388704,-0.223631\

 Normal termination of Gaussian 16 at Tue Apr  8 22:26:47 2025.
