 Gaussian 16, Revision C.01,

 ----------------------------------------------------------------------
 #t hf aug-cc-pvdz symm=none int=(grid=ultrafine) guess=(read,tcheck) s
 table=(opt,rrhf)
 ----------------------------------------------------------------------
 -----
 title
 -----
 Symbolic Z-matrix:
 Charge =  0 Multiplicity = 1

 SCF Done:  E(RHF) =  -307.051556045     A.U. after   12 cycles

 1\1\GINC-SE048\Stability\RHF\Aug-CC-pVDZ\C4H10O2\OHZDE\08-Apr-2025\0\\
 #t hf aug-cc-pvdz symm=none int=(grid=ultrafine) guess=(read,tcheck) s
 table=(opt,rrhf)\\title\\0,1\C,0,1.578385,0.14769,0.343809\H,0,1.39475
 ,0.012968,1.413545\O,0,1.359929,-1.086203,-0.359782\C,0,0.653845,1.215
 099,-0.221322\H,0,1.057827,2.180283,0.093924\H,0,0.729693,1.184864,-1.
 311438\C,0,-0.817334,1.152127,0.208156\H,0,-1.303525,2.065738,-0.14582
 8\H,0,-0.883765,1.159762,1.29926\H,0,1.98412,-1.734446,-0.021385\H,0,2
 .616286,0.458948,0.206544\C,0,-1.627725,-0.034052,-0.311301\H,0,-2.684

 Normal termination of Gaussian 16 at Tue Apr  8 22:26:42 2025.
 Gaussian 16:  ES64L-G16RevC.01  3-Jul-2019

 ----------------------------------------------------------------------
 #t hf aug-cc-pvdz iop(5/13=1,5/36=2,99/5=2) pseudo=read geom=check gue
 ss=(read,tcheck) scf=(maxcycle=1)
 ----------------------------------------------------------------------
 -----
 title
 -----
 Structure from the checkpoint file:  "BCONF_B11_mol2.chk"
 Charge =  0 Multiplicity = 1

                         Standard orientation:
 ---------------------------------------------------------------------
 Center     Atomic      Atomic             Coordinates (Angstroms)
 Number     Number       Type             X           Y           Z
 ---------------------------------------------------------------------
      1          6           0        1.578385    0.147689    0.343809
      2          1           0        1.394750    0.012967    1.413545
      3          8           0        1.359929   -1.086203   -0.359782
      4          6           0        0.653845    1.215099   -0.221322
      5          1           0        1.057828    2.180283    0.093924
      6          1           0        0.729693    1.184864   -1.311438
      7          6           0       -0.817334    1.152127    0.208156
      8          1           0       -1.303524    2.065738   -0.145828
      9          1           0       -0.883765    1.159762    1.299260
     10          1           0        1.984119   -1.734447   -0.021385
     11          1           0        2.616286    0.458947    0.206544
     12          6           0       -1.627725   -0.034051   -0.311301
     13          1           0       -2.684229    0.151016   -0.118566
     14          1           0       -1.501868   -0.118145   -1.397506
     15          8           0       -1.324262   -1.260154    0.333377
     16          1           0       -0.417652   -1.475314    0.076637
 ---------------------------------------------------------------------

 SCF Done:  E(RHF) =  -307.149373520     A.U. after    2 cycles

 The electronic state is 1-A.
 Alpha  occ. eigenvalues --  -20.59206 -20.54088 -11.29720 -11.26926 -11.23661
 Alpha  occ. eigenvalues --  -11.22707  -1.34044  -1.29513  -1.06143  -0.96702
 Alpha  occ. eigenvalues --   -0.86810  -0.79039  -0.73722  -0.68550  -0.66067
 Alpha  occ. eigenvalues --   -0.61948  -0.61209  -0.58643  -0.55413  -0.54440
 Alpha  occ. eigenvalues --   -0.51015  -0.48183  -0.47449  -0.46068  -0.42946
 Alpha virt. eigenvalues --    0.03064   0.04138   0.04740   0.04933   0.06319
 Alpha virt. eigenvalues --    0.06588   0.07251   0.07420   0.08363   0.09669
 Alpha virt. eigenvalues --    0.12947   0.13309   0.14476   0.14835   0.15373

 Mulliken charges:
               1
     1  C    0.844485
     2  H   -0.148464
     3  O   -0.622871
     4  C    0.070764
     5  H   -0.076144
     6  H   -0.102842
     7  C    0.012375
     8  H   -0.049177
     9  H   -0.105755
    10  H    0.154729
    11  H   -0.189592
    12  C    0.853942
    13  H   -0.204897
    14  H   -0.101219
    15  O   -0.545094
    16  H    0.209760
 Sum of Mulliken charges =  -0.00000

 Dipole moment (field-independent basis, Debye):
    X=              2.8670    Y=              1.6021    Z=              0.1832  Tot=              3.2894

 Test job not archived.
 1\1\GINC-SE048\SP\RHF\Aug-CC-pVDZ\C4H10O2\OHZDE\08-Apr-2025\0\\#t hf a
 ug-cc-pvdz iop(5/13=1,5/36=2,99/5=2) pseudo=read geom=check guess=(rea
 d,tcheck) scf=(maxcycle=1)\\title\\0,1\C,0,1.578385,0.14769,0.343809\H
 ,0,1.39475,0.012968,1.413545\O,0,1.359929,-1.086203,-0.359782\C,0,0.65
 3845,1.215099,-0.221322\H,0,1.057827,2.180283,0.093924\H,0,0.729693,1.
 184864,-1.311438\C,0,-0.817334,1.152127,0.208156\H,0,-1.303525,2.06573
 8,-0.145828\H,0,-0.883765,1.159762,1.29926\H,0,1.98412,-1.734446,-0.02
 1385\H,0,2.616286,0.458948,0.206544\C,0,-1.627725,-0.034052,-0.311301\

 Normal termination of Gaussian 16 at Tue Apr  8 22:26:47 2025.
