 Gaussian 16, Revision C.01,

 ----------------------------------------------------------------------
 #t hf aug-cc-pvdz symm=none int=(grid=ultrafine) guess=(read,tcheck) s
 table=(opt,rrhf)
 ----------------------------------------------------------------------
 -----
 title
 -----
 Symbolic Z-matrix:
 Charge =  0 Multiplicity = 1

 SCF Done:  E(RHF) =  -307.047408095     A.U. after   12 cycles

 1\1\GINC-SE340\Stability\RHF\Aug-CC-pVDZ\C4H10O2\OHZDE\08-Apr-2025\0\\
 #t hf aug-cc-pvdz symm=none int=(grid=ultrafine) guess=(read,tcheck) s
 table=(opt,rrhf)\\title\\0,1\C,0,-1.38662,-0.06982,0.488134\H,0,-1.543
 127,0.660287,1.282218\O,0,-2.689541,-0.408677,0.021739\C,0,-0.512729,0
 .531521,-0.606158\H,0,-0.32899,-0.219569,-1.381057\H,0,-1.079255,1.332
 365,-1.083365\C,0,0.822127,1.084556,-0.098897\H,0,0.633223,1.875529,0.
 633135\H,0,1.35714,1.540532,-0.933359\H,0,-2.585023,-1.04799,-0.688206
 \H,0,-0.905181,-0.943444,0.940155\C,0,1.737082,0.046753,0.546114\H,0,2

 Normal termination of Gaussian 16 at Tue Apr  8 22:26:36 2025.
 Gaussian 16:  ES64L-G16RevC.01  3-Jul-2019

 ----------------------------------------------------------------------
 #t hf aug-cc-pvdz iop(5/13=1,5/36=2,99/5=2) pseudo=read geom=check gue
 ss=(read,tcheck) scf=(maxcycle=1)
 ----------------------------------------------------------------------
 -----
 title
 -----
 Structure from the checkpoint file:  "BCONF_B62_mol1.chk"
 Charge =  0 Multiplicity = 1

                         Standard orientation:
 ---------------------------------------------------------------------
 Center     Atomic      Atomic             Coordinates (Angstroms)
 Number     Number       Type             X           Y           Z
 ---------------------------------------------------------------------
      1          6           0       -1.386620   -0.069820    0.488134
      2          1           0       -1.543127    0.660287    1.282218
      3          8           0       -2.689541   -0.408678    0.021739
      4          6           0       -0.512729    0.531521   -0.606158
      5          1           0       -0.328990   -0.219569   -1.381057
      6          1           0       -1.079255    1.332365   -1.083365
      7          6           0        0.822127    1.084556   -0.098897
      8          1           0        0.633223    1.875529    0.633135
      9          1           0        1.357140    1.540532   -0.933359
     10          1           0       -2.585023   -1.047991   -0.688206
     11          1           0       -0.905181   -0.943444    0.940155
     12          6           0        1.737082    0.046753    0.546114
     13          1           0        2.678332    0.517613    0.824711
     14          1           0        1.290469   -0.351560    1.461646
     15          8           0        2.090532   -1.010941   -0.342913
     16          1           0        1.315328   -1.564869   -0.461645
 ---------------------------------------------------------------------

 SCF Done:  E(RHF) =  -307.145698275     A.U. after    2 cycles

 The electronic state is 1-A.
 Alpha  occ. eigenvalues --  -20.57621 -20.57563 -11.29128 -11.28892 -11.23884
 Alpha  occ. eigenvalues --  -11.23818  -1.32578  -1.32405  -1.06865  -0.96877
 Alpha  occ. eigenvalues --   -0.88322  -0.80510  -0.72174  -0.69335  -0.66127
 Alpha  occ. eigenvalues --   -0.63588  -0.61418  -0.59423  -0.57133  -0.54155
 Alpha  occ. eigenvalues --   -0.51557  -0.49460  -0.48697  -0.46128  -0.44444
 Alpha virt. eigenvalues --    0.03204   0.03944   0.04420   0.05124   0.06233
 Alpha virt. eigenvalues --    0.06760   0.06856   0.07419   0.08008   0.09640
 Alpha virt. eigenvalues --    0.12763   0.13876   0.14329   0.14533   0.14923

 Mulliken charges:
               1
     1  C    0.915173
     2  H   -0.192872
     3  O   -0.575072
     4  C    0.034294
     5  H   -0.136800
     6  H   -0.056197
     7  C    0.101218
     8  H   -0.036739
     9  H   -0.085190
    10  H    0.138658
    11  H   -0.202907
    12  C    0.803946
    13  H   -0.179097
    14  H   -0.130896
    15  O   -0.541027
    16  H    0.143508
 Sum of Mulliken charges =   0.00000

 Dipole moment (field-independent basis, Debye):
    X=              0.0700    Y=              0.0397    Z=              0.0851  Tot=              0.1171

 Test job not archived.
 1\1\GINC-SE340\SP\RHF\Aug-CC-pVDZ\C4H10O2\OHZDE\08-Apr-2025\0\\#t hf a
 ug-cc-pvdz iop(5/13=1,5/36=2,99/5=2) pseudo=read geom=check guess=(rea
 d,tcheck) scf=(maxcycle=1)\\title\\0,1\C,0,-1.38662,-0.06982,0.488134\
 H,0,-1.543127,0.660287,1.282218\O,0,-2.689541,-0.408677,0.021739\C,0,-
 0.512729,0.531521,-0.606158\H,0,-0.32899,-0.219569,-1.381057\H,0,-1.07
 9255,1.332365,-1.083365\C,0,0.822127,1.084556,-0.098897\H,0,0.633223,1
 .875529,0.633135\H,0,1.35714,1.540532,-0.933359\H,0,-2.585023,-1.04799
 ,-0.688206\H,0,-0.905181,-0.943444,0.940155\C,0,1.737082,0.046753,0.54

 Normal termination of Gaussian 16 at Tue Apr  8 22:26:41 2025.
