 Gaussian 16, Revision C.01,

 ----------------------------------------------------------------------
 #t hf aug-cc-pvdz symm=none int=(grid=ultrafine) guess=(read,tcheck) s
 table=(opt,rrhf)
 ----------------------------------------------------------------------
 -----
 title
 -----
 Symbolic Z-matrix:
 Charge =  0 Multiplicity = 1

 SCF Done:  E(RHF) =  -518.948116267     A.U. after   13 cycles
 Normal termination of Gaussian 16 at Tue Apr  8 23:50:06 2025.
 Gaussian 16:  ES64L-G16RevC.01  3-Jul-2019

 ----------------------------------------------------------------------
 #t hf aug-cc-pvdz iop(5/13=1,5/36=2,99/5=2) pseudo=read geom=check gue
 ss=(read,tcheck) scf=(maxcycle=1)
 ----------------------------------------------------------------------
 -----
 title
 -----
 Structure from the checkpoint file:  "BDE49_nonexpt_1889_mol1.chk"
 Charge =  0 Multiplicity = 1

                         Standard orientation:
 ---------------------------------------------------------------------
 Center     Atomic      Atomic             Coordinates (Angstroms)
 Number     Number       Type             X           Y           Z
 ---------------------------------------------------------------------
      1          6           0        0.567446    0.722512    0.000001
      2         14           0        2.203788   -0.241363   -0.000001
      3          8           0       -0.468813   -0.233035   -0.000002
      4          1           0        3.297057    0.759003    0.000006
      5          1           0        2.310436   -1.087336   -1.208581
      6          1           0        2.310433   -1.087348    1.208571
      7          8           0       -1.731026    0.533243   -0.000004
      8          6           0       -2.751198   -0.443348    0.000005
      9          1           0       -3.681388    0.129244    0.000002
     10          1           0       -2.703165   -1.070452    0.896722
     11          1           0       -2.703168   -1.070464   -0.896705
     12          1           0        0.508993    1.364898   -0.889146
     13          1           0        0.508992    1.364893    0.889152
 ---------------------------------------------------------------------

 SCF Done:  E(RHF) =  -519.047063048     A.U. after    2 cycles

 The electronic state is 1-A.
 Alpha  occ. eigenvalues --  -69.06655 -20.63722 -20.63387 -11.28922 -11.28121
 Alpha  occ. eigenvalues --   -6.82004  -3.92794  -3.92775  -3.92763  -1.41702
 Alpha  occ. eigenvalues --   -1.22603  -0.92440  -0.90241  -0.71169  -0.69936
 Alpha  occ. eigenvalues --   -0.69055  -0.64910  -0.61779  -0.56934  -0.53090
 Alpha  occ. eigenvalues --   -0.51541  -0.48371  -0.47699  -0.44796  -0.44376
 Alpha virt. eigenvalues --    0.03432   0.04413   0.05160   0.05233   0.05937
 Alpha virt. eigenvalues --    0.06627   0.07304   0.08644   0.08776   0.09352
 Alpha virt. eigenvalues --    0.10420   0.11342   0.14319   0.15468   0.15722

 Mulliken charges:
               1
     1  C    0.488574
     2  Si   0.404832
     3  O   -0.327763
     4  H   -0.019790
     5  H   -0.048549
     6  H   -0.048550
     7  O   -0.417624
     8  C    0.832070
     9  H   -0.213862
    10  H   -0.110935
    11  H   -0.110932
    12  H   -0.213736
    13  H   -0.213734
 Sum of Mulliken charges =  -0.00000

 Dipole moment (field-independent basis, Debye):
    X=             -0.3583    Y=              0.0317    Z=              0.0000  Tot=              0.3597

 Test job not archived.
 1\1\GINC-SE102\SP\RHF\Aug-CC-pVDZ\C2H8O2Si1\OHZDE\08-Apr-2025\0\\#t hf
  aug-cc-pvdz iop(5/13=1,5/36=2,99/5=2) pseudo=read geom=check guess=(r
 ead,tcheck) scf=(maxcycle=1)\\title\\0,1\C,0,0.567446,0.722512,0.00000
 1\Si,0,2.203788,-0.241363,-0.000001\O,0,-0.468813,-0.233035,-0.000002\
 H,0,3.297057,0.759003,0.000006\H,0,2.310436,-1.087336,-1.208581\H,0,2.
 310433,-1.087348,1.208571\O,0,-1.731026,0.533243,-0.000004\C,0,-2.7511
 98,-0.443348,0.000005\H,0,-3.681388,0.129244,0.000002\H,0,-2.703165,-1
 .070452,0.896722\H,0,-2.703168,-1.070464,-0.896705\H,0,0.508993,1.3648

 Normal termination of Gaussian 16 at Tue Apr  8 23:50:10 2025.
