 Gaussian 16, Revision C.01,

 ----------------------------------------------------------------------
 #t hf aug-cc-pvdz symm=none int=(grid=ultrafine) guess=(read,tcheck) s
 table=opt
 ----------------------------------------------------------------------
 -----
 title
 -----
 Symbolic Z-matrix:
 Charge =  0 Multiplicity = 2

 SCF Done:  E(UHF) =  -653.024904762     A.U. after   18 cycles

 1\1\GINC-SE150\Stability\UHF\Aug-CC-pVDZ\C8H16P1\OHZDE\08-Apr-2025\0\\
 #t hf aug-cc-pvdz symm=none int=(grid=ultrafine) guess=(read,tcheck) s
 table=opt\\title\\0,2\P,0,0.293367,-1.64122,0.\C,0,-0.329201,-0.587454
 ,1.41624\C,0,0.107983,0.884352,1.275496\C,0,-0.389712,1.583696,0.\C,0,
 0.107983,-1.184262,2.760778\C,0,0.010641,3.064172,0.\H,0,-0.230054,-2.
 218171,2.870981\H,0,1.198174,-1.180266,2.858274\H,0,-0.303182,-0.60544
 7,3.594426\H,0,-0.375837,3.579893,0.88393\H,0,-0.375837,3.579893,-0.88
 393\C,0,0.107983,0.884352,-1.275496\C,0,-0.329201,-0.587454,-1.41624\C

 Normal termination of Gaussian 16 at Tue Apr  8 23:27:03 2025.
 Gaussian 16:  ES64L-G16RevC.01  3-Jul-2019

 ----------------------------------------------------------------------
 #t hf aug-cc-pvdz iop(5/13=1,5/36=2,99/5=2) pseudo=read geom=check gue
 ss=(read,tcheck) scf=(maxcycle=1)
 ----------------------------------------------------------------------
 -----
 title
 -----
 Structure from the checkpoint file:  "BDE49_nonexpt_1255_mol2.chk"
 Charge =  0 Multiplicity = 2

                         Standard orientation:
 ---------------------------------------------------------------------
 Center     Atomic      Atomic             Coordinates (Angstroms)
 Number     Number       Type             X           Y           Z
 ---------------------------------------------------------------------
      1         15           0        0.293367   -1.641220    0.000000
      2          6           0       -0.329201   -0.587454    1.416240
      3          6           0        0.107983    0.884352    1.275496
      4          6           0       -0.389712    1.583696   -0.000000
      5          6           0        0.107983   -1.184262    2.760778
      6          6           0        0.010641    3.064172   -0.000000
      7          1           0       -0.230054   -2.218171    2.870981
      8          1           0        1.198174   -1.180266    2.858274
      9          1           0       -0.303182   -0.605447    3.594426
     10          1           0       -0.375837    3.579893    0.883930
     11          1           0       -0.375837    3.579893   -0.883930
     12          6           0        0.107983    0.884352   -1.275496
     13          6           0       -0.329201   -0.587454   -1.416240
     14          6           0        0.107983   -1.184262   -2.760778
     15          1           0       -0.230054   -2.218171   -2.870981
     16          1           0        1.198174   -1.180266   -2.858274
     17          1           0       -0.303182   -0.605447   -3.594426
     18          1           0        1.100403    3.175745   -0.000000
     19          1           0       -1.427556   -0.619925    1.362531
     20          1           0        1.204721    0.941145    1.313496
     21          1           0       -0.255877    1.438600    2.150931
     22          1           0       -1.488453    1.532052   -0.000000
     23          1           0        1.204721    0.941145   -1.313496
     24          1           0       -0.255877    1.438600   -2.150931
     25          1           0       -1.427556   -0.619925   -1.362531
 ---------------------------------------------------------------------

 SCF Done:  E(UHF) =  -653.137606387     A.U. after    2 cycles

 The electronic state is 2-A'.
 Alpha  occ. eigenvalues --  -81.24122 -11.24061 -11.24058 -11.23751 -11.23268
 Alpha  occ. eigenvalues --  -11.23258 -11.22729 -11.22729 -11.22466  -7.74589
 Alpha  occ. eigenvalues --   -4.89400  -4.88326  -4.88009  -1.10541  -1.04151
 Alpha  occ. eigenvalues --   -1.02123  -0.92481  -0.92062  -0.85138  -0.78810
 Alpha  occ. eigenvalues --   -0.77625  -0.71178  -0.63009  -0.61865  -0.60286
 Alpha  occ. eigenvalues --   -0.59754  -0.57186  -0.55538  -0.54742  -0.53733
 Alpha  occ. eigenvalues --   -0.53498  -0.51779  -0.50790  -0.47585  -0.46435
 Alpha  occ. eigenvalues --   -0.45833  -0.45801  -0.40440  -0.35628  -0.31605
 Alpha virt. eigenvalues --    0.03311   0.03960   0.04214   0.04439   0.05733
 Alpha virt. eigenvalues --    0.06001   0.06430   0.06447   0.06686   0.07739
 Alpha virt. eigenvalues --    0.08601   0.08688   0.09089   0.09269   0.09634

  Beta  occ. eigenvalues --  -81.23434 -11.24200 -11.24197 -11.23762 -11.23190
  Beta  occ. eigenvalues --  -11.23180 -11.22720 -11.22720 -11.22463  -7.73764
  Beta  occ. eigenvalues --   -4.87829  -4.87662  -4.86257  -1.10326  -1.04088
  Beta  occ. eigenvalues --   -1.01901  -0.92416  -0.91954  -0.83949  -0.78793
  Beta  occ. eigenvalues --   -0.77220  -0.68484  -0.62737  -0.61153  -0.59661
  Beta  occ. eigenvalues --   -0.59319  -0.56680  -0.55523  -0.53797  -0.53622
  Beta  occ. eigenvalues --   -0.53500  -0.51742  -0.50266  -0.47273  -0.46239
  Beta  occ. eigenvalues --   -0.45677  -0.45411  -0.40145  -0.33693
  Beta virt. eigenvalues --    0.03250   0.03964   0.04078   0.04456   0.05495
  Beta virt. eigenvalues --    0.05738   0.06038   0.06453   0.06687   0.07747
  Beta virt. eigenvalues --    0.07770   0.08668   0.08711   0.09128   0.09288

 Mulliken charges and spin densities:
               1          2
     1  P    0.349558   1.335215
     2  C   -0.281474  -0.207358
     3  C    0.453954   0.008595
     4  C   -1.045688   0.015130
     5  C    0.651160   0.036830
     6  C    0.931826  -0.007571
     7  H   -0.086142   0.001072
     8  H   -0.064925  -0.002989
     9  H   -0.049544  -0.000966
    10  H   -0.047566  -0.000122
    11  H   -0.047566  -0.000122
    12  C    0.453954   0.008595
    13  C   -0.281474  -0.207358
    14  C    0.651160   0.036830
    15  H   -0.086142   0.001072
    16  H   -0.064925  -0.002989
    17  H   -0.049544  -0.000966
    18  H   -0.025602  -0.001260
    19  H   -0.233984  -0.002226
    20  H   -0.123670  -0.006244
    21  H   -0.190446   0.005028
    22  H   -0.264819  -0.004753
    23  H   -0.123670  -0.006244
    24  H   -0.190446   0.005028
    25  H   -0.233984  -0.002226
 Sum of Mulliken charges =   0.00000   1.00000

 Dipole moment (field-independent basis, Debye):
    X=             -0.9072    Y=              1.4031    Z=             -0.0000  Tot=              1.6708
                          Isotropic Fermi Contact Couplings
        Atom                 a.u.       MegaHertz       Gauss      10(-4) cm-1
     1  P(31)              0.22317     404.18323     144.22263     134.82101
     2  C(13)             -0.02638     -29.65626     -10.58209      -9.89226
     3  C(13)              0.01790      20.12550       7.18128       6.71314
     4  C(13)             -0.00191      -2.15020      -0.76724      -0.71723
     5  C(13)              0.00106       1.19540       0.42655       0.39874
     6  C(13)              0.00114       1.28130       0.45720       0.42740
     7  H(1)              -0.00035      -1.57278      -0.56121      -0.52462
     8  H(1)              -0.00036      -1.61810      -0.57738      -0.53974

 Normal termination of Gaussian 16 at Tue Apr  8 23:27:16 2025.
