 Gaussian 16, Revision C.01,

 ----------------------------------------------------------------------
 #t hf aug-cc-pvdz symm=none int=(grid=ultrafine) guess=(read,tcheck) s
 table=(opt,rrhf)
 ----------------------------------------------------------------------
 -----
 title
 -----
 Symbolic Z-matrix:
 Charge =  0 Multiplicity = 1

 SCF Done:  E(RHF) =  -1193.24325463     A.U. after   12 cycles
 Normal termination of Gaussian 16 at Wed Apr  9 00:18:36 2025.
 Gaussian 16:  ES64L-G16RevC.01  3-Jul-2019

 ----------------------------------------------------------------------
 #t hf aug-cc-pvdz iop(5/13=1,5/36=2,99/5=2) pseudo=read geom=check gue
 ss=(read,tcheck) scf=(maxcycle=1)
 ----------------------------------------------------------------------
 -----
 title
 -----
 Structure from the checkpoint file:  "BDE49_nonexpt_2613_mol1.chk"
 Charge =  0 Multiplicity = 1

                         Standard orientation:
 ---------------------------------------------------------------------
 Center     Atomic      Atomic             Coordinates (Angstroms)
 Number     Number       Type             X           Y           Z
 ---------------------------------------------------------------------
      1         17           0        2.017998   -0.348691    0.000000
      2          9           0       -2.026097    0.697873   -0.000001
      3          9           0       -1.003040   -0.894778   -1.078692
      4          9           0       -1.003041   -0.894777    1.078693
      5          6           0       -0.952295   -0.110961    0.000000
      6         16           0        0.481089    1.026166    0.000000
 ---------------------------------------------------------------------

 SCF Done:  E(RHF) =  -1193.40833885     A.U. after    2 cycles

 The electronic state is 1-A.
 Alpha  occ. eigenvalues -- -103.71118 -93.63945 -26.19897 -26.19332 -26.19321
 Alpha  occ. eigenvalues --  -11.57804 -10.74265  -8.93386  -8.40002  -8.39632
 Alpha  occ. eigenvalues --   -8.39594  -6.27434  -6.27196  -6.26738  -1.79300
 Alpha  occ. eigenvalues --   -1.72384  -1.72010  -1.20512  -1.08154  -0.97425
 Alpha  occ. eigenvalues --   -0.91166  -0.91022  -0.83555  -0.80163  -0.79816
 Alpha  occ. eigenvalues --   -0.75892  -0.75722  -0.74465  -0.61162  -0.56062
 Alpha  occ. eigenvalues --   -0.54881  -0.49366  -0.41450
 Alpha virt. eigenvalues --    0.02372   0.06665   0.08424   0.10009   0.10203
 Alpha virt. eigenvalues --    0.10561   0.12532   0.12866   0.14074   0.15606
 Alpha virt. eigenvalues --    0.15815   0.19539   0.23733   0.25150   0.25484

 Mulliken charges:
               1
     1  Cl  -0.254114
     2  F   -0.262667
     3  F   -0.245733
     4  F   -0.245733
     5  C    0.607997
     6  S    0.400251
 Sum of Mulliken charges =  -0.00000

 Dipole moment (field-independent basis, Debye):
    X=              0.6207    Y=              1.0374    Z=             -0.0000  Tot=              1.2089

 Test job not archived.
 1\1\GINC-SE070\SP\RHF\Aug-CC-pVDZ\C1Cl1F3S1\OHZDE\09-Apr-2025\0\\#t hf
  aug-cc-pvdz iop(5/13=1,5/36=2,99/5=2) pseudo=read geom=check guess=(r
 ead,tcheck) scf=(maxcycle=1)\\title\\0,1\Cl,0,2.017998,-0.348691,0.\F,
 0,-2.026097,0.697873,-0.000001\F,0,-1.00304,-0.894778,-1.078692\F,0,-1
 .003041,-0.894777,1.078693\C,0,-0.952295,-0.110961,0.\S,0,0.481089,1.0
 26166,0.\\Version=ES64L-G16RevC.01\State=1-A\HF=-1193.4083389\RMSD=5.5
 63e-03\Dipole=0.2442005,0.4081473,-0.0000003\Quadrupole=0.0126204,1.18
 28703,-1.1954907,-0.2209969,0.0000006,0.0000009\PG=C01 [X(C1Cl1F3S1)]\

 Normal termination of Gaussian 16 at Wed Apr  9 00:18:38 2025.
