 Gaussian 16, Revision C.01,

 ----------------------------------------------------------------------
 #t hf aug-cc-pvdz symm=none int=(grid=ultrafine) guess=(read,tcheck) s
 table=(opt,rrhf)
 ----------------------------------------------------------------------
 -----
 title
 -----
 Symbolic Z-matrix:
 Charge =  0 Multiplicity = 1

 SCF Done:  E(RHF) =  -476.205255202     A.U. after   16 cycles
 Normal termination of Gaussian 16 at Tue Apr  8 23:19:57 2025.
 Gaussian 16:  ES64L-G16RevC.01  3-Jul-2019

 ----------------------------------------------------------------------
 #t hf aug-cc-pvdz iop(5/13=1,5/36=2,99/5=2) pseudo=read geom=check gue
 ss=(read,tcheck) scf=(maxcycle=1)
 ----------------------------------------------------------------------
 -----
 title
 -----
 Structure from the checkpoint file:  "BDE49_nonexpt_1167_mol1.chk"
 Charge =  0 Multiplicity = 1

                         Standard orientation:
 ---------------------------------------------------------------------
 Center     Atomic      Atomic             Coordinates (Angstroms)
 Number     Number       Type             X           Y           Z
 ---------------------------------------------------------------------
      1          9           0        2.394567    0.261294    0.720982
      2          8           0        1.842077   -0.211040   -0.539551
      3          8           0        0.668368   -0.850018   -0.215599
      4          6           0       -0.396168    0.075362   -0.160082
      5          8           0       -0.311543    1.243033   -0.349754
      6          8           0       -1.449334   -0.664428    0.136854
      7          6           0       -2.695984    0.063750    0.237254
      8          1           0       -2.926953    0.542626   -0.714230
      9          1           0       -2.625918    0.816758    1.022008
     10          1           0       -3.441858   -0.686088    0.484757
 ---------------------------------------------------------------------

 SCF Done:  E(RHF) =  -476.365549846     A.U. after    2 cycles

 The electronic state is 1-A.
 Alpha  occ. eigenvalues --  -26.18704 -20.79317 -20.72773 -20.66253 -20.60449
 Alpha  occ. eigenvalues --  -11.48626 -11.33072  -1.69334  -1.53043  -1.45424
 Alpha  occ. eigenvalues --   -1.38433  -1.22798  -1.01229  -0.87574  -0.82142
 Alpha  occ. eigenvalues --   -0.80182  -0.79664  -0.75888  -0.73572  -0.72300
 Alpha  occ. eigenvalues --   -0.68003  -0.65701  -0.63098  -0.59154  -0.57994
 Alpha  occ. eigenvalues --   -0.56432  -0.53185  -0.52330
 Alpha virt. eigenvalues --    0.02920   0.05155   0.05395   0.07330   0.07489
 Alpha virt. eigenvalues --    0.11099   0.11338   0.11856   0.13358   0.14679
 Alpha virt. eigenvalues --    0.15109   0.16935   0.17703   0.19361   0.20445

 Mulliken charges:
               1
     1  F   -0.280385
     2  O    0.092759
     3  O   -0.294487
     4  C    0.780255
     5  O   -0.284309
     6  O   -0.455590
     7  C    0.742396
     8  H   -0.042788
     9  H   -0.039228
    10  H   -0.218622
 Sum of Mulliken charges =  -0.00000

 Dipole moment (field-independent basis, Debye):
    X=             -3.8929    Y=             -0.8480    Z=             -0.1367  Tot=              3.9865

 Test job not archived.
 1\1\GINC-SE455\SP\RHF\Aug-CC-pVDZ\C2H3F1O4\OHZDE\08-Apr-2025\0\\#t hf
 aug-cc-pvdz iop(5/13=1,5/36=2,99/5=2) pseudo=read geom=check guess=(re
 ad,tcheck) scf=(maxcycle=1)\\title\\0,1\F,0,2.394567,0.261294,0.720982
 \O,0,1.842077,-0.21104,-0.539551\O,0,0.668368,-0.850018,-0.215599\C,0,
 -0.396168,0.075362,-0.160082\O,0,-0.311543,1.243033,-0.349754\O,0,-1.4
 49334,-0.664428,0.136854\C,0,-2.695984,0.06375,0.237254\H,0,-2.926953,
 0.542626,-0.71423\H,0,-2.625918,0.816758,1.022008\H,0,-3.441858,-0.686
 088,0.484757\\Version=ES64L-G16RevC.01\State=1-A\HF=-476.3655498\RMSD=

 Normal termination of Gaussian 16 at Tue Apr  8 23:20:00 2025.
