 Gaussian 16, Revision C.01,

 ----------------------------------------------------------------------
 #t hf aug-cc-pvdz symm=none int=(grid=ultrafine) guess=(read,tcheck) s
 table=(opt,rrhf)
 ----------------------------------------------------------------------
 -----
 title
 -----
 Symbolic Z-matrix:
 Charge =  0 Multiplicity = 1

 SCF Done:  E(RHF) =  -914.688326065     A.U. after   12 cycles
 Normal termination of Gaussian 16 at Wed Apr  9 00:10:52 2025.
 Gaussian 16:  ES64L-G16RevC.01  3-Jul-2019

 ----------------------------------------------------------------------
 #t hf aug-cc-pvdz iop(5/13=1,5/36=2,99/5=2) pseudo=read geom=check gue
 ss=(read,tcheck) scf=(maxcycle=1)
 ----------------------------------------------------------------------
 -----
 title
 -----
 Structure from the checkpoint file:  "BDE49_nonexpt_2398_mol1.chk"
 Charge =  0 Multiplicity = 1

                         Standard orientation:
 ---------------------------------------------------------------------
 Center     Atomic      Atomic             Coordinates (Angstroms)
 Number     Number       Type             X           Y           Z
 ---------------------------------------------------------------------
      1         14           0        0.713821   -0.942113    0.000600
      2         14           0       -0.713831    0.942138    0.000614
      3          7           0       -2.345160    0.407504    0.000453
      4          1           0       -0.488843    1.771454   -1.204082
      5          1           0       -0.489086    1.771250    1.205486
      6          6           0       -3.454531   -0.038962   -0.000607
      7          8           0       -4.541614   -0.468736   -0.001210
      8          7           0        2.345149   -0.407477    0.000771
      9          1           0        0.489001   -1.771289   -1.204225
     10          1           0        0.488909   -1.771365    1.205344
     11          6           0        3.454528    0.038971   -0.000319
     12          8           0        4.541645    0.468656   -0.001606
 ---------------------------------------------------------------------

 SCF Done:  E(RHF) =  -914.851022216     A.U. after    2 cycles

 The electronic state is 1-A.
 Alpha  occ. eigenvalues --  -69.12155 -69.12155 -20.63065 -20.63065 -15.65585
 Alpha  occ. eigenvalues --  -15.65585 -11.43194 -11.43193  -6.87060  -6.87053
 Alpha  occ. eigenvalues --   -3.98003  -3.97996  -3.97789  -3.97781  -3.97770
 Alpha  occ. eigenvalues --   -3.97711  -1.43491  -1.43488  -1.23091  -1.22950
 Alpha  occ. eigenvalues --   -0.85268  -0.82922  -0.74763  -0.74322  -0.67004
 Alpha  occ. eigenvalues --   -0.66963  -0.66931  -0.66877  -0.64445  -0.61506
 Alpha  occ. eigenvalues --   -0.54194  -0.52056  -0.50572  -0.47433  -0.45101
 Alpha  occ. eigenvalues --   -0.45091  -0.39628
 Alpha virt. eigenvalues --    0.03297   0.03405   0.03890   0.04930   0.06209
 Alpha virt. eigenvalues --    0.06615   0.06719   0.08542   0.08579   0.09059
 Alpha virt. eigenvalues --    0.09081   0.09691   0.11249   0.12096   0.12434

 Mulliken charges:
               1
     1  Si   0.448599
     2  Si   0.448604
     3  N   -0.141656
     4  H    0.035232
     5  H    0.035479
     6  C   -0.164463
     7  O   -0.213200
     8  N   -0.141651
     9  H    0.035178
    10  H    0.035533
    11  C   -0.164458
    12  O   -0.213199
 Sum of Mulliken charges =  -0.00000

 Dipole moment (field-independent basis, Debye):
    X=             -0.0000    Y=              0.0002    Z=              0.0020  Tot=              0.0020

 Test job not archived.
 1\1\GINC-SE423\SP\RHF\Aug-CC-pVDZ\C2H4N2O2Si2\OHZDE\09-Apr-2025\0\\#t
 hf aug-cc-pvdz iop(5/13=1,5/36=2,99/5=2) pseudo=read geom=check guess=
 (read,tcheck) scf=(maxcycle=1)\\title\\0,1\Si,0,-0.713821,0.942113,0.0
 006\Si,0,0.713831,-0.942138,0.000614\N,0,2.34516,-0.407504,0.000453\H,
 0,0.488843,-1.771454,-1.204082\H,0,0.489086,-1.77125,1.205486\C,0,3.45
 4531,0.038962,-0.000607\O,0,4.541614,0.468736,-0.00121\N,0,-2.345149,0
 .407477,0.000771\H,0,-0.489001,1.771289,-1.204225\H,0,-0.488909,1.7713
 65,1.205344\C,0,-3.454528,-0.038971,-0.000319\O,0,-4.541645,-0.468656,

 Normal termination of Gaussian 16 at Wed Apr  9 00:10:57 2025.
