 Gaussian 16, Revision C.01,

 ----------------------------------------------------------------------
 #t hf aug-cc-pvdz symm=none int=(grid=ultrafine) guess=(read,tcheck) s
 table=(opt,rrhf)
 ----------------------------------------------------------------------
 -----
 title
 -----
 Symbolic Z-matrix:
 Charge =  0 Multiplicity = 1

 SCF Done:  E(RHF) =  -1520.11525421     A.U. after   14 cycles
 Normal termination of Gaussian 16 at Tue Apr  8 23:22:55 2025.
 Gaussian 16:  ES64L-G16RevC.01  3-Jul-2019

 ----------------------------------------------------------------------
 #t hf aug-cc-pvdz iop(5/13=1,5/36=2,99/5=2) pseudo=read geom=check gue
 ss=(read,tcheck) scf=(maxcycle=1)
 ----------------------------------------------------------------------
 -----
 title
 -----
 Structure from the checkpoint file:  "BDE49_nonexpt_1203_mol1.chk"
 Charge =  0 Multiplicity = 1

                         Standard orientation:
 ---------------------------------------------------------------------
 Center     Atomic      Atomic             Coordinates (Angstroms)
 Number     Number       Type             X           Y           Z
 ---------------------------------------------------------------------
      1         16           0       -0.629032    1.790331    0.043831
      2          8           0        0.847818    1.300249   -0.614633
      3          6           0        1.644870    0.519727    0.171421
      4          6           0       -1.526866    0.275452   -0.253925
      5          8           0       -1.101707   -0.732492   -0.707131
      6          8           0        1.425928    0.118342    1.263395
      7          6           0        3.776536   -0.468057   -0.057898
      8          6           0       -3.778176   -0.463747    0.065266
      9          9           0       -3.961233   -0.842216   -1.196924
     10          9           0       -4.903190    0.061617    0.531790
     11          9           0       -3.453263   -1.525842    0.795835
     12          9           0        4.280575    0.070363    1.050978
     13          9           0        4.722233   -0.514029   -0.986815
     14          9           0        3.363511   -1.703656    0.207994
     15          8           0       -2.814765    0.534122    0.160844
     16          8           0        2.758805    0.312069   -0.587002
 ---------------------------------------------------------------------

 SCF Done:  E(RHF) =  -1520.53430851     A.U. after    2 cycles

 The electronic state is 1-A.
 Alpha  occ. eigenvalues --  -93.67145 -26.20668 -26.20476 -26.20433 -26.19971
 Alpha  occ. eigenvalues --  -26.19841 -26.19789 -20.70561 -20.70033 -20.69892
 Alpha  occ. eigenvalues --  -20.63644 -20.62334 -11.62538 -11.61814 -11.51377
 Alpha  occ. eigenvalues --  -11.48908  -8.96221  -6.30434  -6.30072  -6.29670
 Alpha  occ. eigenvalues --   -1.81251  -1.80606  -1.73713  -1.73497  -1.73033
 Alpha  occ. eigenvalues --   -1.72846  -1.52745  -1.50404  -1.43529  -1.41988
 Alpha  occ. eigenvalues --   -1.40297  -1.11513  -1.08169  -1.03800  -0.97825
 Alpha  occ. eigenvalues --   -0.94846  -0.93541  -0.93167  -0.92917  -0.91785
 Alpha  occ. eigenvalues --   -0.84486  -0.82795  -0.81982  -0.81672  -0.81188
 Alpha  occ. eigenvalues --   -0.79849  -0.78602  -0.77714  -0.76979  -0.76625
 Alpha  occ. eigenvalues --   -0.76431  -0.75919  -0.75851  -0.75518  -0.74913
 Alpha  occ. eigenvalues --   -0.74696  -0.71634  -0.70791  -0.67459  -0.66175
 Alpha  occ. eigenvalues --   -0.64198  -0.60478  -0.58799  -0.56492  -0.55436
 Alpha  occ. eigenvalues --   -0.50987  -0.44374
 Alpha virt. eigenvalues --    0.04697   0.05222   0.07086   0.07525   0.07833
 Alpha virt. eigenvalues --    0.08642   0.09286   0.09360   0.09620   0.09889
 Alpha virt. eigenvalues --    0.10988   0.11774   0.12928   0.13782   0.14152

 Mulliken charges:
               1
     1  S    0.799378
     2  O   -0.764719
     3  C    0.718985
     4  C    0.129490
     5  O   -0.320957
     6  O   -0.257906
     7  C    1.121536
     8  C    1.154511
     9  F   -0.269937
    10  F   -0.227602
    11  F   -0.264392
    12  F   -0.278325
    13  F   -0.242861
    14  F   -0.273912
    15  O   -0.503860
    16  O   -0.519429
 Sum of Mulliken charges =  -0.00000

 Dipole moment (field-independent basis, Debye):
    X=             -0.9473    Y=              2.8560    Z=             -0.2298  Tot=              3.0177

 Test job not archived.
 1\1\GINC-SE366\SP\RHF\Aug-CC-pVDZ\C4F6O5S1\OHZDE\08-Apr-2025\0\\#t hf
 aug-cc-pvdz iop(5/13=1,5/36=2,99/5=2) pseudo=read geom=check guess=(re
 ad,tcheck) scf=(maxcycle=1)\\title\\0,1\S,0,-0.629032,1.790331,0.04383
 1\O,0,0.847818,1.300249,-0.614633\C,0,1.64487,0.519727,0.171421\C,0,-1
 .526866,0.275452,-0.253925\O,0,-1.101707,-0.732492,-0.707131\O,0,1.425
 928,0.118342,1.263395\C,0,3.776536,-0.468057,-0.057898\C,0,-3.778176,-
 0.463747,0.065266\F,0,-3.961233,-0.842216,-1.196924\F,0,-4.90319,0.061
 617,0.53179\F,0,-3.453263,-1.525842,0.795835\F,0,4.280575,0.070363,1.0

 Normal termination of Gaussian 16 at Tue Apr  8 23:23:05 2025.
