 Gaussian 16, Revision C.01,

 ----------------------------------------------------------------------
 #t hf aug-cc-pvdz symm=none int=(grid=ultrafine) guess=(read,tcheck) s
 table=(opt,rrhf)
 ----------------------------------------------------------------------
 -----
 title
 -----
 Symbolic Z-matrix:
 Charge =  0 Multiplicity = 1

 SCF Done:  E(RHF) =  -1216.65286016     A.U. after   16 cycles
 Normal termination of Gaussian 16 at Tue Apr  8 23:29:48 2025.
 Gaussian 16:  ES64L-G16RevC.01  3-Jul-2019

 ----------------------------------------------------------------------
 #t hf aug-cc-pvdz iop(5/13=1,5/36=2,99/5=2) pseudo=read geom=check gue
 ss=(read,tcheck) scf=(maxcycle=1)
 ----------------------------------------------------------------------
 -----
 title
 -----
 Structure from the checkpoint file:  "BDE49_nonexpt_1346_mol1.chk"
 Charge =  0 Multiplicity = 1

                         Standard orientation:
 ---------------------------------------------------------------------
 Center     Atomic      Atomic             Coordinates (Angstroms)
 Number     Number       Type             X           Y           Z
 ---------------------------------------------------------------------
      1          6           0       -0.363135   -0.002750   -0.017829
      2         15           0        1.536061    0.028832   -0.177198
      3          7           0       -1.028064    1.283532   -0.521518
      4          7           0       -0.839177   -0.156163    1.447431
      5          8           0       -0.675935    0.844541    2.111079
      6          8           0       -0.286670    2.089448   -1.059729
      7          8           0        1.963070    1.350571    0.561715
      8          8           0       -2.215379    1.386151   -0.336292
      9          8           0        1.877615   -0.197355   -1.574160
     10          8           0       -1.293569   -1.219719    1.790951
     11          7           0       -0.859760   -1.199416   -0.842630
     12          8           0       -0.268183   -2.234059   -0.590239
     13          8           0       -1.736973   -1.025996   -1.649638
     14          1           0        1.778259    2.141676    0.035270
     15          8           0        1.964770   -1.009598    0.932913
     16          1           0        1.818674   -1.925193    0.653902
 ---------------------------------------------------------------------

 SCF Done:  E(RHF) =  -1216.98794442     A.U. after    2 cycles

 The electronic state is 1-A.
 Alpha  occ. eigenvalues --  -81.49777 -20.69868 -20.69865 -20.69390 -20.69270
 Alpha  occ. eigenvalues --  -20.68892 -20.68730 -20.67571 -20.67443 -20.58734
 Alpha  occ. eigenvalues --  -15.99924 -15.99889 -15.99881 -11.49847  -7.97940
 Alpha  occ. eigenvalues --   -5.12639  -5.12544  -5.12346  -1.64696  -1.62381
 Alpha  occ. eigenvalues --   -1.62275  -1.45617  -1.45178  -1.44792  -1.44342
 Alpha  occ. eigenvalues --   -1.40925  -1.32500  -1.22542  -1.02132  -1.01486
 Alpha  occ. eigenvalues --   -0.93052  -0.89975  -0.87395  -0.86767  -0.84611
 Alpha  occ. eigenvalues --   -0.80927  -0.80793  -0.80215  -0.79566  -0.78496
 Alpha  occ. eigenvalues --   -0.77864  -0.76230  -0.71923  -0.70592  -0.66383
 Alpha  occ. eigenvalues --   -0.64200  -0.63485  -0.61065  -0.59697  -0.58925
 Alpha  occ. eigenvalues --   -0.58012  -0.56745  -0.56243  -0.55229  -0.54363
 Alpha  occ. eigenvalues --   -0.53847  -0.53163  -0.52858
 Alpha virt. eigenvalues --   -0.00271   0.01002   0.01448   0.03207   0.04125
 Alpha virt. eigenvalues --    0.07554   0.08096   0.09036   0.10199   0.10843
 Alpha virt. eigenvalues --    0.11440   0.11859   0.13434   0.14194   0.14790

 Mulliken charges:
               1
     1  C    1.973726
     2  P    2.352545
     3  N    0.210879
     4  N    0.179742
     5  O   -0.526876
     6  O   -0.543791
     7  O   -0.682676
     8  O   -0.508034
     9  O   -0.797838
    10  O   -0.503554
    11  N    0.165560
    12  O   -0.546141
    13  O   -0.459866
    14  H    0.185249
    15  O   -0.669822
    16  H    0.170899
 Sum of Mulliken charges =  -0.00000

 Dipole moment (field-independent basis, Debye):
    X=              1.7223    Y=              0.3404    Z=              1.1692  Tot=              2.1093

 Test job not archived.
 1\1\GINC-SE082\SP\RHF\Aug-CC-pVDZ\C1H2N3O9P1\OHZDE\08-Apr-2025\0\\#t h
 f aug-cc-pvdz iop(5/13=1,5/36=2,99/5=2) pseudo=read geom=check guess=(
 read,tcheck) scf=(maxcycle=1)\\title\\0,1\C,0,-0.363135,-0.00275,-0.01
 7829\P,0,1.536061,0.028832,-0.177198\N,0,-1.028064,1.283532,-0.521518\
 N,0,-0.839177,-0.156163,1.447431\O,0,-0.675935,0.844541,2.111079\O,0,-
 0.28667,2.089448,-1.059729\O,0,1.96307,1.350571,0.561715\O,0,-2.215379
 ,1.386151,-0.336292\O,0,1.877615,-0.197355,-1.57416\O,0,-1.293569,-1.2
 19719,1.790951\N,0,-0.85976,-1.199416,-0.84263\O,0,-0.268183,-2.234059

 Normal termination of Gaussian 16 at Tue Apr  8 23:30:01 2025.
