 Gaussian 16, Revision C.01,

 ----------------------------------------------------------------------
 #t hf aug-cc-pvdz symm=none int=(grid=ultrafine) guess=(read,tcheck) s
 table=(opt,rrhf)
 ----------------------------------------------------------------------
 -----
 title
 -----
 Symbolic Z-matrix:
 Charge =  0 Multiplicity = 1

 SCF Done:  E(RHF) =  -454.184068974     A.U. after   13 cycles
 Normal termination of Gaussian 16 at Wed Apr  9 00:39:55 2025.
 Gaussian 16:  ES64L-G16RevC.01  3-Jul-2019

 ----------------------------------------------------------------------
 #t hf aug-cc-pvdz iop(5/13=1,5/36=2,99/5=2) pseudo=read geom=check gue
 ss=(read,tcheck) scf=(maxcycle=1)
 ----------------------------------------------------------------------
 -----
 title
 -----
 Structure from the checkpoint file:  "BDE49_nonexpt_679_mol1.chk"
 Charge =  0 Multiplicity = 1

                         Standard orientation:
 ---------------------------------------------------------------------
 Center     Atomic      Atomic             Coordinates (Angstroms)
 Number     Number       Type             X           Y           Z
 ---------------------------------------------------------------------
      1          5           0       -1.645134   -0.049959   -0.037392
      2          8           0       -0.575648   -0.639047    0.514466
      3          9           0       -1.782113    1.275480   -0.120115
      4          9           0       -2.628875   -0.801562   -0.515680
      5          6           0        0.543799    0.131986    1.009461
      6          6           0        1.681090    0.115838    0.019961
      7          6           0        2.157843    1.257798   -0.474471
      8          6           0        2.226469   -1.239363   -0.342141
      9          1           0        2.991148    1.272146   -1.168687
     10          1           0        1.732839    2.217398   -0.200445
     11          1           0        3.026463   -1.164298   -1.080074
     12          1           0        2.620647   -1.749736    0.544245
     13          1           0        1.435816   -1.877280   -0.746880
     14          1           0        0.838585   -0.353037    1.944154
     15          1           0        0.229039    1.154160    1.224213
 ---------------------------------------------------------------------

 SCF Done:  E(RHF) =  -454.351575054     A.U. after    2 cycles

 The electronic state is 1-A.
 Alpha  occ. eigenvalues --  -26.13757 -26.13057 -20.60329 -11.31675 -11.26321
 Alpha  occ. eigenvalues --  -11.24374 -11.24005  -7.75926  -1.68729  -1.66506
 Alpha  occ. eigenvalues --   -1.36088  -1.09660  -0.95949  -0.94379  -0.86893
 Alpha  occ. eigenvalues --   -0.82354  -0.79274  -0.77291  -0.74836  -0.72060
 Alpha  occ. eigenvalues --   -0.71456  -0.69751  -0.66170  -0.65099  -0.60967
 Alpha  occ. eigenvalues --   -0.57733  -0.56398  -0.53626  -0.51936  -0.48588
 Alpha  occ. eigenvalues --   -0.37633
 Alpha virt. eigenvalues --    0.03199   0.04230   0.04514   0.05142   0.06163
 Alpha virt. eigenvalues --    0.06446   0.07036   0.07202   0.08420   0.09138
 Alpha virt. eigenvalues --    0.10274   0.11062   0.12190   0.14152   0.14597

 Mulliken charges:
               1
     1  B    1.003213
     2  O   -0.516120
     3  F   -0.443553
     4  F   -0.511704
     5  C    0.922925
     6  C   -0.466087
     7  C    1.140435
     8  C    0.144304
     9  H   -0.395095
    10  H   -0.387494
    11  H   -0.134262
    12  H    0.059083
    13  H    0.057433
    14  H   -0.153780
    15  H   -0.319296
 Sum of Mulliken charges =  -0.00000

 Dipole moment (field-independent basis, Debye):
    X=              2.5261    Y=              0.4225    Z=              0.9500  Tot=              2.7317

 Test job not archived.
 1\1\GINC-SE322\SP\RHF\Aug-CC-pVDZ\C4H7B1F2O1\OHZDE\09-Apr-2025\0\\#t h
 f aug-cc-pvdz iop(5/13=1,5/36=2,99/5=2) pseudo=read geom=check guess=(
 read,tcheck) scf=(maxcycle=1)\\title\\0,1\B,0,-1.645134,-0.049959,-0.0
 37392\O,0,-0.575648,-0.639047,0.514466\F,0,-1.782113,1.27548,-0.120115
 \F,0,-2.628875,-0.801562,-0.51568\C,0,0.543799,0.131986,1.009461\C,0,1
 .68109,0.115838,0.019961\C,0,2.157843,1.257798,-0.474471\C,0,2.226469,
 -1.239363,-0.342141\H,0,2.991148,1.272146,-1.168687\H,0,1.732839,2.217
 398,-0.200445\H,0,3.026463,-1.164298,-1.080074\H,0,2.620647,-1.749736,

 Normal termination of Gaussian 16 at Wed Apr  9 00:40:00 2025.
