 Gaussian 16, Revision C.01,

 ----------------------------------------------------------------------
 #t hf aug-cc-pvdz symm=none int=(grid=ultrafine) guess=(read,tcheck) s
 table=(opt,rrhf)
 ----------------------------------------------------------------------
 -----
 title
 -----
 Symbolic Z-matrix:
 Charge =  0 Multiplicity = 1

 SCF Done:  E(RHF) =  -978.179299393     A.U. after   12 cycles
 Normal termination of Gaussian 16 at Tue Apr  8 23:47:35 2025.
 Gaussian 16:  ES64L-G16RevC.01  3-Jul-2019

 ----------------------------------------------------------------------
 #t hf aug-cc-pvdz iop(5/13=1,5/36=2,99/5=2) pseudo=read geom=check gue
 ss=(read,tcheck) scf=(maxcycle=1)
 ----------------------------------------------------------------------
 -----
 title
 -----
 Structure from the checkpoint file:  "BDE49_nonexpt_1820_mol1.chk"
 Charge =  0 Multiplicity = 1

                         Standard orientation:
 ---------------------------------------------------------------------
 Center     Atomic      Atomic             Coordinates (Angstroms)
 Number     Number       Type             X           Y           Z
 ---------------------------------------------------------------------
      1          6           0        2.464102    0.570166    0.086983
      2          6           0        1.511410   -0.387178   -0.649505
      3          1           0        2.552175    0.307514    1.144405
      4          1           0        2.115885    1.604364    0.027788
      5          1           0        3.466834    0.533996   -0.346309
      6         14           0       -0.218641   -0.437369    0.012279
      7          1           0        1.890437   -1.415099   -0.602848
      8          1           0        1.453120   -0.133208   -1.713085
      9         17           0       -1.115471    1.457878   -0.159502
     10          8           0       -0.305778   -0.824224    1.604383
     11          1           0       -0.538890   -0.136288    2.231511
     12          8           0       -1.046082   -1.524730   -0.877934
     13          1           0       -1.953764   -1.728328   -0.638299
 ---------------------------------------------------------------------

 SCF Done:  E(RHF) =  -978.314765473     A.U. after    2 cycles

 The electronic state is 1-A.
 Alpha  occ. eigenvalues -- -103.64709 -69.15334 -20.58465 -20.58400 -11.23708
 Alpha  occ. eigenvalues --  -11.23142 -10.68159  -8.33842  -8.33645  -8.33641
 Alpha  occ. eigenvalues --   -6.89441  -4.00412  -4.00390  -4.00201  -1.32967
 Alpha  occ. eigenvalues --   -1.30878  -1.12963  -1.02261  -0.85988  -0.77561
 Alpha  occ. eigenvalues --   -0.73373  -0.64674  -0.61991  -0.61295  -0.58587
 Alpha  occ. eigenvalues --   -0.57197  -0.54491  -0.53035  -0.52388  -0.50426
 Alpha  occ. eigenvalues --   -0.47932  -0.47271  -0.44514
 Alpha virt. eigenvalues --    0.03120   0.04448   0.04820   0.05663   0.06483
 Alpha virt. eigenvalues --    0.07127   0.07612   0.07777   0.09195   0.09913
 Alpha virt. eigenvalues --    0.11838   0.13381   0.14495   0.15372   0.16044

 Mulliken charges:
               1
     1  C    0.307693
     2  C    0.062555
     3  H   -0.101790
     4  H   -0.096966
     5  H   -0.075094
     6  Si   2.095795
     7  H   -0.136363
     8  H   -0.144263
     9  Cl  -0.580441
    10  O   -0.832831
    11  H    0.163544
    12  O   -0.772554
    13  H    0.110714
 Sum of Mulliken charges =  -0.00000

 Dipole moment (field-independent basis, Debye):
    X=              0.1953    Y=             -0.1580    Z=              0.9081  Tot=              0.9422

 Test job not archived.
 1\1\GINC-SE341\SP\RHF\Aug-CC-pVDZ\C2H7Cl1O2Si1\OHZDE\08-Apr-2025\0\\#t
  hf aug-cc-pvdz iop(5/13=1,5/36=2,99/5=2) pseudo=read geom=check guess
 =(read,tcheck) scf=(maxcycle=1)\\title\\0,1\C,0,2.464102,0.570166,0.08
 6983\C,0,1.51141,-0.387178,-0.649505\H,0,2.552175,0.307514,1.144405\H,
 0,2.115885,1.604364,0.027788\H,0,3.466834,0.533996,-0.346309\Si,0,-0.2
 18641,-0.437369,0.012279\H,0,1.890437,-1.415099,-0.602848\H,0,1.45312,
 -0.133208,-1.713085\Cl,0,-1.115471,1.457878,-0.159502\O,0,-0.305778,-0
 .824224,1.604383\H,0,-0.53889,-0.136288,2.231511\O,0,-1.046082,-1.5247

 Normal termination of Gaussian 16 at Tue Apr  8 23:47:39 2025.
