 Gaussian 16, Revision C.01,

 ----------------------------------------------------------------------
 #t hf aug-cc-pvdz symm=none int=(grid=ultrafine) guess=(read,tcheck) s
 table=(opt,rrhf)
 ----------------------------------------------------------------------
 -----
 title
 -----
 Symbolic Z-matrix:
 Charge =  0 Multiplicity = 1

 SCF Done:  E(RHF) =  -1009.74827036     A.U. after   14 cycles
 Normal termination of Gaussian 16 at Tue Apr  8 22:54:36 2025.
 Gaussian 16:  ES64L-G16RevC.01  3-Jul-2019

 ----------------------------------------------------------------------
 #t hf aug-cc-pvdz iop(5/13=1,5/36=2,99/5=2) pseudo=read geom=check gue
 ss=(read,tcheck) scf=(maxcycle=1)
 ----------------------------------------------------------------------
 -----
 title
 -----
 Structure from the checkpoint file:  "BDE49_expt_1872_mol1.chk"
 Charge =  0 Multiplicity = 1

                         Standard orientation:
 ---------------------------------------------------------------------
 Center     Atomic      Atomic             Coordinates (Angstroms)
 Number     Number       Type             X           Y           Z
 ---------------------------------------------------------------------
      1          6           0       -2.698669    0.138992    0.084123
      2          8           0       -1.446858    0.612744   -0.289881
      3          9           0       -3.135164   -0.796674   -0.753748
      4          9           0       -3.512781    1.183262    0.038268
      5          9           0       -2.683910   -0.353686    1.319273
      6          6           0       -0.407997   -0.268595   -0.323114
      7          8           0        0.641781    0.530266   -0.716725
      8          8           0       -0.402349   -1.422878   -0.084106
      9          8           0        1.808662   -0.290822   -0.883155
     10          6           0        2.714244    0.073770    0.107242
     11          9           0        3.755840   -0.719248   -0.090165
     12          9           0        3.085926    1.346406   -0.000246
     13          9           0        2.217271   -0.115557    1.328998
 ---------------------------------------------------------------------

 SCF Done:  E(RHF) =  -1010.10692297     A.U. after    2 cycles

 The electronic state is 1-A.
 Alpha  occ. eigenvalues --  -26.21072 -26.20825 -26.20715 -26.20678 -26.20668
 Alpha  occ. eigenvalues --  -26.20524 -20.75238 -20.74308 -20.71035 -20.63437
 Alpha  occ. eigenvalues --  -11.62793 -11.62055 -11.52305  -1.81508  -1.81430
 Alpha  occ. eigenvalues --   -1.74102  -1.73922  -1.73727  -1.73513  -1.56844
 Alpha  occ. eigenvalues --   -1.50001  -1.42719  -1.33463  -1.08808  -1.05080
 Alpha  occ. eigenvalues --   -0.98200  -0.94283  -0.93824  -0.93698  -0.93219
 Alpha  occ. eigenvalues --   -0.90790  -0.85934  -0.83015  -0.82244  -0.81889
 Alpha  occ. eigenvalues --   -0.81033  -0.79518  -0.78165  -0.77386  -0.77048
 Alpha  occ. eigenvalues --   -0.77026  -0.76611  -0.76108  -0.75736  -0.75701
 Alpha  occ. eigenvalues --   -0.72137  -0.69522  -0.68731  -0.62877  -0.61086
 Alpha  occ. eigenvalues --   -0.57162  -0.56398
 Alpha virt. eigenvalues --    0.06823   0.07176   0.07670   0.08069   0.08950
 Alpha virt. eigenvalues --    0.09230   0.09662   0.12522   0.12739   0.13473
 Alpha virt. eigenvalues --    0.13860   0.14022   0.18065   0.18825   0.19535

 Mulliken charges:
               1
     1  C    1.129839
     2  O   -0.510711
     3  F   -0.272175
     4  F   -0.241629
     5  F   -0.273227
     6  C    0.771758
     7  O   -0.332334
     8  O   -0.230929
     9  O   -0.472017
    10  C    1.178886
    11  F   -0.226007
    12  F   -0.247018
    13  F   -0.274434
 Sum of Mulliken charges =   0.00000

 Dipole moment (field-independent basis, Debye):
    X=              0.0167    Y=              1.1104    Z=             -0.3526  Tot=              1.1651

 Test job not archived.
 1\1\GINC-SE435\SP\RHF\Aug-CC-pVDZ\C3F6O4\OHZDE\08-Apr-2025\0\\#t hf au
 g-cc-pvdz iop(5/13=1,5/36=2,99/5=2) pseudo=read geom=check guess=(read
 ,tcheck) scf=(maxcycle=1)\\title\\0,1\C,0,-2.698669,0.138992,0.084123\
 O,0,-1.446858,0.612744,-0.289881\F,0,-3.135164,-0.796674,-0.753748\F,0
 ,-3.512781,1.183262,0.038268\F,0,-2.68391,-0.353686,1.319273\C,0,-0.40
 7997,-0.268595,-0.323114\O,0,0.641781,0.530266,-0.716725\O,0,-0.402349
 ,-1.422878,-0.084106\O,0,1.808662,-0.290822,-0.883155\C,0,2.714244,0.0
 7377,0.107242\F,0,3.75584,-0.719248,-0.090165\F,0,3.085926,1.346406,-0

 Normal termination of Gaussian 16 at Tue Apr  8 22:54:43 2025.
