 Gaussian 16, Revision C.01,

 ----------------------------------------------------------------------
 #t hf aug-cc-pvdz symm=none int=(grid=ultrafine) guess=(read,tcheck) s
 table=(opt,rrhf)
 ----------------------------------------------------------------------
 -----
 title
 -----
 Symbolic Z-matrix:
 Charge =  0 Multiplicity = 1

 SCF Done:  E(RHF) =  -746.930261696     A.U. after   13 cycles
 Normal termination of Gaussian 16 at Wed Apr  9 00:08:06 2025.
 Gaussian 16:  ES64L-G16RevC.01  3-Jul-2019

 ----------------------------------------------------------------------
 #t hf aug-cc-pvdz iop(5/13=1,5/36=2,99/5=2) pseudo=read geom=check gue
 ss=(read,tcheck) scf=(maxcycle=1)
 ----------------------------------------------------------------------
 -----
 title
 -----
 Structure from the checkpoint file:  "BDE49_nonexpt_2277_mol1.chk"
 Charge =  0 Multiplicity = 1

                         Standard orientation:
 ---------------------------------------------------------------------
 Center     Atomic      Atomic             Coordinates (Angstroms)
 Number     Number       Type             X           Y           Z
 ---------------------------------------------------------------------
      1         14           0        0.973666    1.391177   -0.068556
      2          6           0       -0.479534    0.152291   -0.010156
      3          6           0       -1.799293    0.931276   -0.039441
      4          8           0       -2.886953    0.004754    0.038217
      5          1           0       -1.834888    1.633216    0.806225
      6          1           0       -1.864908    1.520197   -0.966280
      7          1           0       -3.709886    0.501603    0.018756
      8          6           0       -0.382277   -0.663946    1.304202
      9          8           0        2.403757    0.549223   -0.117219
     10          1           0        2.440772   -0.095767    0.605781
     11          6           0       -0.430766   -0.797967   -1.235713
     12          8           0        0.896244   -1.292710    1.476984
     13          1           0       -1.180925   -1.412956    1.333713
     14          1           0       -0.515681   -0.006856    2.168004
     15          1           0        0.986278   -1.890358    0.718771
     16          8           0        0.719906   -1.655287   -1.259206
     17          1           0       -0.491097   -0.217721   -2.166537
     18          1           0       -1.292642   -1.465871   -1.208418
     19          1           0        1.503790   -1.100610   -1.370411
     20          1           0        0.886197    2.290185    1.109637
     21          1           0        0.929248    2.190703   -1.313019
 ---------------------------------------------------------------------

 SCF Done:  E(RHF) =  -747.102811260     A.U. after    2 cycles

 The electronic state is 1-A.
 Alpha  occ. eigenvalues --  -69.09381 -20.58903 -20.58251 -20.57316 -20.57101
 Alpha  occ. eigenvalues --  -11.31074 -11.29740 -11.29364 -11.24237  -6.84319
 Alpha  occ. eigenvalues --   -3.95197  -3.95071  -3.95042  -1.34089  -1.33497
 Alpha  occ. eigenvalues --   -1.31624  -1.29952  -1.06871  -0.92542  -0.92147
 Alpha  occ. eigenvalues --   -0.80328  -0.75657  -0.73025  -0.72163  -0.69174
 Alpha  occ. eigenvalues --   -0.66244  -0.65020  -0.63130  -0.60751  -0.59934
 Alpha  occ. eigenvalues --   -0.58775  -0.57139  -0.56410  -0.55587  -0.53854
 Alpha  occ. eigenvalues --   -0.51393  -0.48560  -0.47485  -0.46906  -0.43864
 Alpha  occ. eigenvalues --   -0.41424
 Alpha virt. eigenvalues --    0.02650   0.04063   0.04630   0.04660   0.06098
 Alpha virt. eigenvalues --    0.06414   0.06679   0.06754   0.06898   0.08967
 Alpha virt. eigenvalues --    0.09163   0.09603   0.09842   0.09920   0.11522

 Mulliken charges:
               1
     1  Si  -0.422168
     2  C   -1.202423
     3  C    1.591048
     4  O   -0.564535
     5  H   -0.132627
     6  H   -0.105948
     7  H    0.136105
     8  C    1.009868
     9  O   -0.910797
    10  H    0.214975
    11  C    0.916113
    12  O   -0.655880
    13  H   -0.017234
    14  H   -0.225032
    15  H    0.235839
    16  O   -0.644918
    17  H   -0.148515
    18  H   -0.042021
    19  H    0.222842
    20  H    0.336432
    21  H    0.408876
 Sum of Mulliken charges =  -0.00000

 Dipole moment (field-independent basis, Debye):
    X=             -2.8381    Y=              2.4481    Z=             -0.3819  Tot=              3.7675

 Test job not archived.
 1\1\GINC-SE339\SP\RHF\Aug-CC-pVDZ\C4H12O4Si1\OHZDE\09-Apr-2025\0\\#t h
 f aug-cc-pvdz iop(5/13=1,5/36=2,99/5=2) pseudo=read geom=check guess=(
 read,tcheck) scf=(maxcycle=1)\\title\\0,1\Si,0,0.973666,1.391177,-0.06
 8556\C,0,-0.479534,0.152291,-0.010156\C,0,-1.799293,0.931276,-0.039441
 \O,0,-2.886953,0.004754,0.038217\H,0,-1.834888,1.633216,0.806225\H,0,-
 1.864908,1.520197,-0.96628\H,0,-3.709886,0.501603,0.018756\C,0,-0.3822
 77,-0.663946,1.304202\O,0,2.403757,0.549223,-0.117219\H,0,2.440772,-0.
 095767,0.605781\C,0,-0.430766,-0.797967,-1.235713\O,0,0.896244,-1.2927

 Normal termination of Gaussian 16 at Wed Apr  9 00:08:18 2025.
