 Gaussian 16, Revision C.01,

 ----------------------------------------------------------------------
 #t hf aug-cc-pvdz symm=none int=(grid=ultrafine) guess=(read,tcheck) s
 table=(opt,rrhf)
 ----------------------------------------------------------------------
 -----
 title
 -----
 Symbolic Z-matrix:
 Charge =  0 Multiplicity = 1

 SCF Done:  E(RHF) =  -693.885965081     A.U. after   15 cycles
 Normal termination of Gaussian 16 at Wed Apr  9 00:44:20 2025.
 Gaussian 16:  ES64L-G16RevC.01  3-Jul-2019

 ----------------------------------------------------------------------
 #t hf aug-cc-pvdz iop(5/13=1,5/36=2,99/5=2) pseudo=read geom=check gue
 ss=(read,tcheck) scf=(maxcycle=1)
 ----------------------------------------------------------------------
 -----
 title
 -----
 Structure from the checkpoint file:  "BDE49_nonexpt_783_mol1.chk"
 Charge =  0 Multiplicity = 1

                         Standard orientation:
 ---------------------------------------------------------------------
 Center     Atomic      Atomic             Coordinates (Angstroms)
 Number     Number       Type             X           Y           Z
 ---------------------------------------------------------------------
      1          8           0        1.078173    0.834191    0.324546
      2          6           0        2.384644    1.170617    0.127004
      3          6           0        0.941195   -0.523593    0.044788
      4          6           0        3.094936    0.085846   -0.269871
      5          6           0        2.165264   -1.001785   -0.324202
      6          1           0        4.148748    0.059841   -0.497250
      7          1           0        2.639874    2.201207    0.308334
      8          1           0        2.381432   -2.021094   -0.604350
      9          5           0       -2.111791    0.275594   -0.074286
     10          8           0       -1.723397    1.582358   -0.085058
     11          8           0       -3.425488   -0.028660   -0.257454
     12          1           0       -3.965865    0.763331   -0.377887
     13          1           0       -0.773211    1.690603    0.051255
     14         14           0       -0.785145   -1.241712    0.235344
     15          1           0       -0.897014   -2.364500   -0.725777
     16          1           0       -0.933529   -1.813014    1.599705
 ---------------------------------------------------------------------

 SCF Done:  E(RHF) =  -694.039061081     A.U. after    2 cycles

 The electronic state is 1-A.
 Alpha  occ. eigenvalues --  -69.05786 -20.64832 -20.58272 -20.58138 -11.31242
 Alpha  occ. eigenvalues --  -11.28966 -11.25137 -11.25004  -7.66188  -6.81241
 Alpha  occ. eigenvalues --   -3.92050  -3.91978  -3.91934  -1.42180  -1.34504
 Alpha  occ. eigenvalues --   -1.30853  -1.08551  -1.00960  -0.82171  -0.79712
 Alpha  occ. eigenvalues --   -0.77826  -0.76927  -0.74151  -0.67564  -0.65883
 Alpha  occ. eigenvalues --   -0.62658  -0.59720  -0.59221  -0.58979  -0.57825
 Alpha  occ. eigenvalues --   -0.57060  -0.52104  -0.49590  -0.48066  -0.42347
 Alpha  occ. eigenvalues --   -0.41344  -0.32931
 Alpha virt. eigenvalues --    0.03019   0.03967   0.04206   0.04998   0.05856
 Alpha virt. eigenvalues --    0.06369   0.06845   0.07192   0.07934   0.08567
 Alpha virt. eigenvalues --    0.08737   0.10047   0.10390   0.11127   0.12214

 Mulliken charges:
               1
     1  O   -0.487983
     2  C    0.600167
     3  C   -0.208251
     4  C    0.356736
     5  C    0.748150
     6  H   -0.304450
     7  H   -0.396120
     8  H   -0.406856
     9  B    0.893046
    10  O   -0.520191
    11  O   -0.473935
    12  H    0.200772
    13  H    0.232566
    14  Si  -0.404796
    15  H    0.089448
    16  H    0.081698
 Sum of Mulliken charges =   0.00000

 Dipole moment (field-independent basis, Debye):
    X=              2.1482    Y=              0.6720    Z=             -0.3174  Tot=              2.2731

 Test job not archived.
 1\1\GINC-SE058\SP\RHF\Aug-CC-pVDZ\C4H7B1O3Si1\OHZDE\09-Apr-2025\0\\#t
 hf aug-cc-pvdz iop(5/13=1,5/36=2,99/5=2) pseudo=read geom=check guess=
 (read,tcheck) scf=(maxcycle=1)\\title\\0,1\O,0,1.078173,0.834191,0.324
 546\C,0,2.384644,1.170617,0.127004\C,0,0.941195,-0.523593,0.044788\C,0
 ,3.094936,0.085846,-0.269871\C,0,2.165264,-1.001785,-0.324202\H,0,4.14
 8748,0.059841,-0.49725\H,0,2.639874,2.201207,0.308334\H,0,2.381432,-2.
 021094,-0.60435\B,0,-2.111791,0.275594,-0.074286\O,0,-1.723397,1.58235
 8,-0.085058\O,0,-3.425488,-0.02866,-0.257454\H,0,-3.965865,0.763331,-0

 Normal termination of Gaussian 16 at Wed Apr  9 00:44:28 2025.
