 Gaussian 16, Revision C.01,

 ----------------------------------------------------------------------
 #t hf aug-cc-pvdz symm=none int=(grid=ultrafine) guess=(read,tcheck) s
 table=(opt,rrhf)
 ----------------------------------------------------------------------
 -----
 title
 -----
 Symbolic Z-matrix:
 Charge =  0 Multiplicity = 1

 SCF Done:  E(RHF) =  -1331.64288157     A.U. after   14 cycles
 Normal termination of Gaussian 16 at Wed Apr  9 00:29:30 2025.
 Gaussian 16:  ES64L-G16RevC.01  3-Jul-2019

 ----------------------------------------------------------------------
 #t hf aug-cc-pvdz iop(5/13=1,5/36=2,99/5=2) pseudo=read geom=check gue
 ss=(read,tcheck) scf=(maxcycle=1)
 ----------------------------------------------------------------------
 -----
 title
 -----
 Structure from the checkpoint file:  "BDE49_nonexpt_2714_mol1.chk"
 Charge =  0 Multiplicity = 1

                         Standard orientation:
 ---------------------------------------------------------------------
 Center     Atomic      Atomic             Coordinates (Angstroms)
 Number     Number       Type             X           Y           Z
 ---------------------------------------------------------------------
      1         16           0        0.944859    1.719619   -0.420462
      2         16           0       -0.944858    1.719625    0.420409
      3          6           0       -1.744451    0.293659   -0.418095
      4          6           0        1.744472    0.293701    0.418111
      5          8           0        1.194917   -0.378157    1.242290
      6          8           0       -1.194866   -0.378271   -1.242197
      7          6           0        3.133494    0.050927   -0.117312
      8          6           0        4.631563   -1.523273   -0.248285
      9          6           0        3.303692   -1.235289   -0.995978
     10          1           0        3.338365   -1.085405   -2.075224
     11          1           0        2.531306   -1.968709   -0.759378
     12          6           0       -3.133498    0.050936    0.117286
     13          6           0       -4.180380   -0.544842   -0.867496
     14          6           0       -3.303750   -1.235223    0.996025
     15          1           0       -3.510192    0.934449    0.638056
     16          6           0        4.180408   -0.544803    0.867464
     17          1           0        5.497343   -1.146649   -0.797512
     18          1           0        3.676314   -1.060319    1.686016
     19          1           0        4.918796    0.147493    1.273925
     20          6           0       -4.631595   -1.523234    0.248296
     21          1           0       -3.676257   -1.060416   -1.685994
     22          1           0       -4.824493   -2.556799   -0.042374
     23          1           0       -5.497392   -1.146562    0.797463
     24          1           0       -3.338464   -1.085273    2.075261
     25          1           0        3.510176    0.934402   -0.638152
     26          1           0       -2.531366   -1.968668    0.759499
     27          1           0       -4.918741    0.147440   -1.274032
     28          1           0        4.824457   -2.556822    0.042442
 ---------------------------------------------------------------------

 SCF Done:  E(RHF) =  -1331.84293097     A.U. after    2 cycles

 The electronic state is 1-A.
 Alpha  occ. eigenvalues --  -93.57367 -93.57363 -20.58151 -20.58150 -11.37936
 Alpha  occ. eigenvalues --  -11.37935 -11.26316 -11.26316 -11.24773 -11.24773
 Alpha  occ. eigenvalues --  -11.24390 -11.24389 -11.24080 -11.24080  -8.87024
 Alpha  occ. eigenvalues --   -8.87006  -6.21221  -6.21108  -6.20879  -6.20842
 Alpha  occ. eigenvalues --   -6.20558  -6.20555  -1.38095  -1.37853  -1.13719
 Alpha  occ. eigenvalues --   -1.13657  -1.05952  -0.98629  -0.94796  -0.90922
 Alpha  occ. eigenvalues --   -0.90853  -0.88429  -0.80338  -0.77441  -0.74292
 Alpha  occ. eigenvalues --   -0.73809  -0.68864  -0.68357  -0.67607  -0.66511
 Alpha  occ. eigenvalues --   -0.64515  -0.61524  -0.59469  -0.58619  -0.58119
 Alpha  occ. eigenvalues --   -0.57484  -0.55448  -0.55388  -0.51330  -0.49864
 Alpha  occ. eigenvalues --   -0.49791  -0.49190  -0.47856  -0.47030  -0.45529
 Alpha  occ. eigenvalues --   -0.45471  -0.45083  -0.42924  -0.42249  -0.38399
 Alpha  occ. eigenvalues --   -0.36594
 Alpha virt. eigenvalues --    0.03486   0.03610   0.04583   0.04682   0.04820
 Alpha virt. eigenvalues --    0.05091   0.05408   0.06457   0.06924   0.06983
 Alpha virt. eigenvalues --    0.07804   0.07832   0.08376   0.09118   0.09203

 Mulliken charges:
               1
     1  S    0.074253
     2  S    0.074258
     3  C   -0.008718
     4  C   -0.008700
     5  O   -0.499315
     6  O   -0.499310
     7  C    0.407095
     8  C    0.633113
     9  C    0.352150
    10  H   -0.186051
    11  H   -0.235219
    12  C    0.407101
    13  C    0.499796
    14  C    0.352148
    15  H   -0.256644
    16  C    0.499801
    17  H   -0.218129
    18  H   -0.208675
    19  H   -0.171297
    20  C    0.633109
    21  H   -0.208676
    22  H   -0.182375
    23  H   -0.218129
    24  H   -0.186049
    25  H   -0.256643
    26  H   -0.235219
    27  H   -0.171295
    28  H   -0.182378
 Sum of Mulliken charges =  -0.00000

 Dipole moment (field-independent basis, Debye):
    X=             -0.0001    Y=              0.1357    Z=             -0.0001  Tot=              0.1357

 Test job not archived.
 1\1\GINC-SE328\SP\RHF\Aug-CC-pVDZ\C10H14O2S2\OHZDE\09-Apr-2025\0\\#t h
 f aug-cc-pvdz iop(5/13=1,5/36=2,99/5=2) pseudo=read geom=check guess=(
 read,tcheck) scf=(maxcycle=1)\\title\\0,1\S,0,-0.944859,1.719619,0.420
 462\S,0,0.944858,1.719625,-0.420409\C,0,1.744451,0.293659,0.418095\C,0
 ,-1.744472,0.293701,-0.418111\O,0,-1.194917,-0.378157,-1.24229\O,0,1.1
 94866,-0.378271,1.242197\C,0,-3.133494,0.050927,0.117312\C,0,-4.631563
 ,-1.523273,0.248285\C,0,-3.303692,-1.235289,0.995978\H,0,-3.338365,-1.
 085405,2.075224\H,0,-2.531306,-1.968709,0.759378\C,0,3.133498,0.050936

 Normal termination of Gaussian 16 at Wed Apr  9 00:29:58 2025.
