 Gaussian 16, Revision C.01,

 ----------------------------------------------------------------------
 #t hf aug-cc-pvdz symm=none int=(grid=ultrafine) guess=(read,tcheck) s
 table=(opt,rrhf)
 ----------------------------------------------------------------------
 -----
 title
 -----
 Symbolic Z-matrix:
 Charge =  0 Multiplicity = 1

 SCF Done:  E(RHF) =  -432.150146607     A.U. after   16 cycles
 Normal termination of Gaussian 16 at Tue Apr  8 22:38:39 2025.
 Gaussian 16:  ES64L-G16RevC.01  3-Jul-2019

 ----------------------------------------------------------------------
 #t hf aug-cc-pvdz iop(5/13=1,5/36=2,99/5=2) pseudo=read geom=check gue
 ss=(read,tcheck) scf=(maxcycle=1)
 ----------------------------------------------------------------------
 -----
 title
 -----
 Structure from the checkpoint file:  "BDE49_expt_1274_mol1.chk"
 Charge =  0 Multiplicity = 1

                         Standard orientation:
 ---------------------------------------------------------------------
 Center     Atomic      Atomic             Coordinates (Angstroms)
 Number     Number       Type             X           Y           Z
 ---------------------------------------------------------------------
      1          8           0        0.698917   -1.071050   -0.000045
      2          6           0        2.008754   -0.716127    0.000004
      3          6           0        0.002958    0.085568   -0.000069
      4          6           0        2.143889    0.641181    0.000021
      5          6           0        0.822570    1.173561   -0.000029
      6          1           0        3.070155    1.192521    0.000061
      7          1           0        2.710654   -1.532623    0.000024
      8          1           0        0.507454    2.202931   -0.000036
      9          7           0       -1.430548   -0.002895   -0.000126
     10          8           0       -2.030793    1.068079    0.000115
     11          8           0       -1.936056   -1.115487    0.000090
 ---------------------------------------------------------------------

 SCF Done:  E(RHF) =  -432.282754649     A.U. after    2 cycles

 The electronic state is 1-A.
 Alpha  occ. eigenvalues --  -20.68606 -20.62748 -20.62112 -15.93373 -11.37563
 Alpha  occ. eigenvalues --  -11.35091 -11.30052 -11.28151  -1.56028  -1.47318
 Alpha  occ. eigenvalues --   -1.37345  -1.13356  -1.10239  -0.96253  -0.86645
 Alpha  occ. eigenvalues --   -0.81763  -0.80853  -0.74864  -0.74195  -0.71595
 Alpha  occ. eigenvalues --   -0.68383  -0.63446  -0.62698  -0.60302  -0.52659
 Alpha  occ. eigenvalues --   -0.52356  -0.48088  -0.44873  -0.37042
 Alpha virt. eigenvalues --    0.02406   0.02440   0.03576   0.04760   0.08772
 Alpha virt. eigenvalues --    0.08870   0.10292   0.10810   0.11447   0.13266
 Alpha virt. eigenvalues --    0.13283   0.13637   0.14095   0.14754   0.15084

 Mulliken charges:
               1
     1  O   -0.427018
     2  C    0.400305
     3  C    0.794545
     4  C    0.554160
     5  C    0.368723
     6  H   -0.277456
     7  H   -0.303084
     8  H   -0.291043
     9  N    0.309114
    10  O   -0.585232
    11  O   -0.543014
 Sum of Mulliken charges =  -0.00000

 Dipole moment (field-independent basis, Debye):
    X=              5.8280    Y=              1.2186    Z=             -0.0006  Tot=              5.9540

 Test job not archived.
 1\1\GINC-SE110\SP\RHF\Aug-CC-pVDZ\C4H3N1O3\OHZDE\08-Apr-2025\0\\#t hf
 aug-cc-pvdz iop(5/13=1,5/36=2,99/5=2) pseudo=read geom=check guess=(re
 ad,tcheck) scf=(maxcycle=1)\\title\\0,1\O,0,0.698917,-1.07105,-0.00004
 5\C,0,2.008754,-0.716127,0.000004\C,0,0.002958,0.085568,-0.000069\C,0,
 2.143889,0.641181,0.000021\C,0,0.82257,1.173561,-0.000029\H,0,3.070155
 ,1.192521,0.000061\H,0,2.710654,-1.532623,0.000024\H,0,0.507454,2.2029
 31,-0.000036\N,0,-1.430548,-0.002895,-0.000126\O,0,-2.030793,1.068079,
 0.000115\O,0,-1.936056,-1.115487,0.00009\\Version=ES64L-G16RevC.01\Sta

 Normal termination of Gaussian 16 at Tue Apr  8 22:38:43 2025.
