 Gaussian 16, Revision C.01,

 ----------------------------------------------------------------------
 #t hf aug-cc-pvdz symm=none int=(grid=ultrafine) guess=(read,tcheck) s
 table=(opt,rrhf)
 ----------------------------------------------------------------------
 -----
 title
 -----
 Symbolic Z-matrix:
 Charge =  0 Multiplicity = 1

 SCF Done:  E(RHF) =  -590.420803032     A.U. after   14 cycles
 Normal termination of Gaussian 16 at Wed Apr  9 00:21:07 2025.
 Gaussian 16:  ES64L-G16RevC.01  3-Jul-2019

 ----------------------------------------------------------------------
 #t hf aug-cc-pvdz iop(5/13=1,5/36=2,99/5=2) pseudo=read geom=check gue
 ss=(read,tcheck) scf=(maxcycle=1)
 ----------------------------------------------------------------------
 -----
 title
 -----
 Structure from the checkpoint file:  "BDE49_nonexpt_2672_mol1.chk"
 Charge =  0 Multiplicity = 1

                         Standard orientation:
 ---------------------------------------------------------------------
 Center     Atomic      Atomic             Coordinates (Angstroms)
 Number     Number       Type             X           Y           Z
 ---------------------------------------------------------------------
      1          9           0       -1.051857    1.029467    0.000037
      2         16           0       -0.737081   -0.603565   -0.000035
      3          6           0        1.037353   -0.511633    0.000032
      4          7           0        1.766513    0.515479    0.000008
      5          1           0        1.208565    1.373051   -0.000024
      6          1           0        1.461731   -1.519775    0.000009
 ---------------------------------------------------------------------

 SCF Done:  E(RHF) =  -590.507337826     A.U. after    2 cycles

 The electronic state is 1-A.
 Alpha  occ. eigenvalues --  -93.65132 -26.15653 -15.64699 -11.35296  -8.94081
 Alpha  occ. eigenvalues --   -6.28269  -6.27870  -6.27449  -1.66843  -1.21613
 Alpha  occ. eigenvalues --   -1.02081  -0.84812  -0.77255  -0.75999  -0.72194
 Alpha  occ. eigenvalues --   -0.63884  -0.58780  -0.51522  -0.43496  -0.39084
 Alpha virt. eigenvalues --    0.03223   0.04217   0.06448   0.07069   0.09915
 Alpha virt. eigenvalues --    0.10879   0.11308   0.13723   0.14506   0.14590
 Alpha virt. eigenvalues --    0.16817   0.20778   0.21030   0.22298   0.23019

 Mulliken charges:
               1
     1  F   -0.623475
     2  S    0.900220
     3  C    0.083903
     4  N   -0.227069
     5  H    0.063107
     6  H   -0.196686
 Sum of Mulliken charges =  -0.00000

 Dipole moment (field-independent basis, Debye):
    X=             -0.5844    Y=             -2.1149    Z=             -0.0001  Tot=              2.1941

 Test job not archived.
 1\1\GINC-SE177\SP\RHF\Aug-CC-pVDZ\C1H2F1N1S1\OHZDE\09-Apr-2025\0\\#t h
 f aug-cc-pvdz iop(5/13=1,5/36=2,99/5=2) pseudo=read geom=check guess=(
 read,tcheck) scf=(maxcycle=1)\\title\\0,1\F,0,1.051857,1.029467,-0.000
 037\S,0,0.737081,-0.603565,0.000035\C,0,-1.037353,-0.511633,-0.000032\
 N,0,-1.766513,0.515479,-0.000008\H,0,-1.208564,1.373051,0.000024\H,0,-
 1.461731,-1.519775,-0.000009\\Version=ES64L-G16RevC.01\State=1-A\HF=-5
 90.5073378\RMSD=4.356e-03\Dipole=0.229901,-0.8320634,0.0000467\Quadrup
 ole=-3.2462183,3.4735199,-0.2273017,0.6633053,0.0000338,0.0000359\PG=C

 Normal termination of Gaussian 16 at Wed Apr  9 00:21:09 2025.
