 Gaussian 16, Revision C.01,

 ----------------------------------------------------------------------
 #t hf aug-cc-pvdz symm=none int=(grid=ultrafine) guess=(read,tcheck) s
 table=(opt,rrhf)
 ----------------------------------------------------------------------
 -----
 title
 -----
 Symbolic Z-matrix:
 Charge =  0 Multiplicity = 1

 SCF Done:  E(RHF) =  -411.538625127     A.U. after   13 cycles
 Normal termination of Gaussian 16 at Tue Apr  8 23:18:48 2025.
 Gaussian 16:  ES64L-G16RevC.01  3-Jul-2019

 ----------------------------------------------------------------------
 #t hf aug-cc-pvdz iop(5/13=1,5/36=2,99/5=2) pseudo=read geom=check gue
 ss=(read,tcheck) scf=(maxcycle=1)
 ----------------------------------------------------------------------
 -----
 title
 -----
 Structure from the checkpoint file:  "BDE49_nonexpt_1109_mol1.chk"
 Charge =  0 Multiplicity = 1

                         Standard orientation:
 ---------------------------------------------------------------------
 Center     Atomic      Atomic             Coordinates (Angstroms)
 Number     Number       Type             X           Y           Z
 ---------------------------------------------------------------------
      1          9           0        0.368973   -1.566445    0.000000
      2          8           0       -0.805350   -0.739233    0.000000
      3          6           0       -0.368969    0.569744   -0.000000
      4          9           0        0.368973    0.858687    1.086694
      5          9           0        0.368973    0.858687   -1.086694
      6          1           0       -1.305648    1.137044   -0.000000
 ---------------------------------------------------------------------

 SCF Done:  E(RHF) =  -411.687161685     A.U. after    2 cycles

 The electronic state is 1-A'.
 Alpha  occ. eigenvalues --  -26.20302 -26.17648 -26.17639 -20.74729 -11.52036
 Alpha  occ. eigenvalues --   -1.75352  -1.70318  -1.69932  -1.38634  -1.01894
 Alpha  occ. eigenvalues --   -0.88253  -0.87606  -0.87212  -0.80196  -0.77496
 Alpha  occ. eigenvalues --   -0.77072  -0.75913  -0.73332  -0.66821  -0.63852
 Alpha  occ. eigenvalues --   -0.61333
 Alpha virt. eigenvalues --    0.03193   0.06734   0.08594   0.09180   0.10038
 Alpha virt. eigenvalues --    0.15352   0.19808   0.20520   0.22500   0.23122
 Alpha virt. eigenvalues --    0.23284   0.28791   0.30114   0.30940   0.31277

 Mulliken charges:
               1
     1  F   -0.298238
     2  O   -0.164262
     3  C    1.226445
     4  F   -0.289720
     5  F   -0.289720
     6  H   -0.184506
 Sum of Mulliken charges =  -0.00000

 Dipole moment (field-independent basis, Debye):
    X=             -2.2320    Y=              1.4914    Z=             -0.0000  Tot=              2.6844

 Test job not archived.
 1\1\GINC-SE036\SP\RHF\Aug-CC-pVDZ\C1H1F3O1\OHZDE\08-Apr-2025\0\\#t hf
 aug-cc-pvdz iop(5/13=1,5/36=2,99/5=2) pseudo=read geom=check guess=(re
 ad,tcheck) scf=(maxcycle=1)\\title\\0,1\F,0,0.368973,-1.566445,0.\O,0,
 -0.80535,-0.739233,0.\C,0,-0.368969,0.569744,0.\F,0,0.368973,0.858687,
 1.086694\F,0,0.368973,0.858687,-1.086694\H,0,-1.305648,1.137044,0.\\Ve
 rsion=ES64L-G16RevC.01\State=1-A'\HF=-411.6871617\RMSD=5.468e-03\Dipol
 e=-0.8781248,0.5867515,0.\Quadrupole=1.5767126,-0.2581789,-1.3185337,-
 1.9161825,0.,0.\PG=CS [SG(C1H1F1O1),X(F2)]\\@

 Normal termination of Gaussian 16 at Tue Apr  8 23:18:50 2025.
