 Gaussian 16, Revision C.01,

 ----------------------------------------------------------------------
 #t hf aug-cc-pvdz symm=none int=(grid=ultrafine) guess=(read,tcheck) s
 table=(opt,rrhf)
 ----------------------------------------------------------------------
 -----
 title
 -----
 Symbolic Z-matrix:
 Charge =  0 Multiplicity = 1

 SCF Done:  E(RHF) =  -979.869103763     A.U. after   17 cycles
 Normal termination of Gaussian 16 at Wed Apr  9 00:01:31 2025.
 Gaussian 16:  ES64L-G16RevC.01  3-Jul-2019

 ----------------------------------------------------------------------
 #t hf aug-cc-pvdz iop(5/13=1,5/36=2,99/5=2) pseudo=read geom=check gue
 ss=(read,tcheck) scf=(maxcycle=1)
 ----------------------------------------------------------------------
 -----
 title
 -----
 Structure from the checkpoint file:  "BDE49_nonexpt_2119_mol1.chk"
 Charge =  0 Multiplicity = 1

                         Standard orientation:
 ---------------------------------------------------------------------
 Center     Atomic      Atomic             Coordinates (Angstroms)
 Number     Number       Type             X           Y           Z
 ---------------------------------------------------------------------
      1         14           0       -0.036205   -0.001392    0.245478
      2          7           0        1.690936   -0.530428    0.632262
      3          7           0       -0.588263   -1.128984   -1.110596
      4          7           0        0.149591    1.646237   -0.568547
      5          6           0       -1.135717   -0.000342    1.721984
      6          8           0        1.215143    2.133640   -0.888974
      7          8           0       -0.583470   -0.819408   -2.285983
      8          8           0        2.315208   -1.342995   -0.021631
      9          8           0       -0.924865   -2.219830   -0.642162
     10          8           0        2.095885    0.076247    1.627440
     11          8           0       -0.966145    2.145927   -0.743331
     12          6           0       -2.646781    0.037879    1.418736
     13          1           0       -0.827710    0.857853    2.328830
     14          1           0       -0.870553   -0.895325    2.295179
     15          1           0       -2.917522    0.934610    0.860516
     16          1           0       -3.206482    0.037350    2.355907
     17          1           0       -2.955795   -0.836653    0.843839
 ---------------------------------------------------------------------

 SCF Done:  E(RHF) =  -980.107967572     A.U. after    2 cycles

 The electronic state is 1-A.
 Alpha  occ. eigenvalues --  -69.25602 -20.67279 -20.67235 -20.67203 -20.66469
 Alpha  occ. eigenvalues --  -20.66468 -20.66441 -15.93733 -15.93731 -15.93711
 Alpha  occ. eigenvalues --  -11.30888 -11.28215  -7.00086  -4.10885  -4.10877
 Alpha  occ. eigenvalues --   -4.10669  -1.58937  -1.58113  -1.58102  -1.40959
 Alpha  occ. eigenvalues --   -1.40939  -1.40808  -1.09040  -1.03318  -0.96857
 Alpha  occ. eigenvalues --   -0.96844  -0.91086  -0.84981  -0.82554  -0.82463
 Alpha  occ. eigenvalues --   -0.77737  -0.77735  -0.77699  -0.75561  -0.75492
 Alpha  occ. eigenvalues --   -0.75436  -0.67398  -0.65842  -0.59444  -0.57615
 Alpha  occ. eigenvalues --   -0.57188  -0.57155  -0.56563  -0.56009  -0.51827
 Alpha  occ. eigenvalues --   -0.51752  -0.51612  -0.51430  -0.50981  -0.50958
 Alpha virt. eigenvalues --    0.01285   0.01528   0.01590   0.02193   0.04026
 Alpha virt. eigenvalues --    0.04254   0.05607   0.06419   0.06998   0.07182
 Alpha virt. eigenvalues --    0.07350   0.10783   0.11984   0.12800   0.13291

 Mulliken charges:
               1
     1  Si   2.599177
     2  N    0.150111
     3  N    0.151757
     4  N    0.172709
     5  C    0.129974
     6  O   -0.451649
     7  O   -0.447305
     8  O   -0.458111
     9  O   -0.566176
    10  O   -0.539945
    11  O   -0.558821
    12  C    0.300243
    13  H   -0.116629
    14  H   -0.130587
    15  H   -0.078712
    16  H   -0.043557
    17  H   -0.112479
 Sum of Mulliken charges =  -0.00000

 Dipole moment (field-independent basis, Debye):
    X=             -3.5901    Y=              0.0448    Z=              4.2385  Tot=              5.5548

 Test job not archived.
 1\1\GINC-SE396\SP\RHF\Aug-CC-pVDZ\C2H5N3O6Si1\OHZDE\09-Apr-2025\0\\#t
 hf aug-cc-pvdz iop(5/13=1,5/36=2,99/5=2) pseudo=read geom=check guess=
 (read,tcheck) scf=(maxcycle=1)\\title\\0,1\Si,0,-0.036205,-0.001392,0.
 245478\N,0,1.690936,-0.530428,0.632262\N,0,-0.588263,-1.128984,-1.1105
 96\N,0,0.149591,1.646237,-0.568547\C,0,-1.135717,-0.000342,1.721984\O,
 0,1.215143,2.13364,-0.888974\O,0,-0.58347,-0.819408,-2.285983\O,0,2.31
 5208,-1.342995,-0.021631\O,0,-0.924865,-2.21983,-0.642162\O,0,2.095885
 ,0.076247,1.62744\O,0,-0.966145,2.145927,-0.743331\C,0,-2.646781,0.037

 Normal termination of Gaussian 16 at Wed Apr  9 00:01:42 2025.
