 Gaussian 16, Revision C.01,

 ----------------------------------------------------------------------
 #t hf aug-cc-pvdz symm=none int=(grid=ultrafine) guess=(read,tcheck) s
 table=(opt,rrhf)
 ----------------------------------------------------------------------
 -----
 title
 -----
 Symbolic Z-matrix:
 Charge =  0 Multiplicity = 1

 SCF Done:  E(RHF) =  -1363.76728617     A.U. after   13 cycles
 Normal termination of Gaussian 16 at Tue Apr  8 23:43:21 2025.
 Gaussian 16:  ES64L-G16RevC.01  3-Jul-2019

 ----------------------------------------------------------------------
 #t hf aug-cc-pvdz iop(5/13=1,5/36=2,99/5=2) pseudo=read geom=check gue
 ss=(read,tcheck) scf=(maxcycle=1)
 ----------------------------------------------------------------------
 -----
 title
 -----
 Structure from the checkpoint file:  "BDE49_nonexpt_173_mol1.chk"
 Charge =  0 Multiplicity = 1

                         Standard orientation:
 ---------------------------------------------------------------------
 Center     Atomic      Atomic             Coordinates (Angstroms)
 Number     Number       Type             X           Y           Z
 ---------------------------------------------------------------------
      1         17           0        0.172763   -1.503929    1.516757
      2         17           0        0.172763   -1.503929   -1.516757
      3          5           0       -0.022188   -0.611202   -0.000000
      4         15           0       -0.650575    1.175373    0.000000
      5          6           0        0.172763    1.974899   -1.458851
      6          6           0        0.172763    1.974899    1.458851
      7          1           0       -0.139117    1.462876   -2.369953
      8          1           0        1.262488    1.954987   -1.394238
      9          1           0       -0.162126    3.012243   -1.522770
     10          1           0       -0.139117    1.462876    2.369953
     11          1           0       -0.162126    3.012243    1.522770
     12          1           0        1.262488    1.954987    1.394238
 ---------------------------------------------------------------------

 SCF Done:  E(RHF) =  -1363.85718676     A.U. after    2 cycles

 The electronic state is 1-A'.
 Alpha  occ. eigenvalues -- -103.67072-103.67072 -81.25362 -11.24960 -11.24958
 Alpha  occ. eigenvalues --  -10.70545 -10.70515  -8.36224  -8.36219  -8.36005
 Alpha  occ. eigenvalues --   -8.36000  -8.35977  -8.35971  -7.75937  -7.73304
 Alpha  occ. eigenvalues --   -4.89958  -4.89947  -4.89623  -1.18111  -1.14509
 Alpha  occ. eigenvalues --   -0.99103  -0.94693  -0.75854  -0.66074  -0.60628
 Alpha  occ. eigenvalues --   -0.59879  -0.59407  -0.57121  -0.56356  -0.53527
 Alpha  occ. eigenvalues --   -0.52519  -0.48142  -0.47464  -0.46729  -0.44255
 Alpha  occ. eigenvalues --   -0.33004
 Alpha virt. eigenvalues --    0.03014   0.04694   0.04846   0.05626   0.06253
 Alpha virt. eigenvalues --    0.06880   0.06901   0.07356   0.07497   0.08713
 Alpha virt. eigenvalues --    0.09125   0.12300   0.12365   0.13961   0.14124

 Mulliken charges:
               1
     1  Cl  -0.369219
     2  Cl  -0.369219
     3  B    0.823823
     4  P    0.438079
     5  C    0.230959
     6  C    0.230959
     7  H   -0.179182
     8  H   -0.161986
     9  H   -0.151522
    10  H   -0.179182
    11  H   -0.151522
    12  H   -0.161986
 Sum of Mulliken charges =   0.00000

 Dipole moment (field-independent basis, Debye):
    X=              0.8587    Y=              2.3445    Z=             -0.0000  Tot=              2.4968

 Test job not archived.
 1\1\GINC-SE454\SP\RHF\Aug-CC-pVDZ\C2H6B1Cl2P1\OHZDE\08-Apr-2025\0\\#t
 hf aug-cc-pvdz iop(5/13=1,5/36=2,99/5=2) pseudo=read geom=check guess=
 (read,tcheck) scf=(maxcycle=1)\\title\\0,1\Cl,0,-0.172763,-1.503929,-1
 .516757\Cl,0,-0.172763,-1.503929,1.516757\B,0,0.022188,-0.611202,0.\P,
 0,0.650575,1.175373,0.\C,0,-0.172763,1.974899,1.458851\C,0,-0.172763,1
 .974899,-1.458851\H,0,0.139117,1.462876,2.369953\H,0,-1.262488,1.95498
 7,1.394238\H,0,0.162126,3.012243,1.52277\H,0,0.139117,1.462876,-2.3699
 53\H,0,0.162126,3.012243,-1.52277\H,0,-1.262488,1.954987,-1.394238\\Ve

 Normal termination of Gaussian 16 at Tue Apr  8 23:43:24 2025.
