 Gaussian 16, Revision C.01,

 ----------------------------------------------------------------------
 #t hf aug-cc-pvdz symm=none int=(grid=ultrafine) guess=(read,tcheck) s
 table=opt
 ----------------------------------------------------------------------
 -----
 title
 -----
 Symbolic Z-matrix:
 Charge =  0 Multiplicity = 2

 SCF Done:  E(UHF) =  -234.761342428     A.U. after   16 cycles
 Normal termination of Gaussian 16 at Tue Apr  8 22:42:37 2025.
 Gaussian 16:  ES64L-G16RevC.01  3-Jul-2019

 ----------------------------------------------------------------------
 #t hf aug-cc-pvdz iop(5/13=1,5/36=2,99/5=2) pseudo=read geom=check gue
 ss=(read,tcheck) scf=(maxcycle=1)
 ----------------------------------------------------------------------
 -----
 title
 -----
 Structure from the checkpoint file:  "BDE49_expt_1467_mol2.chk"
 Charge =  0 Multiplicity = 2

                         Standard orientation:
 ---------------------------------------------------------------------
 Center     Atomic      Atomic             Coordinates (Angstroms)
 Number     Number       Type             X           Y           Z
 ---------------------------------------------------------------------
      1          6           0        2.591172    0.929879   -0.253264
      2          6           0        2.121916   -0.352497    0.342926
      3          1           0        2.386860    1.158200   -1.293828
      4          1           0        3.270975    1.583115    0.279784
      5          6           0        0.751665   -0.827197   -0.174376
      6          1           0        2.094962   -0.269411    1.436931
      7          1           0        2.860191   -1.147470    0.135007
      8          6           0       -0.412918    0.080096    0.237839
      9          1           0        0.565491   -1.844080    0.190785
     10          1           0        0.790056   -0.897815   -1.269076
     11          6           0       -1.771744   -0.387528   -0.294708
     12          1           0       -0.217336    1.101880   -0.109460
     13          1           0       -0.453635    0.135909    1.333807
     14          6           0       -2.931845    0.518448    0.127954
     15          1           0       -1.963353   -1.410803    0.051115
     16          1           0       -1.730744   -0.440774   -1.389530
     17          1           0       -3.021591    0.563269    1.217898
     18          1           0       -3.885426    0.159342   -0.268856
     19          1           0       -2.785930    1.541431   -0.232804
 ---------------------------------------------------------------------

 SCF Done:  E(UHF) =  -234.836228292     A.U. after    2 cycles

 The electronic state is 2-A.
 Alpha  occ. eigenvalues --  -11.23508 -11.23015 -11.22643 -11.22491 -11.22157
 Alpha  occ. eigenvalues --  -11.21998  -1.07781  -1.03126  -0.95591  -0.87475
 Alpha  occ. eigenvalues --   -0.80283  -0.77585  -0.64809  -0.61516  -0.60644
 Alpha  occ. eigenvalues --   -0.57586  -0.56131  -0.54451  -0.52657  -0.49017
 Alpha  occ. eigenvalues --   -0.48173  -0.46478  -0.46083  -0.45399  -0.34760
 Alpha virt. eigenvalues --    0.03651   0.04214   0.04496   0.04618   0.05950
 Alpha virt. eigenvalues --    0.06266   0.06623   0.06981   0.07753   0.08916
 Alpha virt. eigenvalues --    0.09446   0.09554   0.10174   0.12341   0.13878

  Beta  occ. eigenvalues --  -11.23345 -11.22564 -11.22494 -11.22147 -11.21996
  Beta  occ. eigenvalues --  -11.21050  -1.07199  -1.01915  -0.93589  -0.84773
  Beta  occ. eigenvalues --   -0.79297  -0.75912  -0.64537  -0.60728  -0.59724
  Beta  occ. eigenvalues --   -0.57071  -0.54845  -0.54007  -0.52098  -0.48663
  Beta  occ. eigenvalues --   -0.47892  -0.46033  -0.45955  -0.44900
  Beta virt. eigenvalues --    0.03682   0.04237   0.04534   0.04621   0.05924
  Beta virt. eigenvalues --    0.06265   0.06564   0.06894   0.07730   0.08834
  Beta virt. eigenvalues --    0.08932   0.09486   0.09854   0.12319   0.12491

 Mulliken charges and spin densities:
               1          2
     1  C    0.665133   1.413005
     2  C    0.356573  -0.251642
     3  H   -0.326137  -0.115387
     4  H   -0.282482  -0.117789
     5  C    0.184998   0.031106
     6  H   -0.140856   0.006513
     7  H   -0.022932   0.048451
     8  C    0.054113   0.008186
     9  H   -0.144304  -0.002497
    10  H   -0.189782  -0.004870
    11  C    0.228167  -0.003015
    12  H   -0.188016  -0.015768
    13  H   -0.186160   0.003204
    14  C    0.511375   0.000140
    15  H   -0.156081   0.000163
    16  H   -0.147881   0.000149
    17  H   -0.074030  -0.000173
    18  H   -0.059292   0.000007
    19  H   -0.082407   0.000217
 Sum of Mulliken charges =  -0.00000   1.00000

 Dipole moment (field-independent basis, Debye):
    X=              0.0310    Y=             -0.2386    Z=              0.0328  Tot=              0.2428
                          Isotropic Fermi Contact Couplings
        Atom                 a.u.       MegaHertz       Gauss      10(-4) cm-1
     1  C(13)              0.21747     244.48124      87.23699      81.55016
     2  C(13)             -0.06148     -69.11199     -24.66088     -23.05328
     3  H(1)              -0.02501    -111.79281     -39.89046     -37.29007
     4  H(1)              -0.02538    -113.44202     -40.47893     -37.84019
     5  C(13)              0.01745      19.62239       7.00176       6.54533
     6  H(1)               0.00720      32.16302      11.47656      10.72843
     7  H(1)               0.02719     121.53513      43.36676      40.53975
     8  C(13)             -0.00045      -0.50271      -0.17938      -0.16769

 Normal termination of Gaussian 16 at Tue Apr  8 22:42:44 2025.
