 Gaussian 16, Revision C.01,

 ----------------------------------------------------------------------
 #t hf aug-cc-pvdz symm=none int=(grid=ultrafine) guess=(read,tcheck) s
 table=(opt,rrhf)
 ----------------------------------------------------------------------
 -----
 title
 -----
 Symbolic Z-matrix:
 Charge =  0 Multiplicity = 1

 SCF Done:  E(RHF) =  -745.590631426     A.U. after   15 cycles
 Normal termination of Gaussian 16 at Wed Apr  9 00:05:43 2025.
 Gaussian 16:  ES64L-G16RevC.01  3-Jul-2019

 ----------------------------------------------------------------------
 #t hf aug-cc-pvdz iop(5/13=1,5/36=2,99/5=2) pseudo=read geom=check gue
 ss=(read,tcheck) scf=(maxcycle=1)
 ----------------------------------------------------------------------
 -----
 title
 -----
 Structure from the checkpoint file:  "BDE49_nonexpt_2247_mol1.chk"
 Charge =  0 Multiplicity = 1

                         Standard orientation:
 ---------------------------------------------------------------------
 Center     Atomic      Atomic             Coordinates (Angstroms)
 Number     Number       Type             X           Y           Z
 ---------------------------------------------------------------------
      1          8           0        0.649856   -0.669457   -0.227705
      2         14           0        2.023162    0.047369    0.352282
      3          6           0       -0.671767   -0.310949   -0.113259
      4          8           0        2.334525    1.513867   -0.294331
      5          6           0       -1.622650   -1.332038   -0.111920
      6          6           0       -1.073830    1.023466   -0.025209
      7          6           0       -2.430813    1.325527    0.072729
      8          6           0       -3.385811    0.312038    0.077780
      9          6           0       -2.974323   -1.016825   -0.017962
     10          1           0       -3.708678   -1.814590   -0.017577
     11          1           0       -1.286013   -2.359047   -0.185570
     12          1           0       -2.738467    2.362909    0.142196
     13          1           0       -4.439375    0.554087    0.152291
     14          1           0       -0.331515    1.812509   -0.050056
     15          1           0        2.656403    1.562101   -1.198419
     16          8           0        3.218117   -0.990742   -0.055627
     17          1           0        2.970681   -1.900338   -0.238118
     18          1           0        1.887874    0.282533    1.791653
 ---------------------------------------------------------------------

 SCF Done:  E(RHF) =  -745.783045153     A.U. after    2 cycles

 The electronic state is 1-A.
 Alpha  occ. eigenvalues --  -69.14658 -20.58919 -20.58069 -20.57997 -11.31933
 Alpha  occ. eigenvalues --  -11.25232 -11.25223 -11.24381 -11.24300 -11.24142
 Alpha  occ. eigenvalues --   -6.88729  -3.99776  -3.99746  -3.99546  -1.35401
 Alpha  occ. eigenvalues --   -1.31980  -1.30486  -1.14090  -1.01697  -1.00504
 Alpha  occ. eigenvalues --   -0.85127  -0.83687  -0.78459  -0.74106  -0.73157
 Alpha  occ. eigenvalues --   -0.68638  -0.66553  -0.63967  -0.62196  -0.59897
 Alpha  occ. eigenvalues --   -0.59533  -0.58557  -0.56876  -0.55610  -0.54154
 Alpha  occ. eigenvalues --   -0.52392  -0.50945  -0.48968  -0.48725  -0.34686
 Alpha  occ. eigenvalues --   -0.32724
 Alpha virt. eigenvalues --    0.03061   0.03884   0.04061   0.05215   0.05625
 Alpha virt. eigenvalues --    0.05823   0.07103   0.07702   0.07960   0.08406
 Alpha virt. eigenvalues --    0.09323   0.10343   0.11516   0.12762   0.13023

 Mulliken charges:
               1
     1  O   -1.195724
     2  Si   1.908758
     3  C    0.491400
     4  O   -0.804577
     5  C    0.244432
     6  C    0.397110
     7  C    0.590943
     8  C    0.485556
     9  C    0.736566
    10  H   -0.425327
    11  H   -0.535958
    12  H   -0.451216
    13  H   -0.450583
    14  H   -0.589584
    15  H    0.155374
    16  O   -0.773316
    17  H    0.154305
    18  H    0.061842
 Sum of Mulliken charges =   0.00000

 Dipole moment (field-independent basis, Debye):
    X=             -0.8264    Y=             -0.8627    Z=             -0.8621  Tot=              1.4732

 Test job not archived.
 1\1\GINC-SE457\SP\RHF\Aug-CC-pVDZ\C6H8O3Si1\OHZDE\09-Apr-2025\0\\#t hf
  aug-cc-pvdz iop(5/13=1,5/36=2,99/5=2) pseudo=read geom=check guess=(r
 ead,tcheck) scf=(maxcycle=1)\\title\\0,1\O,0,0.649856,-0.669457,-0.227
 705\Si,0,2.023162,0.047369,0.352282\C,0,-0.671767,-0.310949,-0.113259\
 O,0,2.334525,1.513867,-0.294331\C,0,-1.62265,-1.332038,-0.11192\C,0,-1
 .07383,1.023466,-0.025209\C,0,-2.430813,1.325527,0.072729\C,0,-3.38581
 1,0.312038,0.07778\C,0,-2.974323,-1.016825,-0.017962\H,0,-3.708678,-1.
 81459,-0.017577\H,0,-1.286013,-2.359047,-0.18557\H,0,-2.738467,2.36290

 Normal termination of Gaussian 16 at Wed Apr  9 00:05:52 2025.
