 Gaussian 16, Revision C.01,

 ----------------------------------------------------------------------
 #t hf aug-cc-pvdz symm=none int=(grid=ultrafine) guess=(read,tcheck) s
 table=opt
 ----------------------------------------------------------------------
 -----
 title
 -----
 Symbolic Z-matrix:
 Charge =  0 Multiplicity = 2

 SCF Done:  E(UHF) =  -498.031283813     A.U. after   15 cycles

 1\1\GINC-SE218\Stability\UHF\Aug-CC-pVDZ\C4H10P1\OHZDE\08-Apr-2025\0\\
 #t hf aug-cc-pvdz symm=none int=(grid=ultrafine) guess=(read,tcheck) s
 table=opt\\title\\0,2\P,0,0.,0.618722,-0.000004\C,0,-1.418166,-0.59146
 9,0.000006\C,0,1.418166,-0.591469,0.\C,0,2.78876,0.096032,-0.000005\H,
 0,1.318982,-1.243727,-0.877115\H,0,1.318984,-1.243717,0.877123\H,0,2.9
 15665,0.730103,-0.881899\H,0,3.597304,-0.640563,-0.000003\H,0,2.915668
 ,0.730112,0.881881\C,0,-2.78876,0.096032,0.000006\H,0,-1.318981,-1.243
 717,0.877129\H,0,-1.318985,-1.243727,-0.877109\H,0,-2.915664,0.730113,

 Normal termination of Gaussian 16 at Tue Apr  8 22:58:03 2025.
 Gaussian 16:  ES64L-G16RevC.01  3-Jul-2019

 ----------------------------------------------------------------------
 #t hf aug-cc-pvdz iop(5/13=1,5/36=2,99/5=2) pseudo=read geom=check gue
 ss=(read,tcheck) scf=(maxcycle=1)
 ----------------------------------------------------------------------
 -----
 title
 -----
 Structure from the checkpoint file:  "BDE49_expt_1950_mol2.chk"
 Charge =  0 Multiplicity = 2

                         Standard orientation:
 ---------------------------------------------------------------------
 Center     Atomic      Atomic             Coordinates (Angstroms)
 Number     Number       Type             X           Y           Z
 ---------------------------------------------------------------------
      1         15           0        0.000000   -0.618722   -0.000004
      2          6           0        1.418166    0.591469    0.000006
      3          6           0       -1.418166    0.591469   -0.000000
      4          6           0       -2.788760   -0.096032   -0.000005
      5          1           0       -1.318982    1.243727   -0.877115
      6          1           0       -1.318984    1.243717    0.877123
      7          1           0       -2.915665   -0.730103   -0.881899
      8          1           0       -3.597304    0.640563   -0.000003
      9          1           0       -2.915668   -0.730112    0.881881
     10          6           0        2.788760   -0.096032    0.000006
     11          1           0        1.318981    1.243717    0.877129
     12          1           0        1.318985    1.243727   -0.877109
     13          1           0        2.915664   -0.730113    0.881893
     14          1           0        3.597304    0.640563    0.000012
     15          1           0        2.915668   -0.730103   -0.881888
 ---------------------------------------------------------------------

 SCF Done:  E(UHF) =  -498.102181334     A.U. after    2 cycles

 The electronic state is 2-A.
 Alpha  occ. eigenvalues --  -81.24587 -11.23934 -11.23933 -11.23059 -11.23058
 Alpha  occ. eigenvalues --   -7.75034  -4.89777  -4.88732  -4.88375  -1.03368
 Alpha  occ. eigenvalues --   -1.01368  -0.87832  -0.82921  -0.70239  -0.62735
 Alpha  occ. eigenvalues --   -0.60725  -0.59496  -0.55697  -0.53168  -0.51306
 Alpha  occ. eigenvalues --   -0.50923  -0.49351  -0.42992  -0.36488  -0.31723
 Alpha virt. eigenvalues --    0.03553   0.04119   0.04992   0.05060   0.06424
 Alpha virt. eigenvalues --    0.06467   0.06763   0.07758   0.08731   0.09739
 Alpha virt. eigenvalues --    0.10328   0.11710   0.13014   0.13744   0.14636

  Beta  occ. eigenvalues --  -81.23896 -11.24075 -11.24074 -11.23052 -11.23051
  Beta  occ. eigenvalues --   -7.74205  -4.88238  -4.88024  -4.86615  -1.02930
  Beta  occ. eigenvalues --   -1.01371  -0.86938  -0.82884  -0.65721  -0.61628
  Beta  occ. eigenvalues --   -0.60364  -0.59365  -0.55253  -0.52477  -0.50866
  Beta  occ. eigenvalues --   -0.50630  -0.48966  -0.42705  -0.34315
  Beta virt. eigenvalues --    0.03569   0.04125   0.04724   0.05094   0.06234
  Beta virt. eigenvalues --    0.06470   0.06478   0.06769   0.08434   0.08782
  Beta virt. eigenvalues --    0.09781   0.10607   0.11870   0.13084   0.14644

 Mulliken charges and spin densities:
               1          2
     1  P    0.538762   1.226550
     2  C   -0.063695  -0.166956
     3  C   -0.063695  -0.166956
     4  C    0.349889   0.028676
     5  H   -0.172406   0.012340
     6  H   -0.172404   0.012340
     7  H   -0.085207   0.001109
     8  H   -0.040347  -0.001894
     9  H   -0.085210   0.001109
    10  C    0.349885   0.028676
    11  H   -0.172404   0.012340
    12  H   -0.172407   0.012340
    13  H   -0.085207   0.001109
    14  H   -0.040347  -0.001894
    15  H   -0.085206   0.001109
 Sum of Mulliken charges =  -0.00000   1.00000

 Dipole moment (field-independent basis, Debye):
    X=             -0.0000    Y=              1.5205    Z=              0.0000  Tot=              1.5205
                          Isotropic Fermi Contact Couplings
        Atom                 a.u.       MegaHertz       Gauss      10(-4) cm-1
     1  P(31)              0.23348     422.84717     150.88238     141.04663
     2  C(13)             -0.02717     -30.54713     -10.89997     -10.18942
     3  C(13)             -0.02717     -30.54713     -10.89997     -10.18943
     4  C(13)              0.00079       0.88387       0.31539       0.29483
     5  H(1)               0.00958      42.83320      15.28395      14.28762
     6  H(1)               0.00958      42.83320      15.28395      14.28762
     7  H(1)              -0.00037      -1.67139      -0.59639      -0.55751
     8  H(1)              -0.00084      -3.74843      -1.33753      -1.25034

 Normal termination of Gaussian 16 at Tue Apr  8 22:58:07 2025.
