 Gaussian 16, Revision C.01,

 ----------------------------------------------------------------------
 #t hf aug-cc-pvdz symm=none int=(grid=ultrafine) guess=(read,tcheck) s
 table=opt
 ----------------------------------------------------------------------
 -----
 title
 -----
 Symbolic Z-matrix:
 Charge =  0 Multiplicity = 2

 SCF Done:  E(UHF) =  -839.943766518     A.U. after   22 cycles
 Normal termination of Gaussian 16 at Tue Apr  8 23:52:35 2025.
 Gaussian 16:  ES64L-G16RevC.01  3-Jul-2019

 ----------------------------------------------------------------------
 #t hf aug-cc-pvdz iop(5/13=1,5/36=2,99/5=2) pseudo=read geom=check gue
 ss=(read,tcheck) scf=(maxcycle=1)
 ----------------------------------------------------------------------
 -----
 title
 -----
 Structure from the checkpoint file:  "BDE49_nonexpt_1945_mol2.chk"
 Charge =  0 Multiplicity = 2

                         Standard orientation:
 ---------------------------------------------------------------------
 Center     Atomic      Atomic             Coordinates (Angstroms)
 Number     Number       Type             X           Y           Z
 ---------------------------------------------------------------------
      1         14           0        2.123028   -0.264313   -0.091164
      2          6           0        0.346642    0.432270    0.006733
      3          1           0        3.067629    0.670933    0.558475
      4          1           0        2.220779   -1.645983    0.435051
      5          8           0        0.118927    1.618979    0.013987
      6         16           0       -0.950671   -0.835791    0.013767
      7          6           0       -2.443743    0.208848   -0.008455
      8          1           0       -3.036248   -0.029520   -0.890564
      9          1           0       -2.108504    1.246636   -0.044284
     10          1           0       -3.024125    0.032422    0.895781
 ---------------------------------------------------------------------

 SCF Done:  E(UHF) =  -840.031873637     A.U. after    2 cycles

 The electronic state is 2-A.
 Alpha  occ. eigenvalues --  -93.55187 -69.09781 -20.59181 -11.37142 -11.27139
 Alpha  occ. eigenvalues --   -8.85065  -6.85224  -6.19186  -6.18948  -6.18661
 Alpha  occ. eigenvalues --   -3.96573  -3.95697  -3.95647  -1.38207  -1.04732
 Alpha  occ. eigenvalues --   -0.91540  -0.79073  -0.71185  -0.65543  -0.61137
 Alpha  occ. eigenvalues --   -0.60831  -0.58325  -0.56747  -0.50857  -0.47022
 Alpha  occ. eigenvalues --   -0.40781  -0.38096  -0.33942
 Alpha virt. eigenvalues --    0.03717   0.04354   0.05626   0.05779   0.06254
 Alpha virt. eigenvalues --    0.06634   0.07380   0.08827   0.09110   0.10294
 Alpha virt. eigenvalues --    0.12036   0.12689   0.13682   0.14549   0.15146

  Beta  occ. eigenvalues --  -93.55179 -69.09196 -20.58666 -11.37358 -11.27141
  Beta  occ. eigenvalues --   -8.85055  -6.84354  -6.19170  -6.18933  -6.18648
  Beta  occ. eigenvalues --   -3.95277  -3.95230  -3.94339  -1.37166  -1.04650
  Beta  occ. eigenvalues --   -0.91304  -0.77502  -0.69386  -0.65221  -0.60491
  Beta  occ. eigenvalues --   -0.59797  -0.56834  -0.55704  -0.50181  -0.46938
  Beta  occ. eigenvalues --   -0.39890  -0.36935
  Beta virt. eigenvalues --    0.01328   0.03792   0.04620   0.05730   0.05889
  Beta virt. eigenvalues --    0.06540   0.07398   0.07454   0.09448   0.10462
  Beta virt. eigenvalues --    0.11039   0.12645   0.13665   0.13891   0.15194

 Mulliken charges and spin densities:
               1          2
     1  Si   0.381357   0.998430
     2  C   -0.112131  -0.118975
     3  H   -0.024832  -0.002643
     4  H   -0.058654  -0.005094
     5  O   -0.463289   0.120856
     6  S    0.355326   0.004602
     7  C    0.042397   0.002453
     8  H   -0.010462   0.000248
     9  H   -0.097181  -0.000055
    10  H   -0.012531   0.000179
 Sum of Mulliken charges =   0.00000   1.00000

 Dipole moment (field-independent basis, Debye):
    X=             -0.2013    Y=             -1.4913    Z=             -0.0430  Tot=              1.5055
                          Isotropic Fermi Contact Couplings
        Atom                 a.u.       MegaHertz       Gauss      10(-4) cm-1
     1  Si(29)             0.53389    -474.48156    -169.30682    -158.27001
     2  C(13)             -0.01962     -22.06105      -7.87193      -7.35877
     3  H(1)              -0.00071      -3.15538      -1.12592      -1.05252
     4  H(1)              -0.00033      -1.47706      -0.52705      -0.49270
     5  O(17)              0.04243     -25.71843      -9.17698      -8.57875
     6  S(33)              0.00353       1.21390       0.43315       0.40491
     7  C(13)             -0.00045      -0.50831      -0.18138      -0.16955
     8  H(1)               0.00071       3.17504       1.13293       1.05908

 1\1\GINC-SE253\SP\UHF\Aug-CC-pVDZ\C2H5O1S1Si1(2)\OHZDE\08-Apr-2025\0\\
 #t hf aug-cc-pvdz iop(5/13=1,5/36=2,99/5=2) pseudo=read geom=check gue
 ss=(read,tcheck) scf=(maxcycle=1)\\title\\0,2\Si,0,2.123028,-0.264313,
 -0.091164\C,0,0.346642,0.43227,0.006733\H,0,3.067629,0.670933,0.558475
 \H,0,2.220779,-1.645983,0.435051\O,0,0.118927,1.618979,0.013987\S,0,-0
 .950671,-0.835791,0.013767\C,0,-2.443743,0.208848,-0.008455\H,0,-3.036
 248,-0.02952,-0.890564\H,0,-2.108504,1.246636,-0.044284\H,0,-3.024125,
 0.032422,0.895781\\Version=ES64L-G16RevC.01\State=2-A\HF=-840.0318736\

 Normal termination of Gaussian 16 at Tue Apr  8 23:52:39 2025.
