 Gaussian 16, Revision C.01,

 ----------------------------------------------------------------------
 #t hf aug-cc-pvdz symm=none int=(grid=ultrafine) guess=(read,tcheck) s
 table=(opt,rrhf)
 ----------------------------------------------------------------------
 -----
 title
 -----
 Symbolic Z-matrix:
 Charge =  0 Multiplicity = 1

 SCF Done:  E(RHF) =  -583.499593058     A.U. after   12 cycles
 Normal termination of Gaussian 16 at Wed Apr  9 00:43:26 2025.
 Gaussian 16:  ES64L-G16RevC.01  3-Jul-2019

 ----------------------------------------------------------------------
 #t hf aug-cc-pvdz iop(5/13=1,5/36=2,99/5=2) pseudo=read geom=check gue
 ss=(read,tcheck) scf=(maxcycle=1)
 ----------------------------------------------------------------------
 -----
 title
 -----
 Structure from the checkpoint file:  "BDE49_nonexpt_773_mol1.chk"
 Charge =  0 Multiplicity = 1

                         Standard orientation:
 ---------------------------------------------------------------------
 Center     Atomic      Atomic             Coordinates (Angstroms)
 Number     Number       Type             X           Y           Z
 ---------------------------------------------------------------------
      1         14           0        0.450572    1.233709   -0.140141
      2          5           0        1.765564   -0.321603   -0.027437
      3          8           0        2.917480   -0.323915    0.716202
      4          8           0        1.482940   -1.442541   -0.749895
      5          6           0       -1.319782    0.672478   -0.500880
      6          6           0       -1.903288   -0.310874    0.529546
      7          1           0       -1.323427    0.209295   -1.495163
      8          1           0       -1.958274    1.561162   -0.575760
      9          6           0       -3.340612   -0.736624    0.210867
     10          1           0       -1.875478    0.142506    1.527664
     11          1           0       -1.266565   -1.200983    0.578878
     12          1           0       -4.011744    0.127635    0.187254
     13          1           0       -3.724597   -1.437219    0.958227
     14          1           0       -3.396978   -1.226339   -0.766156
     15          1           0        3.052264    0.480686    1.223063
     16          1           0        2.161575   -2.122978   -0.646057
     17          1           0        0.894449    2.182286   -1.199525
     18          1           0        0.491668    2.001797    1.139079
 ---------------------------------------------------------------------

 SCF Done:  E(RHF) =  -583.621647908     A.U. after    2 cycles

 The electronic state is 1-A.
 Alpha  occ. eigenvalues --  -69.04119 -20.59061 -20.58354 -11.23194 -11.22079
 Alpha  occ. eigenvalues --  -11.21624  -7.66065  -6.79598  -3.90373  -3.90357
 Alpha  occ. eigenvalues --   -3.90308  -1.34960  -1.31116  -1.04265  -0.91878
 Alpha  occ. eigenvalues --   -0.80227  -0.78878  -0.75575  -0.68180  -0.62969
 Alpha  occ. eigenvalues --   -0.62092  -0.59413  -0.58672  -0.57160  -0.54007
 Alpha  occ. eigenvalues --   -0.53729  -0.52542  -0.48356  -0.47322  -0.45665
 Alpha  occ. eigenvalues --   -0.42526  -0.40529
 Alpha virt. eigenvalues --    0.03162   0.04196   0.04470   0.04908   0.05853
 Alpha virt. eigenvalues --    0.06332   0.06576   0.07030   0.07160   0.08537
 Alpha virt. eigenvalues --    0.08840   0.09065   0.09841   0.10394   0.10550

 Mulliken charges:
               1
     1  Si  -0.285984
     2  B    0.946254
     3  O   -0.469835
     4  O   -0.551095
     5  C    0.176963
     6  C    0.049805
     7  H   -0.161418
     8  H   -0.215189
     9  C    0.439346
    10  H   -0.124902
    11  H   -0.187172
    12  H   -0.067667
    13  H   -0.075341
    14  H   -0.054453
    15  H    0.187270
    16  H    0.165424
    17  H    0.041933
    18  H    0.186061
 Sum of Mulliken charges =  -0.00000

 Dipole moment (field-independent basis, Debye):
    X=              0.4168    Y=              0.0809    Z=              0.7943  Tot=              0.9007

 Test job not archived.
 1\1\GINC-SE345\SP\RHF\Aug-CC-pVDZ\C3H11B1O2Si1\OHZDE\09-Apr-2025\0\\#t
  hf aug-cc-pvdz iop(5/13=1,5/36=2,99/5=2) pseudo=read geom=check guess
 =(read,tcheck) scf=(maxcycle=1)\\title\\0,1\Si,0,0.450572,1.233709,-0.
 140141\B,0,1.765564,-0.321603,-0.027437\O,0,2.91748,-0.323915,0.716202
 \O,0,1.48294,-1.442541,-0.749895\C,0,-1.319782,0.672478,-0.50088\C,0,-
 1.903288,-0.310874,0.529546\H,0,-1.323427,0.209295,-1.495163\H,0,-1.95
 8274,1.561162,-0.57576\C,0,-3.340612,-0.736624,0.210867\H,0,-1.875478,
 0.142506,1.527664\H,0,-1.266565,-1.200983,0.578878\H,0,-4.011744,0.127

 Normal termination of Gaussian 16 at Wed Apr  9 00:43:32 2025.
