 Gaussian 16, Revision C.01,

 ----------------------------------------------------------------------
 #t hf aug-cc-pvdz symm=none int=(grid=ultrafine) guess=(read,tcheck) s
 table=(opt,rrhf)
 ----------------------------------------------------------------------
 -----
 title
 -----
 Symbolic Z-matrix:
 Charge =  0 Multiplicity = 1

 SCF Done:  E(RHF) =  -636.660794835     A.U. after   15 cycles
 Normal termination of Gaussian 16 at Wed Apr  9 00:43:08 2025.
 Gaussian 16:  ES64L-G16RevC.01  3-Jul-2019

 ----------------------------------------------------------------------
 #t hf aug-cc-pvdz iop(5/13=1,5/36=2,99/5=2) pseudo=read geom=check gue
 ss=(read,tcheck) scf=(maxcycle=1)
 ----------------------------------------------------------------------
 -----
 title
 -----
 Structure from the checkpoint file:  "BDE49_nonexpt_737_mol1.chk"
 Charge =  0 Multiplicity = 1

                         Standard orientation:
 ---------------------------------------------------------------------
 Center     Atomic      Atomic             Coordinates (Angstroms)
 Number     Number       Type             X           Y           Z
 ---------------------------------------------------------------------
      1          6           0       -1.051348    0.127297   -0.229450
      2          5           0        1.959467    0.073343    0.107534
      3          6           0        3.107201   -0.840165    0.674087
      4          1           0        2.991908   -0.859003    1.768445
      5          1           0        4.099140   -0.412773    0.489111
      6          1           0        3.101682   -1.879384    0.336731
      7          8           0       -1.138672    1.324790   -0.372540
      8          6           0       -2.192323   -0.720247    0.324057
      9          6           0        2.058418    1.634730    0.148808
     10          1           0        2.572780    1.953525   -0.770960
     11          1           0        2.675696    1.991264    0.980080
     12          1           0        1.094544    2.147626    0.150598
     13          6           0       -3.482811    0.068088    0.538422
     14          1           0       -1.840550   -1.165501    1.262761
     15          1           0       -2.347009   -1.564575   -0.358017
     16          1           0       -3.321114    0.902901    1.222157
     17          1           0       -4.259147   -0.577245    0.956013
     18          1           0       -3.849231    0.483393   -0.402428
     19         15           0        0.492612   -0.773744   -0.788963
     20          1           0        0.369345   -1.997321   -0.092941
 ---------------------------------------------------------------------

 SCF Done:  E(RHF) =  -636.772782249     A.U. after    2 cycles

 The electronic state is 1-A.
 Alpha  occ. eigenvalues --  -81.24371 -20.56902 -11.35220 -11.25506 -11.23147
 Alpha  occ. eigenvalues --  -11.21530 -11.20235  -7.75160  -7.62514  -4.89255
 Alpha  occ. eigenvalues --   -4.89176  -4.88873  -1.36027  -1.05008  -0.97023
 Alpha  occ. eigenvalues --   -0.92303  -0.90968  -0.81482  -0.73050  -0.65972
 Alpha  occ. eigenvalues --   -0.64089  -0.62979  -0.59624  -0.57745  -0.56542
 Alpha  occ. eigenvalues --   -0.54870  -0.54718  -0.53774  -0.52936  -0.51893
 Alpha  occ. eigenvalues --   -0.49940  -0.47491  -0.45081  -0.39325  -0.34208
 Alpha virt. eigenvalues --    0.02842   0.03934   0.04687   0.04851   0.05757
 Alpha virt. eigenvalues --    0.05963   0.06071   0.06946   0.07326   0.07961
 Alpha virt. eigenvalues --    0.08301   0.08462   0.08946   0.09645   0.10303

 Mulliken charges:
               1
     1  C   -0.108091
     2  B    0.577868
     3  C    0.507196
     4  H   -0.099644
     5  H   -0.258119
     6  H   -0.351304
     7  O   -0.534469
     8  C   -0.008456
     9  C    0.529572
    10  H   -0.104705
    11  H   -0.246039
    12  H   -0.266096
    13  C    0.516536
    14  H   -0.016842
    15  H   -0.037968
    16  H   -0.057166
    17  H   -0.037411
    18  H   -0.062382
    19  P   -0.199782
    20  H    0.257304
 Sum of Mulliken charges =  -0.00000

 Dipole moment (field-independent basis, Debye):
    X=              0.4432    Y=             -2.5375    Z=              1.4662  Tot=              2.9640

 Test job not archived.
 1\1\GINC-SE126\SP\RHF\Aug-CC-pVDZ\C5H12B1O1P1\OHZDE\09-Apr-2025\0\\#t
 hf aug-cc-pvdz iop(5/13=1,5/36=2,99/5=2) pseudo=read geom=check guess=
 (read,tcheck) scf=(maxcycle=1)\\title\\0,1\C,0,-1.051348,0.127297,-0.2
 2945\B,0,1.959467,0.073343,0.107534\C,0,3.107201,-0.840165,0.674087\H,
 0,2.991908,-0.859003,1.768445\H,0,4.09914,-0.412773,0.489111\H,0,3.101
 682,-1.879384,0.336731\O,0,-1.138672,1.32479,-0.37254\C,0,-2.192323,-0
 .720247,0.324057\C,0,2.058418,1.63473,0.148808\H,0,2.57278,1.953525,-0
 .77096\H,0,2.675696,1.991264,0.98008\H,0,1.094544,2.147626,0.150598\C,

 Normal termination of Gaussian 16 at Wed Apr  9 00:43:18 2025.
