 Gaussian 16, Revision C.01,

 ----------------------------------------------------------------------
 #t hf aug-cc-pvdz symm=none int=(grid=ultrafine) guess=(read,tcheck) s
 table=opt
 ----------------------------------------------------------------------
 -----
 title
 -----
 Symbolic Z-matrix:
 Charge =  0 Multiplicity = 2

 SCF Done:  E(UHF) =  -241.828289932     A.U. after   14 cycles
 Normal termination of Gaussian 16 at Wed Apr  9 00:29:52 2025.
 Gaussian 16:  ES64L-G16RevC.01  3-Jul-2019

 ----------------------------------------------------------------------
 #t hf aug-cc-pvdz iop(5/13=1,5/36=2,99/5=2) pseudo=read geom=check gue
 ss=(read,tcheck) scf=(maxcycle=1)
 ----------------------------------------------------------------------
 -----
 title
 -----
 Structure from the checkpoint file:  "BDE49_nonexpt_373_mol2.chk"
 Charge =  0 Multiplicity = 2

                         Standard orientation:
 ---------------------------------------------------------------------
 Center     Atomic      Atomic             Coordinates (Angstroms)
 Number     Number       Type             X           Y           Z
 ---------------------------------------------------------------------
      1          9           0       -2.188181   -0.565528   -0.000001
      2          5           0       -1.613410    0.622681   -0.000000
      3          6           0       -0.062913    0.831468    0.000001
      4          6           0        0.800032   -0.447097   -0.000000
      5          1           0        0.179386    1.465075   -0.865359
      6          6           0        2.302654   -0.153439    0.000001
      7          1           0        0.544989   -1.055783   -0.873684
      8          1           0        0.544988   -1.055785    0.873683
      9          1           0        2.592581    0.424688   -0.882953
     10          1           0        2.888131   -1.077198   -0.000000
     11          1           0        0.179385    1.465073    0.865362
     12          1           0        2.592580    0.424686    0.882956
 ---------------------------------------------------------------------

 SCF Done:  E(UHF) =  -241.916248567     A.U. after    2 cycles

 The electronic state is 2-A.
 Alpha  occ. eigenvalues --  -26.13594 -11.23980 -11.22843 -11.22787  -7.69309
 Alpha  occ. eigenvalues --   -1.67894  -1.05654  -0.94183  -0.84366  -0.81506
 Alpha  occ. eigenvalues --   -0.76641  -0.73848  -0.63504  -0.61266  -0.55808
 Alpha  occ. eigenvalues --   -0.54531  -0.50989  -0.48668  -0.48113  -0.34529
 Alpha virt. eigenvalues --    0.03473   0.04463   0.04540   0.04699   0.06467
 Alpha virt. eigenvalues --    0.06559   0.06979   0.07438   0.09288   0.09907
 Alpha virt. eigenvalues --    0.11302   0.12325   0.12781   0.14299   0.15871

  Beta  occ. eigenvalues --  -26.13257 -11.23883 -11.22830 -11.22497  -7.67433
  Beta  occ. eigenvalues --   -1.66906  -1.05189  -0.93417  -0.83144  -0.81192
  Beta  occ. eigenvalues --   -0.73893  -0.73716  -0.63427  -0.59786  -0.55223
  Beta  occ. eigenvalues --   -0.54432  -0.48944  -0.48065  -0.47858
  Beta virt. eigenvalues --    0.03037   0.04219   0.04607   0.04702   0.06519
  Beta virt. eigenvalues --    0.06753   0.06954   0.07497   0.09115   0.09437
  Beta virt. eigenvalues --    0.10096   0.12019   0.14186   0.14713   0.14794

 Mulliken charges and spin densities:
               1          2
     1  F   -0.388766  -0.049018
     2  B    0.368453   1.040026
     3  C    0.379464   0.044142
     4  C   -0.086510   0.009132
     5  H   -0.115030  -0.019951
     6  C    0.422340  -0.004524
     7  H   -0.131173  -0.000442
     8  H   -0.131171  -0.000442
     9  H   -0.064346  -0.000191
    10  H   -0.073881   0.001411
    11  H   -0.115032  -0.019951
    12  H   -0.064348  -0.000191
 Sum of Mulliken charges =  -0.00000   1.00000

 Dipole moment (field-independent basis, Debye):
    X=              1.5411    Y=              0.6140    Z=              0.0000  Tot=              1.6589
                          Isotropic Fermi Contact Couplings
        Atom                 a.u.       MegaHertz       Gauss      10(-4) cm-1
     1  F(19)              0.07635     321.22010     114.61932     107.14749
     2  B(11)              0.33352     478.39463     170.70310     159.57527
     3  C(13)              0.06900      77.56629      27.67758      25.87333
     4  C(13)              0.01792      20.14134       7.18693       6.71843
     5  H(1)              -0.00144      -6.42030      -2.29092      -2.14158
     6  C(13)              0.00299       3.35820       1.19829       1.12017
     7  H(1)              -0.00063      -2.82364      -1.00755      -0.94187
     8  H(1)              -0.00063      -2.82365      -1.00755      -0.94187

 Normal termination of Gaussian 16 at Wed Apr  9 00:29:55 2025.
