 Gaussian 16, Revision C.01,

 ----------------------------------------------------------------------
 #t hf aug-cc-pvdz symm=none int=(grid=ultrafine) guess=(read,tcheck) s
 table=opt
 ----------------------------------------------------------------------
 -----
 title
 -----
 Symbolic Z-matrix:
 Charge =  0 Multiplicity = 2

 SCF Done:  E(UHF) =  -614.022178572     A.U. after   21 cycles
 Normal termination of Gaussian 16 at Wed Apr  9 00:31:00 2025.
 Gaussian 16:  ES64L-G16RevC.01  3-Jul-2019

 ----------------------------------------------------------------------
 #t hf aug-cc-pvdz iop(5/13=1,5/36=2,99/5=2) pseudo=read geom=check gue
 ss=(read,tcheck) scf=(maxcycle=1)
 ----------------------------------------------------------------------
 -----
 title
 -----
 Structure from the checkpoint file:  "BDE49_nonexpt_395_mol2.chk"
 Charge =  0 Multiplicity = 2

                         Standard orientation:
 ---------------------------------------------------------------------
 Center     Atomic      Atomic             Coordinates (Angstroms)
 Number     Number       Type             X           Y           Z
 ---------------------------------------------------------------------
      1          9           0        2.940208   -0.215464    0.000003
      2          5           0        1.842012    0.506734    0.000005
      3          7           0        0.546610   -0.013544    0.000001
      4          6           0       -0.656371   -0.002577   -0.000001
      5         16           0       -2.222499   -0.030264   -0.000003
 ---------------------------------------------------------------------

 SCF Done:  E(UHF) =  -614.121166869     A.U. after    2 cycles

 The electronic state is 2-A.
 Alpha  occ. eigenvalues --  -93.56603 -26.16046 -15.68620 -11.42711  -8.86536
 Alpha  occ. eigenvalues --   -7.75936  -6.20807  -6.20235  -6.20122  -1.70495
 Alpha  occ. eigenvalues --   -1.27043  -1.06034  -0.90625  -0.84097  -0.77381
 Alpha  occ. eigenvalues --   -0.76463  -0.62554  -0.59953  -0.59256  -0.43807
 Alpha  occ. eigenvalues --   -0.39761  -0.35411
 Alpha virt. eigenvalues --    0.02730   0.04657   0.05195   0.05352   0.06249
 Alpha virt. eigenvalues --    0.07662   0.09791   0.12614   0.12925   0.14303
 Alpha virt. eigenvalues --    0.14614   0.15165   0.16506   0.19924   0.21805

  Beta  occ. eigenvalues --  -93.56553 -26.15705 -15.68816 -11.42443  -8.86480
  Beta  occ. eigenvalues --   -7.73783  -6.20804  -6.20128  -6.19959  -1.69442
  Beta  occ. eigenvalues --   -1.26885  -1.05873  -0.89206  -0.82398  -0.76450
  Beta  occ. eigenvalues --   -0.74876  -0.61904  -0.59436  -0.59267  -0.39936
  Beta  occ. eigenvalues --   -0.39777
  Beta virt. eigenvalues --    0.02859   0.04150   0.04801   0.05362   0.07017
  Beta virt. eigenvalues --    0.07401   0.08006   0.12541   0.13001   0.13014
  Beta virt. eigenvalues --    0.14789   0.14997   0.15555   0.18234   0.21585

 Mulliken charges and spin densities:
               1          2
     1  F   -0.392309  -0.027036
     2  B    0.409581   0.998530
     3  N    0.006098  -0.134940
     4  C   -0.348321   0.103858
     5  S    0.324951   0.059587
 Sum of Mulliken charges =  -0.00000   1.00000

 Dipole moment (field-independent basis, Debye):
    X=             -0.4108    Y=              0.4274    Z=              0.0000  Tot=              0.5927
                          Isotropic Fermi Contact Couplings
        Atom                 a.u.       MegaHertz       Gauss      10(-4) cm-1
     1  F(19)              0.09306     391.52940     139.70743     130.60015
     2  B(11)              0.44235     634.48971     226.40171     211.64299
     3  N(14)              0.04378      14.14654       5.04784       4.71878
     4  C(13)              0.02098      23.59105       8.41787       7.86913
     5  S(33)              0.01601       5.50019       1.96260       1.83467
 --------------------------------------------------------
       Center         ----  Spin Dipole Couplings  ----
                      3XX-RR        3YY-RR        3ZZ-RR

 Normal termination of Gaussian 16 at Wed Apr  9 00:31:02 2025.
