 Gaussian 16, Revision C.01,

 ----------------------------------------------------------------------
 #t hf aug-cc-pvdz symm=none int=(grid=ultrafine) guess=(read,tcheck) s
 table=opt
 ----------------------------------------------------------------------
 -----
 title
 -----
 Symbolic Z-matrix:
 Charge =  0 Multiplicity = 2

 SCF Done:  E(UHF) =  -419.951969429     A.U. after   16 cycles
 Normal termination of Gaussian 16 at Tue Apr  8 23:10:46 2025.
 Gaussian 16:  ES64L-G16RevC.01  3-Jul-2019

 ----------------------------------------------------------------------
 #t hf aug-cc-pvdz iop(5/13=1,5/36=2,99/5=2) pseudo=read geom=check gue
 ss=(read,tcheck) scf=(maxcycle=1)
 ----------------------------------------------------------------------
 -----
 title
 -----
 Structure from the checkpoint file:  "BDE49_expt_818_mol2.chk"
 Charge =  0 Multiplicity = 2

                         Standard orientation:
 ---------------------------------------------------------------------
 Center     Atomic      Atomic             Coordinates (Angstroms)
 Number     Number       Type             X           Y           Z
 ---------------------------------------------------------------------
      1         15           0        1.228900   -0.097029   -0.085473
      2          6           0       -0.471988    0.645081    0.098766
      3          1           0        1.058438   -1.081168    0.933003
      4          6           0       -1.631758   -0.349557   -0.062002
      5          1           0       -0.551519    1.443869   -0.644928
      6          1           0       -0.526663    1.128363    1.081612
      7          1           0       -1.598646   -0.845926   -1.035386
      8          1           0       -2.595839    0.161980    0.019345
      9          1           0       -1.596801   -1.124827    0.707869
 ---------------------------------------------------------------------

 SCF Done:  E(UHF) =  -419.996671020     A.U. after    2 cycles

 The electronic state is 2-A.
 Alpha  occ. eigenvalues --  -81.25751 -11.24654 -11.23772  -7.76188  -4.90923
 Alpha  occ. eigenvalues --   -4.89798  -4.89513  -1.02999  -0.86815  -0.74430
 Alpha  occ. eigenvalues --   -0.62369  -0.57919  -0.53615  -0.51193  -0.46521
 Alpha  occ. eigenvalues --   -0.38433  -0.33880
 Alpha virt. eigenvalues --    0.03514   0.05045   0.05226   0.05622   0.07327
 Alpha virt. eigenvalues --    0.07757   0.10245   0.11439   0.11938   0.12798
 Alpha virt. eigenvalues --    0.14753   0.15903   0.16765   0.17091   0.17713

  Beta  occ. eigenvalues --  -81.25059 -11.24799 -11.23679  -7.75359  -4.89301
  Beta  occ. eigenvalues --   -4.89154  -4.87766  -1.02595  -0.85882  -0.69420
  Beta  occ. eigenvalues --   -0.61904  -0.57179  -0.53019  -0.50770  -0.45999
  Beta  occ. eigenvalues --   -0.36181
  Beta virt. eigenvalues --    0.03377   0.03969   0.05100   0.05701   0.06201
  Beta virt. eigenvalues --    0.07448   0.07832   0.10352   0.11827   0.12997
  Beta virt. eigenvalues --    0.13477   0.15248   0.16509   0.16881   0.17288

 Mulliken charges and spin densities:
               1          2
     1  P    0.331371   1.272380
     2  C   -0.192833  -0.124237
     3  H   -0.007771  -0.169358
     4  C    0.307099   0.022798
     5  H   -0.118740  -0.002769
     6  H   -0.079175   0.007522
     7  H   -0.078917  -0.005623
     8  H   -0.064515   0.003541
     9  H   -0.096518  -0.004254
 Sum of Mulliken charges =   0.00000   1.00000

 Dipole moment (field-independent basis, Debye):
    X=             -1.2945    Y=              0.1943    Z=              0.4389  Tot=              1.3806
                          Isotropic Fermi Contact Couplings
        Atom                 a.u.       MegaHertz       Gauss      10(-4) cm-1
     1  P(31)              0.22665     410.48672     146.47187     136.92363
     2  C(13)             -0.02877     -32.33860     -11.53922     -10.78700
     3  H(1)              -0.01470     -65.72326     -23.45169     -21.92292
     4  C(13)              0.02439      27.41580       9.78264       9.14493
     5  H(1)               0.00044       1.94575       0.69429       0.64903
     6  H(1)               0.01066      47.63424      16.99708      15.88907
     7  H(1)              -0.00066      -2.95860      -1.05570      -0.98688
     8  H(1)               0.00071       3.17468       1.13280       1.05896

 Normal termination of Gaussian 16 at Tue Apr  8 23:10:48 2025.
