 Gaussian 16, Revision C.01,

 ----------------------------------------------------------------------
 #t hf aug-cc-pvdz symm=none int=(grid=ultrafine) guess=(read,tcheck) s
 table=(opt,rrhf)
 ----------------------------------------------------------------------
 -----
 title
 -----
 Symbolic Z-matrix:
 Charge =  0 Multiplicity = 1

 SCF Done:  E(RHF) =  -585.098772588     A.U. after   15 cycles
 Normal termination of Gaussian 16 at Wed Apr  9 00:45:04 2025.
 Gaussian 16:  ES64L-G16RevC.01  3-Jul-2019

 ----------------------------------------------------------------------
 #t hf aug-cc-pvdz iop(5/13=1,5/36=2,99/5=2) pseudo=read geom=check gue
 ss=(read,tcheck) scf=(maxcycle=1)
 ----------------------------------------------------------------------
 -----
 title
 -----
 Structure from the checkpoint file:  "BDE49_nonexpt_804_mol1.chk"
 Charge =  0 Multiplicity = 1

                         Standard orientation:
 ---------------------------------------------------------------------
 Center     Atomic      Atomic             Coordinates (Angstroms)
 Number     Number       Type             X           Y           Z
 ---------------------------------------------------------------------
      1          6           0        0.308720   -0.328606    0.548319
      2          6           0        1.080351   -1.265516   -0.151380
      3          6           0        2.337305   -0.931999   -0.649053
      4          6           0        2.850514    0.349616   -0.460221
      5          6           0        2.094663    1.292225    0.232923
      6          6           0        0.837770    0.956027    0.730676
      7          5           0       -2.622888    1.553248   -0.806863
      8          1           0        2.918162   -1.676428   -1.182602
      9          1           0        3.829927    0.609249   -0.845442
     10          1           0        2.485386    2.291323    0.392378
     11          1           0        0.262126    1.696807    1.276377
     12          1           0        0.692648   -2.267993   -0.302637
     13          6           0       -1.068421   -0.682483    1.056799
     14         14           0       -2.423422   -0.371321   -0.245135
     15          1           0       -2.284551    2.456758   -0.105859
     16          1           0       -3.149750    1.834505   -1.838864
     17          1           0       -2.185133   -1.267476   -1.406095
     18          1           0       -3.749019   -0.750299    0.332732
     19          1           0       -1.312073   -0.094102    1.946927
     20          1           0       -1.110793   -1.735682    1.350904
 ---------------------------------------------------------------------

 SCF Done:  E(RHF) =  -585.207413769     A.U. after    2 cycles

 The electronic state is 1-A.
 Alpha  occ. eigenvalues --  -69.04786 -11.25776 -11.24634 -11.24609 -11.24105
 Alpha  occ. eigenvalues --  -11.24067 -11.24053 -11.23036  -7.62417  -6.80232
 Alpha  occ. eigenvalues --   -3.91010  -3.90980  -3.90938  -1.14536  -1.03943
 Alpha  occ. eigenvalues --   -1.00892  -0.92868  -0.82945  -0.80259  -0.72126
 Alpha  occ. eigenvalues --   -0.69844  -0.64454  -0.63842  -0.63182  -0.59026
 Alpha  occ. eigenvalues --   -0.57828  -0.55197  -0.52735  -0.50421  -0.49474
 Alpha  occ. eigenvalues --   -0.49091  -0.46471  -0.45047  -0.40802  -0.34110
 Alpha  occ. eigenvalues --   -0.32145
 Alpha virt. eigenvalues --    0.03233   0.03452   0.03926   0.04209   0.04707
 Alpha virt. eigenvalues --    0.05316   0.05645   0.06399   0.06999   0.07561
 Alpha virt. eigenvalues --    0.07790   0.08622   0.09327   0.09683   0.09840

 Mulliken charges:
               1
     1  C    0.605047
     2  C    0.570021
     3  C    0.216003
     4  C    0.652317
     5  C    0.184550
     6  C    0.748457
     7  B   -0.678250
     8  H   -0.454910
     9  H   -0.437631
    10  H   -0.463211
    11  H   -0.619820
    12  H   -0.621080
    13  C    0.022177
    14  Si   0.014717
    15  H    0.370912
    16  H    0.410204
    17  H    0.109885
    18  H    0.034460
    19  H   -0.306967
    20  H   -0.356879
 Sum of Mulliken charges =  -0.00000

 Dipole moment (field-independent basis, Debye):
    X=              0.1750    Y=              0.1607    Z=              0.3573  Tot=              0.4291

 Test job not archived.
 1\1\GINC-SE368\SP\RHF\Aug-CC-pVDZ\C7H11B1Si1\OHZDE\09-Apr-2025\0\\#t h
 f aug-cc-pvdz iop(5/13=1,5/36=2,99/5=2) pseudo=read geom=check guess=(
 read,tcheck) scf=(maxcycle=1)\\title\\0,1\C,0,0.30872,-0.328606,0.5483
 19\C,0,1.080351,-1.265516,-0.15138\C,0,2.337305,-0.931999,-0.649053\C,
 0,2.850514,0.349616,-0.460221\C,0,2.094663,1.292225,0.232923\C,0,0.837
 77,0.956027,0.730676\B,0,-2.622888,1.553248,-0.806863\H,0,2.918162,-1.
 676428,-1.182602\H,0,3.829927,0.609249,-0.845442\H,0,2.485386,2.291323
 ,0.392378\H,0,0.262126,1.696807,1.276377\H,0,0.692648,-2.267993,-0.302

 Normal termination of Gaussian 16 at Wed Apr  9 00:45:13 2025.
