 Gaussian 16, Revision C.01,

 ----------------------------------------------------------------------
 #t hf aug-cc-pvdz symm=none int=(grid=ultrafine) guess=(read,tcheck) s
 table=(opt,rrhf)
 ----------------------------------------------------------------------
 -----
 title
 -----
 Symbolic Z-matrix:
 Charge =  0 Multiplicity = 1

 SCF Done:  E(RHF) =  -524.330860431     A.U. after   12 cycles
 Normal termination of Gaussian 16 at Tue Apr  8 22:45:31 2025.
 Gaussian 16:  ES64L-G16RevC.01  3-Jul-2019

 ----------------------------------------------------------------------
 #t hf aug-cc-pvdz iop(5/13=1,5/36=2,99/5=2) pseudo=read geom=check gue
 ss=(read,tcheck) scf=(maxcycle=1)
 ----------------------------------------------------------------------
 -----
 title
 -----
 Structure from the checkpoint file:  "BDE49_expt_1543_mol1.chk"
 Charge =  0 Multiplicity = 1

                         Standard orientation:
 ---------------------------------------------------------------------
 Center     Atomic      Atomic             Coordinates (Angstroms)
 Number     Number       Type             X           Y           Z
 ---------------------------------------------------------------------
      1         14           0        0.760755   -0.022833    0.018509
      2          6           0        1.056178    1.566978    0.986844
      3          1           0        1.978891    1.502162    1.571986
      4          1           0        0.237934    1.769219    1.684174
      5          1           0        1.148557    2.430426    0.320485
      6          6           0        0.567278   -1.469975    1.205871
      7          6           0        2.212206   -0.334671   -1.143738
      8          1           0        1.443347   -1.569087    1.854353
      9          1           0        0.447017   -2.413795    0.664908
     10          1           0       -0.310626   -1.339791    1.844860
     11          1           0        3.145866   -0.454849   -0.585290
     12          1           0        2.349790    0.496343   -1.842519
     13          1           0        2.061941   -1.243712   -1.734412
     14          6           0       -0.819940    0.148141   -1.035181
     15          6           0       -2.043573    0.515995   -0.251827
     16          6           0       -3.055833   -0.296802    0.048344
     17          1           0       -3.081170   -1.327036   -0.294700
     18          1           0       -3.896887    0.040693    0.643235
     19          1           0       -0.975137   -0.798976   -1.565055
     20          1           0       -0.618913    0.909823   -1.799880
     21          1           0       -2.079077    1.540251    0.116851
 ---------------------------------------------------------------------

 SCF Done:  E(RHF) =  -524.433307992     A.U. after    2 cycles

 The electronic state is 1-A.
 Alpha  occ. eigenvalues --  -69.04461 -11.24513 -11.22384 -11.21681 -11.20775
 Alpha  occ. eigenvalues --  -11.20743 -11.20420  -6.79646  -3.90427  -3.90420
 Alpha  occ. eigenvalues --   -3.90412  -1.05315  -0.96079  -0.91708  -0.91509
 Alpha  occ. eigenvalues --   -0.91259  -0.75484  -0.64194  -0.61555  -0.58887
 Alpha  occ. eigenvalues --   -0.57130  -0.56481  -0.55872  -0.54495  -0.53969
 Alpha  occ. eigenvalues --   -0.52989  -0.52344  -0.49241  -0.44897  -0.42761
 Alpha  occ. eigenvalues --   -0.42620  -0.34256
 Alpha virt. eigenvalues --    0.02863   0.04239   0.04395   0.04627   0.05942
 Alpha virt. eigenvalues --    0.06262   0.06527   0.06645   0.06900   0.08164
 Alpha virt. eigenvalues --    0.08818   0.08975   0.09265   0.09491   0.11706

 Mulliken charges:
               1
     1  Si   0.933637
     2  C    0.571898
     3  H   -0.302411
     4  H   -0.280751
     5  H   -0.294831
     6  C    0.586803
     7  C    0.615889
     8  H   -0.307668
     9  H   -0.288717
    10  H   -0.247799
    11  H   -0.292903
    12  H   -0.284961
    13  H   -0.275059
    14  C    0.468755
    15  C    0.590490
    16  C    0.551406
    17  H   -0.359442
    18  H   -0.326303
    19  H   -0.362888
    20  H   -0.184874
    21  H   -0.510273
 Sum of Mulliken charges =  -0.00000

 Dipole moment (field-independent basis, Debye):
    X=              0.6391    Y=              0.1033    Z=             -0.0908  Tot=              0.6537

 Test job not archived.
 1\1\GINC-SE127\SP\RHF\Aug-CC-pVDZ\C6H14Si1\OHZDE\08-Apr-2025\0\\#t hf
 aug-cc-pvdz iop(5/13=1,5/36=2,99/5=2) pseudo=read geom=check guess=(re
 ad,tcheck) scf=(maxcycle=1)\\title\\0,1\Si,0,0.760755,-0.022833,0.0185
 09\C,0,1.056178,1.566978,0.986844\H,0,1.978891,1.502162,1.571986\H,0,0
 .237934,1.769219,1.684174\H,0,1.148557,2.430426,0.320485\C,0,0.567278,
 -1.469975,1.205871\C,0,2.212206,-0.334671,-1.143738\H,0,1.443347,-1.56
 9087,1.854353\H,0,0.447017,-2.413795,0.664908\H,0,-0.310626,-1.339791,
 1.84486\H,0,3.145866,-0.454849,-0.58529\H,0,2.34979,0.496343,-1.842519

 Normal termination of Gaussian 16 at Tue Apr  8 22:45:41 2025.
