 Gaussian 16, Revision C.01,

 ----------------------------------------------------------------------
 #t hf aug-cc-pvdz symm=none int=(grid=ultrafine) guess=(read,tcheck) s
 table=opt
 ----------------------------------------------------------------------
 -----
 title
 -----
 Symbolic Z-matrix:
 Charge =  0 Multiplicity = 2

 SCF Done:  E(UHF) =  -1147.19185370     A.U. after   27 cycles
 Normal termination of Gaussian 16 at Wed Apr  9 00:14:56 2025.
 Gaussian 16:  ES64L-G16RevC.01  3-Jul-2019

 ----------------------------------------------------------------------
 #t hf aug-cc-pvdz iop(5/13=1,5/36=2,99/5=2) pseudo=read geom=check gue
 ss=(read,tcheck) scf=(maxcycle=1)
 ----------------------------------------------------------------------
 -----
 title
 -----
 Structure from the checkpoint file:  "BDE49_nonexpt_2533_mol2.chk"
 Charge =  0 Multiplicity = 2

                         Standard orientation:
 ---------------------------------------------------------------------
 Center     Atomic      Atomic             Coordinates (Angstroms)
 Number     Number       Type             X           Y           Z
 ---------------------------------------------------------------------
      1         16           0       -1.716753   -0.455229   -0.000030
      2         14           0       -0.008733    0.839913   -0.000016
      3         17           0        1.615148   -0.459740    0.000024
      4          1           0        0.067017    1.670372   -1.214648
      5          1           0        0.065767    1.670081    1.214955
 ---------------------------------------------------------------------

 SCF Done:  E(UHF) =  -1147.25143870     A.U. after    2 cycles

 The electronic state is 2-A.
 Alpha  occ. eigenvalues -- -103.66567 -93.56916 -69.15124 -10.70018  -8.86777
 Alpha  occ. eigenvalues --   -8.35747  -8.35486  -8.35456  -6.89714  -6.22104
 Alpha  occ. eigenvalues --   -6.20360  -6.20020  -4.00584  -4.00443  -4.00375
 Alpha  occ. eigenvalues --   -1.15109  -0.97227  -0.70833  -0.56169  -0.55186
 Alpha  occ. eigenvalues --   -0.52005  -0.47435  -0.47131  -0.45615  -0.40549
 Alpha virt. eigenvalues --    0.04251   0.05014   0.05347   0.06155   0.09179
 Alpha virt. eigenvalues --    0.09841   0.11333   0.12362   0.13402   0.14045
 Alpha virt. eigenvalues --    0.14056   0.16605   0.17434   0.18534   0.21183

  Beta  occ. eigenvalues -- -103.66522 -93.56049 -69.15157 -10.69970  -8.85816
  Beta  occ. eigenvalues --   -8.35632  -8.35428  -8.35404  -6.89763  -6.19851
  Beta  occ. eigenvalues --   -6.19488  -6.18267  -4.00637  -4.00529  -4.00398
  Beta  occ. eigenvalues --   -1.14724  -0.88136  -0.69792  -0.55075  -0.54774
  Beta  occ. eigenvalues --   -0.51125  -0.47316  -0.44989  -0.38346
  Beta virt. eigenvalues --   -0.02328   0.04296   0.05289   0.05951   0.06163
  Beta virt. eigenvalues --    0.09204   0.09893   0.11752   0.13079   0.13979
  Beta virt. eigenvalues --    0.14135   0.14847   0.17455   0.17561   0.19052

 Mulliken charges and spin densities:
               1          2
     1  S   -0.348804   1.073723
     2  Si   0.942848  -0.094456
     3  Cl  -0.483692   0.023365
     4  H   -0.055039  -0.001564
     5  H   -0.055312  -0.001069
 Sum of Mulliken charges =  -0.00000   1.00000

 Dipole moment (field-independent basis, Debye):
    X=             -0.5742    Y=              1.5975    Z=              0.0014  Tot=              1.6975
                          Isotropic Fermi Contact Couplings
        Atom                 a.u.       MegaHertz       Gauss      10(-4) cm-1
     1  S(33)              0.15127      51.95570      18.53909      17.33056
     2  Si(29)            -0.03491      31.02240      11.06956      10.34796
     3  Cl(35)             0.02571      11.27452       4.02303       3.76077
     4  H(1)               0.00004       0.18930       0.06755       0.06315
     5  H(1)               0.00018       0.79270       0.28285       0.26442
 --------------------------------------------------------
       Center         ----  Spin Dipole Couplings  ----
                      3XX-RR        3YY-RR        3ZZ-RR

 Normal termination of Gaussian 16 at Wed Apr  9 00:14:58 2025.
