 Gaussian 16, Revision C.01,

 ----------------------------------------------------------------------
 #t hf aug-cc-pvdz symm=none int=(grid=ultrafine) guess=(read,tcheck) s
 table=opt
 ----------------------------------------------------------------------
 -----
 title
 -----
 Symbolic Z-matrix:
 Charge =  0 Multiplicity = 2

 SCF Done:  E(UHF) =  -703.958737016     A.U. after   25 cycles
 Normal termination of Gaussian 16 at Wed Apr  9 00:18:21 2025.
 Gaussian 16:  ES64L-G16RevC.01  3-Jul-2019

 ----------------------------------------------------------------------
 #t hf aug-cc-pvdz iop(5/13=1,5/36=2,99/5=2) pseudo=read geom=check gue
 ss=(read,tcheck) scf=(maxcycle=1)
 ----------------------------------------------------------------------
 -----
 title
 -----
 Structure from the checkpoint file:  "BDE49_nonexpt_2585_mol2.chk"
 Charge =  0 Multiplicity = 2

                         Standard orientation:
 ---------------------------------------------------------------------
 Center     Atomic      Atomic             Coordinates (Angstroms)
 Number     Number       Type             X           Y           Z
 ---------------------------------------------------------------------
      1         16           0        0.052784    1.654526   -0.446461
      2          6           0        0.011204   -0.044293    0.371784
      3          8           0        1.277428   -0.540769    0.621933
      4          8           0       -0.606042   -0.890723   -0.575713
      5          6           0        2.110115   -0.812467   -0.506876
      6          1           0        3.074464   -1.106691   -0.095585
      7          1           0        2.230194    0.086055   -1.120299
      8          1           0        1.699277   -1.621696   -1.113011
      9          6           0       -2.025394   -0.845139   -0.714682
     10          1           0       -2.255752   -1.431810   -1.603219
     11          1           0       -2.382524    0.178731   -0.856195
     12          1           0       -2.525541   -1.294017    0.148997
     13          6           0       -0.685859    0.037350    1.722235
     14          1           0       -0.097758    0.671970    2.385914
     15          1           0       -0.728948   -0.966457    2.153275
     16          1           0       -1.689428    0.450725    1.638973
 ---------------------------------------------------------------------

 SCF Done:  E(UHF) =  -704.074760332     A.U. after    2 cycles

 The electronic state is 2-A.
 Alpha  occ. eigenvalues --  -93.54613 -20.59240 -20.58584 -11.39537 -11.29505
 Alpha  occ. eigenvalues --  -11.28019 -11.24290  -8.84359  -6.19742  -6.18043
 Alpha  occ. eigenvalues --   -6.17621  -1.39283  -1.31971  -1.05042  -0.96105
 Alpha  occ. eigenvalues --   -0.94598  -0.92364  -0.78120  -0.71486  -0.68480
 Alpha  occ. eigenvalues --   -0.67838  -0.63990  -0.60318  -0.60111  -0.56963
 Alpha  occ. eigenvalues --   -0.55623  -0.53337  -0.51537  -0.50828  -0.46804
 Alpha  occ. eigenvalues --   -0.43391  -0.41711  -0.37716
 Alpha virt. eigenvalues --    0.03466   0.04647   0.04704   0.05527   0.06184
 Alpha virt. eigenvalues --    0.06699   0.07034   0.07448   0.09064   0.09728
 Alpha virt. eigenvalues --    0.11341   0.12667   0.13194   0.14484   0.14801

  Beta  occ. eigenvalues --  -93.53703 -20.59106 -20.58594 -11.39685 -11.29509
  Beta  occ. eigenvalues --  -11.28016 -11.24262  -8.83348  -6.17464  -6.17069
  Beta  occ. eigenvalues --   -6.15776  -1.39142  -1.31797  -1.04363  -0.95763
  Beta  occ. eigenvalues --   -0.92637  -0.88096  -0.76740  -0.71363  -0.68240
  Beta  occ. eigenvalues --   -0.66194  -0.63880  -0.60085  -0.59632  -0.56884
  Beta  occ. eigenvalues --   -0.55580  -0.52961  -0.51332  -0.50443  -0.46580
  Beta  occ. eigenvalues --   -0.40683  -0.35420
  Beta virt. eigenvalues --    0.01890   0.03484   0.04656   0.04993   0.05550
  Beta virt. eigenvalues --    0.06212   0.06727   0.07081   0.07549   0.09124
  Beta virt. eigenvalues --    0.09880   0.11393   0.13147   0.13424   0.14609

 Mulliken charges and spin densities:
               1          2
     1  S    0.116434   1.134759
     2  C    0.109238  -0.139640
     3  O   -0.713187  -0.004446
     4  O   -0.699723   0.000928
     5  C    0.733107   0.008040
     6  H   -0.251145   0.001144
     7  H   -0.044008  -0.014689
     8  H   -0.077901   0.001191
     9  C    0.850795  -0.007846
    10  H   -0.280589  -0.001111
    11  H   -0.070593  -0.009285
    12  H   -0.108942   0.000489
    13  C    0.564315   0.033582
    14  H   -0.099696   0.002596
    15  H    0.021635   0.002091
    16  H   -0.049740  -0.007803
 Sum of Mulliken charges =  -0.00000   1.00000

 Dipole moment (field-independent basis, Debye):
    X=             -1.4080    Y=             -0.7322    Z=              0.1018  Tot=              1.5903
                          Isotropic Fermi Contact Couplings
        Atom                 a.u.       MegaHertz       Gauss      10(-4) cm-1
     1  S(33)              0.17829      61.23752      21.85107      20.42664
     2  C(13)             -0.02663     -29.93426     -10.68129      -9.98500
     3  O(17)             -0.00197       1.19258       0.42554       0.39780
     4  O(17)              0.02409     -14.60548      -5.21160      -4.87186
     5  C(13)              0.00001       0.00717       0.00256       0.00239
     6  H(1)               0.00011       0.51285       0.18300       0.17107
     7  H(1)               0.00019       0.86271       0.30784       0.28777
     8  H(1)              -0.00004      -0.18155      -0.06478      -0.06056

 Normal termination of Gaussian 16 at Wed Apr  9 00:18:28 2025.
