 Gaussian 16, Revision C.01,

 ----------------------------------------------------------------------
 #t hf aug-cc-pvdz symm=none int=(grid=ultrafine) guess=(read,tcheck) s
 table=opt
 ----------------------------------------------------------------------
 -----
 title
 -----
 Symbolic Z-matrix:
 Charge =  0 Multiplicity = 2

 SCF Done:  E(UHF) =  -513.718825014     A.U. after   15 cycles
 Normal termination of Gaussian 16 at Wed Apr  9 00:28:58 2025.
 Gaussian 16:  ES64L-G16RevC.01  3-Jul-2019

 ----------------------------------------------------------------------
 #t hf aug-cc-pvdz iop(5/13=1,5/36=2,99/5=2) pseudo=read geom=check gue
 ss=(read,tcheck) scf=(maxcycle=1)
 ----------------------------------------------------------------------
 -----
 title
 -----
 Structure from the checkpoint file:  "BDE49_nonexpt_360_mol2.chk"
 Charge =  0 Multiplicity = 2

                         Standard orientation:
 ---------------------------------------------------------------------
 Center     Atomic      Atomic             Coordinates (Angstroms)
 Number     Number       Type             X           Y           Z
 ---------------------------------------------------------------------
      1          9           0       -2.221900    0.400667   -0.000008
      2          5           0       -1.275799   -0.491907    0.000008
      3         14           0        0.729895   -0.490213    0.000002
      4          9           0        1.545799    0.910107    0.000001
      5          1           0        1.122688   -1.237228    1.213916
      6          1           0        1.122683   -1.237225   -1.213915
 ---------------------------------------------------------------------

 SCF Done:  E(UHF) =  -513.834512165     A.U. after    2 cycles

 The electronic state is 2-A.
 Alpha  occ. eigenvalues --  -69.12474 -26.17030 -26.11227  -7.72179  -6.87246
 Alpha  occ. eigenvalues --   -3.98088  -3.98018  -3.97927  -1.71549  -1.63822
 Alpha  occ. eigenvalues --   -0.88114  -0.81521  -0.79878  -0.77024  -0.72547
 Alpha  occ. eigenvalues --   -0.72422  -0.67864  -0.52034  -0.50113  -0.34294
 Alpha virt. eigenvalues --    0.03362   0.03553   0.04626   0.05967   0.07296
 Alpha virt. eigenvalues --    0.07404   0.07782   0.08109   0.09644   0.11906
 Alpha virt. eigenvalues --    0.14910   0.16617   0.19323   0.21974   0.22673

  Beta  occ. eigenvalues --  -69.12361 -26.16660 -26.11054  -7.70597  -6.87045
  Beta  occ. eigenvalues --   -3.98049  -3.97823  -3.97690  -1.70559  -1.63281
  Beta  occ. eigenvalues --   -0.86932  -0.80370  -0.77020  -0.76570  -0.72265
  Beta  occ. eigenvalues --   -0.71841  -0.66225  -0.50195  -0.48329
  Beta virt. eigenvalues --    0.03103   0.04066   0.04377   0.04820   0.07445
  Beta virt. eigenvalues --    0.07577   0.07893   0.08380   0.09632   0.10433
  Beta virt. eigenvalues --    0.12587   0.16933   0.17108   0.19874   0.23681

 Mulliken charges and spin densities:
               1          2
     1  F   -0.325146  -0.021216
     2  B    0.286912   0.964261
     3  Si   0.874628   0.078305
     4  F   -0.807968  -0.006404
     5  H   -0.014214  -0.007473
     6  H   -0.014213  -0.007473
 Sum of Mulliken charges =  -0.00000   1.00000

 Dipole moment (field-independent basis, Debye):
    X=             -0.2460    Y=             -1.3834    Z=              0.0000  Tot=              1.4051
                          Isotropic Fermi Contact Couplings
        Atom                 a.u.       MegaHertz       Gauss      10(-4) cm-1
     1  F(19)              0.05709     240.18726      85.70479      80.11785
     2  B(11)              0.23595     338.43781     120.76303     112.89070
     3  Si(29)             0.19582    -174.02654     -62.09700     -58.04900
     4  F(19)              0.03511     147.70477      52.70473      49.26901
     5  H(1)              -0.00256     -11.44455      -4.08370      -3.81749
     6  H(1)              -0.00256     -11.44418      -4.08357      -3.81737
 --------------------------------------------------------
       Center         ----  Spin Dipole Couplings  ----

 Normal termination of Gaussian 16 at Wed Apr  9 00:29:00 2025.
