 Gaussian 16, Revision C.01,

 ----------------------------------------------------------------------
 #t hf aug-cc-pvdz symm=none int=(grid=ultrafine) guess=(read,tcheck) s
 table=(opt,rrhf)
 ----------------------------------------------------------------------
 -----
 title
 -----
 Symbolic Z-matrix:
 Charge =  0 Multiplicity = 1

 SCF Done:  E(RHF) =  -974.252069913     A.U. after   17 cycles
 Normal termination of Gaussian 16 at Tue Apr  8 23:13:45 2025.
 Gaussian 16:  ES64L-G16RevC.01  3-Jul-2019

 ----------------------------------------------------------------------
 #t hf aug-cc-pvdz iop(5/13=1,5/36=2,99/5=2) pseudo=read geom=check gue
 ss=(read,tcheck) scf=(maxcycle=1)
 ----------------------------------------------------------------------
 -----
 title
 -----
 Structure from the checkpoint file:  "BDE49_expt_512_mol1.chk"
 Charge =  0 Multiplicity = 1

                         Standard orientation:
 ---------------------------------------------------------------------
 Center     Atomic      Atomic             Coordinates (Angstroms)
 Number     Number       Type             X           Y           Z
 ---------------------------------------------------------------------
      1          6           0       -2.856127    1.879013    0.348590
      2          6           0       -1.491934    2.122683    0.281371
      3          6           0       -3.368945    0.594899    0.171220
      4          6           0       -2.468142   -0.429303   -0.094850
      5          6           0       -1.098828   -0.216407   -0.185422
      6          6           0       -0.590349    1.076799    0.014790
      7          1           0       -1.110350    3.125257    0.442979
      8          1           0       -3.534253    2.699192    0.555037
      9          1           0       -4.429244    0.393840    0.236589
     10          1           0       -0.443793   -1.038404   -0.433017
     11          7           0        0.766668    1.377018   -0.084366
     12          6           0        1.879259    0.526225   -0.014361
     13          6           0        1.894930   -0.639993    0.764856
     14          6           0        3.044755    0.890087   -0.706526
     15          6           0        3.043169   -1.423782    0.825600
     16          6           0        4.197448   -1.059414    0.136025
     17          6           0        4.191337    0.109441   -0.622945
     18          1           0        5.080684    0.411704   -1.164645
     19          1           0        3.041340    1.787113   -1.317724
     20          1           0        3.035522   -2.321806    1.433348
     21          1           0        5.088084   -1.673654    0.192061
     22          1           0        1.022177   -0.919008    1.340193
     23          1           0        0.976208    2.339645   -0.296050
     24         17           0       -3.079558   -2.060265   -0.347547
 ---------------------------------------------------------------------

 SCF Done:  E(RHF) =  -974.420033677     A.U. after    2 cycles

 The electronic state is 1-A.
 Alpha  occ. eigenvalues -- -103.66405 -15.65659 -11.31726 -11.31284 -11.30282
 Alpha  occ. eigenvalues --  -11.26302 -11.25360 -11.25285 -11.25162 -11.24997
 Alpha  occ. eigenvalues --  -11.24858 -11.24679 -11.24456 -11.24099 -10.69671
 Alpha  occ. eigenvalues --   -8.35406  -8.35104  -8.35087  -1.24431  -1.19304
 Alpha  occ. eigenvalues --   -1.14640  -1.11545  -1.03191  -1.01762  -1.01094
 Alpha  occ. eigenvalues --   -0.97518  -0.86251  -0.85189  -0.82545  -0.80818
 Alpha  occ. eigenvalues --   -0.73105  -0.71627  -0.69429  -0.67210  -0.65017
 Alpha  occ. eigenvalues --   -0.63383  -0.61472  -0.60907  -0.59812  -0.59474
 Alpha  occ. eigenvalues --   -0.56644  -0.54327  -0.53505  -0.52261  -0.51349
 Alpha  occ. eigenvalues --   -0.50377  -0.49145  -0.46632  -0.44984  -0.35432
 Alpha  occ. eigenvalues --   -0.34896  -0.34648  -0.28559
 Alpha virt. eigenvalues --    0.02779   0.03337   0.03880   0.04655   0.05119
 Alpha virt. eigenvalues --    0.05880   0.06150   0.06618   0.07659   0.08801
 Alpha virt. eigenvalues --    0.09157   0.09677   0.09912   0.10440   0.11214

 Mulliken charges:
               1
     1  C    0.669692
     2  C    0.547886
     3  C    0.708121
     4  C   -0.413668
     5  C    1.177312
     6  C    0.190438
     7  H   -0.623473
     8  H   -0.444793
     9  H   -0.451226
    10  H   -0.562068
    11  N   -0.721192
    12  C    0.063999
    13  C    0.798420
    14  C    0.510876
    15  C    0.483012
    16  C    0.645860
    17  C    0.529421
    18  H   -0.449676
    19  H   -0.621363
    20  H   -0.460115
    21  H   -0.453710
    22  H   -0.635867
    23  H   -0.099493
    24  Cl  -0.388389
 Sum of Mulliken charges =   0.00000

 Dipole moment (field-independent basis, Debye):
    X=              1.3912    Y=              2.5796    Z=              0.1196  Tot=              2.9333

 Test job not archived.
 1\1\GINC-SE166\SP\RHF\Aug-CC-pVDZ\C12H10Cl1N1\OHZDE\08-Apr-2025\0\\#t
 hf aug-cc-pvdz iop(5/13=1,5/36=2,99/5=2) pseudo=read geom=check guess=
 (read,tcheck) scf=(maxcycle=1)\\title\\0,1\C,0,-2.856127,1.879013,0.34
 859\C,0,-1.491934,2.122683,0.281371\C,0,-3.368945,0.594899,0.17122\C,0
 ,-2.468142,-0.429303,-0.09485\C,0,-1.098828,-0.216407,-0.185422\C,0,-0
 .590349,1.076799,0.01479\H,0,-1.11035,3.125257,0.442979\H,0,-3.534253,
 2.699192,0.555037\H,0,-4.429244,0.39384,0.236589\H,0,-0.443793,-1.0384
 04,-0.433017\N,0,0.766668,1.377018,-0.084366\C,0,1.879259,0.526225,-0.

 Normal termination of Gaussian 16 at Tue Apr  8 23:14:08 2025.
