 Gaussian 16, Revision C.01,

 ----------------------------------------------------------------------
 #t hf aug-cc-pvdz symm=none int=(grid=ultrafine) guess=(read,tcheck) s
 table=(opt,rrhf)
 ----------------------------------------------------------------------
 -----
 title
 -----
 Symbolic Z-matrix:
 Charge =  0 Multiplicity = 1

 SCF Done:  E(RHF) =  -689.650557835     A.U. after   14 cycles

 1\1\GINC-SE120\Stability\RHF\Aug-CC-pVDZ\C6H5Cl1\OHZDE\08-Apr-2025\0\\
 #t hf aug-cc-pvdz symm=none int=(grid=ultrafine) guess=(read,tcheck) s
 table=(opt,rrhf)\\title\\0,1\C,0,0.,0.,0.502102\C,0,0.,1.213394,-0.178
 253\C,0,0.,1.205213,-1.571406\C,0,0.,0.,-2.270494\C,0,0.,-1.205213,-1.
 571406\C,0,0.,-1.213394,-0.178253\Cl,0,0.,0.,2.260462\H,0,0.,2.147001,
 -2.108081\H,0,0.,0.,-3.354091\H,0,0.,2.143994,0.374329\H,0,0.,-2.14700
 1,-2.108081\H,0,0.,-2.143994,0.374329\\Version=ES64L-G16RevC.01\HF=-68
 9.6505578\RMSD=5.759e-09\Dipole=0.,0.,-0.8073978\Quadrupole=-4.0708239

 Normal termination of Gaussian 16 at Tue Apr  8 22:47:41 2025.
 Gaussian 16:  ES64L-G16RevC.01  3-Jul-2019

 ----------------------------------------------------------------------
 #t hf aug-cc-pvdz iop(5/13=1,5/36=2,99/5=2) pseudo=read geom=check gue
 ss=(read,tcheck) scf=(maxcycle=1)
 ----------------------------------------------------------------------
 -----
 title
 -----
 Structure from the checkpoint file:  "BDE49_expt_1671_mol1.chk"
 Charge =  0 Multiplicity = 1

                         Standard orientation:
 ---------------------------------------------------------------------
 Center     Atomic      Atomic             Coordinates (Angstroms)
 Number     Number       Type             X           Y           Z
 ---------------------------------------------------------------------
      1          6           0        0.000000   -0.000000    0.502102
      2          6           0        0.000000    1.213394   -0.178253
      3          6           0        0.000000    1.205213   -1.571406
      4          6           0        0.000000    0.000000   -2.270494
      5          6           0       -0.000000   -1.205213   -1.571406
      6          6           0       -0.000000   -1.213394   -0.178253
      7         17           0        0.000000   -0.000000    2.260462
      8          1           0        0.000000    2.147001   -2.108081
      9          1           0        0.000000    0.000000   -3.354091
     10          1           0        0.000000    2.143994    0.374329
     11          1           0       -0.000000   -2.147001   -2.108081
     12          1           0       -0.000000   -2.143994    0.374329
 ---------------------------------------------------------------------

 SCF Done:  E(RHF) =  -689.737206221     A.U. after    2 cycles

 The electronic state is 1-A1.
 Alpha  occ. eigenvalues -- -103.66632 -11.31594 -11.26266 -11.26259 -11.26149
 Alpha  occ. eigenvalues --  -11.26133 -11.25751 -10.69902  -8.35637  -8.35334
 Alpha  occ. eigenvalues --   -8.35317  -1.19868  -1.13478  -1.02945  -1.00500
 Alpha  occ. eigenvalues --   -0.85064  -0.82699  -0.71925  -0.65604  -0.65335
 Alpha  occ. eigenvalues --   -0.61068  -0.59797  -0.55048  -0.52299  -0.51817
 Alpha  occ. eigenvalues --   -0.47881  -0.46804  -0.35719  -0.34470
 Alpha virt. eigenvalues --    0.03260   0.03958   0.04617   0.05920   0.06351
 Alpha virt. eigenvalues --    0.09066   0.09323   0.09754   0.11750   0.11955
 Alpha virt. eigenvalues --    0.13191   0.13807   0.14328   0.14360   0.14609

 Mulliken charges:
               1
     1  C   -0.105286
     2  C    0.380653
     3  C    0.782276
     4  C    0.230107
     5  C    0.782276
     6  C    0.380653
     7  Cl  -0.375387
     8  H   -0.421894
     9  H   -0.432838
    10  H   -0.399333
    11  H   -0.421894
    12  H   -0.399333
 Sum of Mulliken charges =   0.00000

 Dipole moment (field-independent basis, Debye):
    X=              0.0000    Y=              0.0000    Z=             -2.1333  Tot=              2.1333

 Test job not archived.
 1\1\GINC-SE120\SP\RHF\Aug-CC-pVDZ\C6H5Cl1\OHZDE\08-Apr-2025\0\\#t hf a
 ug-cc-pvdz iop(5/13=1,5/36=2,99/5=2) pseudo=read geom=check guess=(rea
 d,tcheck) scf=(maxcycle=1)\\title\\0,1\C,0,0.,0.,0.502102\C,0,0.,1.213
 394,-0.178253\C,0,0.,1.205213,-1.571406\C,0,0.,0.,-2.270494\C,0,0.,-1.
 205213,-1.571406\C,0,0.,-1.213394,-0.178253\Cl,0,0.,0.,2.260462\H,0,0.
 ,2.147001,-2.108081\H,0,0.,0.,-3.354091\H,0,0.,2.143994,0.374329\H,0,0
 .,-2.147001,-2.108081\H,0,0.,-2.143994,0.374329\\Version=ES64L-G16RevC
 .01\State=1-A1\HF=-689.7372062\RMSD=1.308e-02\Dipole=0.,0.,-0.8392929\

 Normal termination of Gaussian 16 at Tue Apr  8 22:47:46 2025.
