 Gaussian 16, Revision C.01,

 ----------------------------------------------------------------------
 #t hf aug-cc-pvdz symm=none int=(grid=ultrafine) guess=(read,tcheck) s
 table=(opt,rrhf)
 ----------------------------------------------------------------------
 -----
 title
 -----
 Symbolic Z-matrix:
 Charge =  0 Multiplicity = 1

 SCF Done:  E(RHF) =  -243.704103670     A.U. after   14 cycles
 Normal termination of Gaussian 16 at Tue Apr  8 23:00:36 2025.
 Gaussian 16:  ES64L-G16RevC.01  3-Jul-2019

 ----------------------------------------------------------------------
 #t hf aug-cc-pvdz iop(5/13=1,5/36=2,99/5=2) pseudo=read geom=check gue
 ss=(read,tcheck) scf=(maxcycle=1)
 ----------------------------------------------------------------------
 -----
 title
 -----
 Structure from the checkpoint file:  "BDE49_expt_309_mol1.chk"
 Charge =  0 Multiplicity = 1

                         Standard orientation:
 ---------------------------------------------------------------------
 Center     Atomic      Atomic             Coordinates (Angstroms)
 Number     Number       Type             X           Y           Z
 ---------------------------------------------------------------------
      1          6           0       -1.325990   -0.000610   -0.002729
      2          7           0        0.176738    0.000000   -0.011176
      3          1           0       -1.663845    0.902011   -0.503314
      4          1           0       -1.632492    0.004965    1.043089
      5          1           0       -1.663335   -0.908439   -0.494079
      6          8           0        0.729287    1.087585    0.003054
      7          8           0        0.730519   -1.086945    0.003060
 ---------------------------------------------------------------------

 SCF Done:  E(RHF) =  -243.781219880     A.U. after    2 cycles

 The electronic state is 1-A.
 Alpha  occ. eigenvalues --  -20.62498 -20.62486 -15.92093 -11.32501  -1.55606
 Alpha  occ. eigenvalues --   -1.37406  -1.09077  -0.86752  -0.76571  -0.74907
 Alpha  occ. eigenvalues --   -0.74536  -0.63427  -0.60797  -0.51917  -0.51230
 Alpha  occ. eigenvalues --   -0.47983
 Alpha virt. eigenvalues --    0.02637   0.04508   0.05239   0.08316   0.08531
 Alpha virt. eigenvalues --    0.13530   0.14044   0.14117   0.14594   0.15793
 Alpha virt. eigenvalues --    0.18971   0.23570   0.23587   0.25110   0.26054

 Mulliken charges:
               1
     1  C    0.825654
     2  N    0.401445
     3  H   -0.061073
     4  H   -0.003011
     5  H   -0.061906
     6  O   -0.550709
     7  O   -0.550400
 Sum of Mulliken charges =   0.00000

 Dipole moment (field-independent basis, Debye):
    X=             -4.2912    Y=             -0.0023    Z=             -0.0083  Tot=              4.2912

 Test job not archived.
 1\1\GINC-SE069\SP\RHF\Aug-CC-pVDZ\C1H3N1O2\OHZDE\08-Apr-2025\0\\#t hf
 aug-cc-pvdz iop(5/13=1,5/36=2,99/5=2) pseudo=read geom=check guess=(re
 ad,tcheck) scf=(maxcycle=1)\\title\\0,1\C,0,-1.32599,-0.00061,-0.00272
 9\N,0,0.176738,0.,-0.011176\H,0,-1.663845,0.902011,-0.503314\H,0,-1.63
 2492,0.004965,1.043089\H,0,-1.663335,-0.908439,-0.494079\O,0,0.729287,
 1.087585,0.003054\O,0,0.730519,-1.086945,0.00306\\Version=ES64L-G16Rev
 C.01\State=1-A\HF=-243.7812199\RMSD=3.584e-03\Dipole=-1.6882828,-0.000
 916,-0.0032694\Quadrupole=1.203634,-2.666584,1.46295,0.001046,-0.05312

 Normal termination of Gaussian 16 at Tue Apr  8 23:00:38 2025.
