 Gaussian 16, Revision C.01,

 ----------------------------------------------------------------------
 #t hf aug-cc-pvdz symm=none int=(grid=ultrafine) guess=(read,tcheck) s
 table=(opt,rrhf)
 ----------------------------------------------------------------------
 -----
 title
 -----
 Symbolic Z-matrix:
 Charge =  0 Multiplicity = 1

 SCF Done:  E(RHF) =  -217.148914947     A.U. after   12 cycles
 Normal termination of Gaussian 16 at Tue Apr  8 22:28:39 2025.
 Gaussian 16:  ES64L-G16RevC.01  3-Jul-2019

 ----------------------------------------------------------------------
 #t hf aug-cc-pvdz iop(5/13=1,5/36=2,99/5=2) pseudo=read geom=check gue
 ss=(read,tcheck) scf=(maxcycle=1)
 ----------------------------------------------------------------------
 -----
 title
 -----
 Structure from the checkpoint file:  "BDE49_expt_1025_mol1.chk"
 Charge =  0 Multiplicity = 1

                         Standard orientation:
 ---------------------------------------------------------------------
 Center     Atomic      Atomic             Coordinates (Angstroms)
 Number     Number       Type             X           Y           Z
 ---------------------------------------------------------------------
      1          6           0       -0.283082   -0.583114    1.275519
      2          1           0        0.576130   -1.258735    1.292090
      3          1           0       -1.196444   -1.179938    1.349402
      4          1           0       -0.225820    0.070479    2.148333
      5          6           0       -0.283082    0.239404   -0.000000
      6          6           0       -0.283082   -0.583114   -1.275519
      7          9           0        0.879402    1.039925   -0.000000
      8          1           0       -0.225820    0.070479   -2.148333
      9          1           0        0.576130   -1.258735   -1.292090
     10          1           0       -1.126871    0.938012   -0.000000
     11          1           0       -1.196444   -1.179938   -1.349402
 ---------------------------------------------------------------------

 SCF Done:  E(RHF) =  -217.223471330     A.U. after    2 cycles

 The electronic state is 1-A'.
 Alpha  occ. eigenvalues --  -26.08982 -11.32236 -11.23504 -11.23496  -1.61923
 Alpha  occ. eigenvalues --   -1.06425  -0.94915  -0.84014  -0.73675  -0.71163
 Alpha  occ. eigenvalues --   -0.67983  -0.60635  -0.56152  -0.56068  -0.54722
 Alpha  occ. eigenvalues --   -0.49714  -0.49207
 Alpha virt. eigenvalues --    0.03470   0.04734   0.04782   0.05580   0.07366
 Alpha virt. eigenvalues --    0.07398   0.07858   0.11124   0.12760   0.14854
 Alpha virt. eigenvalues --    0.15203   0.15652   0.16658   0.17200   0.17278

 Mulliken charges:
               1
     1  C    0.297039
     2  H   -0.005356
     3  H   -0.009622
     4  H   -0.043588
     5  C    0.149633
     6  C    0.297039
     7  F   -0.468518
     8  H   -0.043588
     9  H   -0.005356
    10  H   -0.158061
    11  H   -0.009622
 Sum of Mulliken charges =  -0.00000

 Dipole moment (field-independent basis, Debye):
    X=             -1.9325    Y=             -1.4975    Z=              0.0000  Tot=              2.4448

 Test job not archived.
 1\1\GINC-SE102\SP\RHF\Aug-CC-pVDZ\C3H7F1\OHZDE\08-Apr-2025\0\\#t hf au
 g-cc-pvdz iop(5/13=1,5/36=2,99/5=2) pseudo=read geom=check guess=(read
 ,tcheck) scf=(maxcycle=1)\\title\\0,1\C,0,-0.283082,-0.583114,1.275519
 \H,0,0.57613,-1.258735,1.29209\H,0,-1.196444,-1.179938,1.349402\H,0,-0
 .22582,0.070479,2.148333\C,0,-0.283082,0.239404,0.\C,0,-0.283082,-0.58
 3114,-1.275519\F,0,0.879402,1.039925,0.\H,0,-0.22582,0.070479,-2.14833
 3\H,0,0.57613,-1.258735,-1.29209\H,0,-1.126871,0.938012,0.\H,0,-1.1964
 44,-1.179938,-1.349402\\Version=ES64L-G16RevC.01\State=1-A'\HF=-217.22

 Normal termination of Gaussian 16 at Tue Apr  8 22:28:42 2025.
