 Gaussian 16, Revision C.01,

 ----------------------------------------------------------------------
 #t hf aug-cc-pvdz symm=none int=(grid=ultrafine) guess=(read,tcheck) s
 table=(opt,rrhf)
 ----------------------------------------------------------------------
 -----
 title
 -----
 Symbolic Z-matrix:
 Charge =  0 Multiplicity = 1

 SCF Done:  E(RHF) =  -970.263910586     A.U. after   14 cycles
 Normal termination of Gaussian 16 at Tue Apr  8 23:16:47 2025.
 Gaussian 16:  ES64L-G16RevC.01  3-Jul-2019

 ----------------------------------------------------------------------
 #t hf aug-cc-pvdz iop(5/13=1,5/36=2,99/5=2) pseudo=read geom=check gue
 ss=(read,tcheck) scf=(maxcycle=1)
 ----------------------------------------------------------------------
 -----
 title
 -----
 Structure from the checkpoint file:  "BDE49_nonexpt_1058_mol1.chk"
 Charge =  0 Multiplicity = 1

                         Standard orientation:
 ---------------------------------------------------------------------
 Center     Atomic      Atomic             Coordinates (Angstroms)
 Number     Number       Type             X           Y           Z
 ---------------------------------------------------------------------
      1         17           0        1.585340   -0.433265   -0.000000
      2          8           0        0.591716    1.022850   -0.000000
      3          6           0       -0.732547    0.847244   -0.000000
      4         16           0       -1.634187   -0.485154   -0.000000
      5          1           0       -1.142233    1.861714    0.000001
 ---------------------------------------------------------------------

 SCF Done:  E(RHF) =  -970.337404364     A.U. after    2 cycles

 The electronic state is 1-A.
 Alpha  occ. eigenvalues -- -103.74769 -93.53393 -20.71423 -11.41072 -10.77368
 Alpha  occ. eigenvalues --   -8.83378  -8.43125  -8.42665  -8.42655  -6.17568
 Alpha  occ. eigenvalues --   -6.17122  -6.16911  -1.44472  -1.16340  -1.04311
 Alpha  occ. eigenvalues --   -0.84071  -0.74348  -0.69035  -0.64506  -0.54219
 Alpha  occ. eigenvalues --   -0.50963  -0.50602  -0.40522  -0.36787
 Alpha virt. eigenvalues --    0.01702   0.03713   0.05344   0.07578   0.08780
 Alpha virt. eigenvalues --    0.11031   0.12418   0.13418   0.14859   0.15011
 Alpha virt. eigenvalues --    0.15667   0.16299   0.17060   0.22022   0.25987

 Mulliken charges:
               1
     1  Cl   0.346400
     2  O   -0.527598
     3  C    0.191635
     4  S    0.155006
     5  H   -0.165443
 Sum of Mulliken charges =  -0.00000

 Dipole moment (field-independent basis, Debye):
    X=              0.5405    Y=              0.8971    Z=              0.0000  Tot=              1.0473

 Test job not archived.
 1\1\GINC-SE118\SP\RHF\Aug-CC-pVDZ\C1H1Cl1O1S1\OHZDE\08-Apr-2025\0\\#t
 hf aug-cc-pvdz iop(5/13=1,5/36=2,99/5=2) pseudo=read geom=check guess=
 (read,tcheck) scf=(maxcycle=1)\\title\\0,1\Cl,0,-1.58534,-0.433265,0.\
 O,0,-0.591716,1.02285,0.\C,0,0.732547,0.847244,0.\S,0,1.634187,-0.4851
 54,0.\H,0,1.142233,1.861714,-0.000001\\Version=ES64L-G16RevC.01\State=
 1-A\HF=-970.3374044\RMSD=4.835e-03\Dipole=-0.2126317,0.3529584,-0.0000
 003\Quadrupole=-1.2190766,1.986878,-0.7678014,2.6215651,-0.0000006,-0.
 0000006\PG=C01 [X(C1H1Cl1O1S1)]\\@

 Normal termination of Gaussian 16 at Tue Apr  8 23:16:49 2025.
