 Gaussian 16, Revision C.01,

 ----------------------------------------------------------------------
 #t hf aug-cc-pvdz symm=none int=(grid=ultrafine) guess=(read,tcheck) s
 table=(opt,rrhf)
 ----------------------------------------------------------------------
 -----
 title
 -----
 Symbolic Z-matrix:
 Charge =  0 Multiplicity = 1

 SCF Done:  E(RHF) =  -207.919793394     A.U. after   13 cycles
 Normal termination of Gaussian 16 at Tue Apr  8 22:50:41 2025.
 Gaussian 16:  ES64L-G16RevC.01  3-Jul-2019

 ----------------------------------------------------------------------
 #t hf aug-cc-pvdz iop(5/13=1,5/36=2,99/5=2) pseudo=read geom=check gue
 ss=(read,tcheck) scf=(maxcycle=1)
 ----------------------------------------------------------------------
 -----
 title
 -----
 Structure from the checkpoint file:  "BDE49_expt_1801_mol1.chk"
 Charge =  0 Multiplicity = 1

                         Standard orientation:
 ---------------------------------------------------------------------
 Center     Atomic      Atomic             Coordinates (Angstroms)
 Number     Number       Type             X           Y           Z
 ---------------------------------------------------------------------
      1          8           0       -0.660040   -1.270862    0.000000
      2          7           0       -1.014978    0.091566    0.000000
      3          6           0        0.000000    0.861378    0.000000
      4          6           0        1.449941    0.486565    0.000000
      5          1           0       -0.267747    1.915738    0.000000
      6          1           0        1.579925   -0.592969    0.000000
      7          1           0        1.946965    0.907822    0.879788
      8          1           0        1.946965    0.907822   -0.879788
      9          1           0       -1.520587   -1.700136    0.000000
 ---------------------------------------------------------------------

 SCF Done:  E(RHF) =  -207.984547160     A.U. after    2 cycles

 The electronic state is 1-A'.
 Alpha  occ. eigenvalues --  -20.60790 -15.68750 -11.28941 -11.24505  -1.37425
 Alpha  occ. eigenvalues --   -1.14132  -0.98094  -0.79065  -0.70458  -0.65182
 Alpha  occ. eigenvalues --   -0.61290  -0.59301  -0.56908  -0.54142  -0.43619
 Alpha  occ. eigenvalues --   -0.39538
 Alpha virt. eigenvalues --    0.03495   0.04643   0.05041   0.05673   0.07716
 Alpha virt. eigenvalues --    0.11338   0.11843   0.12075   0.15281   0.16173
 Alpha virt. eigenvalues --    0.16287   0.16742   0.17311   0.19221   0.20112

 Mulliken charges:
               1
     1  O   -0.494862
     2  N   -0.145478
     3  C    0.500110
     4  C    0.191119
     5  H   -0.222442
     6  H   -0.033433
     7  H    0.010440
     8  H    0.010440
     9  H    0.184107
 Sum of Mulliken charges =  -0.00000

 Dipole moment (field-independent basis, Debye):
    X=              0.8872    Y=              0.6380    Z=              0.0000  Tot=              1.0928

 Test job not archived.
 1\1\GINC-SE423\SP\RHF\Aug-CC-pVDZ\C2H5N1O1\OHZDE\08-Apr-2025\0\\#t hf
 aug-cc-pvdz iop(5/13=1,5/36=2,99/5=2) pseudo=read geom=check guess=(re
 ad,tcheck) scf=(maxcycle=1)\\title\\0,1\O,0,-0.66004,-1.270862,0.\N,0,
 -1.014978,0.091566,0.\C,0,0.,0.861378,0.\C,0,1.449941,0.486565,0.\H,0,
 -0.267747,1.915738,0.\H,0,1.579925,-0.592969,0.\H,0,1.946965,0.907822,
 0.879788\H,0,1.946965,0.907822,-0.879788\H,0,-1.520587,-1.700136,0.\\V
 ersion=ES64L-G16RevC.01\State=1-A'\HF=-207.9845472\RMSD=3.181e-03\Dipo
 le=0.3490525,0.2509912,0.\Quadrupole=0.2356068,1.3481888,-1.5837955,2.

 Normal termination of Gaussian 16 at Tue Apr  8 22:50:44 2025.
