 Gaussian 16, Revision C.01,

 ----------------------------------------------------------------------
 #t hf aug-cc-pvdz symm=none int=(grid=ultrafine) guess=(read,tcheck) s
 table=opt
 ----------------------------------------------------------------------
 -----
 title
 -----
 Symbolic Z-matrix:
 Charge =  0 Multiplicity = 2

 SCF Done:  E(UHF) =  -505.435787313     A.U. after   17 cycles
 Normal termination of Gaussian 16 at Wed Apr  9 00:33:54 2025.
 Gaussian 16:  ES64L-G16RevC.01  3-Jul-2019

 ----------------------------------------------------------------------
 #t hf aug-cc-pvdz iop(5/13=1,5/36=2,99/5=2) pseudo=read geom=check gue
 ss=(read,tcheck) scf=(maxcycle=1)
 ----------------------------------------------------------------------
 -----
 title
 -----
 Structure from the checkpoint file:  "BDE49_nonexpt_415_mol2.chk"
 Charge =  0 Multiplicity = 2

                         Standard orientation:
 ---------------------------------------------------------------------
 Center     Atomic      Atomic             Coordinates (Angstroms)
 Number     Number       Type             X           Y           Z
 ---------------------------------------------------------------------
      1          9           0        2.064165   -0.971807   -1.104169
      2          5           0        0.766370   -1.121645   -0.991859
      3          6           0       -0.153290   -0.075001   -0.159914
      4          8           0       -1.514341   -0.355072   -0.257096
      5          8           0        0.091750    1.148470   -0.778005
      6          8           0        0.150350   -0.057511    1.230695
      7          6           0       -1.931427   -1.592954    0.312073
      8          1           0       -2.978307   -1.716570    0.037425
      9          1           0       -1.828242   -1.583185    1.399050
     10          1           0       -1.350480   -2.427614   -0.101967
     11          6           0       -0.800255    2.223477   -0.430692
     12          1           0       -0.335468    3.126902   -0.823224
     13          1           0       -0.912274    2.301645    0.653020
     14          1           0       -1.778749    2.075117   -0.888876
     15          6           0        1.473110    0.338627    1.598092
     16          1           0        1.446250    0.514326    2.673062
     17          1           0        1.768791    1.255722    1.083131
     18          1           0        2.208246   -0.443855    1.383091
 ---------------------------------------------------------------------

 SCF Done:  E(UHF) =  -505.609572217     A.U. after    2 cycles

 The electronic state is 2-A.
 Alpha  occ. eigenvalues --  -26.15059 -20.58742 -20.58481 -20.58348 -11.39788
 Alpha  occ. eigenvalues --  -11.28803 -11.28773 -11.28400  -7.70981  -1.69470
 Alpha  occ. eigenvalues --   -1.41472  -1.31801  -1.31404  -0.99822  -0.94398
 Alpha  occ. eigenvalues --   -0.93391  -0.86764  -0.82320  -0.77869  -0.75307
 Alpha  occ. eigenvalues --   -0.73416  -0.71780  -0.71409  -0.64892  -0.63562
 Alpha  occ. eigenvalues --   -0.61243  -0.60025  -0.59286  -0.56659  -0.53882
 Alpha  occ. eigenvalues --   -0.51844  -0.50274  -0.47174  -0.46969  -0.46401
 Alpha  occ. eigenvalues --   -0.35983
 Alpha virt. eigenvalues --    0.03304   0.04501   0.04611   0.04811   0.05581
 Alpha virt. eigenvalues --    0.06227   0.06365   0.06751   0.06920   0.08694
 Alpha virt. eigenvalues --    0.09104   0.09568   0.10017   0.10928   0.13294

  Beta  occ. eigenvalues --  -26.14723 -20.58726 -20.58413 -20.58396 -11.39419
  Beta  occ. eigenvalues --  -11.28804 -11.28739 -11.28377  -7.69069  -1.68502
  Beta  occ. eigenvalues --   -1.41292  -1.31794  -1.31270  -0.99398  -0.94236
  Beta  occ. eigenvalues --   -0.93295  -0.85499  -0.81285  -0.75473  -0.75343
  Beta  occ. eigenvalues --   -0.72737  -0.71676  -0.70614  -0.64767  -0.63394
  Beta  occ. eigenvalues --   -0.61234  -0.59982  -0.59273  -0.55714  -0.53652
  Beta  occ. eigenvalues --   -0.51666  -0.50076  -0.47048  -0.46696  -0.44223
  Beta virt. eigenvalues --    0.02986   0.04364   0.04669   0.04692   0.05900
  Beta virt. eigenvalues --    0.06112   0.06402   0.06762   0.06856   0.08390
  Beta virt. eigenvalues --    0.08862   0.09415   0.09595   0.11574   0.12575

 Mulliken charges and spin densities:
               1          2
     1  F   -0.379664  -0.046778
     2  B    0.297062   1.087722
     3  C    1.153458  -0.038076
     4  O   -0.667521  -0.016740
     5  O   -0.817178   0.017576
     6  O   -0.744689   0.022925
     7  C    0.728526   0.013446
     8  H   -0.247512  -0.000233
     9  H   -0.081508   0.000020
    10  H   -0.072110  -0.029605
    11  C    0.796298   0.002506
    12  H   -0.231115  -0.000531
    13  H   -0.065711  -0.001218
    14  H   -0.089399  -0.000762
    15  C    0.870345  -0.008592
    16  H   -0.233034  -0.000534
    17  H   -0.087774   0.000436
    18  H   -0.128476  -0.001562
 Sum of Mulliken charges =  -0.00000   1.00000

 Dipole moment (field-independent basis, Debye):
    X=             -0.4858    Y=             -0.0100    Z=              1.3372  Tot=              1.4227
                          Isotropic Fermi Contact Couplings
        Atom                 a.u.       MegaHertz       Gauss      10(-4) cm-1
     1  F(19)              0.06990     294.11830     104.94872      98.10730
     2  B(11)              0.35034     502.51689     179.31052     167.62159
     3  C(13)              0.08027      90.24254      32.20078      30.10167
     4  O(17)             -0.00528       3.20155       1.14239       1.06792
     5  O(17)              0.01396      -8.46031      -3.01885      -2.82206
     6  O(17)              0.00663      -4.01935      -1.43420      -1.34071
     7  C(13)              0.00478       5.37048       1.91632       1.79140
     8  H(1)              -0.00010      -0.44618      -0.15921      -0.14883

 Normal termination of Gaussian 16 at Wed Apr  9 00:34:04 2025.
