 Gaussian 16, Revision C.01,

 ----------------------------------------------------------------------
 #t hf aug-cc-pvdz symm=none int=(grid=ultrafine) guess=(read,tcheck) s
 table=opt
 ----------------------------------------------------------------------
 -----
 title
 -----
 Symbolic Z-matrix:
 Charge =  0 Multiplicity = 2

 SCF Done:  E(UHF) =  -1208.58927395     A.U. after   14 cycles
 Normal termination of Gaussian 16 at Tue Apr  8 23:47:14 2025.
 Gaussian 16:  ES64L-G16RevC.01  3-Jul-2019

 ----------------------------------------------------------------------
 #t hf aug-cc-pvdz iop(5/13=1,5/36=2,99/5=2) pseudo=read geom=check gue
 ss=(read,tcheck) scf=(maxcycle=1)
 ----------------------------------------------------------------------
 -----
 title
 -----
 Structure from the checkpoint file:  "BDE49_nonexpt_1824_mol2.chk"
 Charge =  0 Multiplicity = 2

                         Standard orientation:
 ---------------------------------------------------------------------
 Center     Atomic      Atomic             Coordinates (Angstroms)
 Number     Number       Type             X           Y           Z
 ---------------------------------------------------------------------
      1         14           0       -0.025866    0.806787    0.000000
      2         17           0       -0.025866   -0.378674    1.703205
      3         17           0       -0.025866   -0.378674   -1.703205
      4          1           0        1.241551    1.579891    0.000000
 ---------------------------------------------------------------------

 SCF Done:  E(UHF) =  -1208.64941525     A.U. after    2 cycles

 The electronic state is 2-A'.
 Alpha  occ. eigenvalues -- -103.67287-103.67287 -69.17784 -10.70740 -10.70728
 Alpha  occ. eigenvalues --   -8.36521  -8.36517  -8.36204  -8.36203  -8.36148
 Alpha  occ. eigenvalues --   -8.36146  -6.92267  -4.03344  -4.02715  -4.02561
 Alpha  occ. eigenvalues --   -1.16892  -1.14823  -0.72457  -0.57379  -0.57308
 Alpha  occ. eigenvalues --   -0.53472  -0.50057  -0.48997  -0.48224  -0.36986
 Alpha virt. eigenvalues --    0.04471   0.05136   0.05142   0.06249   0.10187
 Alpha virt. eigenvalues --    0.11937   0.12432   0.13576   0.13865   0.15322
 Alpha virt. eigenvalues --    0.15844   0.18194   0.18810   0.19292   0.23626

  Beta  occ. eigenvalues -- -103.67179-103.67179 -69.17180 -10.70623 -10.70610
  Beta  occ. eigenvalues --   -8.36277  -8.36274  -8.36091  -8.36089  -8.35956
  Beta  occ. eigenvalues --   -8.35955  -6.91278  -4.02313  -4.02193  -4.01311
  Beta  occ. eigenvalues --   -1.15959  -1.13962  -0.68725  -0.56142  -0.55754
  Beta  occ. eigenvalues --   -0.51118  -0.48874  -0.48065  -0.48032
  Beta virt. eigenvalues --    0.00829   0.05028   0.05446   0.05483   0.06774
  Beta virt. eigenvalues --    0.11530   0.12801   0.13041   0.14691   0.15192
  Beta virt. eigenvalues --    0.15530   0.16588   0.18487   0.19392   0.20387

 Mulliken charges and spin densities:
               1          2
     1  Si   0.991460   0.805264
     2  Cl  -0.455571   0.041377
     3  Cl  -0.455571   0.041377
     4  H   -0.080318   0.111981
 Sum of Mulliken charges =  -0.00000   1.00000

 Dipole moment (field-independent basis, Debye):
    X=              0.0137    Y=              1.6384    Z=             -0.0000  Tot=              1.6385
                          Isotropic Fermi Contact Couplings
        Atom                 a.u.       MegaHertz       Gauss      10(-4) cm-1
     1  Si(29)             0.86631    -769.91466    -274.72470    -256.81589
     2  Cl(35)             0.06084      26.67589       9.51862       8.89812
     3  Cl(35)             0.06084      26.67589       9.51862       8.89812
     4  H(1)               0.02861     127.89397      45.63575      42.66084
 --------------------------------------------------------
       Center         ----  Spin Dipole Couplings  ----
                      3XX-RR        3YY-RR        3ZZ-RR
 --------------------------------------------------------

 Normal termination of Gaussian 16 at Tue Apr  8 23:47:16 2025.
