 Gaussian 16, Revision C.01,

 ----------------------------------------------------------------------
 #t hf aug-cc-pvdz symm=none int=(grid=ultrafine) guess=(read,tcheck) s
 table=(opt,rrhf)
 ----------------------------------------------------------------------
 -----
 title
 -----
 Symbolic Z-matrix:
 Charge =  0 Multiplicity = 1

 SCF Done:  E(RHF) =  -443.023596197     A.U. after   12 cycles
 Normal termination of Gaussian 16 at Tue Apr  8 23:56:20 2025.
 Gaussian 16:  ES64L-G16RevC.01  3-Jul-2019

 ----------------------------------------------------------------------
 #t hf aug-cc-pvdz iop(5/13=1,5/36=2,99/5=2) pseudo=read geom=check gue
 ss=(read,tcheck) scf=(maxcycle=1)
 ----------------------------------------------------------------------
 -----
 title
 -----
 Structure from the checkpoint file:  "BDE49_nonexpt_2038_mol1.chk"
 Charge =  0 Multiplicity = 1

                         Standard orientation:
 ---------------------------------------------------------------------
 Center     Atomic      Atomic             Coordinates (Angstroms)
 Number     Number       Type             X           Y           Z
 ---------------------------------------------------------------------
      1         14           0       -1.373278   -0.171797    0.000004
      2          6           0        0.533604    0.199564   -0.000064
      3          8           0        0.849403    1.371297    0.000016
      4          6           0        1.563437   -0.910518    0.000011
      5          1           0        1.423226   -1.549697    0.878673
      6          1           0        2.570481   -0.490164    0.000042
      7          1           0        1.423297   -1.549738   -0.878633
      8          1           0       -1.944069    0.456469   -1.210924
      9          1           0       -1.944013    0.456556    1.210914
     10          1           0       -1.680491   -1.622915    0.000061
 ---------------------------------------------------------------------

 SCF Done:  E(RHF) =  -443.094917771     A.U. after    2 cycles

 The electronic state is 1-A.
 Alpha  occ. eigenvalues --  -69.07872 -20.57685 -11.33892 -11.25176  -6.83228
 Alpha  occ. eigenvalues --   -3.94006  -3.93990  -3.93977  -1.35927  -1.00913
 Alpha  occ. eigenvalues --   -0.79604  -0.71198  -0.63801  -0.62462  -0.61007
 Alpha  occ. eigenvalues --   -0.55067  -0.52569  -0.49337  -0.48684  -0.39757
 Alpha virt. eigenvalues --    0.02940   0.04724   0.05121   0.05796   0.06405
 Alpha virt. eigenvalues --    0.07337   0.07728   0.08456   0.08937   0.11129
 Alpha virt. eigenvalues --    0.12235   0.13809   0.14788   0.14965   0.15480

 Mulliken charges:
               1
     1  Si   0.391728
     2  C    0.012951
     3  O   -0.504069
     4  C    0.257842
     5  H    0.005490
     6  H   -0.060051
     7  H    0.005499
     8  H   -0.039301
     9  H   -0.039292
    10  H   -0.030799
 Sum of Mulliken charges =  -0.00000

 Dipole moment (field-independent basis, Debye):
    X=             -0.4587    Y=             -3.1576    Z=             -0.0000  Tot=              3.1908

 Test job not archived.
 1\1\GINC-SE419\SP\RHF\Aug-CC-pVDZ\C2H6O1Si1\OHZDE\08-Apr-2025\0\\#t hf
  aug-cc-pvdz iop(5/13=1,5/36=2,99/5=2) pseudo=read geom=check guess=(r
 ead,tcheck) scf=(maxcycle=1)\\title\\0,1\Si,0,1.373278,-0.171797,-0.00
 0004\C,0,-0.533604,0.199564,0.000064\O,0,-0.849403,1.371297,-0.000016\
 C,0,-1.563437,-0.910518,-0.000011\H,0,-1.423226,-1.549697,-0.878673\H,
 0,-2.570481,-0.490164,-0.000042\H,0,-1.423297,-1.549738,0.878633\H,0,1
 .944069,0.45647,1.210924\H,0,1.944013,0.456557,-1.210914\H,0,1.680491,
 -1.622915,-0.000061\\Version=ES64L-G16RevC.01\State=1-A\HF=-443.094917

 Normal termination of Gaussian 16 at Tue Apr  8 23:56:23 2025.
