 Gaussian 16, Revision C.01,

 ----------------------------------------------------------------------
 #t hf aug-cc-pvdz symm=none int=(grid=ultrafine) guess=(read,tcheck) s
 table=opt
 ----------------------------------------------------------------------
 -----
 title
 -----
 Symbolic Z-matrix:
 Charge =  0 Multiplicity = 2

 SCF Done:  E(UHF) =  -539.848383348     A.U. after   15 cycles
 Normal termination of Gaussian 16 at Tue Apr  8 23:39:07 2025.
 Gaussian 16:  ES64L-G16RevC.01  3-Jul-2019

 ----------------------------------------------------------------------
 #t hf aug-cc-pvdz iop(5/13=1,5/36=2,99/5=2) pseudo=read geom=check gue
 ss=(read,tcheck) scf=(maxcycle=1)
 ----------------------------------------------------------------------
 -----
 title
 -----
 Structure from the checkpoint file:  "BDE49_nonexpt_163_mol2.chk"
 Charge =  0 Multiplicity = 2

                         Standard orientation:
 ---------------------------------------------------------------------
 Center     Atomic      Atomic             Coordinates (Angstroms)
 Number     Number       Type             X           Y           Z
 ---------------------------------------------------------------------
      1         17           0       -1.102394    0.068958   -0.000006
      2          7           0        1.685415    0.142116    0.000008
      3          5           0        0.529700   -0.608331    0.000004
      4          1           0        1.694012    1.155610    0.000006
      5          1           0        2.600284   -0.281048    0.000014
 ---------------------------------------------------------------------

 SCF Done:  E(UHF) =  -539.892396320     A.U. after    2 cycles

 The electronic state is 2-A.
 Alpha  occ. eigenvalues -- -103.65391 -15.64411 -10.68874  -8.34645  -8.34338
 Alpha  occ. eigenvalues --   -8.34301  -7.69056  -1.16856  -1.13168  -0.73087
 Alpha  occ. eigenvalues --   -0.70634  -0.59678  -0.50740  -0.49398  -0.43693
 Alpha  occ. eigenvalues --   -0.34925
 Alpha virt. eigenvalues --    0.03306   0.04746   0.05497   0.05996   0.08128
 Alpha virt. eigenvalues --    0.09534   0.13047   0.14954   0.16030   0.17394
 Alpha virt. eigenvalues --    0.18372   0.19099   0.19153   0.21428   0.24127

  Beta  occ. eigenvalues -- -103.65294 -15.64510 -10.68760  -8.34435  -8.34263
  Beta  occ. eigenvalues --   -8.34124  -7.66911  -1.16152  -1.12687  -0.71210
  Beta  occ. eigenvalues --   -0.69345  -0.57298  -0.50472  -0.47519  -0.44528
  Beta virt. eigenvalues --    0.02860   0.04786   0.05280   0.05624   0.07833
  Beta virt. eigenvalues --    0.08322   0.14236   0.15258   0.16008   0.16642
  Beta virt. eigenvalues --    0.17593   0.18496   0.19471   0.19500   0.22468

 Mulliken charges and spin densities:
               1          2
     1  Cl  -0.269018   0.017983
     2  N   -0.002902  -0.098573
     3  B    0.176701   1.045599
     4  H    0.040057   0.034278
     5  H    0.055162   0.000712
 Sum of Mulliken charges =   0.00000   1.00000

 Dipole moment (field-independent basis, Debye):
    X=              2.7577    Y=              0.8431    Z=              0.0000  Tot=              2.8837
                          Isotropic Fermi Contact Couplings
        Atom                 a.u.       MegaHertz       Gauss      10(-4) cm-1
     1  Cl(35)             0.10179      44.63123      15.92553      14.88738
     2  N(14)              0.03588      11.59281       4.13660       3.86695
     3  B(11)              0.39757     570.26658     203.48530     190.22046
     4  H(1)               0.01363      60.93940      21.74469      20.32720
     5  H(1)               0.00460      20.55085       7.33306       6.85503
 --------------------------------------------------------
       Center         ----  Spin Dipole Couplings  ----
                      3XX-RR        3YY-RR        3ZZ-RR

 Normal termination of Gaussian 16 at Tue Apr  8 23:39:08 2025.
