 Gaussian 16, Revision C.01,

 ----------------------------------------------------------------------
 #t hf aug-cc-pvdz symm=none int=(grid=ultrafine) guess=(read,tcheck) s
 table=(opt,rrhf)
 ----------------------------------------------------------------------
 -----
 title
 -----
 Symbolic Z-matrix:
 Charge =  0 Multiplicity = 1

 SCF Done:  E(RHF) =  -1208.03402975     A.U. after   13 cycles
 Normal termination of Gaussian 16 at Wed Apr  9 00:04:35 2025.
 Gaussian 16:  ES64L-G16RevC.01  3-Jul-2019

 ----------------------------------------------------------------------
 #t hf aug-cc-pvdz iop(5/13=1,5/36=2,99/5=2) pseudo=read geom=check gue
 ss=(read,tcheck) scf=(maxcycle=1)
 ----------------------------------------------------------------------
 -----
 title
 -----
 Structure from the checkpoint file:  "BDE49_nonexpt_223_mol1.chk"
 Charge =  0 Multiplicity = 1

                         Standard orientation:
 ---------------------------------------------------------------------
 Center     Atomic      Atomic             Coordinates (Angstroms)
 Number     Number       Type             X           Y           Z
 ---------------------------------------------------------------------
      1         17           0       -1.391525    1.514229   -0.007958
      2          5           0       -0.505068    0.000000   -0.019594
      3         17           0       -1.391526   -1.514228   -0.007957
      4          6           0        1.106611    0.000000   -0.021543
      5          8           0        1.664444   -1.092831   -0.693110
      6          1           0        1.298410   -1.891592   -0.297368
      7          8           0        1.444636   -0.000007    1.348602
      8          1           0        2.412504   -0.000005    1.393371
      9          8           0        1.664447    1.092836   -0.693100
     10          1           0        1.298408    1.891593   -0.297357
 ---------------------------------------------------------------------

 SCF Done:  E(RHF) =  -1208.15942234     A.U. after    2 cycles

 The electronic state is 1-A.
 Alpha  occ. eigenvalues -- -103.69053-103.69053 -20.60756 -20.60280 -20.60278
 Alpha  occ. eigenvalues --  -11.41733 -10.72550 -10.72517  -8.38232  -8.38225
 Alpha  occ. eigenvalues --   -8.38003  -8.38000  -8.37977  -8.37974  -7.75302
 Alpha  occ. eigenvalues --   -1.43200  -1.32731  -1.32639  -1.20321  -1.16694
 Alpha  occ. eigenvalues --   -0.92432  -0.82837  -0.73483  -0.70641  -0.67441
 Alpha  occ. eigenvalues --   -0.66556  -0.64833  -0.60393  -0.56529  -0.55954
 Alpha  occ. eigenvalues --   -0.54661  -0.53253  -0.51843  -0.49860  -0.48863
 Alpha  occ. eigenvalues --   -0.46726
 Alpha virt. eigenvalues --    0.03408   0.04893   0.04907   0.05589   0.06420
 Alpha virt. eigenvalues --    0.07096   0.07350   0.09242   0.11614   0.13721
 Alpha virt. eigenvalues --    0.13760   0.14626   0.14789   0.16320   0.17609

 Mulliken charges:
               1
     1  Cl  -0.304510
     2  B    0.593319
     3  Cl  -0.304511
     4  C    1.295443
     5  O   -0.557242
     6  H    0.150200
     7  O   -0.554276
     8  H    0.088621
     9  O   -0.557241
    10  H    0.150199
 Sum of Mulliken charges =  -0.00000

 Dipole moment (field-independent basis, Debye):
    X=             -0.1830    Y=              0.0000    Z=              1.3047  Tot=              1.3175

 Test job not archived.
 1\1\GINC-SE331\SP\RHF\Aug-CC-pVDZ\C1H3B1Cl2O3\OHZDE\09-Apr-2025\0\\#t
 hf aug-cc-pvdz iop(5/13=1,5/36=2,99/5=2) pseudo=read geom=check guess=
 (read,tcheck) scf=(maxcycle=1)\\title\\0,1\Cl,0,-1.391526,1.514228,-0.
 007958\B,0,-0.505068,0.,-0.019594\Cl,0,-1.391525,-1.514229,-0.007957\C
 ,0,1.106611,0.000001,-0.021543\O,0,1.664445,-1.09283,-0.69311\H,0,1.29
 8411,-1.891591,-0.297368\O,0,1.444636,-0.000006,1.348602\H,0,2.412504,
 -0.000003,1.393371\O,0,1.664446,1.092837,-0.6931\H,0,1.298407,1.891594
 ,-0.297357\\Version=ES64L-G16RevC.01\State=1-A\HF=-1208.1594223\RMSD=2

 Normal termination of Gaussian 16 at Wed Apr  9 00:04:39 2025.
