 Gaussian 16, Revision C.01,

 ----------------------------------------------------------------------
 #t hf aug-cc-pvdz symm=none int=(grid=ultrafine) guess=(read,tcheck) s
 table=(opt,rrhf)
 ----------------------------------------------------------------------
 -----
 title
 -----
 Symbolic Z-matrix:
 Charge =  0 Multiplicity = 1

 SCF Done:  E(RHF) =  -1428.93333755     A.U. after   15 cycles
 Normal termination of Gaussian 16 at Tue Apr  8 23:54:02 2025.
 Gaussian 16:  ES64L-G16RevC.01  3-Jul-2019

 ----------------------------------------------------------------------
 #t hf aug-cc-pvdz iop(5/13=1,5/36=2,99/5=2) pseudo=read geom=check gue
 ss=(read,tcheck) scf=(maxcycle=1)
 ----------------------------------------------------------------------
 -----
 title
 -----
 Structure from the checkpoint file:  "BDE49_nonexpt_1945_mol1.chk"
 Charge =  0 Multiplicity = 1

                         Standard orientation:
 ---------------------------------------------------------------------
 Center     Atomic      Atomic             Coordinates (Angstroms)
 Number     Number       Type             X           Y           Z
 ---------------------------------------------------------------------
      1          6           0       -1.198547    1.595951    0.611703
      2         14           0        0.515537    1.858963   -0.155978
      3          6           0        1.622298    0.379969    0.388842
      4          1           0        1.124880    3.065937    0.443431
      5          1           0        0.455114    1.972963   -1.626423
      6          8           0        1.655602    0.055635    1.555006
      7         16           0        2.580747   -0.426588   -0.901570
      8          6           0        3.481828   -1.679865    0.067237
      9          1           0        3.225720   -2.672052   -0.301027
     10          1           0        3.166441   -1.568710    1.105951
     11          1           0        4.553056   -1.507567   -0.024648
     12          6           0       -2.027292    0.577389   -0.132714
     13          8           0       -2.554162    0.797818   -1.194918
     14         16           0       -2.118424   -1.012626    0.712630
     15          6           0       -3.096844   -1.967765   -0.489071
     16          1           0       -3.997444   -2.340543   -0.003535
     17          1           0       -2.501987   -2.797734   -0.867762
     18          1           0       -3.358316   -1.287742   -1.300748
     19          1           0       -1.726719    2.552934    0.564463
     20          1           0       -1.055603    1.322746    1.660347
 ---------------------------------------------------------------------

 SCF Done:  E(RHF) =  -1429.10436476     A.U. after    2 cycles

 The electronic state is 1-A.
 Alpha  occ. eigenvalues --  -93.55377 -93.55143 -69.09604 -20.58769 -20.57721
 Alpha  occ. eigenvalues --  -11.38541 -11.36861 -11.27175 -11.26838 -11.25842
 Alpha  occ. eigenvalues --   -8.85248  -8.84986  -6.84873  -6.19379  -6.19135
 Alpha  occ. eigenvalues --   -6.19129  -6.18883  -6.18862  -6.18603  -3.95668
 Alpha  occ. eigenvalues --   -3.95625  -3.95613  -1.37599  -1.37447  -1.05869
 Alpha  occ. eigenvalues --   -1.04896  -1.01280  -0.91564  -0.88852  -0.78484
 Alpha  occ. eigenvalues --   -0.74366  -0.70453  -0.66961  -0.65801  -0.65299
 Alpha  occ. eigenvalues --   -0.61967  -0.60887  -0.60352  -0.59427  -0.57934
 Alpha  occ. eigenvalues --   -0.56744  -0.56657  -0.54442  -0.50179  -0.48978
 Alpha  occ. eigenvalues --   -0.47071  -0.46475  -0.42001  -0.39851  -0.37417
 Alpha  occ. eigenvalues --   -0.37120
 Alpha virt. eigenvalues --    0.03241   0.03924   0.04257   0.05058   0.05436
 Alpha virt. eigenvalues --    0.05913   0.06649   0.06895   0.07124   0.07690
 Alpha virt. eigenvalues --    0.08163   0.08502   0.09309   0.10373   0.10580

 Mulliken charges:
               1
     1  C    0.264171
     2  Si   0.523075
     3  C    0.032411
     4  H    0.051977
     5  H    0.112066
     6  O   -0.559190
     7  S    0.298048
     8  C    0.062547
     9  H   -0.007047
    10  H   -0.115735
    11  H   -0.022018
    12  C    0.067997
    13  O   -0.599219
    14  S    0.308556
    15  C    0.009902
    16  H   -0.007158
    17  H   -0.016309
    18  H   -0.108782
    19  H   -0.115645
    20  H   -0.179647
 Sum of Mulliken charges =  -0.00000

 Dipole moment (field-independent basis, Debye):
    X=              0.8168    Y=             -0.7713    Z=              0.0699  Tot=              1.1256

 Test job not archived.
 1\1\GINC-SE453\SP\RHF\Aug-CC-pVDZ\C5H10O2S2Si1\OHZDE\08-Apr-2025\0\\#t
  hf aug-cc-pvdz iop(5/13=1,5/36=2,99/5=2) pseudo=read geom=check guess
 =(read,tcheck) scf=(maxcycle=1)\\title\\0,1\C,0,-1.198547,1.595951,0.6
 11703\Si,0,0.515537,1.858963,-0.155978\C,0,1.622298,0.379969,0.388842\
 H,0,1.12488,3.065937,0.443431\H,0,0.455114,1.972963,-1.626423\O,0,1.65
 5602,0.055635,1.555006\S,0,2.580747,-0.426588,-0.90157\C,0,3.481828,-1
 .679865,0.067237\H,0,3.22572,-2.672052,-0.301027\H,0,3.166441,-1.56871
 ,1.105951\H,0,4.553056,-1.507568,-0.024648\C,0,-2.027292,0.577389,-0.1

 Normal termination of Gaussian 16 at Tue Apr  8 23:54:13 2025.
