 Gaussian 16, Revision C.01,

 ----------------------------------------------------------------------
 #t hf aug-cc-pvdz symm=none int=(grid=ultrafine) guess=(read,tcheck) s
 table=opt
 ----------------------------------------------------------------------
 -----
 title
 -----
 Symbolic Z-matrix:
 Charge =  0 Multiplicity = 2

 SCF Done:  E(UHF) =  -270.597941733     A.U. after   17 cycles

 1\1\GINC-SE250\Stability\UHF\Aug-CC-pVDZ\C5H11O1\OHZDE\08-Apr-2025\0\\
 #t hf aug-cc-pvdz symm=none int=(grid=ultrafine) guess=(read,tcheck) s
 table=opt\\title\\0,2\C,0,-0.383002,-0.006931,-0.015087\C,0,-1.544976,
 -0.794921,-0.645303\H,0,-1.535403,-1.841113,-0.323105\H,0,-1.485298,-0
 .776763,-1.737005\H,0,-2.505919,-0.36454,-0.349516\C,0,-0.429132,1.462
 157,-0.486753\H,0,-0.383945,1.520938,-1.577681\H,0,0.414036,2.026492,-
 0.083777\H,0,-1.354931,1.942061,-0.15507\C,0,-0.503158,-0.050529,1.530
 407\H,0,-1.430848,0.427975,1.861326\H,0,0.337285,0.470105,1.994645\H,0

 Normal termination of Gaussian 16 at Tue Apr  8 22:47:14 2025.
 Gaussian 16:  ES64L-G16RevC.01  3-Jul-2019

 ----------------------------------------------------------------------
 #t hf aug-cc-pvdz iop(5/13=1,5/36=2,99/5=2) pseudo=read geom=check gue
 ss=(read,tcheck) scf=(maxcycle=1)
 ----------------------------------------------------------------------
 -----
 title
 -----
 Structure from the checkpoint file:  "BDE49_expt_163_mol2.chk"
 Charge =  0 Multiplicity = 2

                         Standard orientation:
 ---------------------------------------------------------------------
 Center     Atomic      Atomic             Coordinates (Angstroms)
 Number     Number       Type             X           Y           Z
 ---------------------------------------------------------------------
      1          6           0       -0.383002   -0.006931   -0.015087
      2          6           0       -1.544976   -0.794921   -0.645303
      3          1           0       -1.535403   -1.841113   -0.323105
      4          1           0       -1.485298   -0.776763   -1.737005
      5          1           0       -2.505919   -0.364540   -0.349516
      6          6           0       -0.429132    1.462157   -0.486753
      7          1           0       -0.383945    1.520938   -1.577681
      8          1           0        0.414036    2.026492   -0.083777
      9          1           0       -1.354931    1.942061   -0.155070
     10          6           0       -0.503158   -0.050529    1.530407
     11          1           0       -1.430848    0.427975    1.861326
     12          1           0        0.337285    0.470105    1.994645
     13          1           0       -0.506272   -1.082621    1.893632
     14          6           0        0.907740   -0.643484   -0.447075
     15          8           0        2.046734    0.014370   -0.041124
     16          1           0        0.976978   -1.728654   -0.522097
     17          1           0        2.815615   -0.506592   -0.289492
 ---------------------------------------------------------------------

 SCF Done:  E(UHF) =  -270.684201801     A.U. after    2 cycles

 The electronic state is 2-A.
 Alpha  occ. eigenvalues --  -20.59379 -11.28276 -11.24239 -11.22155 -11.21800
 Alpha  occ. eigenvalues --  -11.21446  -1.35425  -1.09036  -0.92617  -0.92225
 Alpha  occ. eigenvalues --   -0.91337  -0.73815  -0.73101  -0.63746  -0.63153
 Alpha  occ. eigenvalues --   -0.59001  -0.58319  -0.56063  -0.53309  -0.52994
 Alpha  occ. eigenvalues --   -0.51050  -0.47754  -0.46721  -0.45974  -0.32852
 Alpha virt. eigenvalues --    0.03286   0.04287   0.04857   0.05047   0.06548
 Alpha virt. eigenvalues --    0.06921   0.07209   0.07267   0.07823   0.09136
 Alpha virt. eigenvalues --    0.09670   0.12511   0.12988   0.13538   0.14426

  Beta  occ. eigenvalues --  -20.58818 -11.25748 -11.24489 -11.22125 -11.21621
  Beta  occ. eigenvalues --  -11.21369  -1.33514  -1.08171  -0.92426  -0.91813
  Beta  occ. eigenvalues --   -0.86686  -0.73429  -0.71263  -0.63203  -0.59506
  Beta  occ. eigenvalues --   -0.58432  -0.55812  -0.54826  -0.53100  -0.51667
  Beta  occ. eigenvalues --   -0.50878  -0.46731  -0.45879  -0.45643
  Beta virt. eigenvalues --    0.03323   0.04295   0.04867   0.04944   0.06561
  Beta virt. eigenvalues --    0.06943   0.07193   0.07279   0.07831   0.09141
  Beta virt. eigenvalues --    0.09672   0.11476   0.12983   0.13603   0.13969

 Mulliken charges and spin densities:
               1          2
     1  C   -2.998692  -0.228301
     2  C    1.030549   0.014399
     3  H   -0.064460  -0.003073
     4  H   -0.012557  -0.002191
     5  H   -0.029639  -0.003161
     6  C    1.050025   0.023191
     7  H   -0.034549  -0.007226
     8  H   -0.016479  -0.003635
     9  H   -0.040177   0.000234
    10  C    1.019051   0.045108
    11  H   -0.038345   0.005175
    12  H   -0.020506  -0.005969
    13  H   -0.042347  -0.010281
    14  C    1.008674   1.223171
    15  O   -0.601294   0.055175
    16  H   -0.401611  -0.091779
    17  H    0.192357  -0.010837
 Sum of Mulliken charges =   0.00000   1.00000

 Dipole moment (field-independent basis, Debye):
    X=              0.3472    Y=             -1.3885    Z=             -0.2980  Tot=              1.4620
                          Isotropic Fermi Contact Couplings
        Atom                 a.u.       MegaHertz       Gauss      10(-4) cm-1
     1  C(13)             -0.04331     -48.69062     -17.37402     -16.24144
     2  C(13)              0.00593       6.67015       2.38008       2.22492
     3  H(1)              -0.00053      -2.36180      -0.84275      -0.78781
     4  H(1)              -0.00054      -2.42858      -0.86658      -0.81009
     5  H(1)              -0.00095      -4.26655      -1.52241      -1.42317
     6  C(13)              0.01818      20.44329       7.29467       6.81915
     7  H(1)              -0.00063      -2.82522      -1.00811      -0.94239
     8  H(1)              -0.00065      -2.90326      -1.03596      -0.96842

 Normal termination of Gaussian 16 at Tue Apr  8 22:47:20 2025.
