 Gaussian 16, Revision C.01,

 ----------------------------------------------------------------------
 #t hf aug-cc-pvdz symm=none int=(grid=ultrafine) guess=(read,tcheck) s
 table=(opt,rrhf)
 ----------------------------------------------------------------------
 -----
 title
 -----
 Symbolic Z-matrix:
 Charge =  0 Multiplicity = 1

 SCF Done:  E(RHF) =  -436.647887863     A.U. after   14 cycles
 Normal termination of Gaussian 16 at Wed Apr  9 00:51:08 2025.
 Gaussian 16:  ES64L-G16RevC.01  3-Jul-2019

 ----------------------------------------------------------------------
 #t hf aug-cc-pvdz iop(5/13=1,5/36=2,99/5=2) pseudo=read geom=check gue
 ss=(read,tcheck) scf=(maxcycle=1)
 ----------------------------------------------------------------------
 -----
 title
 -----
 Structure from the checkpoint file:  "BDE49_nonexpt_973_mol1.chk"
 Charge =  0 Multiplicity = 1

                         Standard orientation:
 ---------------------------------------------------------------------
 Center     Atomic      Atomic             Coordinates (Angstroms)
 Number     Number       Type             X           Y           Z
 ---------------------------------------------------------------------
      1          9           0       -0.138065    1.630579   -0.042930
      2          8           0        1.150975   -1.619857    0.026469
      3          8           0       -1.153540   -0.347741   -0.474014
      4          7           0       -0.232323    0.196032    0.354153
      5          7           0        2.086220    0.470901   -0.020205
      6          6           0        1.077684   -0.420009    0.055943
      7          6           0       -2.459414   -0.295327    0.129910
      8          1           0        1.893812    1.454961   -0.098098
      9          1           0        3.015542    0.111441   -0.157833
     10          1           0       -3.110081   -0.820839   -0.566875
     11          1           0       -2.442972   -0.798709    1.097415
     12          1           0       -2.780089    0.742197    0.239368
 ---------------------------------------------------------------------

 SCF Done:  E(RHF) =  -436.789116702     A.U. after    2 cycles

 The electronic state is 1-A.
 Alpha  occ. eigenvalues --  -26.13828 -20.65382 -20.56639 -15.81279 -15.67233
 Alpha  occ. eigenvalues --  -11.42537 -11.30777  -1.64889  -1.44043  -1.38048
 Alpha  occ. eigenvalues --   -1.21543  -1.10818  -0.94227  -0.84383  -0.79849
 Alpha  occ. eigenvalues --   -0.76640  -0.75575  -0.71020  -0.69772  -0.67304
 Alpha  occ. eigenvalues --   -0.66686  -0.64169  -0.59932  -0.57234  -0.51612
 Alpha  occ. eigenvalues --   -0.50010  -0.45612  -0.44388
 Alpha virt. eigenvalues --    0.03256   0.03735   0.05183   0.05753   0.06826
 Alpha virt. eigenvalues --    0.09568   0.10037   0.12500   0.13336   0.13753
 Alpha virt. eigenvalues --    0.14741   0.15525   0.16103   0.16499   0.17278

 Mulliken charges:
               1
     1  F   -0.487638
     2  O   -0.407856
     3  O   -0.567788
     4  N    0.021490
     5  N   -0.071599
     6  C    0.996374
     7  C    0.796742
     8  H    0.045382
     9  H    0.005382
    10  H   -0.182209
    11  H   -0.071900
    12  H   -0.076380
 Sum of Mulliken charges =  -0.00000

 Dipole moment (field-independent basis, Debye):
    X=             -0.1257    Y=              1.9529    Z=              0.3401  Tot=              1.9863

 Test job not archived.
 1\1\GINC-SE250\SP\RHF\Aug-CC-pVDZ\C2H5F1N2O2\OHZDE\09-Apr-2025\0\\#t h
 f aug-cc-pvdz iop(5/13=1,5/36=2,99/5=2) pseudo=read geom=check guess=(
 read,tcheck) scf=(maxcycle=1)\\title\\0,1\F,0,-0.138065,1.630579,-0.04
 293\O,0,1.150975,-1.619857,0.026469\O,0,-1.15354,-0.347741,-0.474014\N
 ,0,-0.232323,0.196032,0.354153\N,0,2.08622,0.470901,-0.020205\C,0,1.07
 7684,-0.420009,0.055943\C,0,-2.459414,-0.295327,0.12991\H,0,1.893812,1
 .454961,-0.098098\H,0,3.015542,0.111441,-0.157833\H,0,-3.110081,-0.820
 839,-0.566875\H,0,-2.442972,-0.798709,1.097415\H,0,-2.780089,0.742197,

 Normal termination of Gaussian 16 at Wed Apr  9 00:51:12 2025.
