 Gaussian 16, Revision C.01,

 ----------------------------------------------------------------------
 #t hf aug-cc-pvdz symm=none int=(grid=ultrafine) guess=(read,tcheck) s
 table=(opt,rrhf)
 ----------------------------------------------------------------------
 -----
 title
 -----
 Symbolic Z-matrix:
 Charge =  0 Multiplicity = 1

 SCF Done:  E(RHF) =  -423.980070167     A.U. after   12 cycles
 Normal termination of Gaussian 16 at Wed Apr  9 00:33:14 2025.
 Gaussian 16:  ES64L-G16RevC.01  3-Jul-2019

 ----------------------------------------------------------------------
 #t hf aug-cc-pvdz iop(5/13=1,5/36=2,99/5=2) pseudo=read geom=check gue
 ss=(read,tcheck) scf=(maxcycle=1)
 ----------------------------------------------------------------------
 -----
 title
 -----
 Structure from the checkpoint file:  "BDE49_nonexpt_449_mol1.chk"
 Charge =  0 Multiplicity = 1

                         Standard orientation:
 ---------------------------------------------------------------------
 Center     Atomic      Atomic             Coordinates (Angstroms)
 Number     Number       Type             X           Y           Z
 ---------------------------------------------------------------------
      1          1           0       -1.807125   -1.005493    0.000069
      2          1           0       -1.774172    1.076656    0.000057
      3         16           0        0.552231   -0.089341    0.000025
      4          5           0       -1.222801    0.027379   -0.000112
      5          1           0        0.859598    1.221390    0.000026
 ---------------------------------------------------------------------

 SCF Done:  E(RHF) =  -424.008999220     A.U. after    2 cycles

 The electronic state is 1-A.
 Alpha  occ. eigenvalues --  -93.54561  -8.84573  -7.64595  -6.18732  -6.18465
 Alpha  occ. eigenvalues --   -6.18271  -0.97813  -0.68539  -0.57596  -0.50239
 Alpha  occ. eigenvalues --   -0.45286  -0.40182
 Alpha virt. eigenvalues --    0.03941   0.04859   0.04981   0.05536   0.08267
 Alpha virt. eigenvalues --    0.10330   0.10358   0.11754   0.13505   0.15269
 Alpha virt. eigenvalues --    0.16493   0.18390   0.21919   0.22732   0.26468

 Mulliken charges:
               1
     1  H    0.195573
     2  H    0.180387
     3  S   -0.181652
     4  B   -0.207683
     5  H    0.013375
 Sum of Mulliken charges =   0.00000

 Dipole moment (field-independent basis, Debye):
    X=             -0.1545    Y=              0.8802    Z=             -0.0002  Tot=              0.8936

 Test job not archived.
 1\1\GINC-SE126\SP\RHF\Aug-CC-pVDZ\B1H3S1\OHZDE\09-Apr-2025\0\\#t hf au
 g-cc-pvdz iop(5/13=1,5/36=2,99/5=2) pseudo=read geom=check guess=(read
 ,tcheck) scf=(maxcycle=1)\\title\\0,1\H,0,1.807125,-1.005493,-0.000069
 \H,0,1.774172,1.076656,-0.000057\S,0,-0.552231,-0.089341,-0.000025\B,0
 ,1.222801,0.027379,0.000112\H,0,-0.859598,1.22139,-0.000026\\Version=E
 S64L-G16RevC.01\State=1-A\HF=-424.0089992\RMSD=7.755e-03\Dipole=0.0607
 654,0.3462934,0.0000934\Quadrupole=-0.2085566,0.6847278,-0.4761712,-0.
 9701688,0.000443,-0.0000192\PG=C01 [X(B1H3S1)]\\@

 Normal termination of Gaussian 16 at Wed Apr  9 00:33:15 2025.
