 Gaussian 16, Revision C.01,

 ----------------------------------------------------------------------
 #t hf aug-cc-pvdz symm=none int=(grid=ultrafine) guess=(read,tcheck) s
 table=(opt,rrhf)
 ----------------------------------------------------------------------
 -----
 title
 -----
 Symbolic Z-matrix:
 Charge =  0 Multiplicity = 1

 SCF Done:  E(RHF) =  -228.349394567     A.U. after   12 cycles

 1\1\GINC-SE364\Stability\RHF\Aug-CC-pVDZ\C3H10N2\OHZDE\08-Apr-2025\0\\
 #t hf aug-cc-pvdz symm=none int=(grid=ultrafine) guess=(read,tcheck) s
 table=(opt,rrhf)\\title\\0,1\C,0,-0.735774,-0.750753,0.157052\C,0,0.48
 7419,0.020621,-0.353607\N,0,0.439867,1.38428,0.199739\H,0,-0.312421,1.
 892499,-0.25701\H,0,1.296932,1.879329,-0.028609\N,0,-1.973329,-0.00578
 ,-0.120031\H,0,-0.59099,-0.96365,1.227608\H,0,-0.785967,-1.710263,-0.3
 66911\H,0,-2.11352,0.68851,0.607453\H,0,-2.774685,-0.625869,-0.080358\
 C,0,1.786152,-0.660099,0.071988\H,0,0.432542,0.023191,-1.45461\H,0,1.8

 Normal termination of Gaussian 16 at Tue Apr  8 22:36:37 2025.
 Gaussian 16:  ES64L-G16RevC.01  3-Jul-2019

 ----------------------------------------------------------------------
 #t hf aug-cc-pvdz iop(5/13=1,5/36=2,99/5=2) pseudo=read geom=check gue
 ss=(read,tcheck) scf=(maxcycle=1)
 ----------------------------------------------------------------------
 -----
 title
 -----
 Structure from the checkpoint file:  "BDE49_expt_1198_mol1.chk"
 Charge =  0 Multiplicity = 1

                         Standard orientation:
 ---------------------------------------------------------------------
 Center     Atomic      Atomic             Coordinates (Angstroms)
 Number     Number       Type             X           Y           Z
 ---------------------------------------------------------------------
      1          6           0       -0.735774   -0.750753    0.157052
      2          6           0        0.487419    0.020621   -0.353607
      3          7           0        0.439867    1.384280    0.199739
      4          1           0       -0.312421    1.892499   -0.257010
      5          1           0        1.296932    1.879329   -0.028609
      6          7           0       -1.973329   -0.005780   -0.120031
      7          1           0       -0.590990   -0.963650    1.227608
      8          1           0       -0.785967   -1.710263   -0.366911
      9          1           0       -2.113520    0.688510    0.607453
     10          1           0       -2.774685   -0.625869   -0.080358
     11          6           0        1.786152   -0.660099    0.071988
     12          1           0        0.432542    0.023191   -1.454610
     13          1           0        1.879437   -0.653030    1.161687
     14          1           0        2.655550   -0.142198   -0.344910
     15          1           0        1.820574   -1.696634   -0.274890
 ---------------------------------------------------------------------

 SCF Done:  E(RHF) =  -228.420693463     A.U. after    2 cycles

 The electronic state is 1-A.
 Alpha  occ. eigenvalues --  -15.60421 -15.59964 -11.25750 -11.25317 -11.22235
 Alpha  occ. eigenvalues --   -1.16914  -1.11801  -0.99090  -0.89497  -0.77183
 Alpha  occ. eigenvalues --   -0.68050  -0.65832  -0.60766  -0.60721  -0.56570
 Alpha  occ. eigenvalues --   -0.52826  -0.50496  -0.49445  -0.47735  -0.39895
 Alpha  occ. eigenvalues --   -0.37270
 Alpha virt. eigenvalues --    0.03608   0.04013   0.04443   0.04817   0.06837
 Alpha virt. eigenvalues --    0.06882   0.07499   0.08076   0.09315   0.09692
 Alpha virt. eigenvalues --    0.13208   0.14048   0.15245   0.15583   0.15708

 Mulliken charges:
               1
     1  C    0.854739
     2  C   -0.269842
     3  N   -0.353085
     4  H    0.028949
     5  H   -0.010685
     6  N   -0.352059
     7  H   -0.101926
     8  H   -0.150400
     9  H    0.063001
    10  H   -0.036629
    11  C    0.547754
    12  H   -0.107145
    13  H    0.029959
    14  H   -0.108319
    15  H   -0.034311
 Sum of Mulliken charges =  -0.00000

 Dipole moment (field-independent basis, Debye):
    X=              0.0051    Y=             -0.5176    Z=             -0.1607  Tot=              0.5420

 Test job not archived.
 1\1\GINC-SE364\SP\RHF\Aug-CC-pVDZ\C3H10N2\OHZDE\08-Apr-2025\0\\#t hf a
 ug-cc-pvdz iop(5/13=1,5/36=2,99/5=2) pseudo=read geom=check guess=(rea
 d,tcheck) scf=(maxcycle=1)\\title\\0,1\C,0,-0.735774,-0.750753,0.15705
 2\C,0,0.487419,0.020621,-0.353607\N,0,0.439867,1.38428,0.199739\H,0,-0
 .312421,1.892499,-0.25701\H,0,1.296932,1.879329,-0.028609\N,0,-1.97332
 9,-0.00578,-0.120031\H,0,-0.59099,-0.96365,1.227608\H,0,-0.785967,-1.7
 10263,-0.366911\H,0,-2.11352,0.68851,0.607453\H,0,-2.774685,-0.625869,
 -0.080358\C,0,1.786152,-0.660099,0.071988\H,0,0.432542,0.023191,-1.454

 Normal termination of Gaussian 16 at Tue Apr  8 22:36:41 2025.
