 Gaussian 16, Revision C.01,

 ----------------------------------------------------------------------
 #t hf aug-cc-pvdz symm=none int=(grid=ultrafine) guess=(read,tcheck) s
 table=opt
 ----------------------------------------------------------------------
 -----
 title
 -----
 Symbolic Z-matrix:
 Charge =  0 Multiplicity = 2

 SCF Done:  E(UHF) =  -287.019670819     a.u. after   10 cycles
 Normal termination of Gaussian 16 at Tue Apr  8 22:53:36 2025.
 Gaussian 16:  ES64L-G16RevC.01  3-Jul-2019

 ----------------------------------------------------------------------
 #t hf aug-cc-pvdz iop(5/13=1,5/36=2,99/5=2) pseudo=read geom=check gue
 ss=(read,tcheck) scf=(maxcycle=1)
 ----------------------------------------------------------------------
 -----
 title
 -----
 Structure from the checkpoint file:  "BDE49_expt_1871_mol3.chk"
 Charge =  0 Multiplicity = 2

                         Standard orientation:
 ---------------------------------------------------------------------
 Center     Atomic      Atomic             Coordinates (Angstroms)
 Number     Number       Type             X           Y           Z
 ---------------------------------------------------------------------
      1          8           0        0.681775    1.069573   -0.000001
      2          6           0        0.066719   -0.000001    0.000005
      3          9           0       -1.256530   -0.000004   -0.000001
      4          8           0        0.681782   -1.069568   -0.000001
 ---------------------------------------------------------------------

 SCF Done:  E(UHF) =  -287.120336056     A.U. after    2 cycles

 The electronic state is 2-A.
 Alpha  occ. eigenvalues --  -26.22110 -20.77262 -20.61414 -11.53038  -1.77431
 Alpha  occ. eigenvalues --   -1.57149  -1.38429  -0.98123  -0.88688  -0.85280
 Alpha  occ. eigenvalues --   -0.84912  -0.77025  -0.73739  -0.69379  -0.56175
 Alpha  occ. eigenvalues --   -0.55194
 Alpha virt. eigenvalues --    0.06103   0.08342   0.08949   0.09263   0.14879
 Alpha virt. eigenvalues --    0.19552   0.20114   0.21301   0.23077   0.24719
 Alpha virt. eigenvalues --    0.27523   0.28864   0.30913   0.31311   0.32583

  Beta  occ. eigenvalues --  -26.21995 -20.73142 -20.60733 -11.53352  -1.76986
  Beta  occ. eigenvalues --   -1.46659  -1.34064  -0.95934  -0.84722  -0.84552
  Beta  occ. eigenvalues --   -0.79437  -0.70351  -0.69328  -0.53559  -0.52774
  Beta virt. eigenvalues --   -0.03769   0.06401   0.08390   0.09050   0.09754
  Beta virt. eigenvalues --    0.14815   0.19633   0.20785   0.21493   0.23171
  Beta virt. eigenvalues --    0.24797   0.28605   0.29473   0.30987   0.31442

 Mulliken charges and spin densities:
               1          2
     1  O   -0.384401   0.122656
     2  C    0.687853  -0.160116
     3  F   -0.231068   0.014556
     4  O   -0.072384   1.022904
 Sum of Mulliken charges =  -0.00000   1.00000

 Dipole moment (field-independent basis, Debye):
    X=             -0.6580    Y=             -2.2206    Z=              0.0000  Tot=              2.3161
                          Isotropic Fermi Contact Couplings
        Atom                 a.u.       MegaHertz       Gauss      10(-4) cm-1
     1  O(17)              0.05075     -30.76644     -10.97823     -10.26258
     2  C(13)             -0.05294     -59.51411     -21.23611     -19.85177
     3  F(19)             -0.00376     -15.80863      -5.64091      -5.27319
     4  O(17)              0.27500    -166.70286     -59.48373     -55.60609
 --------------------------------------------------------
       Center         ----  Spin Dipole Couplings  ----
                      3XX-RR        3YY-RR        3ZZ-RR
 --------------------------------------------------------

 Normal termination of Gaussian 16 at Tue Apr  8 22:53:38 2025.
