 Gaussian 16, Revision C.01,

 ----------------------------------------------------------------------
 #t hf aug-cc-pvdz symm=none int=(grid=ultrafine) guess=(read,tcheck) s
 table=opt
 ----------------------------------------------------------------------
 -----
 title
 -----
 Symbolic Z-matrix:
 Charge =  0 Multiplicity = 2

 SCF Done:  E(UHF) =  -596.492244233     A.U. after   17 cycles
 Normal termination of Gaussian 16 at Tue Apr  8 23:58:34 2025.
 Gaussian 16:  ES64L-G16RevC.01  3-Jul-2019

 ----------------------------------------------------------------------
 #t hf aug-cc-pvdz iop(5/13=1,5/36=2,99/5=2) pseudo=read geom=check gue
 ss=(read,tcheck) scf=(maxcycle=1)
 ----------------------------------------------------------------------
 -----
 title
 -----
 Structure from the checkpoint file:  "BDE49_nonexpt_2069_mol2.chk"
 Charge =  0 Multiplicity = 2

                         Standard orientation:
 ---------------------------------------------------------------------
 Center     Atomic      Atomic             Coordinates (Angstroms)
 Number     Number       Type             X           Y           Z
 ---------------------------------------------------------------------
      1         14           0        1.831359   -0.345337   -0.557227
      2          6           0        0.057148   -0.218592    0.231157
      3          8           0       -0.807530   -0.443462   -0.876830
      4          8           0       -0.195481    1.032859    0.850147
      5          6           0       -2.201342   -0.571366   -0.588617
      6          1           0       -2.716538   -0.488061   -1.545500
      7          1           0       -2.545291    0.224228    0.079017
      8          1           0       -2.436646   -1.544227   -0.144008
      9          6           0       -0.105130    2.173350    0.005342
     10          1           0       -0.292526    3.040559    0.638150
     11          1           0       -0.840593    2.138873   -0.803440
     12          1           0        0.895384    2.263248   -0.440797
     13          6           0       -0.106292   -1.253246    1.347023
     14          1           0       -0.029264   -2.265797    0.946366
     15          1           0       -1.076714   -1.132627    1.836953
     16          1           0        0.665122   -1.111796    2.105634
     17          1           0        2.035586   -1.708319   -1.112149
     18          1           0        2.860245   -0.077420    0.484981
 ---------------------------------------------------------------------

 SCF Done:  E(UHF) =  -596.611142797     A.U. after    2 cycles

 The electronic state is 2-A.
 Alpha  occ. eigenvalues --  -69.06721 -20.57783 -20.57765 -11.34104 -11.28436
 Alpha  occ. eigenvalues --  -11.28360 -11.23243  -6.82121  -3.93460  -3.92552
 Alpha  occ. eigenvalues --   -3.92534  -1.36883  -1.30256  -1.02396  -0.94336
 Alpha  occ. eigenvalues --   -0.92250  -0.80162  -0.72659  -0.69823  -0.67016
 Alpha  occ. eigenvalues --   -0.64060  -0.62114  -0.60709  -0.59123  -0.55664
 Alpha  occ. eigenvalues --   -0.53904  -0.52836  -0.51017  -0.48156  -0.46636
 Alpha  occ. eigenvalues --   -0.45580  -0.41479  -0.32042
 Alpha virt. eigenvalues --    0.03305   0.04463   0.04598   0.04926   0.06152
 Alpha virt. eigenvalues --    0.06240   0.06773   0.06835   0.07252   0.08931
 Alpha virt. eigenvalues --    0.09237   0.09666   0.10116   0.11340   0.13219

  Beta  occ. eigenvalues --  -69.06146 -20.57794 -20.57779 -11.34049 -11.28397
  Beta  occ. eigenvalues --  -11.28366 -11.23200  -6.81255  -3.92154  -3.92137
  Beta  occ. eigenvalues --   -3.91260  -1.36881  -1.30286  -1.02142  -0.94292
  Beta  occ. eigenvalues --   -0.92104  -0.79678  -0.71109  -0.69757  -0.66798
  Beta  occ. eigenvalues --   -0.62980  -0.61260  -0.60663  -0.58244  -0.55475
  Beta  occ. eigenvalues --   -0.53808  -0.52779  -0.50801  -0.47403  -0.46431
  Beta  occ. eigenvalues --   -0.45535  -0.40309
  Beta virt. eigenvalues --    0.03219   0.03684   0.04509   0.04790   0.05539
  Beta virt. eigenvalues --    0.06258   0.06486   0.06852   0.07202   0.07957
  Beta virt. eigenvalues --    0.09055   0.09375   0.09778   0.10649   0.11516

 Mulliken charges and spin densities:
               1          2
     1  Si  -0.338037   1.025915
     2  C    0.092729   0.011913
     3  O   -0.592588  -0.028204
     4  O   -0.667968   0.002645
     5  C    0.917737  -0.006899
     6  H   -0.259678  -0.000323
     7  H   -0.077408  -0.000797
     8  H   -0.142661   0.000452
     9  C    0.833646   0.014892
    10  H   -0.240154   0.000168
    11  H   -0.086644   0.002372
    12  H   -0.082174  -0.020571
    13  C    0.545912  -0.030981
    14  H   -0.029140  -0.006357
    15  H   -0.065422   0.009152
    16  H   -0.107248  -0.006868
    17  H    0.120409   0.018283
    18  H    0.178690   0.015208
 Sum of Mulliken charges =  -0.00000   1.00000

 Dipole moment (field-independent basis, Debye):
    X=             -1.0080    Y=              0.1746    Z=              0.1010  Tot=              1.0280
                          Isotropic Fermi Contact Couplings
        Atom                 a.u.       MegaHertz       Gauss      10(-4) cm-1
     1  Si(29)             0.54261    -482.23434    -172.07321    -160.85606
     2  C(13)              0.00212       2.38474       0.85093       0.79546
     3  O(17)             -0.00666       4.03530       1.43989       1.34603
     4  O(17)             -0.00077       0.46717       0.16670       0.15583
     5  C(13)             -0.00113      -1.27551      -0.45513      -0.42547
     6  H(1)              -0.00001      -0.05311      -0.01895      -0.01771
     7  H(1)               0.00004       0.15882       0.05667       0.05298
     8  H(1)               0.00005       0.23582       0.08415       0.07866

 Normal termination of Gaussian 16 at Tue Apr  8 23:58:42 2025.
