 Gaussian 16, Revision C.01,

 ----------------------------------------------------------------------
 #t hf aug-cc-pvdz symm=none int=(grid=ultrafine) guess=(read,tcheck) s
 table=(opt,rrhf)
 ----------------------------------------------------------------------
 -----
 title
 -----
 Symbolic Z-matrix:
 Charge =  0 Multiplicity = 1

 SCF Done:  E(RHF) =  -713.605418276     A.U. after   14 cycles
 Normal termination of Gaussian 16 at Wed Apr  9 00:30:58 2025.
 Gaussian 16:  ES64L-G16RevC.01  3-Jul-2019

 ----------------------------------------------------------------------
 #t hf aug-cc-pvdz iop(5/13=1,5/36=2,99/5=2) pseudo=read geom=check gue
 ss=(read,tcheck) scf=(maxcycle=1)
 ----------------------------------------------------------------------
 -----
 title
 -----
 Structure from the checkpoint file:  "BDE49_nonexpt_395_mol1.chk"
 Charge =  0 Multiplicity = 1

                         Standard orientation:
 ---------------------------------------------------------------------
 Center     Atomic      Atomic             Coordinates (Angstroms)
 Number     Number       Type             X           Y           Z
 ---------------------------------------------------------------------
      1          9           0       -2.216691    1.135746   -0.000036
      2          9           0       -2.216802   -1.135695   -0.000036
      3          5           0       -1.541114   -0.000008    0.000070
      4          7           0       -0.129272   -0.000080    0.000067
      5          6           0        1.063677    0.000064    0.000026
      6         16           0        2.633115   -0.000015   -0.000021
 ---------------------------------------------------------------------

 SCF Done:  E(RHF) =  -713.746895668     A.U. after    2 cycles

 The electronic state is 1-A.
 Alpha  occ. eigenvalues --  -93.56268 -26.16232 -26.16225 -15.68874 -11.42990
 Alpha  occ. eigenvalues --   -8.86201  -7.80527  -6.20512  -6.19819  -6.19787
 Alpha  occ. eigenvalues --   -1.71632  -1.69488  -1.27485  -1.05861  -0.92625
 Alpha  occ. eigenvalues --   -0.87341  -0.84999  -0.79534  -0.74752  -0.74554
 Alpha  occ. eigenvalues --   -0.74071  -0.61954  -0.59788  -0.59249  -0.39706
 Alpha  occ. eigenvalues --   -0.39135
 Alpha virt. eigenvalues --    0.04184   0.04354   0.05164   0.05206   0.06437
 Alpha virt. eigenvalues --    0.07554   0.09679   0.12999   0.13332   0.13457
 Alpha virt. eigenvalues --    0.14745   0.15482   0.16313   0.20526   0.21575

 Mulliken charges:
               1
     1  F   -0.407158
     2  F   -0.407183
     3  B    0.979865
     4  N   -0.138580
     5  C   -0.312747
     6  S    0.285803
 Sum of Mulliken charges =  -0.00000

 Dipole moment (field-independent basis, Debye):
    X=              0.3270    Y=              0.0001    Z=              0.0004  Tot=              0.3270

 Test job not archived.
 1\1\GINC-SE054\SP\RHF\Aug-CC-pVDZ\C1B1F2N1S1\OHZDE\09-Apr-2025\0\\#t h
 f aug-cc-pvdz iop(5/13=1,5/36=2,99/5=2) pseudo=read geom=check guess=(
 read,tcheck) scf=(maxcycle=1)\\title\\0,1\F,0,-2.216691,1.135746,-0.00
 0036\F,0,-2.216802,-1.135695,-0.000036\B,0,-1.541114,-0.000008,0.00007
 \N,0,-0.129272,-0.00008,0.000067\C,0,1.063677,0.000064,0.000026\S,0,2.
 633115,-0.000015,-0.000021\\Version=ES64L-G16RevC.01\State=1-A\HF=-713
 .7468957\RMSD=8.085e-03\Dipole=0.1286599,0.0000236,0.0001635\Quadrupol
 e=-1.8241418,-0.9346854,2.7588272,-0.0001733,-0.0006659,0.\PG=C01 [X(C

 Normal termination of Gaussian 16 at Wed Apr  9 00:31:01 2025.
