 Gaussian 16, Revision C.01,

 ----------------------------------------------------------------------
 #t hf aug-cc-pvdz symm=none int=(grid=ultrafine) guess=(read,tcheck) s
 table=(opt,rrhf)
 ----------------------------------------------------------------------
 -----
 title
 -----
 Symbolic Z-matrix:
 Charge =  0 Multiplicity = 1

 SCF Done:  E(RHF) =  -1085.41453447     A.U. after   14 cycles
 Normal termination of Gaussian 16 at Wed Apr  9 00:17:42 2025.
 Gaussian 16:  ES64L-G16RevC.01  3-Jul-2019

 ----------------------------------------------------------------------
 #t hf aug-cc-pvdz iop(5/13=1,5/36=2,99/5=2) pseudo=read geom=check gue
 ss=(read,tcheck) scf=(maxcycle=1)
 ----------------------------------------------------------------------
 -----
 title
 -----
 Structure from the checkpoint file:  "BDE49_nonexpt_2588_mol1.chk"
 Charge =  0 Multiplicity = 1

                         Standard orientation:
 ---------------------------------------------------------------------
 Center     Atomic      Atomic             Coordinates (Angstroms)
 Number     Number       Type             X           Y           Z
 ---------------------------------------------------------------------
      1         17           0        2.367226    0.218701    0.254996
      2         16           0        0.702583   -0.904477   -0.276112
      3          6           0       -0.659769    0.265830    0.198652
      4          8           0       -1.750915   -0.473437   -0.260754
      5          8           0       -0.561816    1.526082   -0.353523
      6          6           0       -2.990215   -0.144595    0.375916
      7          1           0       -2.960355   -0.395915    1.442077
      8          1           0       -3.755513   -0.742528   -0.115531
      9          1           0       -3.217127    0.917981    0.252473
     10          1           0       -0.482999    1.423862   -1.311909
     11          1           0       -0.666415    0.401737    1.282553
 ---------------------------------------------------------------------

 SCF Done:  E(RHF) =  -1085.52889564     A.U. after    2 cycles

 The electronic state is 1-A.
 Alpha  occ. eigenvalues -- -103.67515 -93.59508 -20.61160 -20.61090 -11.40585
 Alpha  occ. eigenvalues --  -11.30892 -10.70669  -8.88899  -8.36402  -8.36059
 Alpha  occ. eigenvalues --   -8.36030  -6.22985  -6.22688  -6.22287  -1.41219
 Alpha  occ. eigenvalues --   -1.33906  -1.16347  -1.01730  -0.92675  -0.87226
 Alpha  occ. eigenvalues --   -0.74676  -0.72260  -0.68344  -0.64009  -0.62285
 Alpha  occ. eigenvalues --   -0.58561  -0.53386  -0.52688  -0.51130  -0.50595
 Alpha  occ. eigenvalues --   -0.49015  -0.43896  -0.37285
 Alpha virt. eigenvalues --    0.03224   0.04667   0.04977   0.05608   0.06233
 Alpha virt. eigenvalues --    0.07225   0.08504   0.11272   0.12171   0.12613
 Alpha virt. eigenvalues --    0.13848   0.14321   0.14793   0.15706   0.16073

 Mulliken charges:
               1
     1  Cl  -0.310763
     2  S    0.409600
     3  C    0.691252
     4  O   -0.612416
     5  O   -0.483877
     6  C    0.638735
     7  H   -0.054973
     8  H   -0.236981
     9  H   -0.027517
    10  H    0.167835
    11  H   -0.180895
 Sum of Mulliken charges =   0.00000

 Dipole moment (field-independent basis, Debye):
    X=             -3.0825    Y=              0.1006    Z=              0.2523  Tot=              3.0944

 Test job not archived.
 1\1\GINC-SE073\SP\RHF\Aug-CC-pVDZ\C2H5Cl1O2S1\OHZDE\09-Apr-2025\0\\#t
 hf aug-cc-pvdz iop(5/13=1,5/36=2,99/5=2) pseudo=read geom=check guess=
 (read,tcheck) scf=(maxcycle=1)\\title\\0,1\Cl,0,2.367226,0.218701,0.25
 4996\S,0,0.702583,-0.904477,-0.276112\C,0,-0.659769,0.26583,0.198652\O
 ,0,-1.750915,-0.473437,-0.260754\O,0,-0.561816,1.526082,-0.353523\C,0,
 -2.990215,-0.144595,0.375916\H,0,-2.960355,-0.395915,1.442077\H,0,-3.7
 55513,-0.742528,-0.115531\H,0,-3.217127,0.917981,0.252473\H,0,-0.48299
 9,1.423862,-1.311909\H,0,-0.666415,0.401737,1.282553\\Version=ES64L-G1

 Normal termination of Gaussian 16 at Wed Apr  9 00:17:46 2025.
