 Gaussian 16, Revision C.01,

 ----------------------------------------------------------------------
 #t hf aug-cc-pvdz symm=none int=(grid=ultrafine) guess=(read,tcheck) s
 table=(opt,rrhf)
 ----------------------------------------------------------------------
 -----
 title
 -----
 Symbolic Z-matrix:
 Charge =  0 Multiplicity = 1

 SCF Done:  E(RHF) =  -806.125179255     A.U. after   12 cycles

 1\1\GINC-SE250\Stability\RHF\Aug-CC-pVDZ\H6O3Si2\OHZDE\09-Apr-2025\0\\
 #t hf aug-cc-pvdz symm=none int=(grid=ultrafine) guess=(read,tcheck) s
 table=(opt,rrhf)\\title\\0,1\Si,0,-0.432099,0.020862,-0.007476\Si,0,1.
 912643,-0.045349,0.04721\O,0,-1.064774,-1.080937,-1.06504\H,0,-0.81320
 5,-1.025412,-1.990155\O,0,-0.815623,1.572662,-0.374105\H,0,-1.710523,1
 .876137,-0.193785\O,0,-1.123788,-0.369745,1.431499\H,0,-1.46994,-1.261
 065,1.523709\H,0,2.362867,-1.413669,0.405174\H,0,2.456318,0.906073,1.0
 44464\H,0,2.480347,0.284909,-1.284503\\Version=ES64L-G16RevC.01\HF=-80

 Normal termination of Gaussian 16 at Wed Apr  9 00:08:34 2025.
 Gaussian 16:  ES64L-G16RevC.01  3-Jul-2019

 ----------------------------------------------------------------------
 #t hf aug-cc-pvdz iop(5/13=1,5/36=2,99/5=2) pseudo=read geom=check gue
 ss=(read,tcheck) scf=(maxcycle=1)
 ----------------------------------------------------------------------
 -----
 title
 -----
 Structure from the checkpoint file:  "BDE49_nonexpt_2334_mol1.chk"
 Charge =  0 Multiplicity = 1

                         Standard orientation:
 ---------------------------------------------------------------------
 Center     Atomic      Atomic             Coordinates (Angstroms)
 Number     Number       Type             X           Y           Z
 ---------------------------------------------------------------------
      1         14           0       -0.432099    0.020862   -0.007476
      2         14           0        1.912643   -0.045349    0.047210
      3          8           0       -1.064774   -1.080937   -1.065040
      4          1           0       -0.813205   -1.025412   -1.990155
      5          8           0       -0.815623    1.572662   -0.374105
      6          1           0       -1.710523    1.876137   -0.193785
      7          8           0       -1.123788   -0.369745    1.431499
      8          1           0       -1.469940   -1.261065    1.523709
      9          1           0        2.362867   -1.413669    0.405174
     10          1           0        2.456318    0.906073    1.044464
     11          1           0        2.480347    0.284909   -1.284503
 ---------------------------------------------------------------------

 SCF Done:  E(RHF) =  -806.268709911     A.U. after    2 cycles

 The electronic state is 1-A.
 Alpha  occ. eigenvalues --  -69.13891 -69.05680 -20.57974 -20.57603 -20.57456
 Alpha  occ. eigenvalues --   -6.87981  -6.81142  -3.99003  -3.98981  -3.98737
 Alpha  occ. eigenvalues --   -3.91908  -3.91904  -3.91864  -1.33055  -1.30109
 Alpha  occ. eigenvalues --   -1.29690  -0.79169  -0.73853  -0.72504  -0.70093
 Alpha  occ. eigenvalues --   -0.60829  -0.59645  -0.57808  -0.56083  -0.54241
 Alpha  occ. eigenvalues --   -0.52807  -0.48050  -0.47955  -0.40744
 Alpha virt. eigenvalues --    0.02951   0.04590   0.05187   0.05518   0.07327
 Alpha virt. eigenvalues --    0.07521   0.07525   0.08123   0.08504   0.09600
 Alpha virt. eigenvalues --    0.10264   0.10517   0.13435   0.15192   0.16214

 Mulliken charges:
               1
     1  Si   2.183421
     2  Si  -0.324047
     3  O   -0.740835
     4  H    0.112194
     5  O   -0.759982
     6  H    0.126067
     7  O   -0.729550
     8  H    0.127511
     9  H    0.019673
    10  H   -0.003555
    11  H   -0.010897
 Sum of Mulliken charges =  -0.00000

 Dipole moment (field-independent basis, Debye):
    X=             -0.9092    Y=             -0.7801    Z=             -1.0722  Tot=              1.6077

 Test job not archived.
 1\1\GINC-SE250\SP\RHF\Aug-CC-pVDZ\H6O3Si2\OHZDE\09-Apr-2025\0\\#t hf a
 ug-cc-pvdz iop(5/13=1,5/36=2,99/5=2) pseudo=read geom=check guess=(rea
 d,tcheck) scf=(maxcycle=1)\\title\\0,1\Si,0,-0.432099,0.020862,-0.0074
 76\Si,0,1.912643,-0.045349,0.04721\O,0,-1.064774,-1.080937,-1.06504\H,
 0,-0.813205,-1.025412,-1.990155\O,0,-0.815623,1.572662,-0.374105\H,0,-
 1.710523,1.876137,-0.193785\O,0,-1.123788,-0.369745,1.431499\H,0,-1.46
 994,-1.261065,1.523709\H,0,2.362867,-1.413669,0.405174\H,0,2.456318,0.
 906073,1.044464\H,0,2.480347,0.284909,-1.284503\\Version=ES64L-G16RevC

 Normal termination of Gaussian 16 at Wed Apr  9 00:08:38 2025.
