 Gaussian 16, Revision C.01,

 ----------------------------------------------------------------------
 #t hf aug-cc-pvdz symm=none int=(grid=ultrafine) guess=(read,tcheck) s
 table=(opt,rrhf)
 ----------------------------------------------------------------------
 -----
 title
 -----
 Symbolic Z-matrix:
 Charge =  0 Multiplicity = 1

 SCF Done:  E(RHF) =  -140.361063383     A.U. after   11 cycles
 Normal termination of Gaussian 16 at Wed Apr  9 00:35:16 2025.
 Gaussian 16:  ES64L-G16RevC.01  3-Jul-2019

 ----------------------------------------------------------------------
 #t hf aug-cc-pvdz iop(5/13=1,5/36=2,99/5=2) pseudo=read geom=check gue
 ss=(read,tcheck) scf=(maxcycle=1)
 ----------------------------------------------------------------------
 -----
 title
 -----
 Structure from the checkpoint file:  "BDE49_nonexpt_536_mol1.chk"
 Charge =  0 Multiplicity = 1

                         Standard orientation:
 ---------------------------------------------------------------------
 Center     Atomic      Atomic             Coordinates (Angstroms)
 Number     Number       Type             X           Y           Z
 ---------------------------------------------------------------------
      1          5           0       -1.293799    0.216098   -0.000021
      2          1           0       -2.305468   -0.415003    0.000034
      3          1           0       -1.280230    1.414915    0.000034
      4          8           0       -0.146861   -0.479612   -0.000005
      5          6           0        1.136646    0.146253    0.000008
      6          1           0        1.682033   -0.178662    0.888099
      7          1           0        1.045619    1.236304    0.000004
      8          1           0        1.682051   -0.178667   -0.888071
 ---------------------------------------------------------------------

 SCF Done:  E(RHF) =  -140.413774014     A.U. after    2 cycles

 The electronic state is 1-A.
 Alpha  occ. eigenvalues --  -20.58694 -11.29737  -7.63187  -1.33805  -0.95113
 Alpha  occ. eigenvalues --   -0.73826  -0.65714  -0.64620  -0.59537  -0.52719
 Alpha  occ. eigenvalues --   -0.49184  -0.45690
 Alpha virt. eigenvalues --    0.03544   0.04733   0.05081   0.05520   0.07159
 Alpha virt. eigenvalues --    0.07429   0.08324   0.11156   0.13007   0.13673
 Alpha virt. eigenvalues --    0.14202   0.16065   0.17010   0.17602   0.23132

 Mulliken charges:
               1
     1  B   -0.105618
     2  H    0.273192
     3  H    0.075980
     4  O   -0.630352
     5  C    0.844388
     6  H   -0.121984
     7  H   -0.213627
     8  H   -0.121980
 Sum of Mulliken charges =  -0.00000

 Dipole moment (field-independent basis, Debye):
    X=              1.3471    Y=              1.0312    Z=             -0.0001  Tot=              1.6965

 Test job not archived.
 1\1\GINC-SE095\SP\RHF\Aug-CC-pVDZ\C1H5B1O1\OHZDE\09-Apr-2025\0\\#t hf
 aug-cc-pvdz iop(5/13=1,5/36=2,99/5=2) pseudo=read geom=check guess=(re
 ad,tcheck) scf=(maxcycle=1)\\title\\0,1\B,0,1.293799,0.216098,0.000021
 \H,0,2.305468,-0.415003,-0.000034\H,0,1.28023,1.414915,-0.000034\O,0,0
 .146861,-0.479612,0.000005\C,0,-1.136646,0.146253,-0.000008\H,0,-1.682
 033,-0.178662,-0.888099\H,0,-1.045619,1.236304,-0.000004\H,0,-1.682051
 ,-0.178667,0.888071\\Version=ES64L-G16RevC.01\State=1-A\HF=-140.413774
 \RMSD=2.669e-03\Dipole=-0.5299784,0.4057088,0.0000317\Quadrupole=0.479

 Normal termination of Gaussian 16 at Wed Apr  9 00:35:18 2025.
