 Gaussian 16, Revision C.01,

 ----------------------------------------------------------------------
 #t hf aug-cc-pvdz symm=none int=(grid=ultrafine) guess=(read,tcheck) s
 table=(opt,rrhf)
 ----------------------------------------------------------------------
 -----
 title
 -----
 Symbolic Z-matrix:
 Charge =  0 Multiplicity = 1

 SCF Done:  E(RHF) =  -718.833974824     A.U. after   17 cycles
 Normal termination of Gaussian 16 at Tue Apr  8 23:34:27 2025.
 Gaussian 16:  ES64L-G16RevC.01  3-Jul-2019

 ----------------------------------------------------------------------
 #t hf aug-cc-pvdz iop(5/13=1,5/36=2,99/5=2) pseudo=read geom=check gue
 ss=(read,tcheck) scf=(maxcycle=1)
 ----------------------------------------------------------------------
 -----
 title
 -----
 Structure from the checkpoint file:  "BDE49_nonexpt_1462_mol1.chk"
 Charge =  0 Multiplicity = 1

                         Standard orientation:
 ---------------------------------------------------------------------
 Center     Atomic      Atomic             Coordinates (Angstroms)
 Number     Number       Type             X           Y           Z
 ---------------------------------------------------------------------
      1          6           0       -1.109543   -1.163197   -0.120877
      2          6           0        0.271718   -1.015094   -0.155353
      3          6           0       -1.933889   -0.036488   -0.000938
      4          6           0       -1.354060    1.239115    0.083680
      5          6           0        0.025398    1.374838    0.049674
      6          6           0        0.857484    0.251851   -0.063482
      7          1           0        0.908920   -1.886661   -0.244975
      8          1           0       -1.556628   -2.147748   -0.185770
      9          1           0       -1.990072    2.110666    0.178477
     10          1           0        0.458132    2.368024    0.120286
     11         15           0        2.678639    0.486086   -0.231834
     12          7           0        3.279571   -1.017596    0.296572
     13          1           0        4.145202   -1.311143   -0.129285
     14          1           0        3.216458   -1.287632    1.268796
     15          6           0       -3.355690   -0.184132    0.037707
     16          7           0       -4.504593   -0.303360    0.069742
     17          1           0        2.805052    1.308544    0.923311
 ---------------------------------------------------------------------

 SCF Done:  E(RHF) =  -718.970191605     A.U. after    2 cycles

 The electronic state is 1-A.
 Alpha  occ. eigenvalues --  -81.29707 -15.63980 -15.63716 -11.29648 -11.28940
 Alpha  occ. eigenvalues --  -11.28042 -11.27981 -11.27701 -11.27048 -11.26611
 Alpha  occ. eigenvalues --   -7.79675  -4.93830  -4.93681  -4.93333  -1.19984
 Alpha  occ. eigenvalues --   -1.16887  -1.14004  -1.05504  -1.03983  -0.89429
 Alpha  occ. eigenvalues --   -0.86032  -0.78601  -0.76618  -0.69044  -0.67280
 Alpha  occ. eigenvalues --   -0.66175  -0.62730  -0.62050  -0.58607  -0.55743
 Alpha  occ. eigenvalues --   -0.54752  -0.52936  -0.51454  -0.48401  -0.46501
 Alpha  occ. eigenvalues --   -0.42538  -0.39345  -0.36842  -0.32844
 Alpha virt. eigenvalues --    0.02532   0.03400   0.04055   0.04530   0.05381
 Alpha virt. eigenvalues --    0.06110   0.06375   0.07237   0.08319   0.09061
 Alpha virt. eigenvalues --    0.09704   0.09859   0.10206   0.11424   0.11954

 Mulliken charges:
               1
     1  C    0.074700
     2  C    0.678414
     3  C    2.082496
     4  C    0.184853
     5  C    0.676471
     6  C   -0.387434
     7  H   -0.574235
     8  H   -0.569743
     9  H   -0.573635
    10  H   -0.573315
    11  P    0.618867
    12  N   -0.433012
    13  H    0.008017
    14  H   -0.036442
    15  C   -1.121072
    16  N   -0.126168
    17  H    0.071237
 Sum of Mulliken charges =  -0.00000

 Dipole moment (field-independent basis, Debye):
    X=              5.7615    Y=             -0.2243    Z=              1.1478  Tot=              5.8790

 Test job not archived.
 1\1\GINC-SE086\SP\RHF\Aug-CC-pVDZ\C7H7N2P1\OHZDE\08-Apr-2025\0\\#t hf
 aug-cc-pvdz iop(5/13=1,5/36=2,99/5=2) pseudo=read geom=check guess=(re
 ad,tcheck) scf=(maxcycle=1)\\title\\0,1\C,0,-1.109543,-1.163197,-0.120
 877\C,0,0.271718,-1.015094,-0.155353\C,0,-1.933889,-0.036488,-0.000938
 \C,0,-1.35406,1.239115,0.08368\C,0,0.025398,1.374838,0.049674\C,0,0.85
 7484,0.251851,-0.063482\H,0,0.90892,-1.886661,-0.244975\H,0,-1.556628,
 -2.147748,-0.18577\H,0,-1.990072,2.110666,0.178477\H,0,0.458132,2.3680
 24,0.120286\P,0,2.678639,0.486086,-0.231834\N,0,3.279571,-1.017596,0.2

 Normal termination of Gaussian 16 at Tue Apr  8 23:34:36 2025.
