 Gaussian 16, Revision C.01,

 ----------------------------------------------------------------------
 #t hf aug-cc-pvdz symm=none int=(grid=ultrafine) guess=(read,tcheck) s
 table=opt
 ----------------------------------------------------------------------
 -----
 title
 -----
 Symbolic Z-matrix:
 Charge =  0 Multiplicity = 2

 SCF Done:  E(UHF) =  -276.349595664     A.U. after   15 cycles
 Normal termination of Gaussian 16 at Tue Apr  8 22:37:24 2025.
 Gaussian 16:  ES64L-G16RevC.01  3-Jul-2019

 ----------------------------------------------------------------------
 #t hf aug-cc-pvdz iop(5/13=1,5/36=2,99/5=2) pseudo=read geom=check gue
 ss=(read,tcheck) scf=(maxcycle=1)
 ----------------------------------------------------------------------
 -----
 title
 -----
 Structure from the checkpoint file:  "BDE49_expt_124_mol2.chk"
 Charge =  0 Multiplicity = 2

                         Standard orientation:
 ---------------------------------------------------------------------
 Center     Atomic      Atomic             Coordinates (Angstroms)
 Number     Number       Type             X           Y           Z
 ---------------------------------------------------------------------
      1          6           0       -0.308300    0.053788   -0.000000
      2          9           0        0.057901    0.737072    1.096915
      3          6           0        0.057901   -1.388923    0.000000
      4          9           0        0.057901    0.737072   -1.096915
      5          1           0        1.150612   -1.506543    0.000000
      6          1           0       -0.345218   -1.874974   -0.888790
      7          1           0       -0.345218   -1.874974    0.888790
 ---------------------------------------------------------------------

 SCF Done:  E(UHF) =  -276.449263917     A.U. after    2 cycles

 The electronic state is 2-A'.
 Alpha  occ. eigenvalues --  -26.15207 -26.15198 -11.42932 -11.26531  -1.72166
 Alpha  occ. eigenvalues --   -1.67579  -1.07289  -0.93408  -0.83484  -0.82267
 Alpha  occ. eigenvalues --   -0.79179  -0.75348  -0.71097  -0.63682  -0.59221
 Alpha  occ. eigenvalues --   -0.58826  -0.42488
 Alpha virt. eigenvalues --    0.03431   0.05577   0.05620   0.07723   0.11837
 Alpha virt. eigenvalues --    0.11902   0.11936   0.14834   0.15174   0.16745
 Alpha virt. eigenvalues --    0.21366   0.24402   0.25590   0.28156   0.28525

  Beta  occ. eigenvalues --  -26.14784 -26.14774 -11.40051 -11.26563  -1.70700
  Beta  occ. eigenvalues --   -1.66417  -1.04341  -0.91404  -0.82584  -0.78469
  Beta  occ. eigenvalues --   -0.76389  -0.71722  -0.70746  -0.60416  -0.58711
  Beta  occ. eigenvalues --   -0.58213
  Beta virt. eigenvalues --    0.03191   0.05582   0.05651   0.07233   0.10530
  Beta virt. eigenvalues --    0.11906   0.12013   0.13593   0.15005   0.15213
  Beta virt. eigenvalues --    0.18149   0.22811   0.24512   0.26379   0.28325

 Mulliken charges and spin densities:
               1          2
     1  C    0.477057   1.022222
     2  F   -0.346128   0.018533
     3  C    0.221417  -0.099903
     4  F   -0.346128   0.018533
     5  H    0.028517   0.051336
     6  H   -0.017368  -0.005361
     7  H   -0.017368  -0.005361
 Sum of Mulliken charges =   0.00000   1.00000

 Dipole moment (field-independent basis, Debye):
    X=             -0.2282    Y=             -2.5678    Z=             -0.0000  Tot=              2.5779
                          Isotropic Fermi Contact Couplings
        Atom                 a.u.       MegaHertz       Gauss      10(-4) cm-1
     1  C(13)              0.47359     532.40259     189.97448     177.59039
     2  F(19)              0.06944     292.16120     104.25038      97.45449
     3  C(13)              0.00415       4.66205       1.66354       1.55509
     4  F(19)              0.06944     292.16120     104.25038      97.45449
     5  H(1)               0.01864      83.33502      29.73601      27.79757
     6  H(1)               0.00211       9.41999       3.36129       3.14217
     7  H(1)               0.00211       9.41999       3.36129       3.14217
 --------------------------------------------------------

 Normal termination of Gaussian 16 at Tue Apr  8 22:37:26 2025.
