 Gaussian 16, Revision C.01,

 ----------------------------------------------------------------------
 #t hf aug-cc-pvdz symm=none int=(grid=ultrafine) guess=(read,tcheck) s
 table=(opt,rrhf)
 ----------------------------------------------------------------------
 -----
 title
 -----
 Symbolic Z-matrix:
 Charge =  0 Multiplicity = 1

 SCF Done:  E(RHF) =  -884.010406841     A.U. after   12 cycles
 Normal termination of Gaussian 16 at Wed Apr  9 00:14:38 2025.
 Gaussian 16:  ES64L-G16RevC.01  3-Jul-2019

 ----------------------------------------------------------------------
 #t hf aug-cc-pvdz iop(5/13=1,5/36=2,99/5=2) pseudo=read geom=check gue
 ss=(read,tcheck) scf=(maxcycle=1)
 ----------------------------------------------------------------------
 -----
 title
 -----
 Structure from the checkpoint file:  "BDE49_nonexpt_2507_mol1.chk"
 Charge =  0 Multiplicity = 1

                         Standard orientation:
 ---------------------------------------------------------------------
 Center     Atomic      Atomic             Coordinates (Angstroms)
 Number     Number       Type             X           Y           Z
 ---------------------------------------------------------------------
      1         14           0        1.103849    1.219312   -0.104944
      2          6           0       -0.564495    0.856737    0.693310
      3          6           0       -3.950932   -0.815775   -0.419484
      4          6           0       -2.932721   -0.116550    0.485569
      5          1           0       -3.574232   -1.783495   -0.764866
      6          1           0       -4.893991   -0.994167    0.104227
      7          6           0       -1.590850    0.150889   -0.209180
      8          1           0       -2.757608   -0.726181    1.380395
      9          1           0       -3.349290    0.833363    0.841905
     10          1           0       -1.767679    0.757223   -1.106237
     11          1           0       -1.174450   -0.798357   -0.565458
     12          1           0       -0.963292    1.821904    1.035495
     13          1           0       -0.395382    0.269225    1.604685
     14         16           0        2.198101   -0.536119   -0.725812
     15          6           0        2.611624   -1.288434    0.903269
     16          1           0        1.716548   -1.629468    1.422934
     17          1           0        3.163970   -0.586004    1.527608
     18          1           0        3.245948   -2.149424    0.693667
     19          1           0       -4.172274   -0.212759   -1.305588
     20          1           0        1.935001    1.994955    0.850583
     21          1           0        0.927478    1.989515   -1.358034
 ---------------------------------------------------------------------

 SCF Done:  E(RHF) =  -884.116628857     A.U. after    2 cycles

 The electronic state is 1-A.
 Alpha  occ. eigenvalues --  -93.51521 -69.07894 -11.27059 -11.23412 -11.23012
 Alpha  occ. eigenvalues --  -11.22570 -11.22349  -8.81414  -6.82958  -6.15529
 Alpha  occ. eigenvalues --   -6.15342  -6.15087  -3.93767  -3.93703  -3.93662
 Alpha  occ. eigenvalues --   -1.06460  -1.01569  -0.97816  -0.86784  -0.84525
 Alpha  occ. eigenvalues --   -0.79506  -0.66857  -0.64633  -0.59566  -0.59407
 Alpha  occ. eigenvalues --   -0.58929  -0.57497  -0.54900  -0.51561  -0.50613
 Alpha  occ. eigenvalues --   -0.49908  -0.47677  -0.46948  -0.46049  -0.43495
 Alpha  occ. eigenvalues --   -0.40582  -0.34707
 Alpha virt. eigenvalues --    0.03242   0.04158   0.04253   0.04516   0.05791
 Alpha virt. eigenvalues --    0.05863   0.06133   0.06720   0.07223   0.08033
 Alpha virt. eigenvalues --    0.08328   0.08852   0.09270   0.10311   0.10695

 Mulliken charges:
               1
     1  Si   0.444129
     2  C    0.302940
     3  C    0.480321
     4  C    0.225081
     5  H   -0.081922
     6  H   -0.068053
     7  C    0.079064
     8  H   -0.126357
     9  H   -0.134330
    10  H   -0.210077
    11  H   -0.215569
    12  H   -0.198743
    13  H   -0.198771
    14  S   -0.230062
    15  C    0.132910
    16  H   -0.145082
    17  H   -0.108825
    18  H   -0.111612
    19  H   -0.074182
    20  H    0.123017
    21  H    0.116125
 Sum of Mulliken charges =  -0.00000

 Dipole moment (field-independent basis, Debye):
    X=             -0.8779    Y=             -0.1373    Z=              1.8731  Tot=              2.0732

 Test job not archived.
 1\1\GINC-SE072\SP\RHF\Aug-CC-pVDZ\C5H14S1Si1\OHZDE\09-Apr-2025\0\\#t h
 f aug-cc-pvdz iop(5/13=1,5/36=2,99/5=2) pseudo=read geom=check guess=(
 read,tcheck) scf=(maxcycle=1)\\title\\0,1\Si,0,1.103849,1.219312,-0.10
 4944\C,0,-0.564495,0.856737,0.69331\C,0,-3.950932,-0.815775,-0.419484\
 C,0,-2.932721,-0.11655,0.485569\H,0,-3.574232,-1.783495,-0.764866\H,0,
 -4.893991,-0.994167,0.104227\C,0,-1.59085,0.150889,-0.20918\H,0,-2.757
 608,-0.726181,1.380395\H,0,-3.34929,0.833363,0.841905\H,0,-1.767679,0.
 757223,-1.106237\H,0,-1.17445,-0.798357,-0.565458\H,0,-0.963292,1.8219

 Normal termination of Gaussian 16 at Wed Apr  9 00:14:48 2025.
