 Gaussian 16, Revision C.01,

 ----------------------------------------------------------------------
 #t hf aug-cc-pvdz symm=none int=(grid=ultrafine) guess=(read,tcheck) s
 table=(opt,rrhf)
 ----------------------------------------------------------------------
 -----
 title
 -----
 Symbolic Z-matrix:
 Charge =  0 Multiplicity = 1

 SCF Done:  E(RHF) =  -805.923775124     A.U. after   12 cycles
 Normal termination of Gaussian 16 at Wed Apr  9 00:14:22 2025.
 Gaussian 16:  ES64L-G16RevC.01  3-Jul-2019

 ----------------------------------------------------------------------
 #t hf aug-cc-pvdz iop(5/13=1,5/36=2,99/5=2) pseudo=read geom=check gue
 ss=(read,tcheck) scf=(maxcycle=1)
 ----------------------------------------------------------------------
 -----
 title
 -----
 Structure from the checkpoint file:  "BDE49_nonexpt_2512_mol1.chk"
 Charge =  0 Multiplicity = 1

                         Standard orientation:
 ---------------------------------------------------------------------
 Center     Atomic      Atomic             Coordinates (Angstroms)
 Number     Number       Type             X           Y           Z
 ---------------------------------------------------------------------
      1         16           0       -0.525774   -0.987887   -0.190170
      2         14           0       -2.017242    0.560403   -0.125222
      3          6           0        0.753491   -0.323598    0.981412
      4          6           0        1.702897    0.721183    0.390030
      5          1           0        1.308869   -1.210246    1.297292
      6          1           0        0.238104    0.064447    1.862028
      7          6           0        2.594922    0.194337   -0.735716
      8          1           0        2.330716    1.089919    1.211182
      9          1           0        1.126744    1.582238    0.036246
     10          1           0        3.215000   -0.638486   -0.388948
     11          1           0        3.263778    0.977404   -1.101506
     12          1           0        1.998501   -0.160671   -1.579037
     13          1           0       -3.148272    0.049592   -0.927858
     14          1           0       -1.543357    1.841774   -0.699603
     15          1           0       -2.444169    0.813046    1.271685
 ---------------------------------------------------------------------

 SCF Done:  E(RHF) =  -806.003758709     A.U. after    2 cycles

 The electronic state is 1-A.
 Alpha  occ. eigenvalues --  -93.51790 -69.08769 -11.27700 -11.24344 -11.22635
 Alpha  occ. eigenvalues --   -8.81707  -6.83825  -6.15825  -6.15634  -6.15376
 Alpha  occ. eigenvalues --   -3.94642  -3.94579  -3.94544  -1.07293  -0.97408
 Alpha  occ. eigenvalues --   -0.88070  -0.79689  -0.69073  -0.63326  -0.62131
 Alpha  occ. eigenvalues --   -0.57563  -0.52519  -0.51044  -0.50093  -0.49190
 Alpha  occ. eigenvalues --   -0.48826  -0.45518  -0.41206  -0.35242
 Alpha virt. eigenvalues --    0.03330   0.04307   0.04716   0.04951   0.06262
 Alpha virt. eigenvalues --    0.06854   0.07015   0.07359   0.07898   0.08995
 Alpha virt. eigenvalues --    0.09683   0.10056   0.11111   0.11958   0.13987

 Mulliken charges:
               1
     1  S   -0.126320
     2  Si   0.285754
     3  C    0.130460
     4  C    0.094809
     5  H   -0.043642
     6  H   -0.192812
     7  C    0.270325
     8  H   -0.049466
     9  H   -0.149255
    10  H   -0.070212
    11  H   -0.078400
    12  H   -0.061065
    13  H   -0.044131
    14  H    0.013786
    15  H    0.020169
 Sum of Mulliken charges =   0.00000

 Dipole moment (field-independent basis, Debye):
    X=              0.8807    Y=              1.1831    Z=              0.9614  Tot=              1.7606

 Test job not archived.
 1\1\GINC-SE334\SP\RHF\Aug-CC-pVDZ\C3H10S1Si1\OHZDE\09-Apr-2025\0\\#t h
 f aug-cc-pvdz iop(5/13=1,5/36=2,99/5=2) pseudo=read geom=check guess=(
 read,tcheck) scf=(maxcycle=1)\\title\\0,1\S,0,0.525774,0.987887,-0.190
 17\Si,0,2.017242,-0.560403,-0.125222\C,0,-0.753491,0.323598,0.981412\C
 ,0,-1.702897,-0.721183,0.39003\H,0,-1.308869,1.210246,1.297292\H,0,-0.
 238104,-0.064447,1.862028\C,0,-2.594922,-0.194337,-0.735716\H,0,-2.330
 716,-1.089919,1.211182\H,0,-1.126744,-1.582238,0.036246\H,0,-3.215,0.6
 38487,-0.388948\H,0,-3.263778,-0.977403,-1.101506\H,0,-1.998501,0.1606

 Normal termination of Gaussian 16 at Wed Apr  9 00:14:27 2025.
