 Gaussian 16, Revision C.01,

 ----------------------------------------------------------------------
 #t hf aug-cc-pvdz symm=none int=(grid=ultrafine) guess=(read,tcheck) s
 table=(opt,rrhf)
 ----------------------------------------------------------------------
 -----
 title
 -----
 Symbolic Z-matrix:
 Charge =  0 Multiplicity = 1

 SCF Done:  E(RHF) =  -1590.53100920     A.U. after   14 cycles
 Normal termination of Gaussian 16 at Tue Apr  8 23:18:52 2025.
 Gaussian 16:  ES64L-G16RevC.01  3-Jul-2019

 ----------------------------------------------------------------------
 #t hf aug-cc-pvdz iop(5/13=1,5/36=2,99/5=2) pseudo=read geom=check gue
 ss=(read,tcheck) scf=(maxcycle=1)
 ----------------------------------------------------------------------
 -----
 title
 -----
 Structure from the checkpoint file:  "BDE49_nonexpt_1117_mol1.chk"
 Charge =  0 Multiplicity = 1

                         Standard orientation:
 ---------------------------------------------------------------------
 Center     Atomic      Atomic             Coordinates (Angstroms)
 Number     Number       Type             X           Y           Z
 ---------------------------------------------------------------------
      1          9           0        1.983966   -0.988205    0.000000
      2          8           0        1.368920    0.315700    0.000000
      3          6           0       -0.006811    0.121667   -0.000000
      4         17           0       -0.564043    1.812122   -0.000000
      5         17           0       -0.564043   -0.740230    1.462108
      6         17           0       -0.564043   -0.740230   -1.462108
 ---------------------------------------------------------------------

 SCF Done:  E(RHF) =  -1590.65862302     A.U. after    2 cycles

 The electronic state is 1-A'.
 Alpha  occ. eigenvalues -- -103.71772-103.70876-103.70875 -26.21006 -20.76313
 Alpha  occ. eigenvalues --  -11.52738 -10.75087 -10.74207 -10.74189  -8.40810
 Alpha  occ. eigenvalues --   -8.40450  -8.40438  -8.39921  -8.39914  -8.39561
 Alpha  occ. eigenvalues --   -8.39561  -8.39560  -8.39558  -1.71336  -1.41985
 Alpha  occ. eigenvalues --   -1.24846  -1.18636  -1.17975  -0.91492  -0.82052
 Alpha  occ. eigenvalues --   -0.80568  -0.78017  -0.70492  -0.68741  -0.64321
 Alpha  occ. eigenvalues --   -0.58437  -0.53651  -0.53243  -0.52798  -0.49913
 Alpha  occ. eigenvalues --   -0.49606  -0.48383
 Alpha virt. eigenvalues --    0.05106   0.05289   0.08078   0.08286   0.09131
 Alpha virt. eigenvalues --    0.11229   0.12184   0.12282   0.14424   0.14763
 Alpha virt. eigenvalues --    0.14796   0.18375   0.18433   0.18658   0.20388

 Mulliken charges:
               1
     1  F   -0.276987
     2  O   -0.039016
     3  C   -0.193005
     4  Cl   0.165816
     5  Cl   0.171595
     6  Cl   0.171595
 Sum of Mulliken charges =  -0.00000

 Dipole moment (field-independent basis, Debye):
    X=             -1.1367    Y=              0.6302    Z=              0.0000  Tot=              1.2997

 Test job not archived.
 1\1\GINC-SE100\SP\RHF\Aug-CC-pVDZ\C1Cl3F1O1\OHZDE\08-Apr-2025\0\\#t hf
  aug-cc-pvdz iop(5/13=1,5/36=2,99/5=2) pseudo=read geom=check guess=(r
 ead,tcheck) scf=(maxcycle=1)\\title\\0,1\F,0,1.983966,-0.988205,0.\O,0
 ,1.36892,0.3157,0.\C,0,-0.006811,0.121667,0.\Cl,0,-0.564043,1.812122,0
 .\Cl,0,-0.564043,-0.74023,1.462108\Cl,0,-0.564043,-0.74023,-1.462108\\
 Version=ES64L-G16RevC.01\State=1-A'\HF=-1590.658623\RMSD=3.585e-03\Dip
 ole=-0.4472108,0.2479401,0.\Quadrupole=-1.9105442,1.0542295,0.8563148,
 0.4098941,0.,0.\PG=CS [SG(C1Cl1F1O1),X(Cl2)]\\@

 Normal termination of Gaussian 16 at Tue Apr  8 23:18:55 2025.
