 Gaussian 16, Revision C.01,

 ----------------------------------------------------------------------
 #t hf aug-cc-pvdz symm=none int=(grid=ultrafine) guess=(read,tcheck) s
 table=opt
 ----------------------------------------------------------------------
 -----
 title
 -----
 Symbolic Z-matrix:
 Charge =  0 Multiplicity = 2

 SCF Done:  E(UHF) =  -996.450386594     A.U. after   17 cycles

 1\1\GINC-SE092\Stability\UHF\Aug-CC-pVDZ\C2H3Cl2\OHZDE\08-Apr-2025\0\\
 #t hf aug-cc-pvdz symm=none int=(grid=ultrafine) guess=(read,tcheck) s
 table=opt\\title\\0,2\C,0,-0.003085,1.746449,-0.159803\C,0,0.023034,0.
 413437,0.428577\H,0,0.247483,1.880331,-1.202818\Cl,0,-1.487686,-0.5364
 44,-0.076844\Cl,0,1.49157,-0.511276,-0.060045\H,0,-0.42419,2.56785,0.4
 04932\H,0,-0.009013,0.403749,1.512343\\Version=ES64L-G16RevC.01\HF=-99
 6.4503866\S2=0.767296\S2-1=0.\S2A=0.750226\RMSD=9.013e-09\Dipole=0.033
 8737,0.8646428,0.3259282\Quadrupole=-2.7004475,1.4794256,1.2210218,-0.

 Normal termination of Gaussian 16 at Tue Apr  8 22:28:41 2025.
 Gaussian 16:  ES64L-G16RevC.01  3-Jul-2019

 ----------------------------------------------------------------------
 #t hf aug-cc-pvdz iop(5/13=1,5/36=2,99/5=2) pseudo=read geom=check gue
 ss=(read,tcheck) scf=(maxcycle=1)
 ----------------------------------------------------------------------
 -----
 title
 -----
 Structure from the checkpoint file:  "BDE49_expt_1024_mol2.chk"
 Charge =  0 Multiplicity = 2

                         Standard orientation:
 ---------------------------------------------------------------------
 Center     Atomic      Atomic             Coordinates (Angstroms)
 Number     Number       Type             X           Y           Z
 ---------------------------------------------------------------------
      1          6           0       -0.003084    1.746449   -0.159803
      2          6           0        0.023034    0.413437    0.428577
      3          1           0        0.247484    1.880331   -1.202818
      4         17           0       -1.487686   -0.536443   -0.076844
      5         17           0        1.491570   -0.511277   -0.060045
      6          1           0       -0.424188    2.567850    0.404932
      7          1           0       -0.009013    0.403749    1.512343
 ---------------------------------------------------------------------

 SCF Done:  E(UHF) =  -996.510800734     A.U. after    2 cycles

 The electronic state is 2-A.
 Alpha  occ. eigenvalues -- -103.67439-103.66732 -11.38837 -11.28600 -10.70725
 Alpha  occ. eigenvalues --  -10.69987  -8.36495  -8.36133  -8.36106  -8.35927
 Alpha  occ. eigenvalues --   -8.35362  -8.35338  -1.21792  -1.13764  -1.03746
 Alpha  occ. eigenvalues --   -0.84651  -0.68859  -0.63155  -0.61478  -0.57423
 Alpha  occ. eigenvalues --   -0.49138  -0.48521  -0.46442  -0.45629  -0.40151
 Alpha virt. eigenvalues --    0.03409   0.04724   0.05697   0.08270   0.08881
 Alpha virt. eigenvalues --    0.10964   0.12253   0.13679   0.14459   0.15429
 Alpha virt. eigenvalues --    0.16385   0.16706   0.17855   0.18508   0.18715

  Beta  occ. eigenvalues -- -103.67391-103.66551 -11.39282 -11.26142 -10.70673
  Beta  occ. eigenvalues --  -10.69793  -8.36343  -8.36087  -8.36060  -8.35344
  Beta  occ. eigenvalues --   -8.35232  -8.35128  -1.21010  -1.12719  -0.98381
  Beta  occ. eigenvalues --   -0.81874  -0.67988  -0.62125  -0.58801  -0.56654
  Beta  occ. eigenvalues --   -0.48104  -0.47636  -0.46068  -0.45382
  Beta virt. eigenvalues --    0.03477   0.04513   0.04775   0.05731   0.08371
  Beta virt. eigenvalues --    0.10413   0.11371   0.12955   0.14146   0.14571
  Beta virt. eigenvalues --    0.15676   0.16543   0.16755   0.17950   0.18636

 Mulliken charges and spin densities:
               1          2
     1  C    0.709833   1.302052
     2  C   -0.335713  -0.216682
     3  H   -0.151081  -0.103644
     4  Cl  -0.081306   0.100211
     5  Cl  -0.063311   0.019371
     6  H   -0.161160  -0.108356
     7  H    0.082737   0.007048
 Sum of Mulliken charges =  -0.00000   1.00000

 Dipole moment (field-independent basis, Debye):
    X=              0.0928    Y=              2.2716    Z=              0.8494  Tot=              2.4270
                          Isotropic Fermi Contact Couplings
        Atom                 a.u.       MegaHertz       Gauss      10(-4) cm-1
     1  C(13)              0.21187     238.18586      84.99064      79.45025
     2  C(13)             -0.07283     -81.87831     -29.21622     -27.31166
     3  H(1)              -0.02451    -109.54785     -39.08940     -36.54123
     4  Cl(35)             0.08156      35.76190      12.76073      11.92889
     5  Cl(35)             0.02324      10.18952       3.63588       3.39886
     6  H(1)              -0.02531    -113.11516     -40.36230     -37.73116
     7  H(1)               0.00403      18.03500       6.43534       6.01583
 --------------------------------------------------------

 Normal termination of Gaussian 16 at Tue Apr  8 22:28:44 2025.
