 Gaussian 16, Revision C.01,

 ----------------------------------------------------------------------
 #t hf aug-cc-pvdz symm=none int=(grid=ultrafine) guess=(read,tcheck) s
 table=(opt,rrhf)
 ----------------------------------------------------------------------
 -----
 title
 -----
 Symbolic Z-matrix:
 Charge =  0 Multiplicity = 1

 SCF Done:  E(RHF) =  -668.492286408     A.U. after   14 cycles
 Normal termination of Gaussian 16 at Wed Apr  9 00:22:48 2025.
 Gaussian 16:  ES64L-G16RevC.01  3-Jul-2019

 ----------------------------------------------------------------------
 #t hf aug-cc-pvdz iop(5/13=1,5/36=2,99/5=2) pseudo=read geom=check gue
 ss=(read,tcheck) scf=(maxcycle=1)
 ----------------------------------------------------------------------
 -----
 title
 -----
 Structure from the checkpoint file:  "BDE49_nonexpt_2708_mol1.chk"
 Charge =  0 Multiplicity = 1

                         Standard orientation:
 ---------------------------------------------------------------------
 Center     Atomic      Atomic             Coordinates (Angstroms)
 Number     Number       Type             X           Y           Z
 ---------------------------------------------------------------------
      1          9           0       -2.489268   -0.687365    0.000147
      2          7           0       -0.008315   -0.478613   -0.000003
      3          6           0        1.617928    1.353949    0.000030
      4          6           0        1.214062   -0.099037    0.000016
      5          6           0        2.289615   -1.150547    0.000018
      6         16           0       -1.318317    0.495913   -0.000115
      7          1           0        1.204848    1.858483    0.882455
      8          1           0        1.204837    1.858490   -0.882385
      9          1           0        2.699653    1.490377    0.000027
     10          1           0        1.848597   -2.146245   -0.000001
     11          1           0        2.933544   -1.042674    0.880228
     12          1           0        2.933579   -1.042654   -0.880164
 ---------------------------------------------------------------------

 SCF Done:  E(RHF) =  -668.609266986     A.U. after    2 cycles

 The electronic state is 1-A.
 Alpha  occ. eigenvalues --  -93.64294 -26.11835 -15.66011 -11.32609 -11.26299
 Alpha  occ. eigenvalues --  -11.25297  -8.92875  -6.27071  -6.26838  -6.26245
 Alpha  occ. eigenvalues --   -1.63141  -1.23976  -1.05396  -0.97732  -0.93628
 Alpha  occ. eigenvalues --   -0.76746  -0.72440  -0.71471  -0.68872  -0.63582
 Alpha  occ. eigenvalues --   -0.62985  -0.59960  -0.57337  -0.55974  -0.54146
 Alpha  occ. eigenvalues --   -0.50189  -0.41736  -0.34050
 Alpha virt. eigenvalues --    0.02741   0.04051   0.04629   0.05537   0.07315
 Alpha virt. eigenvalues --    0.07342   0.08045   0.09271   0.10093   0.11136
 Alpha virt. eigenvalues --    0.13202   0.13403   0.14429   0.15041   0.15679

 Mulliken charges:
               1
     1  F   -0.613556
     2  N   -0.761921
     3  C    0.489644
     4  C   -0.182560
     5  C    0.238209
     6  S    0.923282
     7  H    0.032509
     8  H    0.032493
     9  H   -0.185788
    10  H   -0.108223
    11  H    0.067959
    12  H    0.067952
 Sum of Mulliken charges =  -0.00000

 Dipole moment (field-independent basis, Debye):
    X=              4.4680    Y=              2.0604    Z=             -0.0002  Tot=              4.9201

 Test job not archived.
 1\1\GINC-SE132\SP\RHF\Aug-CC-pVDZ\C3H6F1N1S1\OHZDE\09-Apr-2025\0\\#t h
 f aug-cc-pvdz iop(5/13=1,5/36=2,99/5=2) pseudo=read geom=check guess=(
 read,tcheck) scf=(maxcycle=1)\\title\\0,1\F,0,2.489268,-0.687365,-0.00
 0147\N,0,0.008315,-0.478613,0.000003\C,0,-1.617928,1.353949,-0.00003\C
 ,0,-1.214062,-0.099037,-0.000016\C,0,-2.289615,-1.150547,-0.000018\S,0
 ,1.318317,0.495913,0.000115\H,0,-1.204848,1.858483,-0.882455\H,0,-1.20
 4837,1.85849,0.882385\H,0,-2.699653,1.490377,-0.000027\H,0,-1.848597,-
 2.146245,0.000001\H,0,-2.933544,-1.042674,-0.880228\H,0,-2.933579,-1.0

 Normal termination of Gaussian 16 at Wed Apr  9 00:22:53 2025.
