 Gaussian 16, Revision C.01,

 ----------------------------------------------------------------------
 #t hf aug-cc-pvdz symm=none int=(grid=ultrafine) guess=(read,tcheck) s
 table=(opt,rrhf)
 ----------------------------------------------------------------------
 -----
 title
 -----
 Symbolic Z-matrix:
 Charge =  0 Multiplicity = 1

 SCF Done:  E(RHF) =  -734.067067836     A.U. after   16 cycles
 Normal termination of Gaussian 16 at Wed Apr  9 00:53:22 2025.
 Gaussian 16:  ES64L-G16RevC.01  3-Jul-2019

 ----------------------------------------------------------------------
 #t hf aug-cc-pvdz iop(5/13=1,5/36=2,99/5=2) pseudo=read geom=check gue
 ss=(read,tcheck) scf=(maxcycle=1)
 ----------------------------------------------------------------------
 -----
 title
 -----
 Structure from the checkpoint file:  "BDE49_nonexpt_978_mol1.chk"
 Charge =  0 Multiplicity = 1

                         Standard orientation:
 ---------------------------------------------------------------------
 Center     Atomic      Atomic             Coordinates (Angstroms)
 Number     Number       Type             X           Y           Z
 ---------------------------------------------------------------------
      1          6           0        1.052696   -0.087706    0.000015
      2          6           0        1.694315    1.158315    0.000039
      3          1           0        1.112964    2.066030    0.000080
      4          6           0        3.085130    1.196985    0.000008
      5          1           0        3.578279    2.162156    0.000026
      6          6           0        3.839284    0.026773   -0.000045
      7          1           0        4.921696    0.072572   -0.000068
      8          6           0        3.187113   -1.203018   -0.000067
      9          1           0        3.758194   -2.124117   -0.000108
     10          6           0        1.798363   -1.271502   -0.000039
     11          1           0        1.298216   -2.228167   -0.000057
     12          7           0       -0.363346   -0.171147    0.000045
     13          9           0       -0.842086   -1.471790    0.000012
     14          6           0       -1.339726    0.788276    0.000055
     15          8           0       -1.102129    1.979198   -0.000051
     16          6           0       -2.802979    0.302861   -0.000029
     17          9           0       -3.076430   -0.444253   -1.104214
     18          9           0       -3.076647   -0.443975    1.104290
     19          1           0       -3.437603    1.190236   -0.000198
 ---------------------------------------------------------------------

 SCF Done:  E(RHF) =  -734.304341764     A.U. after    2 cycles

 The electronic state is 1-A.
 Alpha  occ. eigenvalues --  -26.19400 -26.16246 -26.16238 -20.59604 -15.78503
 Alpha  occ. eigenvalues --  -11.45951 -11.42577 -11.32688 -11.26416 -11.26303
 Alpha  occ. eigenvalues --  -11.26258 -11.26007 -11.25613  -1.72755  -1.71524
 Alpha  occ. eigenvalues --   -1.68088  -1.40639  -1.24267  -1.15461  -1.06857
 Alpha  occ. eigenvalues --   -1.03178  -1.02072  -0.92302  -0.86767  -0.85221
 Alpha  occ. eigenvalues --   -0.83864  -0.83831  -0.82143  -0.80953  -0.79031
 Alpha  occ. eigenvalues --   -0.75177  -0.74877  -0.72469  -0.72061  -0.69844
 Alpha  occ. eigenvalues --   -0.67816  -0.64797  -0.63048  -0.63025  -0.61225
 Alpha  occ. eigenvalues --   -0.60273  -0.54586  -0.54371  -0.52290  -0.49060
 Alpha  occ. eigenvalues --   -0.47309  -0.35923  -0.33644
 Alpha virt. eigenvalues --    0.03120   0.03865   0.04193   0.05120   0.06046
 Alpha virt. eigenvalues --    0.07055   0.07152   0.09092   0.09334   0.09485
 Alpha virt. eigenvalues --    0.10769   0.11094   0.11744   0.13053   0.13264

 Mulliken charges:
               1
     1  C    0.780779
     2  C    0.157906
     3  H   -0.604860
     4  C    0.652300
     5  H   -0.451518
     6  C    0.545750
     7  H   -0.448133
     8  C    0.638657
     9  H   -0.432750
    10  C    0.532078
    11  H   -0.546039
    12  N   -0.443034
    13  F   -0.423830
    14  C   -0.033422
    15  O   -0.427188
    16  C    1.386377
    17  F   -0.368443
    18  F   -0.368441
    19  H   -0.146188
 Sum of Mulliken charges =  -0.00000

 Dipole moment (field-independent basis, Debye):
    X=              1.9509    Y=              0.1822    Z=             -0.0000  Tot=              1.9593

 Test job not archived.
 1\1\GINC-SE458\SP\RHF\Aug-CC-pVDZ\C8H6F3N1O1\OHZDE\09-Apr-2025\0\\#t h
 f aug-cc-pvdz iop(5/13=1,5/36=2,99/5=2) pseudo=read geom=check guess=(
 read,tcheck) scf=(maxcycle=1)\\title\\0,1\C,0,-1.052696,-0.087706,-0.0
 00015\C,0,-1.694315,1.158315,-0.000039\H,0,-1.112964,2.06603,-0.00008\
 C,0,-3.08513,1.196985,-0.000008\H,0,-3.578279,2.162156,-0.000026\C,0,-
 3.839284,0.026773,0.000045\H,0,-4.921696,0.072572,0.000068\C,0,-3.1871
 13,-1.203018,0.000067\H,0,-3.758194,-2.124117,0.000108\C,0,-1.798363,-
 1.271502,0.000039\H,0,-1.298216,-2.228167,0.000057\N,0,0.363346,-0.171

 Normal termination of Gaussian 16 at Wed Apr  9 00:53:35 2025.
