 Gaussian 16, Revision C.01,

 ----------------------------------------------------------------------
 #t hf aug-cc-pvdz symm=none int=(grid=ultrafine) guess=(read,tcheck) s
 table=(opt,rrhf)
 ----------------------------------------------------------------------
 -----
 title
 -----
 Symbolic Z-matrix:
 Charge =  0 Multiplicity = 1

 SCF Done:  E(RHF) =  -665.337515185     A.U. after   14 cycles
 Normal termination of Gaussian 16 at Wed Apr  9 00:20:37 2025.
 Gaussian 16:  ES64L-G16RevC.01  3-Jul-2019

 ----------------------------------------------------------------------
 #t hf aug-cc-pvdz iop(5/13=1,5/36=2,99/5=2) pseudo=read geom=check gue
 ss=(read,tcheck) scf=(maxcycle=1)
 ----------------------------------------------------------------------
 -----
 title
 -----
 Structure from the checkpoint file:  "BDE49_nonexpt_2656_mol1.chk"
 Charge =  0 Multiplicity = 1

                         Standard orientation:
 ---------------------------------------------------------------------
 Center     Atomic      Atomic             Coordinates (Angstroms)
 Number     Number       Type             X           Y           Z
 ---------------------------------------------------------------------
      1          9           0       -1.754495    0.609921    0.000512
      2         16           0       -0.759895   -0.752261   -0.000365
      3          6           0        0.876228   -0.010903   -0.000102
      4          8           0        1.793012   -0.799300    0.000277
      5          7           0        0.921928    1.334188   -0.000047
      6          1           0        0.073261    1.876947   -0.000275
      7          1           0        1.820548    1.790436    0.000221
 ---------------------------------------------------------------------

 SCF Done:  E(RHF) =  -665.448465320     A.U. after    2 cycles

 The electronic state is 1-A.
 Alpha  occ. eigenvalues --  -93.64946 -26.15382 -20.57809 -15.68578 -11.42907
 Alpha  occ. eigenvalues --   -8.93885  -6.28045  -6.27660  -6.27212  -1.66199
 Alpha  occ. eigenvalues --   -1.39318  -1.22272  -1.02158  -0.83922  -0.79306
 Alpha  occ. eigenvalues --   -0.75616  -0.74571  -0.72517  -0.67009  -0.62934
 Alpha  occ. eigenvalues --   -0.58330  -0.46424  -0.45780  -0.41299
 Alpha virt. eigenvalues --    0.02836   0.04681   0.06561   0.07529   0.10483
 Alpha virt. eigenvalues --    0.10834   0.12736   0.13238   0.13976   0.14716
 Alpha virt. eigenvalues --    0.15177   0.16853   0.18153   0.19484   0.22173

 Mulliken charges:
               1
     1  F   -0.628085
     2  S    0.866619
     3  C    0.178976
     4  O   -0.421398
     5  N   -0.052118
     6  H    0.056708
     7  H   -0.000703
 Sum of Mulliken charges =  -0.00000

 Dipole moment (field-independent basis, Debye):
    X=             -0.2836    Y=              2.6797    Z=             -0.0016  Tot=              2.6947

 Test job not archived.
 1\1\GINC-SE016\SP\RHF\Aug-CC-pVDZ\C1H2F1N1O1S1\OHZDE\09-Apr-2025\0\\#t
  hf aug-cc-pvdz iop(5/13=1,5/36=2,99/5=2) pseudo=read geom=check guess
 =(read,tcheck) scf=(maxcycle=1)\\title\\0,1\F,0,-1.754495,0.609921,0.0
 00512\S,0,-0.759895,-0.752261,-0.000365\C,0,0.876228,-0.010903,-0.0001
 02\O,0,1.793012,-0.7993,0.000277\N,0,0.921928,1.334188,-0.000047\H,0,0
 .073261,1.876947,-0.000275\H,0,1.820548,1.790436,0.000221\\Version=ES6
 4L-G16RevC.01\State=1-A\HF=-665.4484653\RMSD=4.160e-03\Dipole=-0.11156
 89,1.0542769,-0.0006279\Quadrupole=-3.4348835,3.9045091,-0.4696256,5.6

 Normal termination of Gaussian 16 at Wed Apr  9 00:20:40 2025.
