 Gaussian 16, Revision C.01,

 ----------------------------------------------------------------------
 #t hf aug-cc-pvdz symm=none int=(grid=ultrafine) guess=(read,tcheck) s
 table=(opt,rrhf)
 ----------------------------------------------------------------------
 -----
 title
 -----
 Symbolic Z-matrix:
 Charge =  0 Multiplicity = 1

 SCF Done:  E(RHF) =  -1103.16856193     A.U. after   16 cycles
 Normal termination of Gaussian 16 at Wed Apr  9 00:18:27 2025.
 Gaussian 16:  ES64L-G16RevC.01  3-Jul-2019

 ----------------------------------------------------------------------
 #t hf aug-cc-pvdz iop(5/13=1,5/36=2,99/5=2) pseudo=read geom=check gue
 ss=(read,tcheck) scf=(maxcycle=1)
 ----------------------------------------------------------------------
 -----
 title
 -----
 Structure from the checkpoint file:  "BDE49_nonexpt_2597_mol1.chk"
 Charge =  0 Multiplicity = 1

                         Standard orientation:
 ---------------------------------------------------------------------
 Center     Atomic      Atomic             Coordinates (Angstroms)
 Number     Number       Type             X           Y           Z
 ---------------------------------------------------------------------
      1         17           0        2.528235    0.129545   -0.826696
      2         16           0        1.436163   -0.156916    0.949663
      3          6           0       -0.235778   -0.042710    0.374849
      4          6           0       -0.895736    1.187627    0.295108
      5          6           0       -0.947603   -1.206652    0.053186
      6          7           0       -2.226211   -1.202276   -0.322427
      7          6           0       -2.226570    1.198201   -0.100657
      8          6           0       -2.842331   -0.017937   -0.396608
      9          1           0       -0.369492    2.102600    0.538526
     10          1           0       -2.780992    2.125699   -0.177621
     11          1           0       -0.453854   -2.171845    0.108125
     12          1           0       -3.882676   -0.043309   -0.708083
 ---------------------------------------------------------------------

 SCF Done:  E(RHF) =  -1103.27807382     A.U. after    2 cycles

 The electronic state is 1-A.
 Alpha  occ. eigenvalues -- -103.67572 -93.60708 -15.65139 -11.31422 -11.31305
 Alpha  occ. eigenvalues --  -11.29910 -11.29665 -11.27206 -10.70704  -8.89965
 Alpha  occ. eigenvalues --   -8.36430  -8.36090  -8.36062  -6.24072  -6.23832
 Alpha  occ. eigenvalues --   -6.23424  -1.25584  -1.16471  -1.10600  -1.06169
 Alpha  occ. eigenvalues --   -0.94329  -0.88353  -0.84050  -0.73741  -0.69612
 Alpha  occ. eigenvalues --   -0.65434  -0.60601  -0.60150  -0.57810  -0.54842
 Alpha  occ. eigenvalues --   -0.52419  -0.51189  -0.46321  -0.43226  -0.40664
 Alpha  occ. eigenvalues --   -0.37774  -0.37229
 Alpha virt. eigenvalues --    0.02518   0.02870   0.04242   0.04659   0.06041
 Alpha virt. eigenvalues --    0.07373   0.07559   0.08444   0.09960   0.10284
 Alpha virt. eigenvalues --    0.11840   0.12074   0.12607   0.13391   0.14031

 Mulliken charges:
               1
     1  Cl  -0.297149
     2  S    0.239818
     3  C    0.332928
     4  C   -0.027408
     5  C    0.603059
     6  N   -0.499870
     7  C    0.626925
     8  C    0.495968
     9  H   -0.407855
    10  H   -0.377185
    11  H   -0.358731
    12  H   -0.330500
 Sum of Mulliken charges =   0.00000

 Dipole moment (field-independent basis, Debye):
    X=             -2.1523    Y=              1.8584    Z=              0.7812  Tot=              2.9490

 Test job not archived.
 1\1\GINC-SE058\SP\RHF\Aug-CC-pVDZ\C5H4Cl1N1S1\OHZDE\09-Apr-2025\0\\#t
 hf aug-cc-pvdz iop(5/13=1,5/36=2,99/5=2) pseudo=read geom=check guess=
 (read,tcheck) scf=(maxcycle=1)\\title\\0,1\Cl,0,2.528235,0.129545,-0.8
 26696\S,0,1.436163,-0.156916,0.949663\C,0,-0.235778,-0.04271,0.374849\
 C,0,-0.895736,1.187627,0.295108\C,0,-0.947603,-1.206652,0.053186\N,0,-
 2.226211,-1.202276,-0.322427\C,0,-2.22657,1.198201,-0.100657\C,0,-2.84
 2331,-0.017937,-0.396608\H,0,-0.369492,2.1026,0.538526\H,0,-2.780992,2
 .125699,-0.177621\H,0,-0.453854,-2.171845,0.108125\H,0,-3.882676,-0.04

 Normal termination of Gaussian 16 at Wed Apr  9 00:18:33 2025.
