 Gaussian 16, Revision C.01,

 ----------------------------------------------------------------------
 #t hf aug-cc-pvdz symm=none int=(grid=ultrafine) guess=(read,tcheck) s
 table=(opt,rrhf)
 ----------------------------------------------------------------------
 -----
 title
 -----
 Symbolic Z-matrix:
 Charge =  0 Multiplicity = 1

 SCF Done:  E(RHF) =  -940.254698741     A.U. after   15 cycles
 Normal termination of Gaussian 16 at Tue Apr  8 23:45:11 2025.
 Gaussian 16:  ES64L-G16RevC.01  3-Jul-2019

 ----------------------------------------------------------------------
 #t hf aug-cc-pvdz iop(5/13=1,5/36=2,99/5=2) pseudo=read geom=check gue
 ss=(read,tcheck) scf=(maxcycle=1)
 ----------------------------------------------------------------------
 -----
 title
 -----
 Structure from the checkpoint file:  "BDE49_nonexpt_1698_mol1.chk"
 Charge =  0 Multiplicity = 1

                         Standard orientation:
 ---------------------------------------------------------------------
 Center     Atomic      Atomic             Coordinates (Angstroms)
 Number     Number       Type             X           Y           Z
 ---------------------------------------------------------------------
      1          6           0        0.654340    0.115282    0.081732
      2          6           0        1.269998   -1.085481    0.476310
      3          6           0        2.647554   -1.259930    0.377142
      4          6           0        3.446314   -0.232995   -0.123556
      5          6           0        2.859129    0.964410   -0.523602
      6          6           0        1.478970    1.133543   -0.421998
      7         15           0       -2.171188   -1.353832   -0.988327
      8          1           0        3.097973   -2.196330    0.687918
      9          1           0        4.519516   -0.367008   -0.202611
     10          1           0        3.474503    1.767130   -0.915315
     11          1           0        1.044439    2.075293   -0.740256
     12          1           0        0.666816   -1.901433    0.863047
     13         14           0       -1.213300    0.331490    0.236701
     14          6           0       -1.731494    2.043172   -0.352425
     15          1           0       -1.462649    2.212138   -1.398376
     16          1           0       -1.265094    2.828297    0.251755
     17          1           0       -2.815742    2.157331   -0.266430
     18          6           0       -1.753079    0.083200    2.025155
     19          1           0       -1.304131    0.846293    2.668376
     20          1           0       -1.447708   -0.895287    2.404967
     21          1           0       -2.840387    0.156361    2.123503
     22          1           0       -1.862184   -0.778481   -2.249000
     23          1           0       -3.481733   -0.804883   -0.949028
 ---------------------------------------------------------------------

 SCF Done:  E(RHF) =  -940.389324540     A.U. after    2 cycles

 The electronic state is 1-A.
 Alpha  occ. eigenvalues --  -81.23616 -69.06583 -11.24975 -11.24944 -11.24900
 Alpha  occ. eigenvalues --  -11.24608 -11.24590 -11.23299 -11.21922 -11.21584
 Alpha  occ. eigenvalues --   -7.74146  -6.81735  -4.88137  -4.88039  -4.87812
 Alpha  occ. eigenvalues --   -3.92469  -3.92449  -3.92427  -1.14070  -1.01083
 Alpha  occ. eigenvalues --   -1.00985  -0.95320  -0.92590  -0.82719  -0.82343
 Alpha  occ. eigenvalues --   -0.78225  -0.71198  -0.64691  -0.62929  -0.61310
 Alpha  occ. eigenvalues --   -0.59322  -0.57661  -0.56954  -0.55254  -0.54961
 Alpha  occ. eigenvalues --   -0.53674  -0.51339  -0.50245  -0.49739  -0.45090
 Alpha  occ. eigenvalues --   -0.43847  -0.41722  -0.34818  -0.34112  -0.33050
 Alpha virt. eigenvalues --    0.02884   0.03807   0.04172   0.05071   0.05365
 Alpha virt. eigenvalues --    0.05566   0.06550   0.06945   0.07324   0.07493
 Alpha virt. eigenvalues --    0.08114   0.09144   0.09362   0.09620   0.09691

 Mulliken charges:
               1
     1  C   -0.703641
     2  C    0.588264
     3  C    0.582984
     4  C    0.801463
     5  C    0.607354
     6  C    0.496370
     7  P   -0.725611
     8  H   -0.462553
     9  H   -0.443655
    10  H   -0.483140
    11  H   -0.686901
    12  H   -0.626725
    13  Si   1.353212
    14  C    0.630767
    15  H   -0.330360
    16  H   -0.276207
    17  H   -0.388319
    18  C    0.480726
    19  H   -0.304302
    20  H   -0.329576
    21  H   -0.254689
    22  H    0.255152
    23  H    0.219390
 Sum of Mulliken charges =   0.00000

 Dipole moment (field-independent basis, Debye):
    X=              0.4788    Y=              1.2886    Z=              0.4400  Tot=              1.4434

 Test job not archived.
 1\1\GINC-SE159\SP\RHF\Aug-CC-pVDZ\C8H13P1Si1\OHZDE\08-Apr-2025\0\\#t h
 f aug-cc-pvdz iop(5/13=1,5/36=2,99/5=2) pseudo=read geom=check guess=(
 read,tcheck) scf=(maxcycle=1)\\title\\0,1\C,0,0.65434,0.115282,0.08173
 2\C,0,1.269998,-1.085481,0.47631\C,0,2.647554,-1.25993,0.377142\C,0,3.
 446314,-0.232995,-0.123556\C,0,2.859129,0.96441,-0.523602\C,0,1.47897,
 1.133543,-0.421998\P,0,-2.171188,-1.353832,-0.988327\H,0,3.097973,-2.1
 9633,0.687918\H,0,4.519516,-0.367008,-0.202611\H,0,3.474503,1.76713,-0
 .915315\H,0,1.044439,2.075293,-0.740256\H,0,0.666816,-1.901433,0.86304

 Normal termination of Gaussian 16 at Tue Apr  8 23:45:29 2025.
