 Gaussian 16, Revision C.01,

 ----------------------------------------------------------------------
 #t hf aug-cc-pvdz symm=none int=(grid=ultrafine) guess=(read,tcheck) s
 table=(opt,rrhf)
 ----------------------------------------------------------------------
 -----
 title
 -----
 Symbolic Z-matrix:
 Charge =  0 Multiplicity = 1

 SCF Done:  E(RHF) =  -788.221230930     A.U. after   13 cycles
 Normal termination of Gaussian 16 at Wed Apr  9 00:10:47 2025.
 Gaussian 16:  ES64L-G16RevC.01  3-Jul-2019

 ----------------------------------------------------------------------
 #t hf aug-cc-pvdz iop(5/13=1,5/36=2,99/5=2) pseudo=read geom=check gue
 ss=(read,tcheck) scf=(maxcycle=1)
 ----------------------------------------------------------------------
 -----
 title
 -----
 Structure from the checkpoint file:  "BDE49_nonexpt_2388_mol1.chk"
 Charge =  0 Multiplicity = 1

                         Standard orientation:
 ---------------------------------------------------------------------
 Center     Atomic      Atomic             Coordinates (Angstroms)
 Number     Number       Type             X           Y           Z
 ---------------------------------------------------------------------
      1         14           0       -2.136438   -0.778166   -0.256061
      2         14           0       -0.849461    1.136853    0.221710
      3          1           0       -1.564533   -1.495642   -1.419898
      4          1           0       -3.515272   -0.352784   -0.615087
      5          1           0       -2.218151   -1.681573    0.910667
      6          7           0        0.845608    0.926744   -0.253239
      7          1           0       -0.940808    1.498023    1.656399
      8          1           0       -1.273783    2.315856   -0.573424
      9          6           0        1.507222   -0.220165    0.106184
     10          8           0        0.931022   -1.084260    0.751336
     11          1           0        1.349721    1.620387   -0.787121
     12          6           0        2.944376   -0.365135   -0.355373
     13          1           0        2.963978   -0.612828   -1.420980
     14          1           0        3.414718   -1.173537    0.200665
     15          1           0        3.509709    0.559146   -0.213184
 ---------------------------------------------------------------------

 SCF Done:  E(RHF) =  -788.332565235     A.U. after    2 cycles

 The electronic state is 1-A.
 Alpha  occ. eigenvalues --  -69.08461 -69.05361 -20.54728 -15.64042 -11.37574
 Alpha  occ. eigenvalues --  -11.25607  -6.83499  -6.80735  -3.94367  -3.94239
 Alpha  occ. eigenvalues --   -3.94182  -3.91496  -3.91486  -3.91468  -1.35678
 Alpha  occ. eigenvalues --   -1.16862  -1.00334  -0.79661  -0.74428  -0.69258
 Alpha  occ. eigenvalues --   -0.68313  -0.62962  -0.62098  -0.58488  -0.54677
 Alpha  occ. eigenvalues --   -0.53526  -0.49356  -0.47462  -0.46837  -0.44882
 Alpha  occ. eigenvalues --   -0.43260  -0.38252
 Alpha virt. eigenvalues --    0.02688   0.04105   0.04288   0.05050   0.05825
 Alpha virt. eigenvalues --    0.06811   0.07410   0.07620   0.07918   0.08870
 Alpha virt. eigenvalues --    0.09579   0.09981   0.10237   0.10930   0.11410

 Mulliken charges:
               1
     1  Si  -0.384800
     2  Si   0.350567
     3  H    0.105782
     4  H    0.028193
     5  H    0.119809
     6  N   -0.511847
     7  H    0.087499
     8  H    0.049769
     9  C    0.411621
    10  O   -0.441030
    11  H   -0.139315
    12  C    0.346984
    13  H    0.053696
    14  H   -0.040669
    15  H   -0.036259
 Sum of Mulliken charges =   0.00000

 Dipole moment (field-independent basis, Debye):
    X=              2.3103    Y=              2.6302    Z=             -2.0781  Tot=              4.0711

 Test job not archived.
 1\1\GINC-SE331\SP\RHF\Aug-CC-pVDZ\C2H9N1O1Si2\OHZDE\09-Apr-2025\0\\#t
 hf aug-cc-pvdz iop(5/13=1,5/36=2,99/5=2) pseudo=read geom=check guess=
 (read,tcheck) scf=(maxcycle=1)\\title\\0,1\Si,0,-2.136438,-0.778166,-0
 .256061\Si,0,-0.849461,1.136853,0.22171\H,0,-1.564533,-1.495642,-1.419
 898\H,0,-3.515272,-0.352784,-0.615087\H,0,-2.218151,-1.681573,0.910667
 \N,0,0.845608,0.926744,-0.253239\H,0,-0.940808,1.498023,1.656399\H,0,-
 1.273783,2.315856,-0.573424\C,0,1.507222,-0.220165,0.106184\O,0,0.9310
 22,-1.08426,0.751336\H,0,1.349721,1.620387,-0.787121\C,0,2.944376,-0.3

 Normal termination of Gaussian 16 at Wed Apr  9 00:10:52 2025.
