 Gaussian 16, Revision C.01,

 ----------------------------------------------------------------------
 #t hf aug-cc-pvdz symm=none int=(grid=ultrafine) guess=(read,tcheck) s
 table=opt
 ----------------------------------------------------------------------
 -----
 title
 -----
 Symbolic Z-matrix:
 Charge =  0 Multiplicity = 2

 SCF Done:  E(UHF) =  -565.897285976     A.U. after   18 cycles
 Normal termination of Gaussian 16 at Wed Apr  9 00:16:35 2025.
 Gaussian 16:  ES64L-G16RevC.01  3-Jul-2019

 ----------------------------------------------------------------------
 #t hf aug-cc-pvdz iop(5/13=1,5/36=2,99/5=2) pseudo=read geom=check gue
 ss=(read,tcheck) scf=(maxcycle=1)
 ----------------------------------------------------------------------
 -----
 title
 -----
 Structure from the checkpoint file:  "BDE49_nonexpt_2564_mol2.chk"
 Charge =  0 Multiplicity = 2

                         Standard orientation:
 ---------------------------------------------------------------------
 Center     Atomic      Atomic             Coordinates (Angstroms)
 Number     Number       Type             X           Y           Z
 ---------------------------------------------------------------------
      1         16           0       -1.304943   -0.167685   -0.000023
      2          6           0        0.431249    0.135823    0.000068
      3          8           0        0.725523    1.322063   -0.000020
      4          7           0        1.312066   -0.884288    0.000017
      5          1           0        1.003726   -1.841904    0.000013
      6          1           0        2.299216   -0.676567   -0.000010
 ---------------------------------------------------------------------

 SCF Done:  E(UHF) =  -565.968690590     A.U. after    2 cycles

 The electronic state is 2-A.
 Alpha  occ. eigenvalues --  -93.58475 -20.56079 -15.67975 -11.41312  -8.88327
 Alpha  occ. eigenvalues --   -6.23667  -6.21989  -6.21496  -1.37513  -1.21148
 Alpha  occ. eigenvalues --   -1.02117  -0.82139  -0.74783  -0.68893  -0.61556
 Alpha  occ. eigenvalues --   -0.60110  -0.48677  -0.44772  -0.44556  -0.40850
 Alpha virt. eigenvalues --    0.02588   0.04886   0.07387   0.10880   0.11054
 Alpha virt. eigenvalues --    0.12634   0.13095   0.13434   0.14354   0.16038
 Alpha virt. eigenvalues --    0.16690   0.18477   0.18507   0.21719   0.23477

  Beta  occ. eigenvalues --  -93.57558 -20.55746 -15.67988 -11.41430  -8.87303
  Beta  occ. eigenvalues --   -6.21490  -6.20922  -6.19622  -1.36774  -1.20939
  Beta  occ. eigenvalues --   -0.95593  -0.80873  -0.73884  -0.67017  -0.61382
  Beta  occ. eigenvalues --   -0.58294  -0.44612  -0.44144  -0.38549
  Beta virt. eigenvalues --   -0.00719   0.02825   0.05161   0.07645   0.10897
  Beta virt. eigenvalues --    0.11219   0.13086   0.13337   0.14008   0.14957
  Beta virt. eigenvalues --    0.16132   0.16905   0.18557   0.19120   0.22446

 Mulliken charges and spin densities:
               1          2
     1  S    0.258089   1.068291
     2  C    0.284096  -0.102056
     3  O   -0.462527   0.041737
     4  N   -0.075682  -0.009202
     5  H    0.002995   0.003628
     6  H   -0.006971  -0.002398
 Sum of Mulliken charges =  -0.00000   1.00000

 Dipole moment (field-independent basis, Debye):
    X=              0.8833    Y=             -4.2879    Z=              0.0001  Tot=              4.3780
                          Isotropic Fermi Contact Couplings
        Atom                 a.u.       MegaHertz       Gauss      10(-4) cm-1
     1  S(33)              0.21586      74.14042      26.45515      24.73058
     2  C(13)             -0.02242     -25.20618      -8.99419      -8.40788
     3  O(17)              0.04235     -25.67029      -9.15980      -8.56269
     4  N(14)             -0.00345      -1.11567      -0.39810      -0.37215
     5  H(1)               0.00044       1.96095       0.69972       0.65410
     6  H(1)               0.00093       4.16353       1.48565       1.38880
 --------------------------------------------------------
       Center         ----  Spin Dipole Couplings  ----

 Normal termination of Gaussian 16 at Wed Apr  9 00:16:37 2025.
