 Gaussian 16, Revision C.01,

 ----------------------------------------------------------------------
 #t hf aug-cc-pvdz symm=none int=(grid=ultrafine) guess=(read,tcheck) s
 table=(opt,rrhf)
 ----------------------------------------------------------------------
 -----
 title
 -----
 Symbolic Z-matrix:
 Charge =  0 Multiplicity = 1

 SCF Done:  E(RHF) =  -891.834542747     A.U. after   16 cycles
 Normal termination of Gaussian 16 at Tue Apr  8 23:10:21 2025.
 Gaussian 16:  ES64L-G16RevC.01  3-Jul-2019

 ----------------------------------------------------------------------
 #t hf aug-cc-pvdz iop(5/13=1,5/36=2,99/5=2) pseudo=read geom=check gue
 ss=(read,tcheck) scf=(maxcycle=1)
 ----------------------------------------------------------------------
 -----
 title
 -----
 Structure from the checkpoint file:  "BDE49_expt_756_mol1.chk"
 Charge =  0 Multiplicity = 1

                         Standard orientation:
 ---------------------------------------------------------------------
 Center     Atomic      Atomic             Coordinates (Angstroms)
 Number     Number       Type             X           Y           Z
 ---------------------------------------------------------------------
      1          6           0       -0.404386    1.559767   -0.033582
      2          6           0        0.002784    0.227012   -0.081471
      3          6           0       -0.903799   -0.825778   -0.066448
      4          6           0       -1.767356    1.829523    0.043429
      5          6           0       -2.696227    0.791844    0.070848
      6          6           0       -2.268018   -0.537454    0.012508
      7          1           0       -2.113810    2.855916    0.074921
      8          1           0       -3.757638    1.014420    0.128352
      9          8           0       -3.127911   -1.593586    0.024582
     10          1           0       -4.034994   -1.271726    0.052956
     11          1           0       -0.570544   -1.852589   -0.141017
     12         16           0        1.759157   -0.148479   -0.175567
     13          8           0        1.906512   -1.460551   -0.773434
     14          8           0        2.431923    1.011263   -0.726774
     15          6           0        2.246457   -0.284841    1.550300
     16          1           0        1.685859   -1.094101    2.015936
     17          1           0        2.061468    0.665421    2.049069
     18          1           0        3.313272   -0.512495    1.542738
     19          1           0        0.328952    2.353384   -0.082379
 ---------------------------------------------------------------------

 SCF Done:  E(RHF) =  -892.058793206     A.U. after    2 cycles

 The electronic state is 1-A.
 Alpha  occ. eigenvalues --  -93.78186 -20.62570 -20.55468 -20.55460 -11.34014
 Alpha  occ. eigenvalues --  -11.29419 -11.28511 -11.27681 -11.27371 -11.27096
 Alpha  occ. eigenvalues --  -11.26900  -9.04886  -6.39546  -6.39324  -6.39245
 Alpha  occ. eigenvalues --   -1.41701  -1.39030  -1.30330  -1.17210  -1.06219
 Alpha  occ. eigenvalues --   -1.03575  -1.02182  -0.90309  -0.85975  -0.83036
 Alpha  occ. eigenvalues --   -0.75524  -0.72056  -0.69356  -0.68343  -0.67510
 Alpha  occ. eigenvalues --   -0.65969  -0.63338  -0.62884  -0.61152  -0.60536
 Alpha  occ. eigenvalues --   -0.60338  -0.56294  -0.54094  -0.52056  -0.51794
 Alpha  occ. eigenvalues --   -0.50669  -0.49073  -0.45153  -0.37903  -0.34623
 Alpha virt. eigenvalues --    0.02249   0.03486   0.03805   0.05332   0.05610
 Alpha virt. eigenvalues --    0.06069   0.06919   0.07231   0.07566   0.09562
 Alpha virt. eigenvalues --    0.10233   0.10594   0.11810   0.12143   0.12802

 Mulliken charges:
               1
     1  C    0.040238
     2  C    0.455138
     3  C    0.185446
     4  C    0.403996
     5  C    0.704458
     6  C    0.563721
     7  H   -0.429835
     8  H   -0.563792
     9  O   -0.592282
    10  H    0.144536
    11  H   -0.498504
    12  S    2.504377
    13  O   -1.140208
    14  O   -1.143441
    15  C   -0.071252
    16  H   -0.014170
    17  H   -0.008297
    18  H   -0.000538
    19  H   -0.539589
 Sum of Mulliken charges =   0.00000

 Dipole moment (field-independent basis, Debye):
    X=             -4.7314    Y=              1.8357    Z=              4.2552  Tot=              6.6229

 Test job not archived.
 1\1\GINC-SE366\SP\RHF\Aug-CC-pVDZ\C7H8O3S1\OHZDE\08-Apr-2025\0\\#t hf
 aug-cc-pvdz iop(5/13=1,5/36=2,99/5=2) pseudo=read geom=check guess=(re
 ad,tcheck) scf=(maxcycle=1)\\title\\0,1\C,0,-0.404386,1.559767,-0.0335
 82\C,0,0.002784,0.227012,-0.081471\C,0,-0.903799,-0.825778,-0.066448\C
 ,0,-1.767356,1.829523,0.043429\C,0,-2.696227,0.791844,0.070848\C,0,-2.
 268018,-0.537454,0.012508\H,0,-2.11381,2.855916,0.074921\H,0,-3.757638
 ,1.01442,0.128352\O,0,-3.127911,-1.593586,0.024582\H,0,-4.034994,-1.27
 1726,0.052956\H,0,-0.570544,-1.852589,-0.141017\S,0,1.759157,-0.148479

 Normal termination of Gaussian 16 at Tue Apr  8 23:10:31 2025.
