 Gaussian 16, Revision C.01,

 ----------------------------------------------------------------------
 #t hf aug-cc-pvdz symm=none int=(grid=ultrafine) guess=(read,tcheck) s
 table=(opt,rrhf)
 ----------------------------------------------------------------------
 -----
 title
 -----
 Symbolic Z-matrix:
 Charge =  0 Multiplicity = 1

 SCF Done:  E(RHF) =  -1158.19062624     A.U. after   17 cycles
 Normal termination of Gaussian 16 at Tue Apr  8 23:33:19 2025.
 Gaussian 16:  ES64L-G16RevC.01  3-Jul-2019

 ----------------------------------------------------------------------
 #t hf aug-cc-pvdz iop(5/13=1,5/36=2,99/5=2) pseudo=read geom=check gue
 ss=(read,tcheck) scf=(maxcycle=1)
 ----------------------------------------------------------------------
 -----
 title
 -----
 Structure from the checkpoint file:  "BDE49_nonexpt_1193_mol1.chk"
 Charge =  0 Multiplicity = 1

                         Standard orientation:
 ---------------------------------------------------------------------
 Center     Atomic      Atomic             Coordinates (Angstroms)
 Number     Number       Type             X           Y           Z
 ---------------------------------------------------------------------
      1          6           0       -3.448357    0.471621   -1.017675
      2          6           0       -4.754111    0.947102   -1.078391
      3          6           0       -5.617055    0.764174    0.001089
      4          6           0       -5.173858    0.106136    1.148357
      5          6           0       -3.870170   -0.369188    1.216015
      6          6           0       -3.003103   -0.190930    0.131757
      7          1           0       -2.770275    0.614922   -1.847665
      8          1           0       -5.098323    1.462506   -1.967543
      9          1           0       -6.634173    1.136389   -0.050447
     10          1           0       -5.844183   -0.033720    1.988485
     11          1           0       -3.503230   -0.879256    2.097768
     12          6           0       -1.620978   -0.721446    0.268126
     13          8           0       -1.161743   -1.241411    1.244108
     14          8           0       -0.911878   -0.551040   -0.912967
     15         16           0        0.694142   -1.060673   -0.960769
     16          6           0        1.447233    0.363590   -0.109934
     17          8           0        0.769849    1.287282    0.253707
     18          6           0        2.926947    0.279141    0.028517
     19          6           0        3.630325    1.470050    0.247156
     20          6           0        3.619921   -0.934948   -0.039012
     21          6           0        5.004938   -0.953503    0.091736
     22          6           0        5.013242    1.446848    0.374339
     23          6           0        5.702043    0.235998    0.294715
     24          1           0        6.781108    0.219019    0.397762
     25          1           0        5.537878   -1.895917    0.046504
     26          1           0        3.081526   -1.868130   -0.161711
     27          1           0        3.075501    2.397780    0.311598
     28          1           0        5.555966    2.370641    0.537996
 ---------------------------------------------------------------------

 SCF Done:  E(RHF) =  -1158.43967076     A.U. after    2 cycles

 The electronic state is 1-A.
 Alpha  occ. eigenvalues --  -93.61234 -20.64166 -20.58396 -20.56980 -11.40698
 Alpha  occ. eigenvalues --  -11.38882 -11.27734 -11.27620 -11.27238 -11.27043
 Alpha  occ. eigenvalues --  -11.26577 -11.26497 -11.26428 -11.26332 -11.26255
 Alpha  occ. eigenvalues --  -11.26054 -11.25411 -11.25371  -8.90368  -6.24627
 Alpha  occ. eigenvalues --   -6.24223  -6.23876  -1.42320  -1.38151  -1.33494
 Alpha  occ. eigenvalues --   -1.17100  -1.15957  -1.06371  -1.04642  -1.03535
 Alpha  occ. eigenvalues --   -1.02402  -0.99226  -0.90010  -0.86817  -0.85222
 Alpha  occ. eigenvalues --   -0.84037  -0.80306  -0.76478  -0.74596  -0.72608
 Alpha  occ. eigenvalues --   -0.70289  -0.68554  -0.67914  -0.67008  -0.65370
 Alpha  occ. eigenvalues --   -0.64074  -0.63728  -0.63062  -0.61641  -0.60977
 Alpha  occ. eigenvalues --   -0.60389  -0.58330  -0.55974  -0.54231  -0.53277
 Alpha  occ. eigenvalues --   -0.52933  -0.52074  -0.51917  -0.50943  -0.50654
 Alpha  occ. eigenvalues --   -0.47695  -0.42645  -0.39329  -0.36321  -0.36195
 Alpha  occ. eigenvalues --   -0.35641  -0.35105
 Alpha virt. eigenvalues --    0.02938   0.03342   0.03951   0.04296   0.04613
 Alpha virt. eigenvalues --    0.05180   0.05382   0.06354   0.06566   0.06664
 Alpha virt. eigenvalues --    0.06932   0.07871   0.08735   0.09308   0.09491

 Mulliken charges:
               1
     1  C    0.425279
     2  C    0.417466
     3  C    0.532152
     4  C    0.618626
     5  C   -0.065973
     6  C    1.546403
     7  H   -0.639785
     8  H   -0.445162
     9  H   -0.437819
    10  H   -0.425136
    11  H   -0.598347
    12  C   -0.392575
    13  O   -0.387093
    14  O   -0.772237
    15  S    0.786552
    16  C   -0.713820
    17  O   -0.489687
    18  C    1.428097
    19  C    0.131700
    20  C    0.471145
    21  C    0.267198
    22  C    0.618442
    23  C    0.527085
    24  H   -0.431077
    25  H   -0.441105
    26  H   -0.512526
    27  H   -0.597719
    28  H   -0.420086
 Sum of Mulliken charges =  -0.00000

 Dipole moment (field-independent basis, Debye):
    X=              1.5359    Y=              0.0456    Z=             -1.4051  Tot=              2.0822

 Test job not archived.
 1\1\GINC-SE095\SP\RHF\Aug-CC-pVDZ\C14H10O3S1\OHZDE\08-Apr-2025\0\\#t h
 f aug-cc-pvdz iop(5/13=1,5/36=2,99/5=2) pseudo=read geom=check guess=(
 read,tcheck) scf=(maxcycle=1)\\title\\0,1\C,0,-3.448357,0.471621,-1.01
 7675\C,0,-4.754111,0.947102,-1.078391\C,0,-5.617055,0.764174,0.001089\
 C,0,-5.173858,0.106136,1.148357\C,0,-3.87017,-0.369188,1.216015\C,0,-3
 .003103,-0.19093,0.131757\H,0,-2.770275,0.614922,-1.847665\H,0,-5.0983
 23,1.462506,-1.967543\H,0,-6.634173,1.136389,-0.050447\H,0,-5.844183,-
 0.03372,1.988485\H,0,-3.50323,-0.879256,2.097768\C,0,-1.620978,-0.7214

 Normal termination of Gaussian 16 at Tue Apr  8 23:33:54 2025.
