 Gaussian 16, Revision C.01,

 ----------------------------------------------------------------------
 #t hf aug-cc-pvdz symm=none int=(grid=ultrafine) guess=(read,tcheck) s
 table=(opt,rrhf)
 ----------------------------------------------------------------------
 -----
 title
 -----
 Symbolic Z-matrix:
 Charge =  0 Multiplicity = 1

 SCF Done:  E(RHF) =  -796.371988637     A.U. after   17 cycles
 Normal termination of Gaussian 16 at Tue Apr  8 23:35:26 2025.
 Gaussian 16:  ES64L-G16RevC.01  3-Jul-2019

 ----------------------------------------------------------------------
 #t hf aug-cc-pvdz iop(5/13=1,5/36=2,99/5=2) pseudo=read geom=check gue
 ss=(read,tcheck) scf=(maxcycle=1)
 ----------------------------------------------------------------------
 -----
 title
 -----
 Structure from the checkpoint file:  "BDE49_nonexpt_1486_mol1.chk"
 Charge =  0 Multiplicity = 1

                         Standard orientation:
 ---------------------------------------------------------------------
 Center     Atomic      Atomic             Coordinates (Angstroms)
 Number     Number       Type             X           Y           Z
 ---------------------------------------------------------------------
      1          6           0        1.584295   -1.410750   -0.015340
      2          6           0        2.780385   -0.700838   -0.030655
      3          6           0        2.780385    0.700838   -0.030653
      4          6           0        1.584295    1.410749   -0.015335
      5          6           0        0.384500    0.699658   -0.005144
      6          6           0        0.384500   -0.699659   -0.005147
      7          1           0        1.564508   -2.493930   -0.007312
      8          1           0        1.564507    2.493929   -0.007301
      9          1           0        3.723852   -1.234675   -0.038916
     10          1           0        3.723852    1.234675   -0.038911
     11          6           0       -0.967775   -1.332130    0.035873
     12          6           0       -0.967775    1.332129    0.035889
     13         15           0       -2.289665    0.000001   -0.247373
     14          8           0       -1.175530   -2.511162    0.182091
     15          8           0       -1.175527    2.511164    0.182080
     16          1           0       -2.800147   -0.000005    1.072737
 ---------------------------------------------------------------------

 SCF Done:  E(RHF) =  -796.524005342     A.U. after    2 cycles

 The electronic state is 1-A.
 Alpha  occ. eigenvalues --  -81.28860 -20.59256 -20.59256 -11.37288 -11.37285
 Alpha  occ. eigenvalues --  -11.28732 -11.28623 -11.28492 -11.28391 -11.28206
 Alpha  occ. eigenvalues --  -11.28205  -7.79352  -4.93302  -4.93266  -4.92999
 Alpha  occ. eigenvalues --   -1.38216  -1.37946  -1.18958  -1.08253  -1.05398
 Alpha  occ. eigenvalues --   -0.93683  -0.91021  -0.83986  -0.78821  -0.78153
 Alpha  occ. eigenvalues --   -0.71363  -0.69023  -0.67310  -0.65145  -0.64741
 Alpha  occ. eigenvalues --   -0.63518  -0.61930  -0.58196  -0.57239  -0.56518
 Alpha  occ. eigenvalues --   -0.53681  -0.52528  -0.46920  -0.40913  -0.38628
 Alpha  occ. eigenvalues --   -0.37627  -0.37504
 Alpha virt. eigenvalues --    0.02596   0.02947   0.03936   0.04111   0.04514
 Alpha virt. eigenvalues --    0.05771   0.06359   0.07723   0.07952   0.08725
 Alpha virt. eigenvalues --    0.09971   0.10928   0.11163   0.12130   0.12837

 Mulliken charges:
               1
     1  C    0.442663
     2  C    0.501936
     3  C    0.501938
     4  C    0.442666
     5  C    0.573973
     6  C    0.573985
     7  H   -0.522386
     8  H   -0.522387
     9  H   -0.444330
    10  H   -0.444330
    11  C   -0.316119
    12  C   -0.316133
    13  P    0.348537
    14  O   -0.516775
    15  O   -0.516771
    16  H    0.213532
 Sum of Mulliken charges =   0.00000

 Dipole moment (field-independent basis, Debye):
    X=              3.5280    Y=             -0.0000    Z=             -0.1271  Tot=              3.5303

 Test job not archived.
 1\1\GINC-SE051\SP\RHF\Aug-CC-pVDZ\C8H5O2P1\OHZDE\08-Apr-2025\0\\#t hf
 aug-cc-pvdz iop(5/13=1,5/36=2,99/5=2) pseudo=read geom=check guess=(re
 ad,tcheck) scf=(maxcycle=1)\\title\\0,1\C,0,1.584295,-1.41075,-0.01534
 \C,0,2.780385,-0.700838,-0.030655\C,0,2.780385,0.700838,-0.030653\C,0,
 1.584295,1.410749,-0.015335\C,0,0.3845,0.699658,-0.005144\C,0,0.3845,-
 0.699659,-0.005147\H,0,1.564508,-2.49393,-0.007312\H,0,1.564507,2.4939
 29,-0.007301\H,0,3.723852,-1.234675,-0.038916\H,0,3.723852,1.234675,-0
 .038911\C,0,-0.967775,-1.33213,0.035873\C,0,-0.967775,1.332129,0.03588

 Normal termination of Gaussian 16 at Tue Apr  8 23:35:36 2025.
