 Gaussian 16, Revision C.01,

 ----------------------------------------------------------------------
 #t hf aug-cc-pvdz symm=none int=(grid=ultrafine) guess=(read,tcheck) s
 table=opt
 ----------------------------------------------------------------------
 -----
 title
 -----
 Symbolic Z-matrix:
 Charge =  0 Multiplicity = 2

 SCF Done:  E(UHF) =  -119.921053524     A.U. after   15 cycles
 Normal termination of Gaussian 16 at Wed Apr  9 00:24:40 2025.
 Gaussian 16:  ES64L-G16RevC.01  3-Jul-2019

 ----------------------------------------------------------------------
 #t hf aug-cc-pvdz iop(5/13=1,5/36=2,99/5=2) pseudo=read geom=check gue
 ss=(read,tcheck) scf=(maxcycle=1)
 ----------------------------------------------------------------------
 -----
 title
 -----
 Structure from the checkpoint file:  "BDE49_nonexpt_284_mol2.chk"
 Charge =  0 Multiplicity = 2

                         Standard orientation:
 ---------------------------------------------------------------------
 Center     Atomic      Atomic             Coordinates (Angstroms)
 Number     Number       Type             X           Y           Z
 ---------------------------------------------------------------------
      1          5           0        0.087379   -0.549005    0.000006
      2          7           0        1.305949    0.102901   -0.000009
      3          6           0       -1.338035    0.092888    0.000007
      4          1           0       -1.318533    1.193467   -0.000016
      5          1           0       -1.910725   -0.232091    0.874967
      6          1           0       -1.910746   -0.232127   -0.874925
      7          1           0        2.192497   -0.376935   -0.000008
      8          1           0        1.397182    1.115068   -0.000023
 ---------------------------------------------------------------------

 SCF Done:  E(UHF) =  -119.961108208     A.U. after    2 cycles

 The electronic state is 2-A.
 Alpha  occ. eigenvalues --  -15.62069 -11.20521  -7.61532  -1.12680  -0.93732
 Alpha  occ. eigenvalues --   -0.69753  -0.68056  -0.55743  -0.54743  -0.51197
 Alpha  occ. eigenvalues --   -0.42823  -0.30421
 Alpha virt. eigenvalues --    0.03454   0.04700   0.04867   0.05345   0.07321
 Alpha virt. eigenvalues --    0.08406   0.08518   0.09457   0.11376   0.15695
 Alpha virt. eigenvalues --    0.16300   0.16359   0.17411   0.18853   0.20515

  Beta  occ. eigenvalues --  -15.62242 -11.20436  -7.59718  -1.12449  -0.93044
  Beta  occ. eigenvalues --   -0.67999  -0.66585  -0.54516  -0.54065  -0.49695
  Beta  occ. eigenvalues --   -0.43646
  Beta virt. eigenvalues --    0.03066   0.04780   0.04828   0.05434   0.07346
  Beta virt. eigenvalues --    0.07904   0.08551   0.09281   0.10304   0.15107
  Beta virt. eigenvalues --    0.16144   0.17220   0.18384   0.18924   0.19495

 Mulliken charges and spin densities:
               1          2
     1  B    0.120017   1.085040
     2  N   -0.096672  -0.097465
     3  C    0.523903  -0.030569
     4  H   -0.275492   0.034400
     5  H   -0.151096  -0.020267
     6  H   -0.151098  -0.020267
     7  H    0.034035  -0.000729
     8  H   -0.003597   0.049857
 Sum of Mulliken charges =  -0.00000   1.00000

 Dipole moment (field-independent basis, Debye):
    X=              1.0565    Y=              1.3184    Z=             -0.0000  Tot=              1.6894
                          Isotropic Fermi Contact Couplings
        Atom                 a.u.       MegaHertz       Gauss      10(-4) cm-1
     1  B(11)              0.27804     398.80900     142.30497     133.02836
     2  N(14)              0.01357       4.38533       1.56479       1.46279
     3  C(13)              0.03506      39.41099      14.06282      13.14609
     4  H(1)               0.01207      53.94560      19.24913      17.99431
     5  H(1)               0.00094       4.21898       1.50544       1.40730
     6  H(1)               0.00094       4.21942       1.50559       1.40745
     7  H(1)               0.00698      31.17805      11.12510      10.39988
     8  H(1)               0.01650      73.73953      26.31210      24.59686

 Normal termination of Gaussian 16 at Wed Apr  9 00:24:43 2025.
