 Gaussian 16, Revision C.01,

 ----------------------------------------------------------------------
 #t hf aug-cc-pvdz symm=none int=(grid=ultrafine) guess=(read,tcheck) s
 table=(opt,rrhf)
 ----------------------------------------------------------------------
 -----
 title
 -----
 Symbolic Z-matrix:
 Charge =  0 Multiplicity = 1

 SCF Done:  E(RHF) =  -483.271701857     A.U. after   12 cycles
 Normal termination of Gaussian 16 at Wed Apr  9 00:05:44 2025.
 Gaussian 16:  ES64L-G16RevC.01  3-Jul-2019

 ----------------------------------------------------------------------
 #t hf aug-cc-pvdz iop(5/13=1,5/36=2,99/5=2) pseudo=read geom=check gue
 ss=(read,tcheck) scf=(maxcycle=1)
 ----------------------------------------------------------------------
 -----
 title
 -----
 Structure from the checkpoint file:  "BDE49_nonexpt_2254_mol1.chk"
 Charge =  0 Multiplicity = 1

                         Standard orientation:
 ---------------------------------------------------------------------
 Center     Atomic      Atomic             Coordinates (Angstroms)
 Number     Number       Type             X           Y           Z
 ---------------------------------------------------------------------
      1         14           0       -1.884451   -0.032774    0.056774
      2          8           0       -0.334983   -0.295281   -0.433309
      3          6           0        0.863554   -0.003891    0.307154
      4          6           0        1.871422   -1.103952   -0.001530
      5          1           0        1.470590   -2.079674    0.280493
      6          1           0        2.804984   -0.939520    0.543735
      7          1           0        2.090169   -1.120295   -1.072488
      8          6           0        1.372505    1.386009   -0.066345
      9          1           0        0.632954   -0.025396    1.382365
     10          1           0        2.284925    1.625534    0.487194
     11          1           0        0.626212    2.151251    0.160340
     12          1           0        1.592894    1.429061   -1.136224
     13          1           0       -2.752013   -0.670472   -0.952423
     14          1           0       -2.211634    1.413004    0.147488
     15          1           0       -2.121783   -0.631405    1.395467
 ---------------------------------------------------------------------

 SCF Done:  E(RHF) =  -483.367926225     A.U. after    2 cycles

 The electronic state is 1-A.
 Alpha  occ. eigenvalues --  -69.08859 -20.55774 -11.30198 -11.22875 -11.22627
 Alpha  occ. eigenvalues --   -6.83663  -3.94572  -3.94441  -3.94412  -1.30445
 Alpha  occ. eigenvalues --   -1.03995  -0.93784  -0.81371  -0.73189  -0.63961
 Alpha  occ. eigenvalues --   -0.62514  -0.61667  -0.55769  -0.54678  -0.53841
 Alpha  occ. eigenvalues --   -0.52363  -0.48958  -0.47730  -0.45902  -0.43785
 Alpha virt. eigenvalues --    0.03416   0.04566   0.04906   0.04995   0.06237
 Alpha virt. eigenvalues --    0.06832   0.07110   0.07361   0.07903   0.09049
 Alpha virt. eigenvalues --    0.09908   0.10432   0.10817   0.14031   0.14509

 Mulliken charges:
               1
     1  Si   0.321805
     2  O   -0.902601
     3  C    0.100317
     4  C    0.469608
     5  H   -0.073556
     6  H   -0.010554
     7  H   -0.013123
     8  C    0.310581
     9  H   -0.175763
    10  H   -0.019288
    11  H   -0.110484
    12  H    0.014677
    13  H    0.053382
    14  H    0.008573
    15  H    0.026425
 Sum of Mulliken charges =  -0.00000

 Dipole moment (field-independent basis, Debye):
    X=              0.8900    Y=              0.4452    Z=              0.9658  Tot=              1.3868

 Test job not archived.
 1\1\GINC-SE250\SP\RHF\Aug-CC-pVDZ\C3H10O1Si1\OHZDE\09-Apr-2025\0\\#t h
 f aug-cc-pvdz iop(5/13=1,5/36=2,99/5=2) pseudo=read geom=check guess=(
 read,tcheck) scf=(maxcycle=1)\\title\\0,1\Si,0,-1.884451,-0.032774,0.0
 56774\O,0,-0.334983,-0.295281,-0.433309\C,0,0.863554,-0.003891,0.30715
 4\C,0,1.871422,-1.103952,-0.00153\H,0,1.47059,-2.079674,0.280493\H,0,2
 .804984,-0.93952,0.543735\H,0,2.090169,-1.120295,-1.072488\C,0,1.37250
 5,1.386009,-0.066345\H,0,0.632954,-0.025396,1.382365\H,0,2.284925,1.62
 5534,0.487194\H,0,0.626212,2.151251,0.16034\H,0,1.592894,1.429061,-1.1

 Normal termination of Gaussian 16 at Wed Apr  9 00:05:49 2025.
