 Gaussian 16, Revision C.01,

 ----------------------------------------------------------------------
 #t hf aug-cc-pvdz symm=none int=(grid=ultrafine) guess=(read,tcheck) s
 table=(opt,rrhf)
 ----------------------------------------------------------------------
 -----
 title
 -----
 Symbolic Z-matrix:
 Charge =  0 Multiplicity = 1

 SCF Done:  E(RHF) =  -1768.44764336     A.U. after   14 cycles
 Normal termination of Gaussian 16 at Wed Apr  9 00:48:34 2025.
 Gaussian 16:  ES64L-G16RevC.01  3-Jul-2019

 ----------------------------------------------------------------------
 #t hf aug-cc-pvdz iop(5/13=1,5/36=2,99/5=2) pseudo=read geom=check gue
 ss=(read,tcheck) scf=(maxcycle=1)
 ----------------------------------------------------------------------
 -----
 title
 -----
 Structure from the checkpoint file:  "BDE49_nonexpt_908_mol1.chk"
 Charge =  0 Multiplicity = 1

                         Standard orientation:
 ---------------------------------------------------------------------
 Center     Atomic      Atomic             Coordinates (Angstroms)
 Number     Number       Type             X           Y           Z
 ---------------------------------------------------------------------
      1         16           0        0.336958   -1.264187   -0.449737
      2          5           0        1.502609    0.083315   -0.062623
      3         16           0        1.047840    1.827708   -0.232306
      4         16           0        3.169538   -0.390024    0.489877
      5         16           0       -1.430574   -0.316286   -1.041812
      6          6           0       -2.315242   -0.110836    0.559178
      7          6           0       -3.663245    0.546819    0.358711
      8          1           0       -3.591732    1.581254    0.705864
      9          1           0       -4.399283    0.029741    0.976730
     10          1           0       -3.984989    0.545751   -0.683485
     11          8           0       -1.858932   -0.439297    1.611749
     12          1           0        3.000430   -1.725421    0.477283
     13          1           0        2.224717    2.335211    0.179040
 ---------------------------------------------------------------------

 SCF Done:  E(RHF) =  -1768.57701106     A.U. after    2 cycles

 The electronic state is 1-A.
 Alpha  occ. eigenvalues --  -93.58480 -93.57124 -93.55282 -93.55123 -20.59217
 Alpha  occ. eigenvalues --  -11.39492 -11.27177  -8.88126  -8.86900  -8.85232
 Alpha  occ. eigenvalues --   -8.85063  -7.70754  -6.22231  -6.21952  -6.21666
 Alpha  occ. eigenvalues --   -6.21047  -6.20739  -6.20500  -6.19412  -6.19246
 Alpha  occ. eigenvalues --   -6.19165  -6.19007  -6.18905  -6.18738  -1.39235
 Alpha  occ. eigenvalues --   -1.07050  -1.03140  -0.99688  -0.95949  -0.89617
 Alpha  occ. eigenvalues --   -0.75700  -0.67376  -0.66583  -0.64161  -0.63562
 Alpha  occ. eigenvalues --   -0.59760  -0.58114  -0.54895  -0.54432  -0.48063
 Alpha  occ. eigenvalues --   -0.47740  -0.46473  -0.44843  -0.43169  -0.38708
 Alpha  occ. eigenvalues --   -0.37931  -0.37479
 Alpha virt. eigenvalues --    0.03334   0.04191   0.05140   0.05592   0.05864
 Alpha virt. eigenvalues --    0.06745   0.07213   0.08006   0.08998   0.09158
 Alpha virt. eigenvalues --    0.09223   0.10571   0.10887   0.11149   0.12193

 Mulliken charges:
               1
     1  S   -0.187497
     2  B    0.771501
     3  S   -0.147296
     4  S   -0.266148
     5  S   -0.041890
     6  C   -0.088778
     7  C    0.367114
     8  H    0.071633
     9  H    0.020377
    10  H   -0.048219
    11  O   -0.441684
    12  H    0.004162
    13  H   -0.013274
 Sum of Mulliken charges =  -0.00000

 Dipole moment (field-independent basis, Debye):
    X=             -1.4896    Y=              1.0185    Z=             -1.1531  Tot=              2.1415

 Test job not archived.
 1\1\GINC-SE457\SP\RHF\Aug-CC-pVDZ\C2H5B1O1S4\OHZDE\09-Apr-2025\0\\#t h
 f aug-cc-pvdz iop(5/13=1,5/36=2,99/5=2) pseudo=read geom=check guess=(
 read,tcheck) scf=(maxcycle=1)\\title\\0,1\S,0,0.336958,-1.264187,-0.44
 9737\B,0,1.502609,0.083315,-0.062623\S,0,1.04784,1.827708,-0.232306\S,
 0,3.169538,-0.390024,0.489877\S,0,-1.430574,-0.316286,-1.041812\C,0,-2
 .315242,-0.110836,0.559178\C,0,-3.663245,0.546819,0.358711\H,0,-3.5917
 32,1.581254,0.705864\H,0,-4.399283,0.029741,0.97673\H,0,-3.984989,0.54
 5751,-0.683485\O,0,-1.858932,-0.439297,1.611749\H,0,3.00043,-1.725421,

 Normal termination of Gaussian 16 at Wed Apr  9 00:48:39 2025.
