 Gaussian 16, Revision C.01,

 ----------------------------------------------------------------------
 #t hf aug-cc-pvdz symm=none int=(grid=ultrafine) guess=(read,tcheck) s
 table=(opt,rrhf)
 ----------------------------------------------------------------------
 -----
 title
 -----
 Symbolic Z-matrix:
 Charge =  0 Multiplicity = 1

 SCF Done:  E(RHF) =  -634.730997022     A.U. after   13 cycles
 Normal termination of Gaussian 16 at Wed Apr  9 00:40:26 2025.
 Gaussian 16:  ES64L-G16RevC.01  3-Jul-2019

 ----------------------------------------------------------------------
 #t hf aug-cc-pvdz iop(5/13=1,5/36=2,99/5=2) pseudo=read geom=check gue
 ss=(read,tcheck) scf=(maxcycle=1)
 ----------------------------------------------------------------------
 -----
 title
 -----
 Structure from the checkpoint file:  "BDE49_nonexpt_693_mol1.chk"
 Charge =  0 Multiplicity = 1

                         Standard orientation:
 ---------------------------------------------------------------------
 Center     Atomic      Atomic             Coordinates (Angstroms)
 Number     Number       Type             X           Y           Z
 ---------------------------------------------------------------------
      1         15           0        0.289350    0.621720   -0.821904
      2          5           0       -1.267988   -0.257116   -0.068233
      3          8           0       -1.544007   -1.592149   -0.233513
      4          8           0       -2.191548    0.507343    0.579648
      5          6           0        1.653862   -0.614539   -0.452112
      6          6           0        1.800286   -1.140758    0.980044
      7          1           0        2.585443   -0.139860   -0.777408
      8          1           0        1.504874   -1.447331   -1.150201
      9          1           0        0.899187   -1.667496    1.305498
     10          1           0        1.983942   -0.330274    1.688942
     11          6           0        0.582792    1.976510    0.421141
     12          1           0        1.472627    2.543483    0.138536
     13          1           0        0.691955    1.621933    1.447447
     14          1           0       -0.275439    2.649695    0.384590
     15          1           0        2.640603   -1.838410    1.057762
     16          1           0       -0.869578   -2.075847   -0.716683
     17          1           0       -2.971119   -0.004933    0.827721
 ---------------------------------------------------------------------

 SCF Done:  E(RHF) =  -634.852545398     A.U. after    2 cycles

 The electronic state is 1-A.
 Alpha  occ. eigenvalues --  -81.22875 -20.59051 -20.58259 -11.24572 -11.23492
 Alpha  occ. eigenvalues --  -11.23023  -7.73387  -7.66751  -4.87435  -4.87387
 Alpha  occ. eigenvalues --   -4.87092  -1.34958  -1.31173  -1.02859  -0.94926
 Alpha  occ. eigenvalues --   -0.85898  -0.79236  -0.76023  -0.70069  -0.63308
 Alpha  occ. eigenvalues --   -0.61041  -0.60047  -0.59035  -0.57999  -0.56389
 Alpha  occ. eigenvalues --   -0.54890  -0.53177  -0.52653  -0.50672  -0.44393
 Alpha  occ. eigenvalues --   -0.42564  -0.31436
 Alpha virt. eigenvalues --    0.02975   0.04334   0.04505   0.05172   0.06211
 Alpha virt. eigenvalues --    0.06580   0.06856   0.07222   0.07982   0.08661
 Alpha virt. eigenvalues --    0.09103   0.09666   0.10364   0.11496   0.12434

 Mulliken charges:
               1
     1  P    0.172192
     2  B    1.072875
     3  O   -0.523704
     4  O   -0.546370
     5  C    0.010915
     6  C    0.444885
     7  H   -0.167682
     8  H   -0.185277
     9  H   -0.188398
    10  H   -0.117536
    11  C    0.340127
    12  H   -0.173751
    13  H   -0.223583
    14  H   -0.204209
    15  H   -0.084445
    16  H    0.184208
    17  H    0.189753
 Sum of Mulliken charges =  -0.00000

 Dipole moment (field-independent basis, Debye):
    X=              0.9945    Y=             -1.4194    Z=              0.7035  Tot=              1.8705

 Test job not archived.
 1\1\GINC-SE459\SP\RHF\Aug-CC-pVDZ\C3H10B1O2P1\OHZDE\09-Apr-2025\0\\#t
 hf aug-cc-pvdz iop(5/13=1,5/36=2,99/5=2) pseudo=read geom=check guess=
 (read,tcheck) scf=(maxcycle=1)\\title\\0,1\P,0,0.28935,0.62172,-0.8219
 04\B,0,-1.267988,-0.257116,-0.068233\O,0,-1.544007,-1.59215,-0.233513\
 O,0,-2.191548,0.507342,0.579648\C,0,1.653862,-0.614539,-0.452112\C,0,1
 .800286,-1.140758,0.980044\H,0,2.585443,-0.139859,-0.777408\H,0,1.5048
 74,-1.447331,-1.150201\H,0,0.899187,-1.667496,1.305498\H,0,1.983942,-0
 .330274,1.688942\C,0,0.582791,1.97651,0.421141\H,0,1.472626,2.543483,0

 Normal termination of Gaussian 16 at Wed Apr  9 00:40:32 2025.
