 Gaussian 16, Revision C.01,

 ----------------------------------------------------------------------
 #t hf aug-cc-pvdz symm=none int=(grid=ultrafine) guess=(read,tcheck) s
 table=(opt,rrhf)
 ----------------------------------------------------------------------
 -----
 title
 -----
 Symbolic Z-matrix:
 Charge =  0 Multiplicity = 1

 SCF Done:  E(RHF) =  -1381.72298855     A.U. after   14 cycles
 Normal termination of Gaussian 16 at Wed Apr  9 00:38:23 2025.
 Gaussian 16:  ES64L-G16RevC.01  3-Jul-2019

 ----------------------------------------------------------------------
 #t hf aug-cc-pvdz iop(5/13=1,5/36=2,99/5=2) pseudo=read geom=check gue
 ss=(read,tcheck) scf=(maxcycle=1)
 ----------------------------------------------------------------------
 -----
 title
 -----
 Structure from the checkpoint file:  "BDE49_nonexpt_635_mol1.chk"
 Charge =  0 Multiplicity = 1

                         Standard orientation:
 ---------------------------------------------------------------------
 Center     Atomic      Atomic             Coordinates (Angstroms)
 Number     Number       Type             X           Y           Z
 ---------------------------------------------------------------------
      1          8           0        1.174517    0.633278   -0.465204
      2          5           0        2.349337   -0.059357   -0.104971
      3          8           0        3.396411    0.769931    0.109688
      4          8           0        2.435057   -1.405810    0.006105
      5          8           0        0.103988   -0.326356   -0.695852
      6          6           0       -0.936607   -0.017323    0.152811
      7          9           0       -0.548981   -0.098936    1.439851
      8         17           0       -2.142104   -1.287287   -0.182974
      9         17           0       -1.615014    1.610219   -0.119174
     10          1           0        4.196629    0.289695    0.341354
     11          1           0        1.608376   -1.856737   -0.193392
 ---------------------------------------------------------------------

 SCF Done:  E(RHF) =  -1381.92072646     A.U. after    2 cycles

 The electronic state is 1-A.
 Alpha  occ. eigenvalues -- -103.70649-103.69766 -26.18832 -20.71439 -20.68056
 Alpha  occ. eigenvalues --  -20.60893 -20.60255 -11.54532 -10.73988 -10.73103
 Alpha  occ. eigenvalues --   -8.39711  -8.39365  -8.39358  -8.38827  -8.38477
 Alpha  occ. eigenvalues --   -8.38476  -7.72230  -1.73901  -1.49854  -1.37376
 Alpha  occ. eigenvalues --   -1.33997  -1.29496  -1.20743  -1.17610  -0.95550
 Alpha  occ. eigenvalues --   -0.84551  -0.82998  -0.81785  -0.80257  -0.79150
 Alpha  occ. eigenvalues --   -0.74354  -0.70327  -0.67617  -0.63885  -0.62145
 Alpha  occ. eigenvalues --   -0.60932  -0.60303  -0.56668  -0.55225  -0.54276
 Alpha  occ. eigenvalues --   -0.52915  -0.51832  -0.50146  -0.48435
 Alpha virt. eigenvalues --    0.03601   0.05078   0.05942   0.06201   0.07446
 Alpha virt. eigenvalues --    0.08178   0.08593   0.09826   0.11007   0.11982
 Alpha virt. eigenvalues --    0.13045   0.14369   0.15411   0.15526   0.16351

 Mulliken charges:
               1
     1  O   -0.271745
     2  B    0.826234
     3  O   -0.434141
     4  O   -0.368130
     5  O   -0.364864
     6  C    0.469601
     7  F   -0.286847
     8  Cl  -0.014866
     9  Cl   0.042745
    10  H    0.172822
    11  H    0.229192
 Sum of Mulliken charges =   0.00000

 Dipole moment (field-independent basis, Debye):
    X=              0.4999    Y=             -1.6145    Z=             -0.2040  Tot=              1.7024

 Test job not archived.
 1\1\GINC-SE120\SP\RHF\Aug-CC-pVDZ\C1H2B1Cl2F1O4\OHZDE\09-Apr-2025\0\\#
 t hf aug-cc-pvdz iop(5/13=1,5/36=2,99/5=2) pseudo=read geom=check gues
 s=(read,tcheck) scf=(maxcycle=1)\\title\\0,1\O,0,1.174517,0.633278,-0.
 465204\B,0,2.349337,-0.059357,-0.104971\O,0,3.396411,0.769931,0.109688
 \O,0,2.435057,-1.40581,0.006105\O,0,0.103988,-0.326356,-0.695852\C,0,-
 0.936607,-0.017323,0.152811\F,0,-0.548981,-0.098936,1.439851\Cl,0,-2.1
 42104,-1.287286,-0.182974\Cl,0,-1.615014,1.610219,-0.119174\H,0,4.1966
 29,0.289694,0.341354\H,0,1.608376,-1.856737,-0.193392\\Version=ES64L-G

 Normal termination of Gaussian 16 at Wed Apr  9 00:38:30 2025.
