 Gaussian 16, Revision C.01,

 ----------------------------------------------------------------------
 #t hf aug-cc-pvdz symm=none int=(grid=ultrafine) guess=(read,tcheck) s
 table=(opt,rrhf)
 ----------------------------------------------------------------------
 -----
 title
 -----
 Symbolic Z-matrix:
 Charge =  0 Multiplicity = 1

 SCF Done:  E(RHF) =  -934.165395295     A.U. after   13 cycles
 Normal termination of Gaussian 16 at Tue Apr  8 23:39:36 2025.
 Gaussian 16:  ES64L-G16RevC.01  3-Jul-2019

 ----------------------------------------------------------------------
 #t hf aug-cc-pvdz iop(5/13=1,5/36=2,99/5=2) pseudo=read geom=check gue
 ss=(read,tcheck) scf=(maxcycle=1)
 ----------------------------------------------------------------------
 -----
 title
 -----
 Structure from the checkpoint file:  "BDE49_nonexpt_1640_mol1.chk"
 Charge =  0 Multiplicity = 1

                         Standard orientation:
 ---------------------------------------------------------------------
 Center     Atomic      Atomic             Coordinates (Angstroms)
 Number     Number       Type             X           Y           Z
 ---------------------------------------------------------------------
      1         14           0       -0.896888    0.991236    0.013513
      2         15           0        1.080147   -0.131092    0.106885
      3          8           0        1.387110   -0.792202    1.389445
      4          6           0       -2.251769   -0.191716    0.492638
      5          6           0       -3.240185   -0.543850   -0.333843
      6          1           0       -2.235365   -0.613447    1.496249
      7          1           0       -3.309965   -0.156381   -1.346378
      8          1           0       -4.024685   -1.233467   -0.034028
      9          8           0        2.106768    0.996780   -0.405948
     10          1           0        3.033662    0.723334   -0.366917
     11          8           0        1.100744   -1.172476   -1.143323
     12          1           0        0.975534   -2.077248   -0.830607
     13          1           0       -1.118949    1.493992   -1.359426
     14          1           0       -0.771250    2.108869    0.974491
 ---------------------------------------------------------------------

 SCF Done:  E(RHF) =  -934.346814645     A.U. after    2 cycles

 The electronic state is 1-A.
 Alpha  occ. eigenvalues --  -81.40290 -69.08779 -20.61410 -20.60960 -20.52224
 Alpha  occ. eigenvalues --  -11.26985 -11.24894  -7.88798  -6.84114  -5.03407
 Alpha  occ. eigenvalues --   -5.03291  -5.02878  -3.94881  -3.94871  -3.94841
 Alpha  occ. eigenvalues --   -1.37247  -1.33969  -1.25230  -1.04651  -0.85186
 Alpha  occ. eigenvalues --   -0.80889  -0.75588  -0.71524  -0.67593  -0.65508
 Alpha  occ. eigenvalues --   -0.63857  -0.61451  -0.58264  -0.57549  -0.56974
 Alpha  occ. eigenvalues --   -0.51736  -0.49843  -0.48303  -0.47267  -0.43740
 Alpha  occ. eigenvalues --   -0.39128
 Alpha virt. eigenvalues --    0.03005   0.04171   0.04628   0.05019   0.05592
 Alpha virt. eigenvalues --    0.06932   0.07197   0.08039   0.08437   0.09577
 Alpha virt. eigenvalues --    0.10074   0.11256   0.11910   0.13265   0.14232

 Mulliken charges:
               1
     1  Si   0.476148
     2  P    1.904044
     3  O   -0.975851
     4  C    0.155832
     5  C    0.532243
     6  H   -0.414364
     7  H   -0.309042
     8  H   -0.240522
     9  O   -0.683636
    10  H    0.143863
    11  O   -0.725881
    12  H    0.149409
    13  H   -0.029302
    14  H    0.017060
 Sum of Mulliken charges =  -0.00000

 Dipole moment (field-independent basis, Debye):
    X=             -1.6720    Y=             -0.1417    Z=             -1.9946  Tot=              2.6065

 Test job not archived.
 1\1\GINC-SE435\SP\RHF\Aug-CC-pVDZ\C2H7O3P1Si1\OHZDE\08-Apr-2025\0\\#t
 hf aug-cc-pvdz iop(5/13=1,5/36=2,99/5=2) pseudo=read geom=check guess=
 (read,tcheck) scf=(maxcycle=1)\\title\\0,1\Si,0,-0.896888,0.991236,0.0
 13513\P,0,1.080147,-0.131092,0.106885\O,0,1.38711,-0.792202,1.389445\C
 ,0,-2.251769,-0.191716,0.492638\C,0,-3.240185,-0.54385,-0.333843\H,0,-
 2.235365,-0.613447,1.496249\H,0,-3.309965,-0.156381,-1.346378\H,0,-4.0
 24685,-1.233467,-0.034028\O,0,2.106768,0.99678,-0.405948\H,0,3.033662,
 0.723334,-0.366917\O,0,1.100744,-1.172476,-1.143323\H,0,0.975534,-2.07

 Normal termination of Gaussian 16 at Tue Apr  8 23:39:41 2025.
