 Gaussian 16, Revision C.01,

 ----------------------------------------------------------------------
 #t hf aug-cc-pvdz symm=none int=(grid=ultrafine) guess=(read,tcheck) s
 table=(opt,rrhf)
 ----------------------------------------------------------------------
 -----
 title
 -----
 Symbolic Z-matrix:
 Charge =  0 Multiplicity = 1

 SCF Done:  E(RHF) =  -750.226076067     A.U. after   10 cycles
 Normal termination of Gaussian 16 at Tue Apr  8 22:56:33 2025.
 Gaussian 16:  ES64L-G16RevC.01  3-Jul-2019

 ----------------------------------------------------------------------
 #t hf aug-cc-pvdz iop(5/13=1,5/36=2,99/5=2) pseudo=read geom=check gue
 ss=(read,tcheck) scf=(maxcycle=1)
 ----------------------------------------------------------------------
 -----
 title
 -----
 Structure from the checkpoint file:  "BDE49_expt_1943_mol1.chk"
 Charge =  0 Multiplicity = 1

                         Standard orientation:
 ---------------------------------------------------------------------
 Center     Atomic      Atomic             Coordinates (Angstroms)
 Number     Number       Type             X           Y           Z
 ---------------------------------------------------------------------
      1         14           0       -1.000100    0.000007   -0.000001
      2         17           0        1.081033   -0.000005    0.000003
      3          1           0       -1.458794   -0.548431    1.289718
      4          1           0       -1.458725   -0.842778   -1.119805
      5          1           0       -1.458641    1.391193   -0.169944
 ---------------------------------------------------------------------

 SCF Done:  E(RHF) =  -750.269813108     A.U. after    2 cycles

 The electronic state is 1-A.
 Alpha  occ. eigenvalues -- -103.65389 -69.12030 -10.68856  -8.34548  -8.34313
 Alpha  occ. eigenvalues --   -8.34313  -6.86901  -3.97768  -3.97609  -3.97609
 Alpha  occ. eigenvalues --   -1.13741  -0.72472  -0.53638  -0.53365  -0.53364
 Alpha  occ. eigenvalues --   -0.46108  -0.46108
 Alpha virt. eigenvalues --    0.03685   0.05023   0.05978   0.05978   0.08848
 Alpha virt. eigenvalues --    0.08848   0.11787   0.14663   0.15994   0.15997
 Alpha virt. eigenvalues --    0.15997   0.18921   0.18921   0.23388   0.23388

 Mulliken charges:
               1
     1  Si   0.802700
     2  Cl  -0.501413
     3  H   -0.100429
     4  H   -0.100435
     5  H   -0.100423
 Sum of Mulliken charges =  -0.00000

 Dipole moment (field-independent basis, Debye):
    X=             -1.7592    Y=              0.0001    Z=              0.0000  Tot=              1.7592

 Test job not archived.
 1\1\GINC-SE250\SP\RHF\Aug-CC-pVDZ\Cl1H3Si1\OHZDE\08-Apr-2025\0\\#t hf
 aug-cc-pvdz iop(5/13=1,5/36=2,99/5=2) pseudo=read geom=check guess=(re
 ad,tcheck) scf=(maxcycle=1)\\title\\0,1\Si,0,1.0001,-0.000007,-0.00000
 1\Cl,0,-1.081033,0.000005,0.000003\H,0,1.458795,0.549328,1.289336\H,0,
 1.458725,0.841999,-1.120391\H,0,1.458641,-1.391311,-0.168977\\Version=
 ES64L-G16RevC.01\State=1-A\HF=-750.2698131\RMSD=5.443e-03\Dipole=0.692
 1417,-0.000027,0.0000098\Quadrupole=0.3518041,-0.1758941,-0.17591,-0.0
 000854,0.0000224,0.0000128\PG=C01 [X(Cl1H3Si1)]\\@

 Normal termination of Gaussian 16 at Tue Apr  8 22:56:34 2025.
