 Gaussian 16, Revision C.01,

 ----------------------------------------------------------------------
 #t hf aug-cc-pvdz symm=none int=(grid=ultrafine) guess=(read,tcheck) s
 table=(opt,rrhf)
 ----------------------------------------------------------------------
 -----
 title
 -----
 Symbolic Z-matrix:
 Charge =  0 Multiplicity = 1

 SCF Done:  E(RHF) =  -1697.17294900     A.U. after   12 cycles
 Normal termination of Gaussian 16 at Wed Apr  9 00:07:31 2025.
 Gaussian 16:  ES64L-G16RevC.01  3-Jul-2019

 ----------------------------------------------------------------------
 #t hf aug-cc-pvdz iop(5/13=1,5/36=2,99/5=2) pseudo=read geom=check gue
 ss=(read,tcheck) scf=(maxcycle=1)
 ----------------------------------------------------------------------
 -----
 title
 -----
 Structure from the checkpoint file:  "BDE49_nonexpt_2324_mol1.chk"
 Charge =  0 Multiplicity = 1

                         Standard orientation:
 ---------------------------------------------------------------------
 Center     Atomic      Atomic             Coordinates (Angstroms)
 Number     Number       Type             X           Y           Z
 ---------------------------------------------------------------------
      1         14           0        1.538210    0.000000   -0.363795
      2         14           0       -0.645288    0.000000    0.523875
      3         17           0       -1.617535   -1.694251   -0.168658
      4         17           0       -1.617535    1.694251   -0.168658
      5          1           0       -0.730968    0.000000    1.993367
      6          9           0        2.311852    1.289009    0.185148
      7          1           0        1.612900   -0.000001   -1.832785
      8          9           0        2.311852   -1.289009    0.185149
 ---------------------------------------------------------------------

 SCF Done:  E(RHF) =  -1697.34417296     A.U. after    2 cycles

 The electronic state is 1-A.
 Alpha  occ. eigenvalues -- -103.67886-103.67886 -69.18661 -69.17600 -26.13860
 Alpha  occ. eigenvalues --  -26.13858 -10.71333 -10.71321  -8.37021  -8.37015
 Alpha  occ. eigenvalues --   -8.36783  -8.36780  -8.36778  -8.36778  -6.92783
 Alpha  occ. eigenvalues --   -6.92078  -4.03765  -4.03616  -4.03451  -4.02926
 Alpha  occ. eigenvalues --   -4.02817  -4.02679  -1.67244  -1.66056  -1.17321
 Alpha  occ. eigenvalues --   -1.15181  -0.85767  -0.79265  -0.76967  -0.76546
 Alpha  occ. eigenvalues --   -0.73991  -0.72410  -0.72309  -0.60679  -0.57625
 Alpha  occ. eigenvalues --   -0.57398  -0.53660  -0.50488  -0.49661  -0.48787
 Alpha  occ. eigenvalues --   -0.43650
 Alpha virt. eigenvalues --    0.04081   0.04457   0.04748   0.04980   0.07228
 Alpha virt. eigenvalues --    0.07546   0.07649   0.08854   0.10347   0.10572
 Alpha virt. eigenvalues --    0.11173   0.12517   0.12920   0.15322   0.16645

 Mulliken charges:
               1
     1  Si   1.741834
     2  Si   0.709720
     3  Cl  -0.487505
     4  Cl  -0.487505
     5  H    0.029825
     6  F   -0.751431
     7  H   -0.003507
     8  F   -0.751431
 Sum of Mulliken charges =  -0.00000

 Dipole moment (field-independent basis, Debye):
    X=             -0.3528    Y=              0.0000    Z=             -0.1686  Tot=              0.3911

 Test job not archived.
 1\1\GINC-SE435\SP\RHF\Aug-CC-pVDZ\Cl2F2H2Si2\OHZDE\09-Apr-2025\0\\#t h
 f aug-cc-pvdz iop(5/13=1,5/36=2,99/5=2) pseudo=read geom=check guess=(
 read,tcheck) scf=(maxcycle=1)\\title\\0,1\Si,0,-1.53821,0.,-0.363795\S
 i,0,0.645288,0.,0.523875\Cl,0,1.617535,1.694251,-0.168658\Cl,0,1.61753
 5,-1.694251,-0.168658\H,0,0.730968,0.,1.993367\F,0,-2.311852,-1.289009
 ,0.185148\H,0,-1.6129,0.000001,-1.832785\F,0,-2.311852,1.289009,0.1851
 49\\Version=ES64L-G16RevC.01\State=1-A\HF=-1697.344173\RMSD=4.521e-03\
 Dipole=0.1388216,-0.0000006,-0.0663289\Quadrupole=-2.7751055,-1.635470

 Normal termination of Gaussian 16 at Wed Apr  9 00:07:34 2025.
