 Gaussian 16, Revision C.01,

 ----------------------------------------------------------------------
 #t hf aug-cc-pvdz symm=none int=(grid=ultrafine) guess=(read,tcheck) s
 table=opt
 ----------------------------------------------------------------------
 -----
 title
 -----
 Symbolic Z-matrix:
 Charge =  0 Multiplicity = 2

 SCF Done:  E(UHF) =  -1416.32525479     A.U. after   15 cycles
 Normal termination of Gaussian 16 at Tue Apr  8 22:26:16 2025.
 Gaussian 16:  ES64L-G16RevC.01  3-Jul-2019

 ----------------------------------------------------------------------
 #t hf aug-cc-pvdz iop(5/13=1,5/36=2,99/5=2) pseudo=read geom=check gue
 ss=(read,tcheck) scf=(maxcycle=1)
 ----------------------------------------------------------------------
 -----
 title
 -----
 Structure from the checkpoint file:  "BDE49_expt_1000_mol2.chk"
 Charge =  0 Multiplicity = 2

                         Standard orientation:
 ---------------------------------------------------------------------
 Center     Atomic      Atomic             Coordinates (Angstroms)
 Number     Number       Type             X           Y           Z
 ---------------------------------------------------------------------
      1          6           0        0.000064    0.000002    0.271415
      2         17           0       -0.841186    1.475277   -0.031938
      3         17           0       -0.857201   -1.466032   -0.031936
      4         17           0        1.698364   -0.009246   -0.031919
 ---------------------------------------------------------------------

 SCF Done:  E(UHF) =  -1416.39607721     A.U. after    2 cycles

 The electronic state is 2-A.
 Alpha  occ. eigenvalues -- -103.70684-103.70683-103.70682 -11.43999 -10.74004
 Alpha  occ. eigenvalues --  -10.74004 -10.73974  -8.39687  -8.39686  -8.39679
 Alpha  occ. eigenvalues --   -8.39447  -8.39446  -8.39441  -8.39363  -8.39362
 Alpha  occ. eigenvalues --   -8.39361  -1.28996  -1.18219  -1.18218  -0.86983
 Alpha  occ. eigenvalues --   -0.66443  -0.66442  -0.65675  -0.52741  -0.52739
 Alpha  occ. eigenvalues --   -0.50398  -0.50397  -0.47977  -0.39218
 Alpha virt. eigenvalues --    0.05655   0.08065   0.08065   0.09149   0.12104
 Alpha virt. eigenvalues --    0.13543   0.13544   0.15411   0.15412   0.16703
 Alpha virt. eigenvalues --    0.18538   0.18539   0.18616   0.20160   0.22980

  Beta  occ. eigenvalues -- -103.70641-103.70640-103.70639 -11.40908 -10.73955
  Beta  occ. eigenvalues --  -10.73955 -10.73925  -8.39801  -8.39800  -8.39789
  Beta  occ. eigenvalues --   -8.39336  -8.39334  -8.39333  -8.39158  -8.39158
  Beta  occ. eigenvalues --   -8.39156  -1.26466  -1.17758  -1.17756  -0.80658
  Beta  occ. eigenvalues --   -0.65105  -0.65104  -0.56885  -0.51624  -0.51623
  Beta  occ. eigenvalues --   -0.49432  -0.49431  -0.47822
  Beta virt. eigenvalues --    0.04844   0.07273   0.08229   0.08229   0.10711
  Beta virt. eigenvalues --    0.12517   0.13866   0.13866   0.15467   0.15467
  Beta virt. eigenvalues --    0.18213   0.18611   0.18612   0.18612   0.21194

 Mulliken charges and spin densities:
               1          2
     1  C   -0.261046   1.025506
     2  Cl   0.087016  -0.008497
     3  Cl   0.087012  -0.008499
     4  Cl   0.087019  -0.008510
 Sum of Mulliken charges =  -0.00000   1.00000

 Dipole moment (field-independent basis, Debye):
    X=              0.0000    Y=              0.0000    Z=              0.0347  Tot=              0.0347
                          Isotropic Fermi Contact Couplings
        Atom                 a.u.       MegaHertz       Gauss      10(-4) cm-1
     1  C(13)              0.45391     510.28484     182.08232     170.21270
     2  Cl(35)             0.04843      21.23276       7.57638       7.08249
     3  Cl(35)             0.04843      21.23283       7.57640       7.08251
     4  Cl(35)             0.04844      21.23913       7.57865       7.08461
 --------------------------------------------------------
       Center         ----  Spin Dipole Couplings  ----
                      3XX-RR        3YY-RR        3ZZ-RR
 --------------------------------------------------------

 Normal termination of Gaussian 16 at Tue Apr  8 22:26:18 2025.
