 Gaussian 16, Revision C.01,

 ----------------------------------------------------------------------
 #t hf aug-cc-pvdz symm=none int=(grid=ultrafine) guess=(read,tcheck) s
 table=(opt,rrhf)
 ----------------------------------------------------------------------
 -----
 title
 -----
 Symbolic Z-matrix:
 Charge =  0 Multiplicity = 1

 SCF Done:  E(RHF) =  -546.074895031     A.U. after   15 cycles
 Normal termination of Gaussian 16 at Wed Apr  9 00:46:50 2025.
 Gaussian 16:  ES64L-G16RevC.01  3-Jul-2019

 ----------------------------------------------------------------------
 #t hf aug-cc-pvdz iop(5/13=1,5/36=2,99/5=2) pseudo=read geom=check gue
 ss=(read,tcheck) scf=(maxcycle=1)
 ----------------------------------------------------------------------
 -----
 title
 -----
 Structure from the checkpoint file:  "BDE49_nonexpt_849_mol1.chk"
 Charge =  0 Multiplicity = 1

                         Standard orientation:
 ---------------------------------------------------------------------
 Center     Atomic      Atomic             Coordinates (Angstroms)
 Number     Number       Type             X           Y           Z
 ---------------------------------------------------------------------
      1         14           0       -3.054181   -0.188058    0.000024
      2          5           0       -1.356438    0.911270   -0.000118
      3          6           0        0.092770    0.396426   -0.000055
      4          6           0        1.168197    1.314461   -0.000008
      5          6           0        0.415921   -0.979092   -0.000044
      6          6           0        1.735529   -1.413874    0.000005
      7          6           0        2.772655   -0.480295    0.000049
      8          6           0        2.489665    0.886221    0.000043
      9          1           0        3.803342   -0.818388    0.000088
     10          1           0        3.299053    1.607636    0.000077
     11          1           0        0.947378    2.376364   -0.000015
     12          1           0       -0.384706   -1.710180   -0.000077
     13          1           0        1.961184   -2.474317    0.000010
     14          1           0       -1.516549    2.098096    0.000050
     15          1           0       -2.877978   -1.664155    0.000036
     16          1           0       -3.869784    0.159141   -1.195041
     17          1           0       -3.869631    0.159181    1.195183
 ---------------------------------------------------------------------

 SCF Done:  E(RHF) =  -546.169448660     A.U. after    2 cycles

 The electronic state is 1-A.
 Alpha  occ. eigenvalues --  -69.04204 -11.26643 -11.26131 -11.26119 -11.25204
 Alpha  occ. eigenvalues --  -11.25198 -11.23159  -7.61118  -6.79704  -3.90473
 Alpha  occ. eigenvalues --   -3.90467  -3.90412  -1.14937  -1.02059  -1.01754
 Alpha  occ. eigenvalues --   -0.84014  -0.83503  -0.73945  -0.70099  -0.65881
 Alpha  occ. eigenvalues --   -0.64001  -0.61614  -0.60171  -0.55231  -0.51390
 Alpha  occ. eigenvalues --   -0.50530  -0.48476  -0.46922  -0.45982  -0.40184
 Alpha  occ. eigenvalues --   -0.35433  -0.34996
 Alpha virt. eigenvalues --    0.03046   0.03439   0.03917   0.04116   0.05250
 Alpha virt. eigenvalues --    0.05770   0.06282   0.06689   0.07544   0.07629
 Alpha virt. eigenvalues --    0.07933   0.09333   0.09506   0.09816   0.10283

 Mulliken charges:
               1
     1  Si  -0.569962
     2  B   -0.421933
     3  C   -0.100350
     4  C    0.540328
     5  C    0.764944
     6  C    0.484219
     7  C    0.728905
     8  C    0.496468
     9  H   -0.434539
    10  H   -0.441219
    11  H   -0.587800
    12  H   -0.569544
    13  H   -0.455682
    14  H    0.293802
    15  H    0.065334
    16  H    0.103508
    17  H    0.103523
 Sum of Mulliken charges =   0.00000

 Dipole moment (field-independent basis, Debye):
    X=              2.1892    Y=             -0.1495    Z=             -0.0001  Tot=              2.1943

 Test job not archived.
 1\1\GINC-SE187\SP\RHF\Aug-CC-pVDZ\C6H9B1Si1\OHZDE\09-Apr-2025\0\\#t hf
  aug-cc-pvdz iop(5/13=1,5/36=2,99/5=2) pseudo=read geom=check guess=(r
 ead,tcheck) scf=(maxcycle=1)\\title\\0,1\Si,0,-3.054181,-0.188058,0.00
 0024\B,0,-1.356438,0.91127,-0.000118\C,0,0.09277,0.396426,-0.000055\C,
 0,1.168197,1.314461,-0.000008\C,0,0.415921,-0.979092,-0.000044\C,0,1.7
 35529,-1.413874,0.000005\C,0,2.772655,-0.480295,0.000049\C,0,2.489665,
 0.886221,0.000043\H,0,3.803342,-0.818388,0.000088\H,0,3.299053,1.60763
 6,0.000077\H,0,0.947378,2.376364,-0.000015\H,0,-0.384706,-1.71018,-0.0

 Normal termination of Gaussian 16 at Wed Apr  9 00:46:58 2025.
