 Gaussian 16, Revision C.01,

 ----------------------------------------------------------------------
 #t hf aug-cc-pvdz symm=none int=(grid=ultrafine) guess=(read,tcheck) s
 table=(opt,rrhf)
 ----------------------------------------------------------------------
 -----
 title
 -----
 Symbolic Z-matrix:
 Charge =  0 Multiplicity = 1

 SCF Done:  E(RHF) =  -1933.89423900     A.U. after   13 cycles
 Normal termination of Gaussian 16 at Tue Apr  8 23:48:07 2025.
 Gaussian 16:  ES64L-G16RevC.01  3-Jul-2019

 ----------------------------------------------------------------------
 #t hf aug-cc-pvdz iop(5/13=1,5/36=2,99/5=2) pseudo=read geom=check gue
 ss=(read,tcheck) scf=(maxcycle=1)
 ----------------------------------------------------------------------
 -----
 title
 -----
 Structure from the checkpoint file:  "BDE49_nonexpt_1813_mol1.chk"
 Charge =  0 Multiplicity = 1

                         Standard orientation:
 ---------------------------------------------------------------------
 Center     Atomic      Atomic             Coordinates (Angstroms)
 Number     Number       Type             X           Y           Z
 ---------------------------------------------------------------------
      1          6           0       -0.785408    0.851951   -0.000001
      2          8           0       -0.897487    2.049865   -0.000009
      3         14           0        0.903417   -0.061970    0.000001
      4          8           0       -1.798437   -0.025074    0.000001
      5         17           0        1.064105   -1.237451   -1.676478
      6         17           0        1.064116   -1.237420    1.676500
      7         17           0        2.391974    1.337609   -0.000017
      8          6           0       -3.149867    0.527988   -0.000003
      9          6           0       -4.116217   -0.636455    0.000001
     10          1           0       -3.258883    1.160297   -0.883551
     11          1           0       -3.258885    1.160304    0.883541
     12          1           0       -3.977047   -1.258704   -0.886245
     13          1           0       -5.142944   -0.261407   -0.000002
     14          1           0       -3.977049   -1.258697    0.886251
 ---------------------------------------------------------------------

 SCF Done:  E(RHF) =  -1934.06314406     A.U. after    2 cycles

 The electronic state is 1-A.
 Alpha  occ. eigenvalues -- -103.68490-103.68490-103.68030 -69.22335 -20.63813
 Alpha  occ. eigenvalues --  -20.59320 -11.41028 -11.31778 -11.24839 -10.71936
 Alpha  occ. eigenvalues --  -10.71925 -10.71489  -8.37631  -8.37624  -8.37384
 Alpha  occ. eigenvalues --   -8.37380  -8.37378  -8.37376  -8.37187  -8.36938
 Alpha  occ. eigenvalues --   -8.36936  -6.96205  -4.07053  -4.07046  -4.06919
 Alpha  occ. eigenvalues --   -1.43954  -1.35072  -1.19129  -1.15897  -1.15658
 Alpha  occ. eigenvalues --   -1.05545  -0.90733  -0.81953  -0.76455  -0.71442
 Alpha  occ. eigenvalues --   -0.70877  -0.67439  -0.61652  -0.59897  -0.59012
 Alpha  occ. eigenvalues --   -0.58646  -0.56934  -0.53698  -0.53619  -0.53452
 Alpha  occ. eigenvalues --   -0.52122  -0.51974  -0.49672  -0.49320  -0.49168
 Alpha  occ. eigenvalues --   -0.48191  -0.45434
 Alpha virt. eigenvalues --    0.03242   0.04772   0.04798   0.05267   0.06063
 Alpha virt. eigenvalues --    0.06637   0.06897   0.07530   0.08368   0.08976
 Alpha virt. eigenvalues --    0.10929   0.11377   0.12244   0.13036   0.13436

 Mulliken charges:
               1
     1  C    0.110350
     2  O   -0.387879
     3  Si   1.482292
     4  O   -0.374445
     5  Cl  -0.462602
     6  Cl  -0.462602
     7  Cl  -0.422639
     8  C    0.723845
     9  C    0.244057
    10  H   -0.166552
    11  H   -0.166549
    12  H   -0.051701
    13  H   -0.013871
    14  H   -0.051703
 Sum of Mulliken charges =  -0.00000

 Dipole moment (field-independent basis, Debye):
    X=             -2.5634    Y=             -1.2789    Z=              0.0000  Tot=              2.8647

 Test job not archived.
 1\1\GINC-SE328\SP\RHF\Aug-CC-pVDZ\C3H5Cl3O2Si1\OHZDE\08-Apr-2025\0\\#t
  hf aug-cc-pvdz iop(5/13=1,5/36=2,99/5=2) pseudo=read geom=check guess
 =(read,tcheck) scf=(maxcycle=1)\\title\\0,1\C,0,-0.785408,0.851951,-0.
 000001\O,0,-0.897487,2.049865,-0.000009\Si,0,0.903417,-0.06197,0.00000
 1\O,0,-1.798437,-0.025074,0.000001\Cl,0,1.064105,-1.237451,-1.676478\C
 l,0,1.064116,-1.23742,1.6765\Cl,0,2.391974,1.337608,-0.000017\C,0,-3.1
 49867,0.527988,-0.000003\C,0,-4.116217,-0.636454,0.000001\H,0,-3.25888
 3,1.160297,-0.883551\H,0,-3.258885,1.160304,0.883541\H,0,-3.977047,-1.

 Normal termination of Gaussian 16 at Tue Apr  8 23:48:14 2025.
