 Gaussian 16, Revision C.01,

 ----------------------------------------------------------------------
 #t hf aug-cc-pvdz symm=none int=(grid=ultrafine) guess=(read,tcheck) s
 table=(opt,rrhf)
 ----------------------------------------------------------------------
 -----
 title
 -----
 Symbolic Z-matrix:
 Charge =  0 Multiplicity = 1

 SCF Done:  E(RHF) =  -766.136732755     A.U. after   15 cycles
 Normal termination of Gaussian 16 at Wed Apr  9 00:23:36 2025.
 Gaussian 16:  ES64L-G16RevC.01  3-Jul-2019

 ----------------------------------------------------------------------
 #t hf aug-cc-pvdz iop(5/13=1,5/36=2,99/5=2) pseudo=read geom=check gue
 ss=(read,tcheck) scf=(maxcycle=1)
 ----------------------------------------------------------------------
 -----
 title
 -----
 Structure from the checkpoint file:  "BDE49_nonexpt_2704_mol1.chk"
 Charge =  0 Multiplicity = 1

                         Standard orientation:
 ---------------------------------------------------------------------
 Center     Atomic      Atomic             Coordinates (Angstroms)
 Number     Number       Type             X           Y           Z
 ---------------------------------------------------------------------
      1          6           0       -1.065744    1.205584    0.259788
      2          6           0       -2.396062    1.205858   -0.149745
      3          6           0       -3.064023   -0.000001   -0.353953
      4          6           0       -2.396061   -1.205859   -0.149743
      5          6           0       -1.065743   -1.205583    0.259789
      6          6           0        1.056630    0.000002    0.910920
      7          6           0       -0.390541    0.000001    0.480777
      8         16           0        2.014437   -0.000002   -0.635003
      9          9           0        3.566075    0.000001    0.010766
     10          1           0        1.308954   -0.891911    1.485567
     11          1           0        1.308954    0.891917    1.485563
     12          1           0       -0.546092    2.144790    0.416685
     13          1           0       -2.910755    2.146549   -0.308625
     14          1           0       -4.100622   -0.000002   -0.671100
     15          1           0       -2.910753   -2.146550   -0.308622
     16          1           0       -0.546091   -2.144789    0.416688
 ---------------------------------------------------------------------

 SCF Done:  E(RHF) =  -766.272976091     A.U. after    2 cycles

 The electronic state is 1-A.
 Alpha  occ. eigenvalues --  -93.61366 -26.11644 -11.29221 -11.27381 -11.26143
 Alpha  occ. eigenvalues --  -11.26135 -11.25990 -11.25868 -11.25821  -8.90202
 Alpha  occ. eigenvalues --   -6.24408  -6.23986  -6.23574  -1.62579  -1.16595
 Alpha  occ. eigenvalues --   -1.08168  -1.02590  -0.99481  -0.89044  -0.84701
 Alpha  occ. eigenvalues --   -0.81492  -0.72497  -0.72139  -0.70907  -0.68639
 Alpha  occ. eigenvalues --   -0.66561  -0.65191  -0.60787  -0.59357  -0.58662
 Alpha  occ. eigenvalues --   -0.53013  -0.51449  -0.51040  -0.48279  -0.37559
 Alpha  occ. eigenvalues --   -0.35218  -0.35007
 Alpha virt. eigenvalues --    0.03043   0.03817   0.04051   0.05381   0.05640
 Alpha virt. eigenvalues --    0.06778   0.07252   0.08429   0.08514   0.09184
 Alpha virt. eigenvalues --    0.09657   0.10710   0.12439   0.12773   0.13824

 Mulliken charges:
               1
     1  C    0.124331
     2  C    0.420083
     3  C    0.456618
     4  C    0.420085
     5  C    0.124328
     6  C    0.118277
     7  C    0.971766
     8  S    0.775366
     9  F   -0.636114
    10  H   -0.188765
    11  H   -0.188768
    12  H   -0.551578
    13  H   -0.431847
    14  H   -0.430355
    15  H   -0.431848
    16  H   -0.551578
 Sum of Mulliken charges =  -0.00000

 Dipole moment (field-independent basis, Debye):
    X=             -3.5153    Y=              0.0000    Z=              0.7626  Tot=              3.5970

 Test job not archived.
 1\1\GINC-SE044\SP\RHF\Aug-CC-pVDZ\C7H7F1S1\OHZDE\09-Apr-2025\0\\#t hf
 aug-cc-pvdz iop(5/13=1,5/36=2,99/5=2) pseudo=read geom=check guess=(re
 ad,tcheck) scf=(maxcycle=1)\\title\\0,1\C,0,-1.065744,1.205584,0.25978
 8\C,0,-2.396062,1.205858,-0.149745\C,0,-3.064023,-0.000001,-0.353953\C
 ,0,-2.396061,-1.205859,-0.149743\C,0,-1.065743,-1.205583,0.259789\C,0,
 1.05663,0.000002,0.91092\C,0,-0.390541,0.000001,0.480777\S,0,2.014437,
 -0.000002,-0.635003\F,0,3.566075,0.000001,0.010766\H,0,1.308954,-0.891
 911,1.485567\H,0,1.308954,0.891917,1.485563\H,0,-0.546092,2.14479,0.41

 Normal termination of Gaussian 16 at Wed Apr  9 00:23:44 2025.
