 Gaussian 16, Revision C.01,

 ----------------------------------------------------------------------
 #t hf aug-cc-pvdz symm=none int=(grid=ultrafine) guess=(read,tcheck) s
 table=(opt,rrhf)
 ----------------------------------------------------------------------
 -----
 title
 -----
 Symbolic Z-matrix:
 Charge =  0 Multiplicity = 1

 SCF Done:  E(RHF) =  -744.529720877     A.U. after   15 cycles
 Normal termination of Gaussian 16 at Wed Apr  9 00:21:09 2025.
 Gaussian 16:  ES64L-G16RevC.01  3-Jul-2019

 ----------------------------------------------------------------------
 #t hf aug-cc-pvdz iop(5/13=1,5/36=2,99/5=2) pseudo=read geom=check gue
 ss=(read,tcheck) scf=(maxcycle=1)
 ----------------------------------------------------------------------
 -----
 title
 -----
 Structure from the checkpoint file:  "BDE49_nonexpt_2659_mol1.chk"
 Charge =  0 Multiplicity = 1

                         Standard orientation:
 ---------------------------------------------------------------------
 Center     Atomic      Atomic             Coordinates (Angstroms)
 Number     Number       Type             X           Y           Z
 ---------------------------------------------------------------------
      1          9           0        2.687593   -0.088188   -0.098854
      2         16           0        1.171037   -0.670741    0.407392
      3          6           0       -0.013789    0.246778   -0.607364
      4          8           0        0.155856    1.628840   -0.660954
      5          7           0       -1.173215   -0.272532    0.107334
      6          6           0       -2.183162   -0.922477   -0.723404
      7          1           0       -1.703815   -1.623399   -1.408005
      8          1           0       -2.773451   -0.200603   -1.308246
      9          1           0       -2.864010   -1.490883   -0.086415
     10          6           0       -1.727423    0.590698    1.147011
     11          1           0       -0.929986    0.963142    1.789977
     12          1           0       -2.404994    0.001918    1.768074
     13          1           0       -2.277908    1.446246    0.732568
     14          1           0       -0.027257   -0.102218   -1.639176
     15          1           0        0.568395    1.918362    0.161479
 ---------------------------------------------------------------------

 SCF Done:  E(RHF) =  -744.666674583     A.U. after    2 cycles

 The electronic state is 1-A.
 Alpha  occ. eigenvalues --  -93.61277 -26.10368 -20.60544 -15.64998 -11.37597
 Alpha  occ. eigenvalues --  -11.27989 -11.27713  -8.90109  -6.24308  -6.23866
 Alpha  occ. eigenvalues --   -6.23482  -1.61062  -1.37132  -1.22055  -1.02428
 Alpha  occ. eigenvalues --   -0.97708  -0.90416  -0.83463  -0.74426  -0.70963
 Alpha  occ. eigenvalues --   -0.70795  -0.68998  -0.68068  -0.63827  -0.62364
 Alpha  occ. eigenvalues --   -0.59523  -0.57476  -0.56316  -0.54196  -0.52868
 Alpha  occ. eigenvalues --   -0.46469  -0.38881  -0.37607
 Alpha virt. eigenvalues --    0.03071   0.03901   0.04451   0.05345   0.06582
 Alpha virt. eigenvalues --    0.07280   0.07329   0.08471   0.09301   0.09548
 Alpha virt. eigenvalues --    0.12861   0.12924   0.13516   0.14516   0.15353

 Mulliken charges:
               1
     1  F   -0.658032
     2  S    0.812112
     3  C    0.305445
     4  O   -0.534933
     5  N   -0.503167
     6  C    0.703345
     7  H   -0.224731
     8  H   -0.007156
     9  H   -0.199137
    10  C    0.810613
    11  H   -0.263312
    12  H   -0.190327
    13  H   -0.011946
    14  H   -0.241943
    15  H    0.203170
 Sum of Mulliken charges =  -0.00000

 Dipole moment (field-independent basis, Debye):
    X=             -4.0728    Y=             -0.2724    Z=              0.7437  Tot=              4.1491

 Test job not archived.
 1\1\GINC-SE328\SP\RHF\Aug-CC-pVDZ\C3H8F1N1O1S1\OHZDE\09-Apr-2025\0\\#t
  hf aug-cc-pvdz iop(5/13=1,5/36=2,99/5=2) pseudo=read geom=check guess
 =(read,tcheck) scf=(maxcycle=1)\\title\\0,1\F,0,2.687593,-0.088188,-0.
 098854\S,0,1.171037,-0.670741,0.407392\C,0,-0.013789,0.246778,-0.60736
 4\O,0,0.155856,1.62884,-0.660954\N,0,-1.173215,-0.272532,0.107334\C,0,
 -2.183162,-0.922477,-0.723404\H,0,-1.703815,-1.623399,-1.408005\H,0,-2
 .773451,-0.200603,-1.308246\H,0,-2.86401,-1.490883,-0.086415\C,0,-1.72
 7423,0.590698,1.147011\H,0,-0.929986,0.963142,1.789977\H,0,-2.404994,0

 Normal termination of Gaussian 16 at Wed Apr  9 00:21:15 2025.
