 Gaussian 16, Revision C.01,

 ----------------------------------------------------------------------
 #t hf aug-cc-pvdz symm=none int=(grid=ultrafine) guess=(read,tcheck) s
 table=(opt,rrhf)
 ----------------------------------------------------------------------
 -----
 title
 -----
 Symbolic Z-matrix:
 Charge =  0 Multiplicity = 1

 SCF Done:  E(RHF) =  -563.710935278     A.U. after   15 cycles
 Normal termination of Gaussian 16 at Wed Apr  9 00:32:31 2025.
 Gaussian 16:  ES64L-G16RevC.01  3-Jul-2019

 ----------------------------------------------------------------------
 #t hf aug-cc-pvdz iop(5/13=1,5/36=2,99/5=2) pseudo=read geom=check gue
 ss=(read,tcheck) scf=(maxcycle=1)
 ----------------------------------------------------------------------
 -----
 title
 -----
 Structure from the checkpoint file:  "BDE49_nonexpt_413_mol1.chk"
 Charge =  0 Multiplicity = 1

                         Standard orientation:
 ---------------------------------------------------------------------
 Center     Atomic      Atomic             Coordinates (Angstroms)
 Number     Number       Type             X           Y           Z
 ---------------------------------------------------------------------
      1          9           0        1.952572    1.519051   -0.409445
      2          5           0        1.882475    0.261445   -0.032947
      3          9           0        2.993069   -0.402572    0.185322
      4          6           0        0.478124   -0.488937    0.154151
      5          8           0        0.366036   -1.662576    0.349365
      6          8           0       -0.577532    0.406536    0.112596
      7          6           0       -1.902103   -0.007179   -0.146285
      8          8           0       -2.160517   -0.953050   -0.817335
      9          6           0       -2.858754    0.953615    0.497394
     10          1           0       -2.764317    0.885230    1.584314
     11          1           0       -3.875444    0.709223    0.197233
     12          1           0       -2.610887    1.977734    0.211727
 ---------------------------------------------------------------------

 SCF Done:  E(RHF) =  -563.911554636     A.U. after    2 cycles

 The electronic state is 1-A.
 Alpha  occ. eigenvalues --  -26.17273 -26.16879 -20.65422 -20.61072 -20.59584
 Alpha  occ. eigenvalues --  -11.42820 -11.42037 -11.27473  -7.78526  -1.72527
 Alpha  occ. eigenvalues --   -1.70367  -1.46473  -1.40206  -1.35442  -1.05221
 Alpha  occ. eigenvalues --   -0.94717  -0.90420  -0.85644  -0.83118  -0.80049
 Alpha  occ. eigenvalues --   -0.76848  -0.75071  -0.74771  -0.73370  -0.72691
 Alpha  occ. eigenvalues --   -0.70860  -0.65715  -0.63225  -0.60920  -0.59502
 Alpha  occ. eigenvalues --   -0.55815  -0.52248  -0.51779  -0.47627
 Alpha virt. eigenvalues --    0.02884   0.03371   0.04762   0.04990   0.05472
 Alpha virt. eigenvalues --    0.06162   0.06350   0.06984   0.10214   0.11830
 Alpha virt. eigenvalues --    0.12514   0.12682   0.13977   0.14603   0.14978

 Mulliken charges:
               1
     1  F   -0.402511
     2  B    0.975711
     3  F   -0.387024
     4  C    0.458017
     5  O   -0.372625
     6  O   -0.595296
     7  C    0.354939
     8  O   -0.367653
     9  C    0.253359
    10  H    0.047495
    11  H   -0.006273
    12  H    0.041861
 Sum of Mulliken charges =   0.00000

 Dipole moment (field-independent basis, Debye):
    X=             -1.2499    Y=              3.6809    Z=              1.4052  Tot=              4.1335

 Test job not archived.
 1\1\GINC-SE332\SP\RHF\Aug-CC-pVDZ\C3H3B1F2O3\OHZDE\09-Apr-2025\0\\#t h
 f aug-cc-pvdz iop(5/13=1,5/36=2,99/5=2) pseudo=read geom=check guess=(
 read,tcheck) scf=(maxcycle=1)\\title\\0,1\F,0,-1.952572,1.519051,0.409
 445\B,0,-1.882475,0.261445,0.032947\F,0,-2.993069,-0.402572,-0.185322\
 C,0,-0.478124,-0.488937,-0.154151\O,0,-0.366036,-1.662576,-0.349365\O,
 0,0.577532,0.406536,-0.112596\C,0,1.902103,-0.007179,0.146285\O,0,2.16
 0517,-0.95305,0.817335\C,0,2.858754,0.953615,-0.497394\H,0,2.764317,0.
 88523,-1.584314\H,0,3.875444,0.709223,-0.197233\H,0,2.610887,1.977734,

 Normal termination of Gaussian 16 at Wed Apr  9 00:32:36 2025.
