 Gaussian 16, Revision C.01,

 ----------------------------------------------------------------------
 #t hf aug-cc-pvdz symm=none int=(grid=ultrafine) guess=(read,tcheck) s
 table=(opt,rrhf)
 ----------------------------------------------------------------------
 -----
 title
 -----
 Symbolic Z-matrix:
 Charge =  0 Multiplicity = 1

 SCF Done:  E(RHF) =  -774.177164112     A.U. after   18 cycles
 Normal termination of Gaussian 16 at Tue Apr  8 23:01:15 2025.
 Gaussian 16:  ES64L-G16RevC.01  3-Jul-2019

 ----------------------------------------------------------------------
 #t hf aug-cc-pvdz iop(5/13=1,5/36=2,99/5=2) pseudo=read geom=check gue
 ss=(read,tcheck) scf=(maxcycle=1)
 ----------------------------------------------------------------------
 -----
 title
 -----
 Structure from the checkpoint file:  "BDE49_expt_1762_mol1.chk"
 Charge =  0 Multiplicity = 1

                         Standard orientation:
 ---------------------------------------------------------------------
 Center     Atomic      Atomic             Coordinates (Angstroms)
 Number     Number       Type             X           Y           Z
 ---------------------------------------------------------------------
      1          7           0        1.092406    0.522396   -0.430796
      2          7           0        1.537559    1.726386   -0.869133
      3          8           0        2.738177    1.798339   -1.045541
      4          6           0        1.994108   -0.642190   -0.394280
      5          8           0        1.897937   -1.502709   -1.243149
      6          7           0        2.854593   -0.653471    0.648989
      7          6           0       -0.316849    0.380001   -0.230332
      8          6           0       -1.032308    1.439689    0.343196
      9          6           0       -2.397503    1.330837    0.540612
     10          6           0       -3.074054    0.154135    0.193697
     11          6           0       -2.358472   -0.906127   -0.366728
     12          6           0       -0.986595   -0.787594   -0.588082
     13          1           0       -2.964418    2.143199    0.978162
     14          1           0       -2.852953   -1.824442   -0.652236
     15          1           0       -0.440898   -1.595943   -1.054299
     16          6           0        3.874901   -1.697232    0.690476
     17          1           0        3.860828   -2.191642    1.665739
     18          1           0        4.867140   -1.263343    0.528449
     19          1           0        3.667648   -2.423476   -0.090381
     20          6           0        2.990299    0.414966    1.631213
     21          1           0        3.200312   -0.031231    2.605968
     22          1           0        2.066921    0.983208    1.707628
     23          1           0        3.805244    1.093768    1.363928
     24          8           0       -4.412506    0.144318    0.443437
     25          1           0       -0.513275    2.347966    0.619162
     26          6           0       -5.156247   -1.019295    0.107209
     27          1           0       -6.185694   -0.804744    0.388658
     28          1           0       -4.804318   -1.895372    0.663274
     29          1           0       -5.110995   -1.227863   -0.967339
 ---------------------------------------------------------------------

 SCF Done:  E(RHF) =  -774.413363917     A.U. after    2 cycles

 The electronic state is 1-A.
 Alpha  occ. eigenvalues --  -20.61929 -20.60680 -20.55751 -15.81415 -15.71045
 Alpha  occ. eigenvalues --  -15.67287 -11.41964 -11.32042 -11.30330 -11.29978
 Alpha  occ. eigenvalues --  -11.28544 -11.27800 -11.26225 -11.25823 -11.25221
 Alpha  occ. eigenvalues --  -11.25021  -1.48168  -1.38208  -1.37683  -1.25863
 Alpha  occ. eigenvalues --   -1.23094  -1.14583  -1.03497  -1.02464  -0.98936
 Alpha  occ. eigenvalues --   -0.97521  -0.95904  -0.90313  -0.85901  -0.82872
 Alpha  occ. eigenvalues --   -0.76901  -0.75327  -0.73793  -0.72846  -0.69851
 Alpha  occ. eigenvalues --   -0.68504  -0.67269  -0.66489  -0.65259  -0.64206
 Alpha  occ. eigenvalues --   -0.63339  -0.61351  -0.60743  -0.59580  -0.58089
 Alpha  occ. eigenvalues --   -0.57398  -0.57252  -0.55967  -0.54824  -0.54466
 Alpha  occ. eigenvalues --   -0.53991  -0.51012  -0.50280  -0.48533  -0.43859
 Alpha  occ. eigenvalues --   -0.42909  -0.39162  -0.35702  -0.31469
 Alpha virt. eigenvalues --    0.02895   0.03222   0.03643   0.04750   0.05066
 Alpha virt. eigenvalues --    0.05148   0.05752   0.06679   0.06901   0.07467
 Alpha virt. eigenvalues --    0.08129   0.08528   0.08644   0.09368   0.09740

 Mulliken charges:
               1
     1  N   -0.391784
     2  N    0.035625
     3  O   -0.533293
     4  C    0.343777
     5  O   -0.517974
     6  N   -0.402347
     7  C    0.378207
     8  C    0.617222
     9  C    0.999024
    10  C    0.583092
    11  C    0.664541
    12  C    0.392105
    13  H   -0.583783
    14  H   -0.709642
    15  H   -0.639896
    16  C    0.733569
    17  H   -0.143526
    18  H   -0.048601
    19  H   -0.236911
    20  C    0.957522
    21  H   -0.169728
    22  H   -0.289021
    23  H   -0.069618
    24  O   -0.694859
    25  H   -0.672873
    26  C    0.895957
    27  H   -0.307728
    28  H   -0.096953
    29  H   -0.092105
 Sum of Mulliken charges =   0.00000

 Dipole moment (field-independent basis, Debye):
    X=             -1.5066    Y=             -1.7265    Z=              3.8312  Tot=              4.4641

 Test job not archived.
 1\1\GINC-SE048\SP\RHF\Aug-CC-pVDZ\C10H13N3O3\OHZDE\08-Apr-2025\0\\#t h
 f aug-cc-pvdz iop(5/13=1,5/36=2,99/5=2) pseudo=read geom=check guess=(
 read,tcheck) scf=(maxcycle=1)\\title\\0,1\N,0,1.092406,0.522396,-0.430
 796\N,0,1.537559,1.726386,-0.869133\O,0,2.738177,1.798339,-1.045541\C,
 0,1.994108,-0.64219,-0.39428\O,0,1.897937,-1.502709,-1.243149\N,0,2.85
 4593,-0.653471,0.648989\C,0,-0.316849,0.380001,-0.230332\C,0,-1.032308
 ,1.439689,0.343196\C,0,-2.397503,1.330837,0.540612\C,0,-3.074054,0.154
 135,0.193697\C,0,-2.358472,-0.906127,-0.366728\C,0,-0.986595,-0.787594

 Normal termination of Gaussian 16 at Tue Apr  8 23:01:50 2025.
