 Gaussian 16, Revision C.01,

 ----------------------------------------------------------------------
 #t hf aug-cc-pvdz symm=none int=(grid=ultrafine) guess=(read,tcheck) s
 table=(opt,rrhf)
 ----------------------------------------------------------------------
 -----
 title
 -----
 Symbolic Z-matrix:
 Charge =  0 Multiplicity = 1

 SCF Done:  E(RHF) =  -994.646901447     A.U. after   13 cycles
 Normal termination of Gaussian 16 at Wed Apr  9 00:15:57 2025.
 Gaussian 16:  ES64L-G16RevC.01  3-Jul-2019

 ----------------------------------------------------------------------
 #t hf aug-cc-pvdz iop(5/13=1,5/36=2,99/5=2) pseudo=read geom=check gue
 ss=(read,tcheck) scf=(maxcycle=1)
 ----------------------------------------------------------------------
 -----
 title
 -----
 Structure from the checkpoint file:  "BDE49_nonexpt_2514_mol1.chk"
 Charge =  0 Multiplicity = 1

                         Standard orientation:
 ---------------------------------------------------------------------
 Center     Atomic      Atomic             Coordinates (Angstroms)
 Number     Number       Type             X           Y           Z
 ---------------------------------------------------------------------
      1         16           0       -1.136732    0.207667    0.000002
      2          6           0       -1.923462   -1.421352   -0.000003
      3          8           0       -1.502579    0.845485   -1.267188
      4          8           0       -1.502576    0.845476    1.267198
      5          1           0       -1.639101   -1.961929   -0.902584
      6          1           0       -2.997285   -1.225114   -0.000002
      7          1           0       -1.639100   -1.961936    0.902573
      8         14           0        1.108501   -0.059480   -0.000001
      9          6           0        1.703199    1.711420   -0.000005
     10          1           0        1.341753    2.240902    0.884425
     11          1           0        1.341751    2.240899   -0.884436
     12          6           0        1.566845   -0.983902   -1.563223
     13          1           0        2.655844   -1.018970   -1.671874
     14          1           0        1.154238   -0.481315   -2.441184
     15          1           0        1.201944   -2.014379   -1.553591
     16          6           0        1.566849   -0.983898    1.563222
     17          1           0        1.154244   -0.481308    2.441182
     18          1           0        2.655849   -1.018966    1.671870
     19          1           0        1.201948   -2.014375    1.553593
     20          1           0        2.797265    1.745234   -0.000006
 ---------------------------------------------------------------------

 SCF Done:  E(RHF) =  -994.838195800     A.U. after    2 cycles

 The electronic state is 1-A.
 Alpha  occ. eigenvalues --  -93.74167 -69.09657 -20.53775 -20.53774 -11.27743
 Alpha  occ. eigenvalues --  -11.23886 -11.23883 -11.23019  -9.01256  -6.84812
 Alpha  occ. eigenvalues --   -6.35865  -6.35619  -6.35500  -3.95634  -3.95510
 Alpha  occ. eigenvalues --   -3.95506  -1.38574  -1.27649  -1.02124  -0.98722
 Alpha  occ. eigenvalues --   -0.94846  -0.94271  -0.83308  -0.70097  -0.65323
 Alpha  occ. eigenvalues --   -0.64591  -0.62211  -0.59853  -0.59758  -0.58983
 Alpha  occ. eigenvalues --   -0.58720  -0.57328  -0.57255  -0.56240  -0.55716
 Alpha  occ. eigenvalues --   -0.50359  -0.48169  -0.47480  -0.46325  -0.46152
 Alpha  occ. eigenvalues --   -0.39635
 Alpha virt. eigenvalues --    0.02178   0.03642   0.04307   0.04719   0.05946
 Alpha virt. eigenvalues --    0.06010   0.06349   0.07100   0.07273   0.08675
 Alpha virt. eigenvalues --    0.08754   0.09113   0.10791   0.10981   0.11508

 Mulliken charges:
               1
     1  S    2.177349
     2  C    0.069712
     3  O   -1.210591
     4  O   -1.210591
     5  H   -0.072881
     6  H   -0.009213
     7  H   -0.072882
     8  Si   1.098430
     9  C    0.512930
    10  H   -0.242780
    11  H   -0.242779
    12  C    0.505293
    13  H   -0.271587
    14  H   -0.201955
    15  H   -0.288836
    16  C    0.505291
    17  H   -0.201955
    18  H   -0.271584
    19  H   -0.288836
    20  H   -0.282535
 Sum of Mulliken charges =  -0.00000

 Dipole moment (field-independent basis, Debye):
    X=              4.1804    Y=             -4.5147    Z=             -0.0000  Tot=              6.1529

 Test job not archived.
 1\1\GINC-SE058\SP\RHF\Aug-CC-pVDZ\C4H12O2S1Si1\OHZDE\09-Apr-2025\0\\#t
  hf aug-cc-pvdz iop(5/13=1,5/36=2,99/5=2) pseudo=read geom=check guess
 =(read,tcheck) scf=(maxcycle=1)\\title\\0,1\S,0,1.136732,0.207667,-0.0
 00002\C,0,1.923462,-1.421352,0.000003\O,0,1.502579,0.845485,1.267188\O
 ,0,1.502576,0.845476,-1.267198\H,0,1.639101,-1.961929,0.902584\H,0,2.9
 97285,-1.225114,0.000002\H,0,1.6391,-1.961936,-0.902573\Si,0,-1.108501
 ,-0.05948,0.000001\C,0,-1.703199,1.71142,0.000005\H,0,-1.341753,2.2409
 02,-0.884425\H,0,-1.341751,2.240899,0.884436\C,0,-1.566845,-0.983902,1

 Normal termination of Gaussian 16 at Wed Apr  9 00:16:08 2025.
