 Gaussian 16, Revision C.01,

 ----------------------------------------------------------------------
 #t hf aug-cc-pvdz symm=none int=(grid=ultrafine) guess=(read,tcheck) s
 table=opt
 ----------------------------------------------------------------------
 -----
 title
 -----
 Symbolic Z-matrix:
 Charge =  0 Multiplicity = 2

 SCF Done:  E(UHF) =  -478.259482310     A.U. after   19 cycles
 Normal termination of Gaussian 16 at Tue Apr  8 23:41:11 2025.
 Gaussian 16:  ES64L-G16RevC.01  3-Jul-2019

 ----------------------------------------------------------------------
 #t hf aug-cc-pvdz iop(5/13=1,5/36=2,99/5=2) pseudo=read geom=check gue
 ss=(read,tcheck) scf=(maxcycle=1)
 ----------------------------------------------------------------------
 -----
 title
 -----
 Structure from the checkpoint file:  "BDE49_nonexpt_1689_mol2.chk"
 Charge =  0 Multiplicity = 2

                         Standard orientation:
 ---------------------------------------------------------------------
 Center     Atomic      Atomic             Coordinates (Angstroms)
 Number     Number       Type             X           Y           Z
 ---------------------------------------------------------------------
      1          6           0       -0.542366    0.132987    0.006054
      2         14           0        1.365894   -0.048424   -0.089909
      3          8           0       -1.052409    1.220143    0.015166
      4          8           0       -1.318268   -0.989069    0.005331
      5          1           0       -0.763547   -1.777894    0.044741
      6          1           0        1.844427   -1.324503    0.504997
      7          1           0        2.016211    1.133834    0.508692
 ---------------------------------------------------------------------

 SCF Done:  E(UHF) =  -478.339914234     A.U. after    2 cycles

 The electronic state is 2-A.
 Alpha  occ. eigenvalues --  -69.10998 -20.63458 -20.58050 -11.39702  -6.86423
 Alpha  occ. eigenvalues --   -3.97780  -3.96892  -3.96855  -1.42517  -1.34415
 Alpha  occ. eigenvalues --   -0.86367  -0.80464  -0.68939  -0.67082  -0.64918
 Alpha  occ. eigenvalues --   -0.58896  -0.52303  -0.51963  -0.45233  -0.35890
 Alpha virt. eigenvalues --    0.02749   0.04233   0.05670   0.05856   0.07417
 Alpha virt. eigenvalues --    0.08177   0.09112   0.10871   0.12716   0.13469
 Alpha virt. eigenvalues --    0.15014   0.15289   0.16484   0.17418   0.20361

  Beta  occ. eigenvalues --  -69.10408 -20.63493 -20.57560 -11.39890  -6.85545
  Beta  occ. eigenvalues --   -3.96469  -3.96433  -3.95531  -1.42301  -1.33708
  Beta  occ. eigenvalues --   -0.85965  -0.78768  -0.68213  -0.65089  -0.64514
  Beta  occ. eigenvalues --   -0.58237  -0.51315  -0.49838  -0.44416
  Beta virt. eigenvalues --    0.00395   0.02970   0.04449   0.05923   0.07129
  Beta virt. eigenvalues --    0.07742   0.08597   0.10100   0.12018   0.13229
  Beta virt. eigenvalues --    0.14702   0.15836   0.16923   0.17932   0.19385

 Mulliken charges and spin densities:
               1          2
     1  C    0.423686  -0.099977
     2  Si   0.398853   1.002854
     3  O   -0.436324   0.111449
     4  O   -0.472145  -0.000918
     5  H    0.186274  -0.005433
     6  H   -0.071546  -0.011082
     7  H   -0.028799   0.003107
 Sum of Mulliken charges =  -0.00000   1.00000

 Dipole moment (field-independent basis, Debye):
    X=              3.4367    Y=             -3.0312    Z=              0.0145  Tot=              4.5825
                          Isotropic Fermi Contact Couplings
        Atom                 a.u.       MegaHertz       Gauss      10(-4) cm-1
     1  C(13)             -0.01637     -18.40143      -6.56609      -6.13806
     2  Si(29)             0.54172    -481.44478    -171.79147    -160.59269
     3  O(17)              0.04061     -24.61767      -8.78420      -8.21157
     4  O(17)             -0.00586       3.55283       1.26774       1.18510
     5  H(1)               0.00009       0.41630       0.14855       0.13886
     6  H(1)              -0.00060      -2.69979      -0.96335      -0.90055
     7  H(1)              -0.00055      -2.44774      -0.87341      -0.81648
 --------------------------------------------------------

 Normal termination of Gaussian 16 at Tue Apr  8 23:41:13 2025.
