 Gaussian 16, Revision C.01,

 ----------------------------------------------------------------------
 #t hf aug-cc-pvdz symm=none int=(grid=ultrafine) guess=(read,tcheck) s
 table=opt
 ----------------------------------------------------------------------
 -----
 title
 -----
 Symbolic Z-matrix:
 Charge =  0 Multiplicity = 2

 SCF Done:  E(UHF) =  -214.719021386     A.U. after   14 cycles
 Normal termination of Gaussian 16 at Tue Apr  8 23:53:19 2025.
 Gaussian 16:  ES64L-G16RevC.01  3-Jul-2019

 ----------------------------------------------------------------------
 #t hf aug-cc-pvdz iop(5/13=1,5/36=2,99/5=2) pseudo=read geom=check gue
 ss=(read,tcheck) scf=(maxcycle=1)
 ----------------------------------------------------------------------
 -----
 title
 -----
 Structure from the checkpoint file:  "BDE49_nonexpt_1960_mol2.chk"
 Charge =  0 Multiplicity = 2

                         Standard orientation:
 ---------------------------------------------------------------------
 Center     Atomic      Atomic             Coordinates (Angstroms)
 Number     Number       Type             X           Y           Z
 ---------------------------------------------------------------------
      1          6           0       -1.542092   -0.000001    0.000002
      2          5           0       -0.005831    0.000000   -0.000000
      3          8           0        0.644350    1.213072    0.000050
      4          8           0        0.644351   -1.213071   -0.000051
      5          1           0        1.604088    1.164129    0.000054
      6          1           0        1.604089   -1.164128   -0.000058
      7          1           0       -2.118042   -0.919069   -0.000037
      8          1           0       -2.118041    0.919067    0.000043
 ---------------------------------------------------------------------

 SCF Done:  E(UHF) =  -214.793038937     A.U. after    2 cycles

 The electronic state is 2-A.
 Alpha  occ. eigenvalues --  -20.58426 -20.58425 -11.23019  -7.65793  -1.34598
 Alpha  occ. eigenvalues --   -1.30871  -0.94710  -0.77116  -0.75680  -0.65322
 Alpha  occ. eigenvalues --   -0.59797  -0.56778  -0.55189  -0.53528  -0.53203
 Alpha  occ. eigenvalues --   -0.38623
 Alpha virt. eigenvalues --    0.02741   0.05053   0.05470   0.05791   0.06927
 Alpha virt. eigenvalues --    0.08604   0.10277   0.10556   0.13900   0.15439
 Alpha virt. eigenvalues --    0.17896   0.18577   0.20235   0.20311   0.21628

  Beta  occ. eigenvalues --  -20.58302 -20.58301 -11.20950  -7.65907  -1.34282
  Beta  occ. eigenvalues --   -1.30530  -0.87000  -0.76017  -0.75562  -0.65152
  Beta  occ. eigenvalues --   -0.58338  -0.55587  -0.54908  -0.51989  -0.51537
  Beta virt. eigenvalues --    0.02770   0.04941   0.05163   0.05482   0.06940
  Beta virt. eigenvalues --    0.07470   0.08686   0.10294   0.10565   0.15541
  Beta virt. eigenvalues --    0.16751   0.17964   0.18711   0.20313   0.20866

 Mulliken charges and spin densities:
               1          2
     1  C    0.390666   1.199549
     2  B    0.953487  -0.098236
     3  O   -0.501526   0.030622
     4  O   -0.501527   0.030622
     5  H    0.156998   0.000650
     6  H    0.156997   0.000650
     7  H   -0.327548  -0.081929
     8  H   -0.327548  -0.081929
 Sum of Mulliken charges =  -0.00000   1.00000

 Dipole moment (field-independent basis, Debye):
    X=              2.0968    Y=              0.0000    Z=             -0.0000  Tot=              2.0968
                          Isotropic Fermi Contact Couplings
        Atom                 a.u.       MegaHertz       Gauss      10(-4) cm-1
     1  C(13)              0.15959     179.40862      64.01746      59.84427
     2  B(11)             -0.02575     -36.94061     -13.18133     -12.32206
     3  O(17)              0.00754      -4.57367      -1.63200      -1.52561
     4  O(17)              0.00754      -4.57366      -1.63199      -1.52561
     5  H(1)              -0.00130      -5.78937      -2.06579      -1.93112
     6  H(1)              -0.00130      -5.78936      -2.06579      -1.93112
     7  H(1)              -0.02186     -97.70981     -34.86529     -32.59249
     8  H(1)              -0.02186     -97.70978     -34.86528     -32.59247

 Normal termination of Gaussian 16 at Tue Apr  8 23:53:21 2025.
