 Gaussian 16, Revision C.01,

 ----------------------------------------------------------------------
 #t hf aug-cc-pvdz symm=none int=(grid=ultrafine) guess=(read,tcheck) s
 table=(opt,rrhf)
 ----------------------------------------------------------------------
 -----
 title
 -----
 Symbolic Z-matrix:
 Charge =  0 Multiplicity = 1

 SCF Done:  E(RHF) =  -721.183044483     A.U. after   16 cycles
 Normal termination of Gaussian 16 at Tue Apr  8 23:05:45 2025.
 Gaussian 16:  ES64L-G16RevC.01  3-Jul-2019

 ----------------------------------------------------------------------
 #t hf aug-cc-pvdz iop(5/13=1,5/36=2,99/5=2) pseudo=read geom=check gue
 ss=(read,tcheck) scf=(maxcycle=1)
 ----------------------------------------------------------------------
 -----
 title
 -----
 Structure from the checkpoint file:  "BDE49_expt_417_mol1.chk"
 Charge =  0 Multiplicity = 1

                         Standard orientation:
 ---------------------------------------------------------------------
 Center     Atomic      Atomic             Coordinates (Angstroms)
 Number     Number       Type             X           Y           Z
 ---------------------------------------------------------------------
      1          6           0       -2.882595   -0.252685   -0.044295
      2          6           0       -2.339438    0.995234   -0.339249
      3          6           0       -0.961815    1.186127   -0.286993
      4          6           0       -2.039653   -1.313000    0.288219
      5          6           0       -0.662893   -1.129862    0.325083
      6          6           0       -0.106487    0.125488    0.049053
      7          1           0       -3.955825   -0.401129   -0.081296
      8          1           0       -2.986278    1.818788   -0.619483
      9          1           0       -0.547773    2.151871   -0.553960
     10          1           0       -2.457055   -2.287335    0.515083
     11          1           0        0.000229   -1.950211    0.567540
     12          6           0        1.369564    0.321739    0.097958
     13          7           0        1.770359    1.551621    0.487723
     14          1           0        1.133994    2.191178    0.937748
     15          1           0        2.760604    1.730878    0.550384
     16         16           0        2.462469   -0.857102   -0.329296
 ---------------------------------------------------------------------

 SCF Done:  E(RHF) =  -721.295171206     A.U. after    2 cycles

 The electronic state is 1-A.
 Alpha  occ. eigenvalues --  -93.48121 -15.67547 -11.36673 -11.27383 -11.26975
 Alpha  occ. eigenvalues --  -11.26558 -11.26190 -11.26166 -11.25868  -8.78041
 Alpha  occ. eigenvalues --   -6.12283  -6.11780  -6.11669  -1.24134  -1.16005
 Alpha  occ. eigenvalues --   -1.04978  -1.02908  -0.97434  -0.86866  -0.84476
 Alpha  occ. eigenvalues --   -0.78843  -0.74861  -0.70775  -0.66992  -0.64723
 Alpha  occ. eigenvalues --   -0.61742  -0.60925  -0.54881  -0.54156  -0.51788
 Alpha  occ. eigenvalues --   -0.50797  -0.49296  -0.36819  -0.35796  -0.33064
 Alpha  occ. eigenvalues --   -0.31752
 Alpha virt. eigenvalues --    0.02562   0.03355   0.04035   0.04781   0.05280
 Alpha virt. eigenvalues --    0.06237   0.06570   0.07373   0.09379   0.10186
 Alpha virt. eigenvalues --    0.11293   0.11529   0.12440   0.12772   0.13580

 Mulliken charges:
               1
     1  C    0.297031
     2  C    0.519390
     3  C    0.086801
     4  C    0.640370
     5  C   -0.093067
     6  C    1.315547
     7  H   -0.428418
     8  H   -0.430263
     9  H   -0.601004
    10  H   -0.418148
    11  H   -0.509216
    12  C   -0.030235
    13  N   -0.249091
    14  H   -0.009603
    15  H    0.028559
    16  S   -0.118653
 Sum of Mulliken charges =  -0.00000

 Dipole moment (field-independent basis, Debye):
    X=             -3.1190    Y=              3.3726    Z=              1.5557  Tot=              4.8500

 Test job not archived.
 1\1\GINC-SE163\SP\RHF\Aug-CC-pVDZ\C7H7N1S1\OHZDE\08-Apr-2025\0\\#t hf
 aug-cc-pvdz iop(5/13=1,5/36=2,99/5=2) pseudo=read geom=check guess=(re
 ad,tcheck) scf=(maxcycle=1)\\title\\0,1\C,0,-2.882595,-0.252685,-0.044
 295\C,0,-2.339438,0.995234,-0.339249\C,0,-0.961815,1.186127,-0.286993\
 C,0,-2.039653,-1.313,0.288219\C,0,-0.662893,-1.129862,0.325083\C,0,-0.
 106487,0.125488,0.049053\H,0,-3.955825,-0.401128,-0.081296\H,0,-2.9862
 78,1.818788,-0.619483\H,0,-0.547773,2.151871,-0.55396\H,0,-2.457055,-2
 .287335,0.515083\H,0,0.000229,-1.950211,0.56754\C,0,1.369564,0.321739,

 Normal termination of Gaussian 16 at Tue Apr  8 23:05:53 2025.
