 Gaussian 16, Revision C.01,

 ----------------------------------------------------------------------
 #t hf aug-cc-pvdz symm=none int=(grid=ultrafine) guess=(read,tcheck) s
 table=(opt,rrhf)
 ----------------------------------------------------------------------
 -----
 title
 -----
 Symbolic Z-matrix:
 Charge =  0 Multiplicity = 1

 SCF Done:  E(RHF) =  -760.171221396     A.U. after   17 cycles
 Normal termination of Gaussian 16 at Wed Apr  9 00:41:28 2025.
 Gaussian 16:  ES64L-G16RevC.01  3-Jul-2019

 ----------------------------------------------------------------------
 #t hf aug-cc-pvdz iop(5/13=1,5/36=2,99/5=2) pseudo=read geom=check gue
 ss=(read,tcheck) scf=(maxcycle=1)
 ----------------------------------------------------------------------
 -----
 title
 -----
 Structure from the checkpoint file:  "BDE49_nonexpt_705_mol1.chk"
 Charge =  0 Multiplicity = 1

                         Standard orientation:
 ---------------------------------------------------------------------
 Center     Atomic      Atomic             Coordinates (Angstroms)
 Number     Number       Type             X           Y           Z
 ---------------------------------------------------------------------
      1         15           0       -0.095689    0.624381    0.737490
      2          5           0        1.444559   -0.338638   -0.011058
      3          7           0       -1.423534   -0.436292   -0.010744
      4          8           0        2.549795    0.429844   -0.193609
      5          8           0        1.436833   -1.665684   -0.239915
      6          8           0       -1.295892   -1.660609    0.122698
      7          8           0       -2.392857    0.097878   -0.514516
      8          6           0       -0.228247    2.109371   -0.349251
      9          1           0       -1.049231    2.743687   -0.017522
     10          1           0       -0.365915    1.851778   -1.399138
     11          1           0        0.713005    2.653691   -0.234790
     12          1           0        3.310615   -0.083659   -0.492446
     13          1           0        0.555248   -2.051637   -0.089718
 ---------------------------------------------------------------------

 SCF Done:  E(RHF) =  -760.330162881     A.U. after    2 cycles

 The electronic state is 1-A.
 Alpha  occ. eigenvalues --  -81.31366 -20.63476 -20.62315 -20.61232 -20.60005
 Alpha  occ. eigenvalues --  -15.90833 -11.26995  -7.81628  -7.70275  -4.95766
 Alpha  occ. eigenvalues --   -4.95440  -4.95169  -1.54835  -1.37404  -1.36696
 Alpha  occ. eigenvalues --   -1.33529  -1.01123  -0.94810  -0.82420  -0.81345
 Alpha  occ. eigenvalues --   -0.77453  -0.74328  -0.72516  -0.69018  -0.64131
 Alpha  occ. eigenvalues --   -0.62002  -0.61725  -0.60229  -0.59524  -0.54649
 Alpha  occ. eigenvalues --   -0.53150  -0.49339  -0.48675  -0.47534  -0.38193
 Alpha virt. eigenvalues --    0.02741   0.04084   0.04729   0.05658   0.06374
 Alpha virt. eigenvalues --    0.06647   0.07099   0.07390   0.08801   0.08921
 Alpha virt. eigenvalues --    0.09933   0.10433   0.11758   0.13368   0.14492

 Mulliken charges:
               1
     1  P    0.517282
     2  B    0.865431
     3  N    0.439353
     4  O   -0.474032
     5  O   -0.497981
     6  O   -0.647565
     7  O   -0.538609
     8  C    0.200115
     9  H   -0.125094
    10  H   -0.126714
    11  H   -0.123214
    12  H    0.205334
    13  H    0.305693
 Sum of Mulliken charges =  -0.00000

 Dipole moment (field-independent basis, Debye):
    X=              3.1183    Y=              2.4062    Z=              0.0499  Tot=              3.9391

 Test job not archived.
 1\1\GINC-SE115\SP\RHF\Aug-CC-pVDZ\C1H5B1N1O4P1\OHZDE\09-Apr-2025\0\\#t
  hf aug-cc-pvdz iop(5/13=1,5/36=2,99/5=2) pseudo=read geom=check guess
 =(read,tcheck) scf=(maxcycle=1)\\title\\0,1\P,0,-0.095689,0.624381,0.7
 3749\B,0,1.444559,-0.338638,-0.011058\N,0,-1.423534,-0.436292,-0.01074
 4\O,0,2.549795,0.429843,-0.193609\O,0,1.436833,-1.665684,-0.239915\O,0
 ,-1.295892,-1.660609,0.122698\O,0,-2.392857,0.097879,-0.514516\C,0,-0.
 228247,2.109371,-0.349251\H,0,-1.04923,2.743687,-0.017522\H,0,-0.36591
 5,1.851778,-1.399138\H,0,0.713006,2.653691,-0.23479\H,0,3.310615,-0.08

 Normal termination of Gaussian 16 at Wed Apr  9 00:41:34 2025.
