 Gaussian 16, Revision C.01,

 ----------------------------------------------------------------------
 #t hf aug-cc-pvdz symm=none int=(grid=ultrafine) guess=(read,tcheck) s
 table=(opt,rrhf)
 ----------------------------------------------------------------------
 -----
 title
 -----
 Symbolic Z-matrix:
 Charge =  0 Multiplicity = 1

 SCF Done:  E(RHF) =  -627.021948391     A.U. after   12 cycles
 Normal termination of Gaussian 16 at Tue Apr  8 23:48:16 2025.
 Gaussian 16:  ES64L-G16RevC.01  3-Jul-2019

 ----------------------------------------------------------------------
 #t hf aug-cc-pvdz iop(5/13=1,5/36=2,99/5=2) pseudo=read geom=check gue
 ss=(read,tcheck) scf=(maxcycle=1)
 ----------------------------------------------------------------------
 -----
 title
 -----
 Structure from the checkpoint file:  "BDE49_nonexpt_1840_mol1.chk"
 Charge =  0 Multiplicity = 1

                         Standard orientation:
 ---------------------------------------------------------------------
 Center     Atomic      Atomic             Coordinates (Angstroms)
 Number     Number       Type             X           Y           Z
 ---------------------------------------------------------------------
      1          6           0        1.146395   -0.619050   -0.381381
      2         14           0       -0.471085    0.017064    0.320775
      3          9           0       -1.630289   -0.990593   -0.124229
      4          9           0        2.177726    0.162581    0.172551
      5          9           0       -0.805081    1.441744   -0.314875
      6          1           0       -0.475975    0.147780    1.781321
      7          1           0        1.188888   -0.530175   -1.471325
      8          1           0        1.322706   -1.665786   -0.113583
 ---------------------------------------------------------------------

 SCF Done:  E(RHF) =  -627.184101685     A.U. after    2 cycles

 The electronic state is 1-A.
 Alpha  occ. eigenvalues --  -69.17523 -26.13377 -26.13041 -26.12522 -11.33211
 Alpha  occ. eigenvalues --   -6.91737  -4.02742  -4.02610  -4.02439  -1.66708
 Alpha  occ. eigenvalues --   -1.65490  -1.65128  -0.98671  -0.84787  -0.78937
 Alpha  occ. eigenvalues --   -0.76813  -0.76407  -0.75517  -0.75055  -0.73275
 Alpha  occ. eigenvalues --   -0.71845  -0.71516  -0.59399  -0.57279  -0.49467
 Alpha virt. eigenvalues --    0.03448   0.04855   0.05165   0.05949   0.07640
 Alpha virt. eigenvalues --    0.08312   0.10468   0.12682   0.14230   0.15274
 Alpha virt. eigenvalues --    0.16218   0.17910   0.19539   0.20672   0.23748

 Mulliken charges:
               1
     1  C    0.485905
     2  Si   1.971186
     3  F   -0.777030
     4  F   -0.460302
     5  F   -0.783487
     6  H   -0.063452
     7  H   -0.173866
     8  H   -0.198954
 Sum of Mulliken charges =  -0.00000

 Dipole moment (field-independent basis, Debye):
    X=              0.2663    Y=             -1.7974    Z=              0.1125  Tot=              1.8205

 Test job not archived.
 1\1\GINC-SE252\SP\RHF\Aug-CC-pVDZ\C1H3F3Si1\OHZDE\08-Apr-2025\0\\#t hf
  aug-cc-pvdz iop(5/13=1,5/36=2,99/5=2) pseudo=read geom=check guess=(r
 ead,tcheck) scf=(maxcycle=1)\\title\\0,1\C,0,1.146395,-0.61905,-0.3813
 81\Si,0,-0.471085,0.017064,0.320775\F,0,-1.630289,-0.990592,-0.124229\
 F,0,2.177726,0.162581,0.172551\F,0,-0.805081,1.441744,-0.314875\H,0,-0
 .475975,0.14778,1.781321\H,0,1.188888,-0.530175,-1.471325\H,0,1.322706
 ,-1.665786,-0.113583\\Version=ES64L-G16RevC.01\State=1-A\HF=-627.18410
 17\RMSD=5.052e-03\Dipole=0.1047873,-0.7071479,0.0442752\Quadrupole=-3.

 Normal termination of Gaussian 16 at Tue Apr  8 23:48:18 2025.
