 Gaussian 16, Revision C.01,

 ----------------------------------------------------------------------
 #t hf aug-cc-pvdz symm=none int=(grid=ultrafine) guess=(read,tcheck) s
 table=(opt,rrhf)
 ----------------------------------------------------------------------
 -----
 title
 -----
 Symbolic Z-matrix:
 Charge =  0 Multiplicity = 1

 SCF Done:  E(RHF) =  -184.797854610     A.U. after   13 cycles
 Normal termination of Gaussian 16 at Wed Apr  9 00:38:02 2025.
 Gaussian 16:  ES64L-G16RevC.01  3-Jul-2019

 ----------------------------------------------------------------------
 #t hf aug-cc-pvdz iop(5/13=1,5/36=2,99/5=2) pseudo=read geom=check gue
 ss=(read,tcheck) scf=(maxcycle=1)
 ----------------------------------------------------------------------
 -----
 title
 -----
 Structure from the checkpoint file:  "BDE49_nonexpt_62_mol1.chk"
 Charge =  0 Multiplicity = 1

                         Standard orientation:
 ---------------------------------------------------------------------
 Center     Atomic      Atomic             Coordinates (Angstroms)
 Number     Number       Type             X           Y           Z
 ---------------------------------------------------------------------
      1          5           0        2.396631   -0.115831    0.000005
      2          5           0        0.851257   -0.740536   -0.000005
      3          7           0       -0.368467   -0.065621   -0.000002
      4          6           0       -1.666708   -0.734138   -0.000006
      5          1           0       -2.250723   -0.454293    0.885541
      6          1           0       -1.524752   -1.813077   -0.000012
      7          1           0       -2.250723   -0.454283   -0.885550
      8          6           0       -0.484035    1.389394    0.000006
      9          1           0        0.505472    1.846757    0.000010
     10          1           0       -1.027626    1.740655    0.885715
     11          1           0       -1.027625    1.740665   -0.885699
     12          1           0        0.796958   -1.946124   -0.000006
     13          1           0        3.011653    0.074687   -1.010674
     14          1           0        3.011651    0.074662    1.010690
 ---------------------------------------------------------------------

 SCF Done:  E(RHF) =  -184.859819153     A.U. after    2 cycles

 The electronic state is 1-A.
 Alpha  occ. eigenvalues --  -15.62359 -11.26824 -11.26316  -7.59142  -7.57453
 Alpha  occ. eigenvalues --   -1.17931  -0.95886  -0.87323  -0.71563  -0.65874
 Alpha  occ. eigenvalues --   -0.63045  -0.62098  -0.56125  -0.55143  -0.52509
 Alpha  occ. eigenvalues --   -0.50918  -0.47844  -0.40605  -0.37512
 Alpha virt. eigenvalues --    0.03161   0.04111   0.04453   0.04470   0.06009
 Alpha virt. eigenvalues --    0.06194   0.06364   0.07733   0.07806   0.09053
 Alpha virt. eigenvalues --    0.09184   0.09233   0.10379   0.10925   0.12767

 Mulliken charges:
               1
     1  B   -0.515730
     2  B   -0.124987
     3  N   -0.348728
     4  C    0.645578
     5  H   -0.099236
     6  H   -0.345060
     7  H   -0.099235
     8  C    0.818827
     9  H   -0.371396
    10  H   -0.082064
    11  H   -0.082066
    12  H    0.167443
    13  H    0.218326
    14  H    0.218327
 Sum of Mulliken charges =   0.00000

 Dipole moment (field-independent basis, Debye):
    X=             -1.6584    Y=              0.8120    Z=             -0.0000  Tot=              1.8465

 Test job not archived.
 1\1\GINC-SE072\SP\RHF\Aug-CC-pVDZ\C2H9B2N1\OHZDE\09-Apr-2025\0\\#t hf
 aug-cc-pvdz iop(5/13=1,5/36=2,99/5=2) pseudo=read geom=check guess=(re
 ad,tcheck) scf=(maxcycle=1)\\title\\0,1\B,0,2.396631,-0.115832,0.00000
 5\B,0,0.851257,-0.740536,-0.000005\N,0,-0.368467,-0.065621,-0.000002\C
 ,0,-1.666708,-0.734137,-0.000006\H,0,-2.250723,-0.454292,0.885541\H,0,
 -1.524753,-1.813077,-0.000012\H,0,-2.250723,-0.454282,-0.88555\C,0,-0.
 484035,1.389394,0.000006\H,0,0.505472,1.846757,0.00001\H,0,-1.027626,1
 .740655,0.885715\H,0,-1.027625,1.740665,-0.885699\H,0,0.796957,-1.9461

 Normal termination of Gaussian 16 at Wed Apr  9 00:38:05 2025.
