 Gaussian 16, Revision C.01,

 ----------------------------------------------------------------------
 #t hf aug-cc-pvdz symm=none int=(grid=ultrafine) guess=(read,tcheck) s
 table=(opt,rrhf)
 ----------------------------------------------------------------------
 -----
 title
 -----
 Symbolic Z-matrix:
 Charge =  0 Multiplicity = 1

 SCF Done:  E(RHF) =  -818.098973839     A.U. after   12 cycles
 Normal termination of Gaussian 16 at Tue Apr  8 23:43:15 2025.
 Gaussian 16:  ES64L-G16RevC.01  3-Jul-2019

 ----------------------------------------------------------------------
 #t hf aug-cc-pvdz iop(5/13=1,5/36=2,99/5=2) pseudo=read geom=check gue
 ss=(read,tcheck) scf=(maxcycle=1)
 ----------------------------------------------------------------------
 -----
 title
 -----
 Structure from the checkpoint file:  "BDE49_nonexpt_1722_mol1.chk"
 Charge =  0 Multiplicity = 1

                         Standard orientation:
 ---------------------------------------------------------------------
 Center     Atomic      Atomic             Coordinates (Angstroms)
 Number     Number       Type             X           Y           Z
 ---------------------------------------------------------------------
      1         15           0        1.021819   -0.636189    0.279346
      2          6           0        1.732623    0.968990   -0.335134
      3          1           0        1.148686    1.848384   -0.061481
      4          1           0        1.823314    0.920194   -1.421607
      5          1           0        2.736591    1.071466    0.087979
      6         16           0       -1.020922   -0.594140   -0.348990
      7          6           0       -1.715324    0.968913    0.311628
      8          1           0       -2.769371    0.978911    0.029452
      9          1           0       -1.226786    1.838897   -0.125841
     10          1           0       -1.635460    0.996347    1.398660
     11          1           0        0.826689   -0.232539    1.627528
 ---------------------------------------------------------------------

 SCF Done:  E(RHF) =  -818.168365014     A.U. after    2 cycles

 The electronic state is 1-A.
 Alpha  occ. eigenvalues --  -93.53055 -81.27935 -11.27098 -11.24607  -8.82836
 Alpha  occ. eigenvalues --   -7.78036  -6.16947  -6.16711  -6.16422  -4.91928
 Alpha  occ. eigenvalues --   -4.91877  -4.91603  -1.02616  -0.96736  -0.86378
 Alpha  occ. eigenvalues --   -0.72007  -0.60675  -0.59594  -0.58867  -0.56846
 Alpha  occ. eigenvalues --   -0.51480  -0.49661  -0.41638  -0.35487  -0.34660
 Alpha virt. eigenvalues --    0.03341   0.04561   0.05070   0.05832   0.06669
 Alpha virt. eigenvalues --    0.07316   0.08149   0.09967   0.10279   0.11179
 Alpha virt. eigenvalues --    0.12858   0.14228   0.14721   0.15330   0.15493

 Mulliken charges:
               1
     1  P    0.230433
     2  C    0.201744
     3  H   -0.208044
     4  H   -0.086384
     5  H   -0.125481
     6  S   -0.063622
     7  C    0.091125
     8  H   -0.097353
     9  H   -0.075530
    10  H   -0.089586
    11  H    0.222698
 Sum of Mulliken charges =  -0.00000

 Dipole moment (field-independent basis, Debye):
    X=              0.3351    Y=              2.5024    Z=              0.7815  Tot=              2.6429

 Test job not archived.
 1\1\GINC-SE186\SP\RHF\Aug-CC-pVDZ\C2H7P1S1\OHZDE\08-Apr-2025\0\\#t hf
 aug-cc-pvdz iop(5/13=1,5/36=2,99/5=2) pseudo=read geom=check guess=(re
 ad,tcheck) scf=(maxcycle=1)\\title\\0,1\P,0,1.021819,-0.636189,0.27934
 6\C,0,1.732623,0.96899,-0.335134\H,0,1.148686,1.848384,-0.061481\H,0,1
 .823314,0.920194,-1.421607\H,0,2.736591,1.071466,0.087979\S,0,-1.02092
 2,-0.59414,-0.34899\C,0,-1.715324,0.968913,0.311628\H,0,-2.769371,0.97
 8911,0.029452\H,0,-1.226786,1.838897,-0.125841\H,0,-1.63546,0.996347,1
 .39866\H,0,0.826689,-0.232539,1.627528\\Version=ES64L-G16RevC.01\State

 Normal termination of Gaussian 16 at Tue Apr  8 23:43:19 2025.
