 Gaussian 16, Revision C.01,

 ----------------------------------------------------------------------
 #t hf aug-cc-pvdz symm=none int=(grid=ultrafine) guess=(read,tcheck) s
 table=(opt,rrhf)
 ----------------------------------------------------------------------
 -----
 title
 -----
 Symbolic Z-matrix:
 Charge =  0 Multiplicity = 1

 SCF Done:  E(RHF) =  -683.800963315     A.U. after   17 cycles
 Normal termination of Gaussian 16 at Tue Apr  8 23:11:05 2025.
 Gaussian 16:  ES64L-G16RevC.01  3-Jul-2019

 ----------------------------------------------------------------------
 #t hf aug-cc-pvdz iop(5/13=1,5/36=2,99/5=2) pseudo=read geom=check gue
 ss=(read,tcheck) scf=(maxcycle=1)
 ----------------------------------------------------------------------
 -----
 title
 -----
 Structure from the checkpoint file:  "BDE49_expt_718_mol1.chk"
 Charge =  0 Multiplicity = 1

                         Standard orientation:
 ---------------------------------------------------------------------
 Center     Atomic      Atomic             Coordinates (Angstroms)
 Number     Number       Type             X           Y           Z
 ---------------------------------------------------------------------
      1          6           0       -1.777152   -0.754998    0.000610
      2          6           0       -2.773480    0.220507   -0.006030
      3          6           0       -2.427830    1.570545   -0.005625
      4          6           0       -1.087723    1.974381    0.001715
      5          6           0       -0.123644    0.984022    0.002920
      6          6           0       -0.446315   -0.377447    0.000867
      7          1           0       -3.215217    2.314807   -0.011963
      8          1           0       -0.807121    3.019988    0.003203
      9          6           0        0.811599   -1.181489    0.008619
     10          7           0        1.828873   -0.200125    0.080643
     11          6           0        1.364973    1.125777    0.013009
     12          8           0        0.988239   -2.367869   -0.019601
     13          8           0        2.041404    2.119164   -0.014531
     14          8           0        3.146821   -0.517403   -0.142068
     15          1           0        3.530780   -0.663026    0.733267
     16          1           0       -3.809442   -0.094880   -0.012270
     17          9           0       -2.128377   -2.046103    0.004038
 ---------------------------------------------------------------------

 SCF Done:  E(RHF) =  -684.010245653     A.U. after    2 cycles

 The electronic state is 1-A.
 Alpha  occ. eigenvalues --  -26.16648 -20.66000 -20.58955 -20.58936 -15.74271
 Alpha  occ. eigenvalues --  -11.41369 -11.41119 -11.38774 -11.30393 -11.30076
 Alpha  occ. eigenvalues --  -11.30050 -11.29405 -11.29250  -1.70731  -1.44866
 Alpha  occ. eigenvalues --   -1.39044  -1.37888  -1.24014  -1.17838  -1.07132
 Alpha  occ. eigenvalues --   -1.06517  -0.94726  -0.91933  -0.87882  -0.85379
 Alpha  occ. eigenvalues --   -0.78928  -0.78064  -0.77512  -0.76063  -0.72982
 Alpha  occ. eigenvalues --   -0.71222  -0.70595  -0.67564  -0.65885  -0.65119
 Alpha  occ. eigenvalues --   -0.63295  -0.58599  -0.58565  -0.58204  -0.57262
 Alpha  occ. eigenvalues --   -0.54308  -0.50365  -0.46548  -0.44342  -0.39116
 Alpha  occ. eigenvalues --   -0.38552
 Alpha virt. eigenvalues --    0.02073   0.02318   0.03728   0.04008   0.05353
 Alpha virt. eigenvalues --    0.06720   0.07554   0.07715   0.09188   0.10059
 Alpha virt. eigenvalues --    0.10513   0.11099   0.11797   0.12381   0.13135

 Mulliken charges:
               1
     1  C    0.606685
     2  C    0.403088
     3  C    0.401907
     4  C    0.771302
     5  C    0.678775
     6  C    0.343794
     7  H   -0.419968
     8  H   -0.497559
     9  C   -0.017131
    10  N   -0.510552
    11  C   -0.026291
    12  O   -0.396579
    13  O   -0.428824
    14  O   -0.409878
    15  H    0.198884
    16  H   -0.449865
    17  F   -0.247788
 Sum of Mulliken charges =  -0.00000

 Dipole moment (field-independent basis, Debye):
    X=             -3.6436    Y=              2.7369    Z=              1.5531  Tot=              4.8144

 Test job not archived.
 1\1\GINC-SE043\SP\RHF\Aug-CC-pVDZ\C8H4F1N1O3\OHZDE\08-Apr-2025\0\\#t h
 f aug-cc-pvdz iop(5/13=1,5/36=2,99/5=2) pseudo=read geom=check guess=(
 read,tcheck) scf=(maxcycle=1)\\title\\0,1\C,0,-1.777152,-0.754998,0.00
 061\C,0,-2.77348,0.220507,-0.00603\C,0,-2.42783,1.570545,-0.005625\C,0
 ,-1.087723,1.974381,0.001715\C,0,-0.123644,0.984022,0.00292\C,0,-0.446
 315,-0.377447,0.000867\H,0,-3.215217,2.314807,-0.011963\H,0,-0.807121,
 3.019988,0.003203\C,0,0.811599,-1.181489,0.008619\N,0,1.828873,-0.2001
 25,0.080643\C,0,1.364973,1.125777,0.013009\O,0,0.988239,-2.367869,-0.0

 Normal termination of Gaussian 16 at Tue Apr  8 23:11:18 2025.
