 Gaussian 16, Revision C.01,

 ----------------------------------------------------------------------
 #t hf aug-cc-pvdz symm=none int=(grid=ultrafine) guess=(read,tcheck) s
 table=(opt,rrhf)
 ----------------------------------------------------------------------
 -----
 title
 -----
 Symbolic Z-matrix:
 Charge =  0 Multiplicity = 1

 SCF Done:  E(RHF) =  -517.932277125     A.U. after   13 cycles
 Normal termination of Gaussian 16 at Tue Apr  8 23:49:20 2025.
 Gaussian 16:  ES64L-G16RevC.01  3-Jul-2019

 ----------------------------------------------------------------------
 #t hf aug-cc-pvdz iop(5/13=1,5/36=2,99/5=2) pseudo=read geom=check gue
 ss=(read,tcheck) scf=(maxcycle=1)
 ----------------------------------------------------------------------
 -----
 title
 -----
 Structure from the checkpoint file:  "BDE49_nonexpt_1880_mol1.chk"
 Charge =  0 Multiplicity = 1

                         Standard orientation:
 ---------------------------------------------------------------------
 Center     Atomic      Atomic             Coordinates (Angstroms)
 Number     Number       Type             X           Y           Z
 ---------------------------------------------------------------------
      1          6           0       -0.218825   -0.328723    0.821718
      2         14           0       -1.764152    0.024192   -0.229952
      3          6           0        1.082415   -0.125834    0.073776
      4          8           0        1.749507   -1.009963   -0.380042
      5          8           0        1.463728    1.173382   -0.101309
      6          1           0       -2.964606   -0.321199    0.562997
      7          1           0       -1.730131   -0.772634   -1.473282
      8          1           0        0.831985    1.771216    0.314552
      9          1           0       -1.808438    1.466967   -0.568186
     10          1           0       -0.255139   -1.369325    1.147495
     11          1           0       -0.262960    0.306282    1.713604
 ---------------------------------------------------------------------

 SCF Done:  E(RHF) =  -518.028711486     A.U. after    2 cycles

 The electronic state is 1-A.
 Alpha  occ. eigenvalues --  -69.09005 -20.62949 -20.56283 -11.40730 -11.26425
 Alpha  occ. eigenvalues --   -6.84281  -3.95071  -3.95049  -3.95037  -1.42253
 Alpha  occ. eigenvalues --   -1.33493  -1.01920  -0.84667  -0.74443  -0.70963
 Alpha  occ. eigenvalues --   -0.68667  -0.64821  -0.61710  -0.57558  -0.52169
 Alpha  occ. eigenvalues --   -0.50519  -0.49634  -0.48252  -0.45976
 Alpha virt. eigenvalues --    0.02450   0.03909   0.04558   0.05281   0.06514
 Alpha virt. eigenvalues --    0.07359   0.08172   0.08760   0.09350   0.10915
 Alpha virt. eigenvalues --    0.13078   0.13511   0.14190   0.14272   0.15190

 Mulliken charges:
               1
     1  C    0.025903
     2  Si   0.363636
     3  C    0.570411
     4  O   -0.431611
     5  O   -0.495686
     6  H    0.011848
     7  H    0.028645
     8  H    0.192147
     9  H   -0.008816
    10  H   -0.124316
    11  H   -0.132160
 Sum of Mulliken charges =   0.00000

 Dipole moment (field-independent basis, Debye):
    X=             -3.8126    Y=              1.9524    Z=              2.4858  Tot=              4.9525

 Test job not archived.
 1\1\GINC-SE343\SP\RHF\Aug-CC-pVDZ\C2H6O2Si1\OHZDE\08-Apr-2025\0\\#t hf
  aug-cc-pvdz iop(5/13=1,5/36=2,99/5=2) pseudo=read geom=check guess=(r
 ead,tcheck) scf=(maxcycle=1)\\title\\0,1\C,0,-0.218825,-0.328723,0.821
 718\Si,0,-1.764152,0.024192,-0.229952\C,0,1.082415,-0.125834,0.073776\
 O,0,1.749507,-1.009963,-0.380042\O,0,1.463728,1.173382,-0.101309\H,0,-
 2.964606,-0.321198,0.562997\H,0,-1.730131,-0.772634,-1.473282\H,0,0.83
 1985,1.771216,0.314552\H,0,-1.808438,1.466967,-0.568186\H,0,-0.255139,
 -1.369325,1.147495\H,0,-0.26296,0.306282,1.713604\\Version=ES64L-G16Re

 Normal termination of Gaussian 16 at Tue Apr  8 23:49:23 2025.
