 Gaussian 16, Revision C.01,

 ----------------------------------------------------------------------
 #t hf aug-cc-pvdz symm=none int=(grid=ultrafine) guess=(read,tcheck) s
 table=opt
 ----------------------------------------------------------------------
 -----
 title
 -----
 Symbolic Z-matrix:
 Charge =  0 Multiplicity = 2

 SCF Done:  E(UHF) =  -268.247261201     A.U. after   29 cycles
 Normal termination of Gaussian 16 at Tue Apr  8 22:54:13 2025.
 Gaussian 16:  ES64L-G16RevC.01  3-Jul-2019

 ----------------------------------------------------------------------
 #t hf aug-cc-pvdz iop(5/13=1,5/36=2,99/5=2) pseudo=read geom=check gue
 ss=(read,tcheck) scf=(maxcycle=1)
 ----------------------------------------------------------------------
 -----
 title
 -----
 Structure from the checkpoint file:  "BDE49_expt_1864_mol2.chk"
 Charge =  0 Multiplicity = 2

                         Standard orientation:
 ---------------------------------------------------------------------
 Center     Atomic      Atomic             Coordinates (Angstroms)
 Number     Number       Type             X           Y           Z
 ---------------------------------------------------------------------
      1          8           0        2.083150   -0.014990   -0.281990
      2          6           0        0.858575    0.003191    0.310943
      3          6           0       -0.013808    1.223834    0.067872
      4          6           0       -1.284968    0.881722   -0.117282
      5          6           0       -1.509893   -0.611902   -0.019661
      6          6           0       -0.079782   -1.200618   -0.014979
      7          1           0       -2.120608   -0.994259   -0.843399
      8          1           0       -2.048763   -0.856006    0.904062
      9          1           0        0.047492   -2.029200    0.682243
     10          1           0        0.193160   -1.557780   -1.010316
     11          1           0        1.141942   -0.023482    1.391994
     12          1           0        0.397407    2.225481    0.067502
     13          1           0       -2.096577    1.577816   -0.297523
 ---------------------------------------------------------------------

 SCF Done:  E(UHF) =  -268.328247948     A.U. after    2 cycles

 The electronic state is 2-A.
 Alpha  occ. eigenvalues --  -20.63162 -11.29968 -11.24609 -11.24446 -11.24112
 Alpha  occ. eigenvalues --  -11.23939  -1.37635  -1.12290  -0.97530  -0.93993
 Alpha  occ. eigenvalues --   -0.80531  -0.75383  -0.71913  -0.68701  -0.63283
 Alpha  occ. eigenvalues --   -0.61495  -0.59736  -0.54375  -0.51419  -0.50277
 Alpha  occ. eigenvalues --   -0.48873  -0.45651  -0.36447
 Alpha virt. eigenvalues --    0.03428   0.04443   0.04595   0.05112   0.06537
 Alpha virt. eigenvalues --    0.06627   0.07358   0.10220   0.11969   0.12509
 Alpha virt. eigenvalues --    0.13710   0.14106   0.14797   0.15448   0.16032

  Beta  occ. eigenvalues --  -20.59107 -11.30296 -11.24846 -11.24418 -11.23868
  Beta  occ. eigenvalues --  -11.23812  -1.25297  -1.11210  -0.97293  -0.92235
  Beta  occ. eigenvalues --   -0.79039  -0.73885  -0.68504  -0.64946  -0.59219
  Beta  occ. eigenvalues --   -0.57782  -0.56152  -0.52050  -0.50548  -0.50050
  Beta  occ. eigenvalues --   -0.43490  -0.36263
  Beta virt. eigenvalues --    0.03393   0.04428   0.04600   0.05052   0.06541
  Beta virt. eigenvalues --    0.06629   0.06838   0.08509   0.10625   0.12130
  Beta virt. eigenvalues --    0.12694   0.13768   0.14434   0.14852   0.15523

 Mulliken charges and spin densities:
               1          2
     1  O   -0.510951   1.048408
     2  C    0.398621  -0.239813
     3  C    0.105199   0.205515
     4  C    0.234201  -0.175231
     5  C    0.206377   0.029467
     6  C    0.216086   0.027373
     7  H   -0.040904  -0.002150
     8  H   -0.012480  -0.003374
     9  H   -0.036455  -0.001491
    10  H   -0.044292   0.003289
    11  H    0.037780   0.107596
    12  H   -0.266030  -0.008528
    13  H   -0.287151   0.008938
 Sum of Mulliken charges =  -0.00000   1.00000

 Dipole moment (field-independent basis, Debye):
    X=             -2.0817    Y=             -0.1840    Z=              0.8675  Tot=              2.2627
                          Isotropic Fermi Contact Couplings
        Atom                 a.u.       MegaHertz       Gauss      10(-4) cm-1
     1  O(17)              0.29187    -176.93091     -63.13335     -59.01780
     2  C(13)             -0.06139     -69.01699     -24.62698     -23.02159
     3  C(13)              0.03600      40.47322      14.44185      13.50041
     4  C(13)             -0.02242     -25.20698      -8.99448      -8.40814
     5  C(13)              0.00610       6.85604       2.44641       2.28693
     6  C(13)              0.01382      15.54040       5.54520       5.18372
     7  H(1)              -0.00123      -5.48907      -1.95864      -1.83096
     8  H(1)              -0.00206      -9.22803      -3.29279      -3.07814

 Normal termination of Gaussian 16 at Tue Apr  8 22:54:17 2025.
