 Gaussian 16, Revision C.01,

 ----------------------------------------------------------------------
 #t hf aug-cc-pvdz symm=none int=(grid=ultrafine) guess=(read,tcheck) s
 table=opt
 ----------------------------------------------------------------------
 -----
 title
 -----
 Symbolic Z-matrix:
 Charge =  0 Multiplicity = 2

 SCF Done:  E(UHF) =  -407.745087598     A.U. after   14 cycles

 1\1\GINC-SE096\Stability\UHF\Aug-CC-pVDZ\C3H9Si1\OHZDE\08-Apr-2025\0\\
 #t hf aug-cc-pvdz symm=none int=(grid=ultrafine) guess=(read,tcheck) s
 table=opt\\title\\0,2\Si,0,-1.434408,0.,-0.136484\C,0,0.402658,0.,0.36
 5339\C,0,1.132159,-1.272558,-0.097949\H,0,1.175734,-1.328735,-1.190441
 \H,0,0.640943,-2.181099,0.261616\C,0,1.132159,1.272558,-0.097949\H,0,2
 .163104,-1.284985,0.27259\H,0,0.382914,0.,1.465828\H,0,2.163104,1.2849
 85,0.27259\H,0,1.175734,1.328735,-1.190441\H,0,0.640943,2.181099,0.261
 616\H,0,-2.131308,-1.214033,0.37039\H,0,-2.131308,1.214034,0.370387\\V

 Normal termination of Gaussian 16 at Tue Apr  8 23:41:25 2025.
 Gaussian 16:  ES64L-G16RevC.01  3-Jul-2019

 ----------------------------------------------------------------------
 #t hf aug-cc-pvdz iop(5/13=1,5/36=2,99/5=2) pseudo=read geom=check gue
 ss=(read,tcheck) scf=(maxcycle=1)
 ----------------------------------------------------------------------
 -----
 title
 -----
 Structure from the checkpoint file:  "BDE49_nonexpt_1668_mol2.chk"
 Charge =  0 Multiplicity = 2

                         Standard orientation:
 ---------------------------------------------------------------------
 Center     Atomic      Atomic             Coordinates (Angstroms)
 Number     Number       Type             X           Y           Z
 ---------------------------------------------------------------------
      1         14           0       -1.434408   -0.000000   -0.136484
      2          6           0        0.402658    0.000000    0.365339
      3          6           0        1.132159   -1.272558   -0.097949
      4          1           0        1.175734   -1.328735   -1.190441
      5          1           0        0.640943   -2.181099    0.261616
      6          6           0        1.132159    1.272558   -0.097949
      7          1           0        2.163104   -1.284985    0.272590
      8          1           0        0.382914    0.000000    1.465828
      9          1           0        2.163104    1.284985    0.272590
     10          1           0        1.175734    1.328735   -1.190441
     11          1           0        0.640943    2.181099    0.261616
     12          1           0       -2.131308   -1.214033    0.370390
     13          1           0       -2.131308    1.214034    0.370387
 ---------------------------------------------------------------------

 SCF Done:  E(UHF) =  -407.803929453     A.U. after    2 cycles

 The electronic state is 2-A.
 Alpha  occ. eigenvalues --  -69.06237 -11.23524 -11.23169 -11.23160  -6.81619
 Alpha  occ. eigenvalues --   -3.92956  -3.92079  -3.92051  -1.05024  -0.93027
 Alpha  occ. eigenvalues --   -0.80788  -0.68375  -0.62074  -0.58564  -0.56663
 Alpha  occ. eigenvalues --   -0.54183  -0.49102  -0.48753  -0.47058  -0.42060
 Alpha  occ. eigenvalues --   -0.31448
 Alpha virt. eigenvalues --    0.03373   0.04892   0.04904   0.05020   0.06447
 Alpha virt. eigenvalues --    0.06903   0.07247   0.07531   0.08334   0.10013
 Alpha virt. eigenvalues --    0.10085   0.10848   0.14587   0.14841   0.15391

  Beta  occ. eigenvalues --  -69.05688 -11.23465 -11.23170 -11.23161  -6.80801
  Beta  occ. eigenvalues --   -3.91699  -3.91676  -3.90826  -1.04803  -0.93022
  Beta  occ. eigenvalues --   -0.80185  -0.65089  -0.61776  -0.57736  -0.56586
  Beta  occ. eigenvalues --   -0.54184  -0.48945  -0.48403  -0.46362  -0.41120
  Beta virt. eigenvalues --    0.03103   0.03926   0.04918   0.05038   0.06081
  Beta virt. eigenvalues --    0.06567   0.06959   0.07341   0.07625   0.09929
  Beta virt. eigenvalues --    0.10134   0.10480   0.11146   0.14912   0.15337

 Mulliken charges and spin densities:
               1          2
     1  Si  -0.010646   1.026747
     2  C   -0.302511  -0.083550
     3  C    0.399685   0.029235
     4  H   -0.068204   0.000099
     5  H   -0.129268  -0.002390
     6  C    0.399685   0.029235
     7  H   -0.066323  -0.001300
     8  H   -0.053812  -0.009654
     9  H   -0.066323  -0.001300
    10  H   -0.068204   0.000099
    11  H   -0.129268  -0.002390
    12  H    0.047595   0.007585
    13  H    0.047595   0.007585
 Sum of Mulliken charges =  -0.00000   1.00000

 Dipole moment (field-independent basis, Debye):
    X=              0.8674    Y=              0.0000    Z=              0.2715  Tot=              0.9089
                          Isotropic Fermi Contact Couplings
        Atom                 a.u.       MegaHertz       Gauss      10(-4) cm-1
     1  Si(29)             0.49817    -442.73349    -157.97832    -147.67999
     2  C(13)              0.00769       8.64096       3.08331       2.88232
     3  C(13)              0.00037       0.41239       0.14715       0.13756
     4  H(1)              -0.00023      -1.01338      -0.36160      -0.33803
     5  H(1)              -0.00009      -0.40821      -0.14566      -0.13617
     6  C(13)              0.00037       0.41237       0.14714       0.13755
     7  H(1)              -0.00050      -2.24532      -0.80118      -0.74896
     8  H(1)               0.00703      31.40754      11.20699      10.47643

 Normal termination of Gaussian 16 at Tue Apr  8 23:41:29 2025.
