 Gaussian 16, Revision C.01,

 ----------------------------------------------------------------------
 #t hf aug-cc-pvdz symm=none int=(grid=ultrafine) guess=(read,tcheck) s
 table=(opt,rrhf)
 ----------------------------------------------------------------------
 -----
 title
 -----
 Symbolic Z-matrix:
 Charge =  0 Multiplicity = 1

 SCF Done:  E(RHF) =  -134.272429326     A.U. after   12 cycles
 Normal termination of Gaussian 16 at Tue Apr  8 22:38:23 2025.
 Gaussian 16:  ES64L-G16RevC.01  3-Jul-2019

 ----------------------------------------------------------------------
 #t hf aug-cc-pvdz iop(5/13=1,5/36=2,99/5=2) pseudo=read geom=check gue
 ss=(read,tcheck) scf=(maxcycle=1)
 ----------------------------------------------------------------------
 -----
 title
 -----
 Structure from the checkpoint file:  "BDE49_expt_1280_mol1.chk"
 Charge =  0 Multiplicity = 1

                         Standard orientation:
 ---------------------------------------------------------------------
 Center     Atomic      Atomic             Coordinates (Angstroms)
 Number     Number       Type             X           Y           Z
 ---------------------------------------------------------------------
      1          7           0        1.208039   -0.324131   -0.117657
      2          6           0        0.048630    0.561100    0.055465
      3          1           0        1.266359   -0.970659    0.664531
      4          1           0        2.067740    0.216092   -0.106265
      5          6           0       -1.248083   -0.238882   -0.028412
      6          1           0        0.071439    1.297817   -0.754149
      7          1           0        0.063012    1.131067    0.999558
      8          1           0       -1.296047   -0.784772   -0.973417
      9          1           0       -2.121119    0.415382    0.045781
     10          1           0       -1.310942   -0.969319    0.785246
 ---------------------------------------------------------------------

 SCF Done:  E(RHF) =  -134.316611562     A.U. after    2 cycles

 The electronic state is 1-A.
 Alpha  occ. eigenvalues --  -15.60388 -11.25788 -11.22108  -1.14380  -0.97766
 Alpha  occ. eigenvalues --   -0.81970  -0.65821  -0.63076  -0.57964  -0.51623
 Alpha  occ. eigenvalues --   -0.50866  -0.48877  -0.38465
 Alpha virt. eigenvalues --    0.03582   0.04621   0.04677   0.05302   0.07541
 Alpha virt. eigenvalues --    0.07969   0.08271   0.12544   0.13785   0.14538
 Alpha virt. eigenvalues --    0.15688   0.17200   0.17632   0.17926   0.20013

 Mulliken charges:
               1
     1  N   -0.393672
     2  C    0.594513
     3  H    0.026070
     4  H   -0.024833
     5  C    0.250923
     6  H   -0.165912
     7  H   -0.112974
     8  H   -0.019660
     9  H   -0.061984
    10  H   -0.092471
 Sum of Mulliken charges =  -0.00000

 Dipole moment (field-independent basis, Debye):
    X=              0.1632    Y=              0.7026    Z=              1.1586  Tot=              1.3648

 Test job not archived.
 1\1\GINC-SE336\SP\RHF\Aug-CC-pVDZ\C2H7N1\OHZDE\08-Apr-2025\0\\#t hf au
 g-cc-pvdz iop(5/13=1,5/36=2,99/5=2) pseudo=read geom=check guess=(read
 ,tcheck) scf=(maxcycle=1)\\title\\0,1\N,0,1.208039,-0.324131,-0.117657
 \C,0,0.04863,0.5611,0.055465\H,0,1.266359,-0.970659,0.664531\H,0,2.067
 74,0.216092,-0.106265\C,0,-1.248083,-0.238882,-0.028412\H,0,0.071439,1
 .297817,-0.754149\H,0,0.063012,1.131067,0.999558\H,0,-1.296047,-0.7847
 72,-0.973417\H,0,-2.121119,0.415382,0.045781\H,0,-1.310942,-0.969319,0
 .785246\\Version=ES64L-G16RevC.01\State=1-A\HF=-134.3166116\RMSD=3.043

 Normal termination of Gaussian 16 at Tue Apr  8 22:38:26 2025.
