 Gaussian 16, Revision C.01,

 ----------------------------------------------------------------------
 #t hf aug-cc-pvdz symm=none int=(grid=ultrafine) guess=(read,tcheck) s
 table=(opt,rrhf)
 ----------------------------------------------------------------------
 -----
 title
 -----
 Symbolic Z-matrix:
 Charge =  0 Multiplicity = 1

 SCF Done:  E(RHF) =  -3032.42800482     A.U. after   14 cycles
 Normal termination of Gaussian 16 at Wed Apr  9 00:48:56 2025.
 Gaussian 16:  ES64L-G16RevC.01  3-Jul-2019

 ----------------------------------------------------------------------
 #t hf aug-cc-pvdz iop(5/13=1,5/36=2,99/5=2) pseudo=read geom=check gue
 ss=(read,tcheck) scf=(maxcycle=1)
 ----------------------------------------------------------------------
 -----
 title
 -----
 Structure from the checkpoint file:  "BDE49_nonexpt_915_mol1.chk"
 Charge =  0 Multiplicity = 1

                         Standard orientation:
 ---------------------------------------------------------------------
 Center     Atomic      Atomic             Coordinates (Angstroms)
 Number     Number       Type             X           Y           Z
 ---------------------------------------------------------------------
      1         16           0        1.028690   -1.098632   -0.710722
      2          5           0        2.345730    0.046342   -0.119451
      3         16           0        3.874976   -0.763857    0.437705
      4         16           0        2.310697    1.845896   -0.081728
      5         16           0       -0.586668    0.075455   -1.314235
      6          6           0       -1.763654   -0.021784    0.105967
      7         17           0       -2.308776   -1.696806    0.429490
      8         17           0       -3.152745    0.965833   -0.464541
      9         17           0       -1.110361    0.673200    1.620922
     10          1           0        1.056028    1.976780   -0.557078
     11          1           0        3.476111   -2.037436    0.262415
 ---------------------------------------------------------------------

 SCF Done:  E(RHF) =  -3032.57482895     A.U. after    2 cycles

 The electronic state is 1-A.
 Alpha  occ. eigenvalues -- -103.70696-103.70249-103.70095 -93.61451 -93.58823
 Alpha  occ. eigenvalues --  -93.55854 -93.55470 -11.48541 -10.73973 -10.73537
 Alpha  occ. eigenvalues --  -10.73387  -8.90940  -8.88575  -8.85799  -8.85465
 Alpha  occ. eigenvalues --   -8.39688  -8.39349  -8.39338  -8.39255  -8.39106
 Alpha  occ. eigenvalues --   -8.38912  -8.38907  -8.38758  -8.38755  -7.71696
 Alpha  occ. eigenvalues --   -6.25021  -6.24763  -6.24434  -6.22723  -6.22389
 Alpha  occ. eigenvalues --   -6.22174  -6.19974  -6.19732  -6.19638  -6.19471
 Alpha  occ. eigenvalues --   -6.19419  -6.19154  -1.27794  -1.17320  -1.16879
 Alpha  occ. eigenvalues --   -1.07609  -1.01304  -0.96765  -0.93159  -0.81598
 Alpha  occ. eigenvalues --   -0.67397  -0.65821  -0.65588  -0.64138  -0.59131
 Alpha  occ. eigenvalues --   -0.54685  -0.54090  -0.52907  -0.51644  -0.49799
 Alpha  occ. eigenvalues --   -0.49022  -0.48070  -0.47587  -0.46634  -0.45896
 Alpha  occ. eigenvalues --   -0.45345  -0.40437  -0.38998  -0.38191
 Alpha virt. eigenvalues --    0.03880   0.04732   0.05604   0.05933   0.06310
 Alpha virt. eigenvalues --    0.07168   0.07980   0.08235   0.08790   0.09037
 Alpha virt. eigenvalues --    0.09308   0.09824   0.10229   0.10801   0.11701

 Mulliken charges:
               1
     1  S   -0.219603
     2  B    0.763787
     3  S   -0.272763
     4  S   -0.174566
     5  S    0.190934
     6  C   -0.572276
     7  Cl   0.071567
     8  Cl   0.120026
     9  Cl   0.031975
    10  H    0.057771
    11  H    0.003148
 Sum of Mulliken charges =  -0.00000

 Dipole moment (field-independent basis, Debye):
    X=             -0.1348    Y=             -0.4321    Z=             -0.4445  Tot=              0.6344

 Test job not archived.
 1\1\GINC-SE227\SP\RHF\Aug-CC-pVDZ\C1H2B1Cl3S4\OHZDE\09-Apr-2025\0\\#t
 hf aug-cc-pvdz iop(5/13=1,5/36=2,99/5=2) pseudo=read geom=check guess=
 (read,tcheck) scf=(maxcycle=1)\\title\\0,1\S,0,1.02869,-1.098632,-0.71
 0722\B,0,2.34573,0.046342,-0.119451\S,0,3.874976,-0.763857,0.437705\S,
 0,2.310697,1.845896,-0.081728\S,0,-0.586668,0.075455,-1.314235\C,0,-1.
 763654,-0.021784,0.105967\Cl,0,-2.308776,-1.696806,0.42949\Cl,0,-3.152
 745,0.965833,-0.464541\Cl,0,-1.110361,0.6732,1.620922\H,0,1.056028,1.9
 7678,-0.557078\H,0,3.476111,-2.037436,0.262415\\Version=ES64L-G16RevC.

 Normal termination of Gaussian 16 at Wed Apr  9 00:49:04 2025.
