 Gaussian 16, Revision C.01,

 ----------------------------------------------------------------------
 #t hf aug-cc-pvdz symm=none int=(grid=ultrafine) guess=(read,tcheck) s
 table=(opt,rrhf)
 ----------------------------------------------------------------------
 -----
 title
 -----
 Symbolic Z-matrix:
 Charge =  0 Multiplicity = 1

 SCF Done:  E(RHF) =  -348.478647526     A.U. after   12 cycles
 Normal termination of Gaussian 16 at Wed Apr  9 00:36:20 2025.
 Gaussian 16:  ES64L-G16RevC.01  3-Jul-2019

 ----------------------------------------------------------------------
 #t hf aug-cc-pvdz iop(5/13=1,5/36=2,99/5=2) pseudo=read geom=check gue
 ss=(read,tcheck) scf=(maxcycle=1)
 ----------------------------------------------------------------------
 -----
 title
 -----
 Structure from the checkpoint file:  "BDE49_nonexpt_557_mol1.chk"
 Charge =  0 Multiplicity = 1

                         Standard orientation:
 ---------------------------------------------------------------------
 Center     Atomic      Atomic             Coordinates (Angstroms)
 Number     Number       Type             X           Y           Z
 ---------------------------------------------------------------------
      1          7           0        0.149482    0.419707    0.227474
      2          5           0       -1.076181   -0.265241    0.016211
      3          8           0       -2.202219    0.457372   -0.314157
      4          8           0       -1.226208   -1.636918    0.123219
      5          6           0        1.389624   -0.253695    0.588751
      6          6           0        2.297603   -0.587045   -0.602791
      7          1           0        1.157590   -1.172659    1.139756
      8          1           0        1.936512    0.377844    1.299921
      9          1           0        2.565500    0.314313   -1.159410
     10          1           0        1.795369   -1.269006   -1.294304
     11          6           0        0.251781    1.862706    0.051589
     12          1           0        0.946381    2.130902   -0.754465
     13          1           0        0.603947    2.346556    0.972206
     14          1           0       -0.727163    2.266760   -0.197485
     15          1           0        3.224812   -1.060740   -0.265937
     16          1           0       -2.955668   -0.126521   -0.434457
     17          1           0       -0.419380   -2.114622    0.323006
 ---------------------------------------------------------------------

 SCF Done:  E(RHF) =  -348.596749510     A.U. after    2 cycles

 The electronic state is 1-A.
 Alpha  occ. eigenvalues --  -20.57128 -20.56157 -15.60329 -11.27360 -11.25380
 Alpha  occ. eigenvalues --  -11.23124  -7.65316  -1.33188  -1.29254  -1.17377
 Alpha  occ. eigenvalues --   -1.00741  -0.90746  -0.83582  -0.76209  -0.73627
 Alpha  occ. eigenvalues --   -0.67607  -0.63093  -0.60433  -0.59780  -0.57720
 Alpha  occ. eigenvalues --   -0.56919  -0.55090  -0.54588  -0.52716  -0.51219
 Alpha  occ. eigenvalues --   -0.50438  -0.49058  -0.35930
 Alpha virt. eigenvalues --    0.03095   0.04283   0.04510   0.04625   0.06475
 Alpha virt. eigenvalues --    0.07044   0.07153   0.07510   0.07934   0.09287
 Alpha virt. eigenvalues --    0.09305   0.10145   0.10676   0.11572   0.13868

 Mulliken charges:
               1
     1  N   -0.301982
     2  B    0.558564
     3  O   -0.518389
     4  O   -0.540170
     5  C    0.598110
     6  C    0.356467
     7  H   -0.271638
     8  H   -0.221212
     9  H   -0.123087
    10  H   -0.092755
    11  C    0.732273
    12  H   -0.097951
    13  H   -0.107202
    14  H   -0.290653
    15  H   -0.055331
    16  H    0.195224
    17  H    0.179732
 Sum of Mulliken charges =  -0.00000

 Dipole moment (field-independent basis, Debye):
    X=              1.8917    Y=             -0.6516    Z=              0.3615  Tot=              2.0332

 Test job not archived.
 1\1\GINC-SE072\SP\RHF\Aug-CC-pVDZ\C3H10B1N1O2\OHZDE\09-Apr-2025\0\\#t
 hf aug-cc-pvdz iop(5/13=1,5/36=2,99/5=2) pseudo=read geom=check guess=
 (read,tcheck) scf=(maxcycle=1)\\title\\0,1\N,0,-0.149482,0.419707,-0.2
 27474\B,0,1.076181,-0.265241,-0.016211\O,0,2.202219,0.457372,0.314157\
 O,0,1.226208,-1.636918,-0.123219\C,0,-1.389624,-0.253695,-0.588751\C,0
 ,-2.297603,-0.587045,0.602791\H,0,-1.15759,-1.172659,-1.139756\H,0,-1.
 936512,0.377844,-1.299921\H,0,-2.5655,0.314313,1.15941\H,0,-1.795369,-
 1.269006,1.294304\C,0,-0.251781,1.862706,-0.051589\H,0,-0.946381,2.130

 Normal termination of Gaussian 16 at Wed Apr  9 00:36:26 2025.
