 Gaussian 16, Revision C.01,

 ----------------------------------------------------------------------
 #t hf aug-cc-pvdz symm=none int=(grid=ultrafine) guess=(read,tcheck) s
 table=(opt,rrhf)
 ----------------------------------------------------------------------
 -----
 title
 -----
 Symbolic Z-matrix:
 Charge =  0 Multiplicity = 1

 SCF Done:  E(RHF) =  -1008.46159311     A.U. after   15 cycles
 Normal termination of Gaussian 16 at Tue Apr  8 22:53:51 2025.
 Gaussian 16:  ES64L-G16RevC.01  3-Jul-2019

 ----------------------------------------------------------------------
 #t hf aug-cc-pvdz iop(5/13=1,5/36=2,99/5=2) pseudo=read geom=check gue
 ss=(read,tcheck) scf=(maxcycle=1)
 ----------------------------------------------------------------------
 -----
 title
 -----
 Structure from the checkpoint file:  "BDE49_expt_1867_mol1.chk"
 Charge =  0 Multiplicity = 1

                         Standard orientation:
 ---------------------------------------------------------------------
 Center     Atomic      Atomic             Coordinates (Angstroms)
 Number     Number       Type             X           Y           Z
 ---------------------------------------------------------------------
      1          8           0        0.999159    0.687728   -0.499078
      2          8           0       -0.107304   -0.105679   -0.981524
      3          6           0        1.997368   -0.152781   -0.067301
      4         16           0       -1.318892   -0.127685    0.139364
      5          9           0       -1.802025    1.380952   -0.034332
      6          8           0       -2.290518   -0.965116   -0.456349
      7          8           0       -0.793319   -0.238620    1.449493
      8          8           0        2.016311   -1.322415   -0.012429
      9          9           0        2.971295    0.675989    0.275784
 ---------------------------------------------------------------------

 SCF Done:  E(RHF) =  -1008.75912735     A.U. after    2 cycles

 The electronic state is 1-A.
 Alpha  occ. eigenvalues --  -93.94867 -26.22638 -26.22336 -20.77448 -20.77249
 Alpha  occ. eigenvalues --  -20.65786 -20.65585 -20.64796 -11.54736  -9.20212
 Alpha  occ. eigenvalues --   -6.54856  -6.54813  -6.54740  -1.77697  -1.76763
 Alpha  occ. eigenvalues --   -1.57941  -1.51260  -1.45692  -1.42068  -1.33561
 Alpha  occ. eigenvalues --   -1.00821  -0.97375  -0.90433  -0.87686  -0.84968
 Alpha  occ. eigenvalues --   -0.84227  -0.83224  -0.82333  -0.78380  -0.76328
 Alpha  occ. eigenvalues --   -0.74600  -0.71846  -0.68277  -0.66207  -0.64076
 Alpha  occ. eigenvalues --   -0.62481  -0.60484  -0.59044  -0.58744  -0.58208
 Alpha virt. eigenvalues --    0.06049   0.06279   0.07827   0.08345   0.09755
 Alpha virt. eigenvalues --    0.10406   0.10542   0.10816   0.13257   0.14725
 Alpha virt. eigenvalues --    0.16616   0.17287   0.17951   0.19532   0.20496

 Mulliken charges:
               1
     1  O   -0.280759
     2  O   -0.604856
     3  C    0.769542
     4  S    2.554775
     5  F   -0.497811
     6  O   -0.715994
     7  O   -0.761735
     8  O   -0.229713
     9  F   -0.233449
 Sum of Mulliken charges =   0.00000

 Dipole moment (field-independent basis, Debye):
    X=              0.4432    Y=              1.4350    Z=             -0.6194  Tot=              1.6246

 Test job not archived.
 1\1\GINC-SE336\SP\RHF\Aug-CC-pVDZ\C1F2O5S1\OHZDE\08-Apr-2025\0\\#t hf
 aug-cc-pvdz iop(5/13=1,5/36=2,99/5=2) pseudo=read geom=check guess=(re
 ad,tcheck) scf=(maxcycle=1)\\title\\0,1\O,0,0.999159,0.687728,-0.49907
 8\O,0,-0.107304,-0.105679,-0.981524\C,0,1.997368,-0.152781,-0.067301\S
 ,0,-1.318892,-0.127685,0.139364\F,0,-1.802025,1.380952,-0.034332\O,0,-
 2.290518,-0.965116,-0.456349\O,0,-0.793319,-0.23862,1.449493\O,0,2.016
 311,-1.322415,-0.012429\F,0,2.971295,0.675989,0.275784\\Version=ES64L-
 G16RevC.01\State=1-A\HF=-1008.7591274\RMSD=3.721e-03\Dipole=0.1743767,

 Normal termination of Gaussian 16 at Tue Apr  8 22:53:56 2025.
