 Gaussian 16, Revision C.01,

 ----------------------------------------------------------------------
 #t hf aug-cc-pvdz symm=none int=(grid=ultrafine) guess=(read,tcheck) s
 table=(opt,rrhf)
 ----------------------------------------------------------------------
 -----
 title
 -----
 Symbolic Z-matrix:
 Charge =  0 Multiplicity = 1

 SCF Done:  E(RHF) =  -228.874987602     A.U. after   13 cycles
 Normal termination of Gaussian 16 at Tue Apr  8 22:41:40 2025.
 Gaussian 16:  ES64L-G16RevC.01  3-Jul-2019

 ----------------------------------------------------------------------
 #t hf aug-cc-pvdz iop(5/13=1,5/36=2,99/5=2) pseudo=read geom=check gue
 ss=(read,tcheck) scf=(maxcycle=1)
 ----------------------------------------------------------------------
 -----
 title
 -----
 Structure from the checkpoint file:  "BDE49_expt_1463_mol1.chk"
 Charge =  0 Multiplicity = 1

                         Standard orientation:
 ---------------------------------------------------------------------
 Center     Atomic      Atomic             Coordinates (Angstroms)
 Number     Number       Type             X           Y           Z
 ---------------------------------------------------------------------
      1          6           0        0.458143    0.521444    0.021676
      2          8           0       -0.509330   -0.524880   -0.030106
      3          8           0       -1.815600    0.108386   -0.093707
      4          1           0       -2.193412   -0.194761    0.742964
      5          6           0        1.818772   -0.155474    0.004622
      6          1           0        0.315063    1.113894    0.934064
      7          1           0        0.328676    1.179810   -0.844074
      8          1           0        1.936122   -0.817011    0.865714
      9          1           0        2.607655    0.599853    0.039406
     10          1           0        1.943845   -0.745660   -0.905360
 ---------------------------------------------------------------------

 SCF Done:  E(RHF) =  -228.950503540     A.U. after    2 cycles

 The electronic state is 1-A.
 Alpha  occ. eigenvalues --  -20.63548 -20.63502 -11.29390 -11.23558  -1.42074
 Alpha  occ. eigenvalues --   -1.20604  -1.00191  -0.84644  -0.73628  -0.67678
 Alpha  occ. eigenvalues --   -0.65976  -0.61635  -0.54975  -0.53770  -0.51427
 Alpha  occ. eigenvalues --   -0.50682  -0.46180
 Alpha virt. eigenvalues --    0.03528   0.04536   0.05171   0.05456   0.07142
 Alpha virt. eigenvalues --    0.07876   0.11982   0.13542   0.14313   0.15303
 Alpha virt. eigenvalues --    0.15882   0.16993   0.17511   0.18040   0.19823

 Mulliken charges:
               1
     1  C    0.736526
     2  O   -0.450442
     3  O   -0.274601
     4  H    0.202284
     5  C    0.155384
     6  H   -0.136148
     7  H   -0.135987
     8  H   -0.046853
     9  H   -0.024346
    10  H   -0.025817
 Sum of Mulliken charges =  -0.00000

 Dipole moment (field-independent basis, Debye):
    X=              0.9293    Y=              0.7674    Z=              1.5408  Tot=              1.9562

 Test job not archived.
 1\1\GINC-SE092\SP\RHF\Aug-CC-pVDZ\C2H6O2\OHZDE\08-Apr-2025\0\\#t hf au
 g-cc-pvdz iop(5/13=1,5/36=2,99/5=2) pseudo=read geom=check guess=(read
 ,tcheck) scf=(maxcycle=1)\\title\\0,1\C,0,0.458143,0.521444,0.021676\O
 ,0,-0.50933,-0.52488,-0.030106\O,0,-1.8156,0.108386,-0.093707\H,0,-2.1
 93412,-0.194761,0.742964\C,0,1.818772,-0.155474,0.004622\H,0,0.315063,
 1.113894,0.934064\H,0,0.328676,1.17981,-0.844074\H,0,1.936122,-0.81701
 1,0.865714\H,0,2.607655,0.599853,0.039406\H,0,1.943845,-0.74566,-0.905
 36\\Version=ES64L-G16RevC.01\State=1-A\HF=-228.9505035\RMSD=3.199e-03\

 Normal termination of Gaussian 16 at Tue Apr  8 22:41:43 2025.
