 Gaussian 16, Revision C.01,

 ----------------------------------------------------------------------
 #t hf aug-cc-pvdz symm=none int=(grid=ultrafine) guess=(read,tcheck) s
 table=(opt,rrhf)
 ----------------------------------------------------------------------
 -----
 title
 -----
 Symbolic Z-matrix:
 Charge =  0 Multiplicity = 1

 SCF Done:  E(RHF) =  -167.791131706     A.U. after   13 cycles
 Normal termination of Gaussian 16 at Tue Apr  8 23:04:39 2025.
 Gaussian 16:  ES64L-G16RevC.01  3-Jul-2019

 ----------------------------------------------------------------------
 #t hf aug-cc-pvdz iop(5/13=1,5/36=2,99/5=2) pseudo=read geom=check gue
 ss=(read,tcheck) scf=(maxcycle=1)
 ----------------------------------------------------------------------
 -----
 title
 -----
 Structure from the checkpoint file:  "BDE49_expt_404_mol1.chk"
 Charge =  0 Multiplicity = 1

                         Standard orientation:
 ---------------------------------------------------------------------
 Center     Atomic      Atomic             Coordinates (Angstroms)
 Number     Number       Type             X           Y           Z
 ---------------------------------------------------------------------
      1          7           0       -1.158273   -0.122680   -0.000002
      2          6           0        0.044436    0.020519    0.000001
      3          1           0       -1.836398    0.620485    0.000023
      4          8           0        1.209712    0.014395   -0.000002
 ---------------------------------------------------------------------

 SCF Done:  E(RHF) =  -167.845667456     A.U. after    2 cycles

 The electronic state is 1-A.
 Alpha  occ. eigenvalues --  -20.64064 -15.66184 -11.43407  -1.44452  -1.23525
 Alpha  occ. eigenvalues --   -0.81559  -0.74639  -0.67234  -0.65982  -0.48807
 Alpha  occ. eigenvalues --   -0.45734
 Alpha virt. eigenvalues --    0.02963   0.07969   0.08855   0.09043   0.11618
 Alpha virt. eigenvalues --    0.15196   0.17403   0.18037   0.18614   0.22655
 Alpha virt. eigenvalues --    0.25799   0.28019   0.28871   0.29493   0.33217

 Mulliken charges:
               1
     1  N    0.026285
     2  C    0.097600
     3  H    0.068005
     4  O   -0.191890
 Sum of Mulliken charges =  -0.00000

 Dipole moment (field-independent basis, Debye):
    X=             -2.0849    Y=              1.4579    Z=              0.0001  Tot=              2.5441

 Test job not archived.
 1\1\GINC-SE016\SP\RHF\Aug-CC-pVDZ\C1H1N1O1\OHZDE\08-Apr-2025\0\\#t hf
 aug-cc-pvdz iop(5/13=1,5/36=2,99/5=2) pseudo=read geom=check guess=(re
 ad,tcheck) scf=(maxcycle=1)\\title\\0,1\N,0,-1.158273,-0.12268,-0.0000
 02\C,0,0.044436,0.020519,0.000001\H,0,-1.836398,0.620485,0.000023\O,0,
 1.209712,0.014395,-0.000002\\Version=ES64L-G16RevC.01\State=1-A\HF=-16
 7.8456675\RMSD=3.315e-03\Dipole=-0.8202554,0.5735809,0.0000205\Quadrup
 ole=-0.624706,0.7043557,-0.0796497,-2.118481,-0.0000659,0.0000288\PG=C
 01 [X(C1H1N1O1)]\\@

 Normal termination of Gaussian 16 at Tue Apr  8 23:04:40 2025.
