 Gaussian 16, Revision C.01,

 ----------------------------------------------------------------------
 #t hf aug-cc-pvdz symm=none int=(grid=ultrafine) guess=(read,tcheck) s
 table=(opt,rrhf)
 ----------------------------------------------------------------------
 -----
 title
 -----
 Symbolic Z-matrix:
 Charge =  0 Multiplicity = 1

 SCF Done:  E(RHF) =  -303.456640840     A.U. after   12 cycles
 Normal termination of Gaussian 16 at Tue Apr  8 22:51:31 2025.
 Gaussian 16:  ES64L-G16RevC.01  3-Jul-2019

 ----------------------------------------------------------------------
 #t hf aug-cc-pvdz iop(5/13=1,5/36=2,99/5=2) pseudo=read geom=check gue
 ss=(read,tcheck) scf=(maxcycle=1)
 ----------------------------------------------------------------------
 -----
 title
 -----
 Structure from the checkpoint file:  "BDE49_expt_1810_mol1.chk"
 Charge =  0 Multiplicity = 1

                         Standard orientation:
 ---------------------------------------------------------------------
 Center     Atomic      Atomic             Coordinates (Angstroms)
 Number     Number       Type             X           Y           Z
 ---------------------------------------------------------------------
      1          7           0        0.193564    0.000001    0.000034
      2          8           0        0.637059   -1.091328   -0.000011
      3          9           0       -1.283097   -0.000001   -0.000006
      4          8           0        0.637057    1.091328   -0.000011
 ---------------------------------------------------------------------

 SCF Done:  E(RHF) =  -303.558122137     A.U. after    2 cycles

 The electronic state is 1-A.
 Alpha  occ. eigenvalues --  -26.20269 -20.71290 -20.71284 -16.06201  -1.73876
 Alpha  occ. eigenvalues --   -1.62035  -1.50017  -0.98913  -0.88252  -0.85917
 Alpha  occ. eigenvalues --   -0.84264  -0.76916  -0.73967  -0.62304  -0.59847
 Alpha  occ. eigenvalues --   -0.56345
 Alpha virt. eigenvalues --    0.04608   0.07151   0.10684   0.11591   0.13307
 Alpha virt. eigenvalues --    0.13377   0.21550   0.22612   0.22811   0.25509
 Alpha virt. eigenvalues --    0.25655   0.28027   0.31812   0.32872   0.34436

 Mulliken charges:
               1
     1  N    0.962286
     2  O   -0.308507
     3  F   -0.345272
     4  O   -0.308506
 Sum of Mulliken charges =  -0.00000

 Dipole moment (field-independent basis, Debye):
    X=              0.4869    Y=              0.0000    Z=              0.0001  Tot=              0.4869

 Test job not archived.
 1\1\GINC-SE045\SP\RHF\Aug-CC-pVDZ\F1N1O2\OHZDE\08-Apr-2025\0\\#t hf au
 g-cc-pvdz iop(5/13=1,5/36=2,99/5=2) pseudo=read geom=check guess=(read
 ,tcheck) scf=(maxcycle=1)\\title\\0,1\N,0,0.193564,0.,0.000034\O,0,0.6
 37057,-1.091329,-0.000011\F,0,-1.283097,0.000001,-0.000006\O,0,0.63705
 9,1.091327,-0.000011\\Version=ES64L-G16RevC.01\State=1-A\HF=-303.55812
 21\RMSD=5.746e-03\Dipole=0.1915788,0.0000027,0.0000537\Quadrupole=-0.7
 640117,-0.9649243,1.728936,0.0000026,0.0000084,0.\PG=C01 [X(F1N1O2)]\\
 @

 Normal termination of Gaussian 16 at Tue Apr  8 22:51:33 2025.
