 Gaussian 16, Revision C.01,

 ----------------------------------------------------------------------
 #t hf aug-cc-pvdz symm=none int=(grid=ultrafine) guess=(read,tcheck) s
 table=opt
 ----------------------------------------------------------------------
 -----
 title
 -----
 Symbolic Z-matrix:
 Charge =  0 Multiplicity = 2

 SCF Done:  E(UHF) =  -591.778744339     A.U. after   19 cycles
 Normal termination of Gaussian 16 at Wed Apr  9 00:34:23 2025.
 Gaussian 16:  ES64L-G16RevC.01  3-Jul-2019

 ----------------------------------------------------------------------
 #t hf aug-cc-pvdz iop(5/13=1,5/36=2,99/5=2) pseudo=read geom=check gue
 ss=(read,tcheck) scf=(maxcycle=1)
 ----------------------------------------------------------------------
 -----
 title
 -----
 Structure from the checkpoint file:  "BDE49_nonexpt_474_mol2.chk"
 Charge =  0 Multiplicity = 2

                         Standard orientation:
 ---------------------------------------------------------------------
 Center     Atomic      Atomic             Coordinates (Angstroms)
 Number     Number       Type             X           Y           Z
 ---------------------------------------------------------------------
      1          1           0       -2.465564    1.037358   -1.080982
      2          5           0       -1.561665    0.279145   -1.062732
      3         15           0       -0.087526   -0.022880    0.038541
      4          8           0       -0.654577   -0.788858    1.168385
      5          8           0        1.119720   -0.779191   -0.728370
      6          1           0        0.977032   -1.733057   -0.762674
      7          8           0        0.659976    1.364578    0.322258
      8          1           0        1.608798    1.270942    0.481017
 ---------------------------------------------------------------------

 SCF Done:  E(UHF) =  -591.922798218     A.U. after    2 cycles

 The electronic state is 2-A.
 Alpha  occ. eigenvalues --  -81.41608 -20.62386 -20.62322 -20.53099  -7.90086
 Alpha  occ. eigenvalues --   -7.68511  -5.04728  -5.04632  -5.04235  -1.38928
 Alpha  occ. eigenvalues --   -1.35032  -1.26171  -0.86476  -0.78699  -0.73913
 Alpha  occ. eigenvalues --   -0.67781  -0.64992  -0.61039  -0.60620  -0.58479
 Alpha  occ. eigenvalues --   -0.53139  -0.49831  -0.46950  -0.37033
 Alpha virt. eigenvalues --    0.01819   0.03186   0.04601   0.05086   0.06580
 Alpha virt. eigenvalues --    0.07774   0.09006   0.10083   0.11869   0.12741
 Alpha virt. eigenvalues --    0.13999   0.15868   0.18552   0.19496   0.20884

  Beta  occ. eigenvalues --  -81.41608 -20.62410 -20.62252 -20.53027  -7.90083
  Beta  occ. eigenvalues --   -7.66691  -5.04728  -5.04609  -5.04248  -1.38849
  Beta  occ. eigenvalues --   -1.34961  -1.25989  -0.85734  -0.78275  -0.70893
  Beta  occ. eigenvalues --   -0.67488  -0.64039  -0.60524  -0.60243  -0.58274
  Beta  occ. eigenvalues --   -0.52724  -0.48882  -0.46059
  Beta virt. eigenvalues --    0.02567   0.03362   0.03821   0.05143   0.05996
  Beta virt. eigenvalues --    0.07864   0.08596   0.09260   0.10210   0.11998
  Beta virt. eigenvalues --    0.13198   0.15053   0.16140   0.19407   0.19862

 Mulliken charges and spin densities:
               1          2
     1  H    0.352789  -0.041150
     2  B   -0.411689   1.042113
     3  P    2.035257  -0.003047
     4  O   -0.914807   0.016430
     5  O   -0.695684  -0.006730
     6  H    0.155986  -0.002030
     7  O   -0.681482  -0.010912
     8  H    0.159629   0.005326
 Sum of Mulliken charges =   0.00000   1.00000

 Dipole moment (field-independent basis, Debye):
    X=              1.5523    Y=              0.5489    Z=             -2.7962  Tot=              3.2449
                          Isotropic Fermi Contact Couplings
        Atom                 a.u.       MegaHertz       Gauss      10(-4) cm-1
     1  H(1)              -0.00822     -36.74543     -13.11168     -12.25695
     2  B(11)              0.23628     338.91307     120.93261     113.04923
     3  P(31)             -0.00546      -9.89361      -3.53029      -3.30015
     4  O(17)              0.00566      -3.42865      -1.22343      -1.14367
     5  O(17)             -0.00617       3.73915       1.33422       1.24725
     6  H(1)               0.00009       0.41536       0.14821       0.13855
     7  O(17)              0.03708     -22.47763      -8.02058      -7.49773
     8  H(1)               0.00263      11.77475       4.20152       3.92763

 Normal termination of Gaussian 16 at Wed Apr  9 00:34:26 2025.
