 Gaussian 16, Revision C.01,

 ----------------------------------------------------------------------
 #t hf aug-cc-pvdz symm=none int=(grid=ultrafine) guess=(read,tcheck) s
 table=(opt,rrhf)
 ----------------------------------------------------------------------
 -----
 title
 -----
 Symbolic Z-matrix:
 Charge =  0 Multiplicity = 1

 SCF Done:  E(RHF) =  -1317.95771632     A.U. after   13 cycles
 Normal termination of Gaussian 16 at Wed Apr  9 00:46:57 2025.
 Gaussian 16:  ES64L-G16RevC.01  3-Jul-2019

 ----------------------------------------------------------------------
 #t hf aug-cc-pvdz iop(5/13=1,5/36=2,99/5=2) pseudo=read geom=check gue
 ss=(read,tcheck) scf=(maxcycle=1)
 ----------------------------------------------------------------------
 -----
 title
 -----
 Structure from the checkpoint file:  "BDE49_nonexpt_880_mol1.chk"
 Charge =  0 Multiplicity = 1

                         Standard orientation:
 ---------------------------------------------------------------------
 Center     Atomic      Atomic             Coordinates (Angstroms)
 Number     Number       Type             X           Y           Z
 ---------------------------------------------------------------------
      1          9           0        2.348635   -0.190696    0.000011
      2         16           0        0.975940   -1.155502   -0.000010
      3          5           0       -0.354367    0.059506   -0.000025
      4         16           0       -2.055612   -0.594530    0.000008
      5         16           0       -0.099322    1.845936    0.000002
      6          1           0        1.245265    1.790083    0.000003
      7          1           0       -1.747238   -1.905805    0.000010
 ---------------------------------------------------------------------

 SCF Done:  E(RHF) =  -1318.05772089     A.U. after    2 cycles

 The electronic state is 1-A.
 Alpha  occ. eigenvalues --  -93.63604 -93.56545 -93.55788 -26.14827  -8.92676
 Alpha  occ. eigenvalues --   -8.86463  -8.85764  -7.71629  -6.26896  -6.26434
 Alpha  occ. eigenvalues --   -6.26140  -6.20633  -6.20400  -6.20113  -6.19925
 Alpha  occ. eigenvalues --   -6.19713  -6.19439  -1.65751  -1.03905  -0.97316
 Alpha  occ. eigenvalues --   -0.97081  -0.76164  -0.75043  -0.72791  -0.65951
 Alpha  occ. eigenvalues --   -0.55322  -0.54550  -0.49716  -0.47429  -0.45815
 Alpha  occ. eigenvalues --   -0.39523  -0.38723
 Alpha virt. eigenvalues --    0.03510   0.04121   0.05703   0.06135   0.06881
 Alpha virt. eigenvalues --    0.07963   0.08645   0.09290   0.10978   0.11347
 Alpha virt. eigenvalues --    0.11828   0.12916   0.13314   0.15590   0.16266

 Mulliken charges:
               1
     1  F   -0.659406
     2  S    0.388896
     3  B    0.644543
     4  S   -0.225668
     5  S   -0.208409
     6  H    0.069035
     7  H   -0.008992
 Sum of Mulliken charges =  -0.00000

 Dipole moment (field-independent basis, Debye):
    X=             -0.8693    Y=             -1.1760    Z=             -0.0000  Tot=              1.4624

 Test job not archived.
 1\1\GINC-SE070\SP\RHF\Aug-CC-pVDZ\B1F1H2S3\OHZDE\09-Apr-2025\0\\#t hf
 aug-cc-pvdz iop(5/13=1,5/36=2,99/5=2) pseudo=read geom=check guess=(re
 ad,tcheck) scf=(maxcycle=1)\\title\\0,1\F,0,-2.348635,-0.190696,-0.000
 011\S,0,-0.97594,-1.155502,0.00001\B,0,0.354367,0.059506,0.000025\S,0,
 2.055612,-0.59453,-0.000008\S,0,0.099322,1.845936,-0.000002\H,0,-1.245
 265,1.790083,-0.000003\H,0,1.747238,-1.905805,-0.00001\\Version=ES64L-
 G16RevC.01\State=1-A\HF=-1318.0577209\RMSD=6.398e-03\Dipole=0.3420103,
 -0.4626893,0.0000125\Quadrupole=-2.1912947,3.5201889,-1.3288942,-2.556

 Normal termination of Gaussian 16 at Wed Apr  9 00:46:59 2025.
