 Gaussian 16, Revision C.01,

 ----------------------------------------------------------------------
 #t hf aug-cc-pvdz symm=none int=(grid=ultrafine) guess=(read,tcheck) s
 table=opt
 ----------------------------------------------------------------------
 -----
 title
 -----
 Symbolic Z-matrix:
 Charge =  0 Multiplicity = 2

 SCF Done:  E(UHF) =  -661.635244226     A.U. after   17 cycles
 Normal termination of Gaussian 16 at Tue Apr  8 23:51:24 2025.
 Gaussian 16:  ES64L-G16RevC.01  3-Jul-2019

 ----------------------------------------------------------------------
 #t hf aug-cc-pvdz iop(5/13=1,5/36=2,99/5=2) pseudo=read geom=check gue
 ss=(read,tcheck) scf=(maxcycle=1)
 ----------------------------------------------------------------------
 -----
 title
 -----
 Structure from the checkpoint file:  "BDE49_nonexpt_1933_mol3.chk"
 Charge =  0 Multiplicity = 2

                         Standard orientation:
 ---------------------------------------------------------------------
 Center     Atomic      Atomic             Coordinates (Angstroms)
 Number     Number       Type             X           Y           Z
 ---------------------------------------------------------------------
      1          6           0        1.551284    0.403503   -0.380862
      2         16           0       -0.028620   -0.132165    0.076630
      3          8           0       -0.403220   -1.247347   -0.752365
      4          8           0       -0.104540   -0.180336    1.507713
      5          8           0       -0.944543    1.139428   -0.359312
      6          1           0       -1.321643    0.945269   -1.230024
      7          1           0        2.213549   -0.327442   -0.821663
      8          1           0        1.876737    1.381845   -0.057506
 ---------------------------------------------------------------------

 SCF Done:  E(UHF) =  -661.804122970     A.U. after    2 cycles

 The electronic state is 2-A.
 Alpha  occ. eigenvalues --  -93.84452 -20.65418 -20.58757 -20.58301 -11.32554
 Alpha  occ. eigenvalues --   -9.10511  -6.45206  -6.45118  -6.44820  -1.48745
 Alpha  occ. eigenvalues --   -1.36791  -1.34238  -1.07283  -0.88265  -0.77767
 Alpha  occ. eigenvalues --   -0.73240  -0.71865  -0.68333  -0.65137  -0.60564
 Alpha  occ. eigenvalues --   -0.56324  -0.55296  -0.52865  -0.52391  -0.45829
 Alpha virt. eigenvalues --    0.02780   0.04394   0.04872   0.09173   0.10701
 Alpha virt. eigenvalues --    0.11370   0.11639   0.13421   0.15271   0.16773
 Alpha virt. eigenvalues --    0.17969   0.18634   0.19229   0.21830   0.23093

  Beta  occ. eigenvalues --  -93.84530 -20.65338 -20.58723 -20.58045 -11.30027
  Beta  occ. eigenvalues --   -9.10614  -6.45266  -6.45192  -6.45037  -1.48515
  Beta  occ. eigenvalues --   -1.36514  -1.33862  -1.00805  -0.86378  -0.77050
  Beta  occ. eigenvalues --   -0.72380  -0.71146  -0.67283  -0.64464  -0.59534
  Beta  occ. eigenvalues --   -0.55562  -0.53993  -0.51781  -0.51206
  Beta virt. eigenvalues --    0.02035   0.03190   0.04606   0.04928   0.09762
  Beta virt. eigenvalues --    0.11333   0.11505   0.12662   0.13900   0.15665
  Beta virt. eigenvalues --    0.16988   0.18343   0.18955   0.19500   0.22338

 Mulliken charges and spin densities:
               1          2
     1  C    0.016399   1.257995
     2  S    2.607835  -0.080505
     3  O   -0.961051   0.006520
     4  O   -0.922894   0.019860
     5  O   -0.719304   0.004041
     6  H    0.178679  -0.003954
     7  H   -0.084844  -0.108465
     8  H   -0.114822  -0.095492
 Sum of Mulliken charges =  -0.00000   1.00000

 Dipole moment (field-independent basis, Debye):
    X=              2.3408    Y=              2.3699    Z=             -3.0557  Tot=              4.5203
                          Isotropic Fermi Contact Couplings
        Atom                 a.u.       MegaHertz       Gauss      10(-4) cm-1
     1  C(13)              0.22067     248.07895      88.52074      82.75023
     2  S(33)             -0.11879     -40.80077     -14.55873     -13.60967
     3  O(17)              0.00285      -1.72902      -0.61696      -0.57674
     4  O(17)              0.02704     -16.38956      -5.84820      -5.46697
     5  O(17)              0.00587      -3.55982      -1.27023      -1.18743
     6  H(1)              -0.00046      -2.06360      -0.73634      -0.68834
     7  H(1)              -0.02599    -116.17094     -41.45268     -38.75045
     8  H(1)              -0.02449    -109.47476     -39.06332     -36.51685

 Normal termination of Gaussian 16 at Tue Apr  8 23:51:27 2025.
