 Gaussian 16, Revision C.01,

 ----------------------------------------------------------------------
 #t hf aug-cc-pvdz symm=none int=(grid=ultrafine) guess=(read,tcheck) s
 table=(opt,rrhf)
 ----------------------------------------------------------------------
 -----
 title
 -----
 Symbolic Z-matrix:
 Charge =  0 Multiplicity = 1

 SCF Done:  E(RHF) =  -381.605513106     A.U. after   15 cycles
 Normal termination of Gaussian 16 at Tue Apr  8 23:19:55 2025.
 Gaussian 16:  ES64L-G16RevC.01  3-Jul-2019

 ----------------------------------------------------------------------
 #t hf aug-cc-pvdz iop(5/13=1,5/36=2,99/5=2) pseudo=read geom=check gue
 ss=(read,tcheck) scf=(maxcycle=1)
 ----------------------------------------------------------------------
 -----
 title
 -----
 Structure from the checkpoint file:  "BDE49_nonexpt_1140_mol1.chk"
 Charge =  0 Multiplicity = 1

                         Standard orientation:
 ---------------------------------------------------------------------
 Center     Atomic      Atomic             Coordinates (Angstroms)
 Number     Number       Type             X           Y           Z
 ---------------------------------------------------------------------
      1          9           0        1.846428   -0.958050   -0.000020
      2          8           0        1.411843    0.439886   -0.000005
      3          6           0        0.017732    0.537202    0.000021
      4          8           0       -0.377345    1.673436   -0.000007
      5          7           0       -0.665160   -0.614988    0.000014
      6          6           0       -2.121303   -0.638053    0.000005
      7          1           0       -0.139846   -1.474577    0.000018
      8          1           0       -2.477619    0.390253   -0.000013
      9          1           0       -2.499417   -1.144872    0.890920
     10          1           0       -2.499406   -1.144900   -0.890898
 ---------------------------------------------------------------------

 SCF Done:  E(RHF) =  -381.732054735     A.U. after    2 cycles

 The electronic state is 1-A.
 Alpha  occ. eigenvalues --  -26.19472 -20.74417 -20.57446 -15.68762 -11.45494
 Alpha  occ. eigenvalues --  -11.29905  -1.69354  -1.43607  -1.32110  -1.24033
 Alpha  occ. eigenvalues --   -0.98674  -0.85354  -0.82583  -0.79991  -0.77649
 Alpha  occ. eigenvalues --   -0.69155  -0.68345  -0.67539  -0.63628  -0.62578
 Alpha  occ. eigenvalues --   -0.57838  -0.54734  -0.51007  -0.43361
 Alpha virt. eigenvalues --    0.02651   0.04343   0.04651   0.06679   0.07758
 Alpha virt. eigenvalues --    0.10166   0.10805   0.11029   0.11916   0.14710
 Alpha virt. eigenvalues --    0.15442   0.15970   0.17596   0.18718   0.18935

 Mulliken charges:
               1
     1  F   -0.369172
     2  O   -0.083557
     3  C    0.701833
     4  O   -0.385813
     5  N   -0.267210
     6  C    0.777966
     7  H   -0.028738
     8  H   -0.154997
     9  H   -0.095153
    10  H   -0.095159
 Sum of Mulliken charges =  -0.00000

 Dipole moment (field-independent basis, Debye):
    X=             -2.5029    Y=             -3.5281    Z=              0.0001  Tot=              4.3257

 Test job not archived.
 1\1\GINC-SE086\SP\RHF\Aug-CC-pVDZ\C2H4F1N1O2\OHZDE\08-Apr-2025\0\\#t h
 f aug-cc-pvdz iop(5/13=1,5/36=2,99/5=2) pseudo=read geom=check guess=(
 read,tcheck) scf=(maxcycle=1)\\title\\0,1\F,0,1.846428,-0.95805,-0.000
 02\O,0,1.411843,0.439886,-0.000005\C,0,0.017732,0.537202,0.000021\O,0,
 -0.377345,1.673436,-0.000007\N,0,-0.66516,-0.614988,0.000014\C,0,-2.12
 1303,-0.638053,0.000005\H,0,-0.139846,-1.474577,0.000018\H,0,-2.477619
 ,0.390253,-0.000013\H,0,-2.499417,-1.144872,0.89092\H,0,-2.499406,-1.1
 449,-0.890898\\Version=ES64L-G16RevC.01\State=1-A\HF=-381.7320547\RMSD

 Normal termination of Gaussian 16 at Tue Apr  8 23:19:58 2025.
