 Gaussian 16, Revision C.01,

 ----------------------------------------------------------------------
 #t hf aug-cc-pvdz symm=none int=(grid=ultrafine) guess=(read,tcheck) s
 table=(opt,rrhf)
 ----------------------------------------------------------------------
 -----
 title
 -----
 Symbolic Z-matrix:
 Charge =  0 Multiplicity = 1

 SCF Done:  E(RHF) =  -939.187138377     A.U. after   16 cycles
 Normal termination of Gaussian 16 at Wed Apr  9 00:04:16 2025.
 Gaussian 16:  ES64L-G16RevC.01  3-Jul-2019

 ----------------------------------------------------------------------
 #t hf aug-cc-pvdz iop(5/13=1,5/36=2,99/5=2) pseudo=read geom=check gue
 ss=(read,tcheck) scf=(maxcycle=1)
 ----------------------------------------------------------------------
 -----
 title
 -----
 Structure from the checkpoint file:  "BDE49_nonexpt_1970_mol1.chk"
 Charge =  0 Multiplicity = 1

                         Standard orientation:
 ---------------------------------------------------------------------
 Center     Atomic      Atomic             Coordinates (Angstroms)
 Number     Number       Type             X           Y           Z
 ---------------------------------------------------------------------
      1         14           0       -0.585587    2.373644   -0.364085
      2          6           0        0.983794    2.209157    0.700089
      3          6           0        1.842035    1.021589    0.341266
      4          6           0        1.653384   -0.208998    0.981023
      5          6           0        2.815199    1.112221   -0.660953
      6          6           0        3.576224   -0.003403   -1.005437
      7          6           0        3.385659   -1.224910   -0.370004
      8          6           0        2.416118   -1.323554    0.629526
      9          1           0        2.980185    2.057330   -1.166388
     10          1           0        4.332454    0.081011   -1.778181
     11          6           0       -1.749996    0.915842   -0.162977
     12          1           0       -0.174502    2.500165   -1.783491
     13          1           0       -1.304866    3.604185    0.050464
     14          6           0       -1.473992   -0.315919   -0.776737
     15          6           0       -2.902910    1.024711    0.628250
     16          6           0       -3.748941   -0.071608    0.799341
     17          6           0       -3.464333   -1.288478    0.192809
     18          6           0       -2.319489   -1.411324   -0.598731
     19          1           0       -3.148337    1.967062    1.105790
     20          1           0       -4.640915    0.023239    1.408989
     21          8           0        2.253040   -2.539808    1.231875
     22          8           0       -2.079951   -2.627502   -1.172166
     23          1           0        3.971992   -2.099084   -0.624482
     24          1           0       -4.111401   -2.148875    0.313990
     25          1           0        0.900241   -0.299992    1.759212
     26          1           0       -0.589756   -0.431285   -1.398604
     27          1           0        1.556619   -2.474147    1.893581
     28          1           0       -1.259273   -2.585272   -1.674579
     29          1           0        0.674644    2.162222    1.749097
     30          1           0        1.549909    3.138956    0.579321
 ---------------------------------------------------------------------

 SCF Done:  E(RHF) =  -939.402192345     A.U. after    2 cycles

 The electronic state is 1-A.
 Alpha  occ. eigenvalues --  -69.06628 -20.60767 -20.60718 -11.31739 -11.31686
 Alpha  occ. eigenvalues --  -11.26589 -11.25396 -11.25292 -11.24947 -11.24585
 Alpha  occ. eigenvalues --  -11.24550 -11.24225 -11.24066 -11.23615 -11.23497
 Alpha  occ. eigenvalues --  -11.23492  -6.81923  -3.92677  -3.92660  -3.92629
 Alpha  occ. eigenvalues --   -1.37065  -1.36949  -1.14551  -1.14027  -1.04393
 Alpha  occ. eigenvalues --   -1.01659  -1.00490  -1.00401  -0.93780  -0.85491
 Alpha  occ. eigenvalues --   -0.85003  -0.82893  -0.80759  -0.74807  -0.74153
 Alpha  occ. eigenvalues --   -0.70285  -0.69000  -0.67302  -0.66187  -0.65443
 Alpha  occ. eigenvalues --   -0.61086  -0.60975  -0.60823  -0.60642  -0.60063
 Alpha  occ. eigenvalues --   -0.58759  -0.58141  -0.56025  -0.54764  -0.52765
 Alpha  occ. eigenvalues --   -0.51981  -0.51179  -0.50066  -0.48909  -0.47190
 Alpha  occ. eigenvalues --   -0.45655  -0.44768  -0.35010  -0.33895  -0.32383
 Alpha  occ. eigenvalues --   -0.31548
 Alpha virt. eigenvalues --    0.02856   0.03569   0.03741   0.04323   0.04809
 Alpha virt. eigenvalues --    0.05031   0.05536   0.05892   0.06460   0.06820
 Alpha virt. eigenvalues --    0.07498   0.07837   0.08000   0.09067   0.09331

 Mulliken charges:
               1
     1  Si   0.308698
     2  C    0.225690
     3  C    0.449086
     4  C    0.958456
     5  C    0.744463
     6  C    0.055723
     7  C    1.173660
     8  C   -0.287942
     9  H   -0.669482
    10  H   -0.463416
    11  C   -1.127346
    12  H    0.125918
    13  H    0.025787
    14  C    1.215044
    15  C    0.913777
    16  C    0.585259
    17  C    1.257003
    18  C   -0.161582
    19  H   -0.656321
    20  H   -0.463081
    21  O   -0.581666
    22  O   -0.559519
    23  H   -0.513052
    24  H   -0.509325
    25  H   -0.771178
    26  H   -0.756577
    27  H    0.131845
    28  H    0.123126
    29  H   -0.341754
    30  H   -0.431294
 Sum of Mulliken charges =   0.00000

 Dipole moment (field-independent basis, Debye):
    X=             -0.1327    Y=              1.3941    Z=              0.6660  Tot=              1.5508

 Test job not archived.
 1\1\GINC-SE461\SP\RHF\Aug-CC-pVDZ\C13H14O2Si1\OHZDE\09-Apr-2025\0\\#t
 hf aug-cc-pvdz iop(5/13=1,5/36=2,99/5=2) pseudo=read geom=check guess=
 (read,tcheck) scf=(maxcycle=1)\\title\\0,1\Si,0,-0.585587,2.373644,-0.
 364085\C,0,0.983794,2.209157,0.700089\C,0,1.842035,1.021589,0.341266\C
 ,0,1.653384,-0.208998,0.981023\C,0,2.815199,1.112221,-0.660953\C,0,3.5
 76224,-0.003403,-1.005437\C,0,3.385659,-1.22491,-0.370004\C,0,2.416118
 ,-1.323554,0.629526\H,0,2.980185,2.05733,-1.166388\H,0,4.332454,0.0810
 11,-1.778181\C,0,-1.749996,0.915842,-0.162977\H,0,-0.174502,2.500165,-

 Normal termination of Gaussian 16 at Wed Apr  9 00:04:53 2025.
