 Gaussian 16, Revision C.01,

 ----------------------------------------------------------------------
 #t hf aug-cc-pvdz symm=none int=(grid=ultrafine) guess=(read,tcheck) s
 table=(opt,rrhf)
 ----------------------------------------------------------------------
 -----
 title
 -----
 Symbolic Z-matrix:
 Charge =  0 Multiplicity = 1

 SCF Done:  E(RHF) =  -1073.01659761     A.U. after   14 cycles
 Normal termination of Gaussian 16 at Tue Apr  8 23:56:19 2025.
 Gaussian 16:  ES64L-G16RevC.01  3-Jul-2019

 ----------------------------------------------------------------------
 #t hf aug-cc-pvdz iop(5/13=1,5/36=2,99/5=2) pseudo=read geom=check gue
 ss=(read,tcheck) scf=(maxcycle=1)
 ----------------------------------------------------------------------
 -----
 title
 -----
 Structure from the checkpoint file:  "BDE49_nonexpt_203_mol1.chk"
 Charge =  0 Multiplicity = 1

                         Standard orientation:
 ---------------------------------------------------------------------
 Center     Atomic      Atomic             Coordinates (Angstroms)
 Number     Number       Type             X           Y           Z
 ---------------------------------------------------------------------
      1         17           0        0.846415    1.556836   -0.019489
      2         17           0        0.852129   -1.553803   -0.019494
      3          5           0        0.029228   -0.000013   -0.003443
      4          7           0       -1.350123   -0.002428    0.290178
      5          8           0       -2.446315   -0.004311   -0.168915
 ---------------------------------------------------------------------

 SCF Done:  E(RHF) =  -1073.10022439     A.U. after    2 cycles

 The electronic state is 1-A.
 Alpha  occ. eigenvalues -- -103.69516-103.69515 -20.70304 -15.78799 -10.72974
 Alpha  occ. eigenvalues --  -10.72940  -8.38664  -8.38655  -8.38410  -8.38408
 Alpha  occ. eigenvalues --   -8.38392  -8.38391  -7.77830  -1.51445  -1.20866
 Alpha  occ. eigenvalues --   -1.17234  -1.03426  -0.79812  -0.73036  -0.67139
 Alpha  occ. eigenvalues --   -0.66840  -0.58986  -0.55304  -0.52229  -0.50577
 Alpha  occ. eigenvalues --   -0.49644  -0.41196
 Alpha virt. eigenvalues --    0.03206   0.04381   0.05110   0.05460   0.05473
 Alpha virt. eigenvalues --    0.09011   0.12146   0.12835   0.13514   0.14549
 Alpha virt. eigenvalues --    0.16551   0.18048   0.18068   0.19607   0.20570

 Mulliken charges:
               1
     1  Cl  -0.259335
     2  Cl  -0.259282
     3  B    0.588141
     4  N    0.242424
     5  O   -0.311947
 Sum of Mulliken charges =  -0.00000

 Dipole moment (field-independent basis, Debye):
    X=              0.8090    Y=              0.0010    Z=             -0.1406  Tot=              0.8211

 Test job not archived.
 1\1\GINC-SE250\SP\RHF\Aug-CC-pVDZ\B1Cl2N1O1\OHZDE\08-Apr-2025\0\\#t hf
  aug-cc-pvdz iop(5/13=1,5/36=2,99/5=2) pseudo=read geom=check guess=(r
 ead,tcheck) scf=(maxcycle=1)\\title\\0,1\Cl,0,-0.846424,-1.55683,-0.01
 9489\Cl,0,-0.852119,1.553809,-0.019494\B,0,-0.029228,0.000013,-0.00344
 3\N,0,1.350123,0.00242,0.290178\O,0,2.446315,0.004296,-0.168915\\Versi
 on=ES64L-G16RevC.01\State=1-A\HF=-1073.1002244\RMSD=2.805e-03\Dipole=-
 0.3182695,-0.0003965,-0.0553176\Quadrupole=-2.4949809,1.3710526,1.1239
 283,-0.0068801,-0.0175321,-0.0000506\PG=C01 [X(B1Cl2N1O1)]\\@

 Normal termination of Gaussian 16 at Tue Apr  8 23:56:21 2025.
