 Gaussian 16, Revision C.01,

 ----------------------------------------------------------------------
 #t hf aug-cc-pvdz symm=none int=(grid=ultrafine) guess=(read,tcheck) s
 table=(opt,rrhf)
 ----------------------------------------------------------------------
 -----
 title
 -----
 Symbolic Z-matrix:
 Charge =  0 Multiplicity = 1

 SCF Done:  E(RHF) =  -385.338009904     A.U. after   11 cycles
 Normal termination of Gaussian 16 at Tue Apr  8 23:55:18 2025.
 Gaussian 16:  ES64L-G16RevC.01  3-Jul-2019

 ----------------------------------------------------------------------
 #t hf aug-cc-pvdz iop(5/13=1,5/36=2,99/5=2) pseudo=read geom=check gue
 ss=(read,tcheck) scf=(maxcycle=1)
 ----------------------------------------------------------------------
 -----
 title
 -----
 Structure from the checkpoint file:  "BDE49_nonexpt_2011_mol1.chk"
 Charge =  0 Multiplicity = 1

                         Standard orientation:
 ---------------------------------------------------------------------
 Center     Atomic      Atomic             Coordinates (Angstroms)
 Number     Number       Type             X           Y           Z
 ---------------------------------------------------------------------
      1          7           0        0.484146    0.541387   -0.066060
      2         14           0       -1.109883   -0.103721    0.004343
      3          6           0        1.704198   -0.255778    0.017658
      4          1           0        0.611562    1.502779    0.215423
      5          1           0        1.544184   -1.221252   -0.470665
      6          1           0        2.031938   -0.456112    1.047439
      7          1           0        2.526046    0.237829   -0.510118
      8          1           0       -1.256238   -1.145080   -1.041587
      9          1           0       -2.041077    1.021373   -0.240926
     10          1           0       -1.492262   -0.742482    1.296108
 ---------------------------------------------------------------------

 SCF Done:  E(RHF) =  -385.399106745     A.U. after    2 cycles

 The electronic state is 1-A.
 Alpha  occ. eigenvalues --  -69.07083 -15.59934 -11.26576  -6.82115  -3.92995
 Alpha  occ. eigenvalues --   -3.92918  -3.92849  -1.13414  -0.89850  -0.71305
 Alpha  occ. eigenvalues --   -0.63366  -0.59380  -0.56715  -0.50610  -0.47767
 Alpha  occ. eigenvalues --   -0.47268  -0.36838
 Alpha virt. eigenvalues --    0.03320   0.04642   0.04851   0.05229   0.07174
 Alpha virt. eigenvalues --    0.07779   0.07965   0.09104   0.09708   0.10774
 Alpha virt. eigenvalues --    0.13032   0.15436   0.16196   0.16681   0.17511

 Mulliken charges:
               1
     1  N   -0.554429
     2  Si   0.543765
     3  C    0.746221
     4  H   -0.115404
     5  H   -0.199171
     6  H   -0.103752
     7  H   -0.174087
     8  H   -0.033640
     9  H   -0.025698
    10  H   -0.083805
 Sum of Mulliken charges =   0.00000

 Dipole moment (field-independent basis, Debye):
    X=              1.0786    Y=              0.4398    Z=              0.4326  Tot=              1.2426

 Test job not archived.
 1\1\GINC-SE250\SP\RHF\Aug-CC-pVDZ\C1H7N1Si1\OHZDE\08-Apr-2025\0\\#t hf
  aug-cc-pvdz iop(5/13=1,5/36=2,99/5=2) pseudo=read geom=check guess=(r
 ead,tcheck) scf=(maxcycle=1)\\title\\0,1\N,0,0.484146,0.541387,-0.0660
 6\Si,0,-1.109883,-0.103721,0.004343\C,0,1.704198,-0.255778,0.017658\H,
 0,0.611562,1.502779,0.215423\H,0,1.544184,-1.221252,-0.470665\H,0,2.03
 1938,-0.456112,1.047439\H,0,2.526046,0.237829,-0.510118\H,0,-1.256238,
 -1.14508,-1.041587\H,0,-2.041077,1.021373,-0.240926\H,0,-1.492262,-0.7
 42482,1.296108\\Version=ES64L-G16RevC.01\State=1-A\HF=-385.3991067\RMS

 Normal termination of Gaussian 16 at Tue Apr  8 23:55:21 2025.
