 Gaussian 16, Revision C.01,

 ----------------------------------------------------------------------
 #t hf aug-cc-pvdz symm=none int=(grid=ultrafine) guess=(read,tcheck) s
 table=(opt,rrhf)
 ----------------------------------------------------------------------
 -----
 title
 -----
 Symbolic Z-matrix:
 Charge =  0 Multiplicity = 1

 SCF Done:  E(RHF) =  -483.324481935     A.U. after   11 cycles
 Normal termination of Gaussian 16 at Tue Apr  8 22:55:53 2025.
 Gaussian 16:  ES64L-G16RevC.01  3-Jul-2019

 ----------------------------------------------------------------------
 #t hf aug-cc-pvdz iop(5/13=1,5/36=2,99/5=2) pseudo=read geom=check gue
 ss=(read,tcheck) scf=(maxcycle=1)
 ----------------------------------------------------------------------
 -----
 title
 -----
 Structure from the checkpoint file:  "BDE49_expt_1907_mol1.chk"
 Charge =  0 Multiplicity = 1

                         Standard orientation:
 ---------------------------------------------------------------------
 Center     Atomic      Atomic             Coordinates (Angstroms)
 Number     Number       Type             X           Y           Z
 ---------------------------------------------------------------------
      1         14           0       -0.005675    0.000000    0.034460
      2          8           0       -0.185097   -0.000005    1.692279
      3          1           0        0.602338   -0.000007    2.240199
      4          6           0        0.925836    1.532046   -0.526855
      5          1           0        0.411408    2.444524   -0.211422
      6          1           0        1.013593    1.558314   -1.618055
      7          1           0        1.941442    1.561814   -0.118434
      8          6           0       -1.753643   -0.000011   -0.626006
      9          1           0       -2.298708    0.883891   -0.283182
     10          1           0       -2.298695   -0.883924   -0.283188
     11          1           0       -1.765988   -0.000008   -1.720329
     12          6           0        0.925859   -1.532031   -0.526861
     13          1           0        1.941465   -1.561785   -0.118440
     14          1           0        1.013617   -1.558291   -1.618061
     15          1           0        0.411443   -2.444518   -0.211432
 ---------------------------------------------------------------------

 SCF Done:  E(RHF) =  -483.423408469     A.U. after    2 cycles

 The electronic state is 1-A.
 Alpha  occ. eigenvalues --  -69.06998 -20.55518 -11.20805 -11.20801 -11.20419
 Alpha  occ. eigenvalues --   -6.81794  -3.92736  -3.92586  -3.92562  -1.28411
 Alpha  occ. eigenvalues --   -0.95695  -0.91921  -0.91797  -0.72565  -0.60537
 Alpha  occ. eigenvalues --   -0.57490  -0.57151  -0.56133  -0.55091  -0.53836
 Alpha  occ. eigenvalues --   -0.53112  -0.51867  -0.51701  -0.42881  -0.42180
 Alpha virt. eigenvalues --    0.02795   0.04646   0.04942   0.05101   0.06673
 Alpha virt. eigenvalues --    0.06910   0.06971   0.07310   0.07576   0.09252
 Alpha virt. eigenvalues --    0.10036   0.10410   0.12178   0.12755   0.14816

 Mulliken charges:
               1
     1  Si   1.970384
     2  O   -0.860408
     3  H    0.089579
     4  C    0.431172
     5  H   -0.318707
     6  H   -0.238702
     7  H   -0.306815
     8  C    0.444441
     9  H   -0.266494
    10  H   -0.266492
    11  H   -0.244907
    12  C    0.431171
    13  H   -0.306816
    14  H   -0.238702
    15  H   -0.318705
 Sum of Mulliken charges =  -0.00000

 Dipole moment (field-independent basis, Debye):
    X=              1.3896    Y=              0.0000    Z=             -0.4984  Tot=              1.4763

 Test job not archived.
 1\1\GINC-SE041\SP\RHF\Aug-CC-pVDZ\C3H10O1Si1\OHZDE\08-Apr-2025\0\\#t h
 f aug-cc-pvdz iop(5/13=1,5/36=2,99/5=2) pseudo=read geom=check guess=(
 read,tcheck) scf=(maxcycle=1)\\title\\0,1\Si,0,-0.005675,0.,0.03446\O,
 0,-0.185097,-0.000005,1.692279\H,0,0.602338,-0.000007,2.240199\C,0,0.9
 25837,1.532046,-0.526855\H,0,0.411409,2.444524,-0.211422\H,0,1.013594,
 1.558313,-1.618055\H,0,1.941443,1.561813,-0.118434\C,0,-1.753643,-0.00
 001,-0.626006\H,0,-2.298708,0.883892,-0.283182\H,0,-2.298695,-0.883923
 ,-0.283188\H,0,-1.765988,-0.000007,-1.720329\C,0,0.925858,-1.532031,-0

 Normal termination of Gaussian 16 at Tue Apr  8 22:55:58 2025.
