 Gaussian 16, Revision C.01,

 ----------------------------------------------------------------------
 #t hf aug-cc-pvdz symm=none int=(grid=ultrafine) guess=(read,tcheck) s
 table=opt
 ----------------------------------------------------------------------
 -----
 title
 -----
 Symbolic Z-matrix:
 Charge =  0 Multiplicity = 2

 SCF Done:  E(UHF) =  -809.720020817     A.U. after   16 cycles
 Normal termination of Gaussian 16 at Tue Apr  8 22:42:06 2025.
 Gaussian 16:  ES64L-G16RevC.01  3-Jul-2019

 ----------------------------------------------------------------------
 #t hf aug-cc-pvdz iop(5/13=1,5/36=2,99/5=2) pseudo=read geom=check gue
 ss=(read,tcheck) scf=(maxcycle=1)
 ----------------------------------------------------------------------
 -----
 title
 -----
 Structure from the checkpoint file:  "BDE49_expt_143_mol2.chk"
 Charge =  0 Multiplicity = 2

                         Standard orientation:
 ---------------------------------------------------------------------
 Center     Atomic      Atomic             Coordinates (Angstroms)
 Number     Number       Type             X           Y           Z
 ---------------------------------------------------------------------
      1          6           0        1.177707    0.197340   -0.103003
      2          6           0       -0.192495   -0.490576    0.125715
      3          9           0        1.275204    1.311132    0.629775
      4          9           0        1.316085    0.518160   -1.396491
      5          9           0        2.162525   -0.633681    0.242691
      6          6           0       -1.370718    0.328041   -0.358124
      7          9           0       -0.301173   -0.762269    1.458899
      8          9           0       -0.193185   -1.665592   -0.542813
      9          9           0       -1.480780    1.533104    0.182021
     10          9           0       -2.521672   -0.324058   -0.350473
 ---------------------------------------------------------------------

 SCF Done:  E(UHF) =  -810.010540296     A.U. after    2 cycles

 The electronic state is 2-A.
 Alpha  occ. eigenvalues --  -26.20637 -26.20632 -26.20483 -26.20431 -26.20321
 Alpha  occ. eigenvalues --  -26.19917 -26.19563 -11.57510 -11.51000 -11.48961
 Alpha  occ. eigenvalues --   -1.80480  -1.78145  -1.76133  -1.73416  -1.73234
 Alpha  occ. eigenvalues --   -1.73060  -1.71668  -1.16507  -1.07442  -1.00374
 Alpha  occ. eigenvalues --   -0.93800  -0.93079  -0.92739  -0.89951  -0.89555
 Alpha  occ. eigenvalues --   -0.87937  -0.85838  -0.82135  -0.81444  -0.80699
 Alpha  occ. eigenvalues --   -0.80287  -0.79872  -0.78792  -0.76949  -0.76615
 Alpha  occ. eigenvalues --   -0.75936  -0.75376  -0.74962  -0.71379  -0.62856
 Alpha  occ. eigenvalues --   -0.49757
 Alpha virt. eigenvalues --    0.06596   0.07338   0.07718   0.08430   0.10645
 Alpha virt. eigenvalues --    0.10946   0.11291   0.12429   0.13462   0.14914
 Alpha virt. eigenvalues --    0.19038   0.19849   0.20318   0.22051   0.24383

  Beta  occ. eigenvalues --  -26.20623 -26.20427 -26.20330 -26.20175 -26.20022
  Beta  occ. eigenvalues --  -26.19940 -26.19326 -11.57521 -11.50990 -11.46055
  Beta  occ. eigenvalues --   -1.80453  -1.76837  -1.75684  -1.73276  -1.73091
  Beta  occ. eigenvalues --   -1.72100  -1.71249  -1.15044  -1.05419  -0.99024
  Beta  occ. eigenvalues --   -0.93221  -0.92918  -0.92574  -0.89405  -0.88229
  Beta  occ. eigenvalues --   -0.86281  -0.81960  -0.81388  -0.81035  -0.80628
  Beta  occ. eigenvalues --   -0.79746  -0.78445  -0.77061  -0.76525  -0.76178
  Beta  occ. eigenvalues --   -0.75673  -0.75250  -0.74835  -0.70136  -0.61802
  Beta virt. eigenvalues --    0.04253   0.07333   0.07599   0.07773   0.09375
  Beta virt. eigenvalues --    0.10784   0.11112   0.11383   0.12470   0.13755
  Beta virt. eigenvalues --    0.15002   0.19421   0.20719   0.20748   0.23328

 Mulliken charges and spin densities:
               1          2
     1  C    0.914239  -0.000859
     2  C    0.704449  -0.072755
     3  F   -0.281184   0.000331
     4  F   -0.288385  -0.001273
     5  F   -0.263922  -0.000903
     6  C    0.535045   1.011478
     7  F   -0.378522   0.020912
     8  F   -0.354797  -0.003961
     9  F   -0.300486   0.023906
    10  F   -0.286439   0.023124
 Sum of Mulliken charges =  -0.00000   1.00000

 Dipole moment (field-independent basis, Debye):
    X=             -0.0927    Y=              0.3545    Z=             -0.7212  Tot=              0.8089
                          Isotropic Fermi Contact Couplings
        Atom                 a.u.       MegaHertz       Gauss      10(-4) cm-1
     1  C(13)             -0.00306      -3.44422      -1.22898      -1.14887
     2  C(13)              0.02067      23.23283       8.29005       7.74964
     3  F(19)              0.00046       1.94084       0.69254       0.64740
     4  F(19)              0.00319      13.40496       4.78322       4.47141
     5  F(19)             -0.00147      -6.20200      -2.21303      -2.06876
     6  C(13)              0.47771     537.03322     191.62681     179.13500
     7  F(19)              0.03539     148.89999      53.13122      49.66769
     8  F(19)             -0.00421     -17.69600      -6.31437      -5.90275

 Normal termination of Gaussian 16 at Tue Apr  8 22:42:12 2025.
