 Gaussian 16, Revision C.01,

 ----------------------------------------------------------------------
 #t hf aug-cc-pvdz symm=none int=(grid=ultrafine) guess=(read,tcheck) s
 table=(opt,rrhf)
 ----------------------------------------------------------------------
 -----
 title
 -----
 Symbolic Z-matrix:
 Charge =  0 Multiplicity = 1

 SCF Done:  E(RHF) =  -734.994679511     A.U. after   15 cycles
 Normal termination of Gaussian 16 at Wed Apr  9 00:47:50 2025.
 Gaussian 16:  ES64L-G16RevC.01  3-Jul-2019

 ----------------------------------------------------------------------
 #t hf aug-cc-pvdz iop(5/13=1,5/36=2,99/5=2) pseudo=read geom=check gue
 ss=(read,tcheck) scf=(maxcycle=1)
 ----------------------------------------------------------------------
 -----
 title
 -----
 Structure from the checkpoint file:  "BDE49_nonexpt_834_mol1.chk"
 Charge =  0 Multiplicity = 1

                         Standard orientation:
 ---------------------------------------------------------------------
 Center     Atomic      Atomic             Coordinates (Angstroms)
 Number     Number       Type             X           Y           Z
 ---------------------------------------------------------------------
      1          6           0        2.364282    0.928199   -0.675027
      2          6           0        1.040897    1.333473   -0.518724
      3          6           0        2.842916   -0.232146   -0.059632
      4          6           0        1.948522   -0.977840    0.715601
      5          6           0        0.625440   -0.573438    0.871518
      6          6           0        0.137125    0.595001    0.260060
      7          1           0        3.036311    1.522968   -1.286167
      8          1           0        0.708062    2.240451   -1.013287
      9          5           0       -2.840720   -0.432596   -0.230058
     10          8           0       -2.305542   -1.569304   -0.773874
     11          8           0       -4.194761   -0.333782   -0.141869
     12          1           0        2.292359   -1.884648    1.203902
     13          6           0        4.285132   -0.653075   -0.202770
     14          1           0        4.715231   -0.291624   -1.139440
     15          1           0        4.388206   -1.740489   -0.178260
     16          1           0        4.892985   -0.249164    0.614328
     17          1           0       -0.032430   -1.177775    1.490973
     18          1           0       -4.640707   -1.113454   -0.498194
     19          1           0       -1.343386   -1.554028   -0.810756
     20         14           0       -1.672845    1.097535    0.444375
     21          1           0       -1.972881    1.408059    1.866554
     22          1           0       -1.883790    2.340845   -0.340816
 ---------------------------------------------------------------------

 SCF Done:  E(RHF) =  -735.156459464     A.U. after    2 cycles

 The electronic state is 1-A.
 Alpha  occ. eigenvalues --  -69.04757 -20.58655 -20.58138 -11.26072 -11.25492
 Alpha  occ. eigenvalues --  -11.25256 -11.24738 -11.24576 -11.24208 -11.23496
 Alpha  occ. eigenvalues --   -7.65907  -6.80256  -3.91015  -3.90985  -3.90917
 Alpha  occ. eigenvalues --   -1.34639  -1.30903  -1.14891  -1.04276  -1.01389
 Alpha  occ. eigenvalues --   -0.93628  -0.83446  -0.80706  -0.78527  -0.75433
 Alpha  occ. eigenvalues --   -0.71594  -0.65692  -0.64890  -0.63498  -0.61841
 Alpha  occ. eigenvalues --   -0.59386  -0.59022  -0.58562  -0.58438  -0.55038
 Alpha  occ. eigenvalues --   -0.53748  -0.52258  -0.50356  -0.49448  -0.46867
 Alpha  occ. eigenvalues --   -0.45181  -0.41634  -0.34709  -0.33213
 Alpha virt. eigenvalues --    0.02998   0.03717   0.04019   0.04651   0.05160
 Alpha virt. eigenvalues --    0.05593   0.05994   0.06830   0.07131   0.07284
 Alpha virt. eigenvalues --    0.07866   0.07971   0.08849   0.09584   0.09778

 Mulliken charges:
               1
     1  C    0.964669
     2  C    0.226843
     3  C   -0.388119
     4  C    0.820647
     5  C    0.694361
     6  C   -0.274995
     7  H   -0.587302
     8  H   -0.619560
     9  B    1.044964
    10  O   -0.531846
    11  O   -0.495891
    12  H   -0.588670
    13  C    0.561551
    14  H   -0.097906
    15  H   -0.075775
    16  H    0.093988
    17  H   -0.680727
    18  H    0.193018
    19  H    0.226641
    20  Si  -0.741971
    21  H    0.191655
    22  H    0.064425
 Sum of Mulliken charges =  -0.00000

 Dipole moment (field-independent basis, Debye):
    X=              2.3179    Y=             -1.1011    Z=             -0.5568  Tot=              2.6259

 Test job not archived.
 1\1\GINC-SE127\SP\RHF\Aug-CC-pVDZ\C7H11B1O2Si1\OHZDE\09-Apr-2025\0\\#t
  hf aug-cc-pvdz iop(5/13=1,5/36=2,99/5=2) pseudo=read geom=check guess
 =(read,tcheck) scf=(maxcycle=1)\\title\\0,1\C,0,2.364282,0.928199,-0.6
 75027\C,0,1.040897,1.333473,-0.518724\C,0,2.842916,-0.232146,-0.059632
 \C,0,1.948522,-0.97784,0.715601\C,0,0.62544,-0.573438,0.871518\C,0,0.1
 37125,0.595001,0.26006\H,0,3.036311,1.522968,-1.286167\H,0,0.708062,2.
 240451,-1.013287\B,0,-2.84072,-0.432596,-0.230058\O,0,-2.305542,-1.569
 304,-0.773874\O,0,-4.194761,-0.333782,-0.141869\H,0,2.292359,-1.884648

 Normal termination of Gaussian 16 at Wed Apr  9 00:48:06 2025.
