 Gaussian 16, Revision C.01,

 ----------------------------------------------------------------------
 #t hf aug-cc-pvdz symm=none int=(grid=ultrafine) guess=(read,tcheck) s
 table=(opt,rrhf)
 ----------------------------------------------------------------------
 -----
 title
 -----
 Symbolic Z-matrix:
 Charge =  0 Multiplicity = 1

 SCF Done:  E(RHF) =  -564.310698082     A.U. after   16 cycles
 Normal termination of Gaussian 16 at Tue Apr  8 22:39:48 2025.
 Gaussian 16:  ES64L-G16RevC.01  3-Jul-2019

 ----------------------------------------------------------------------
 #t hf aug-cc-pvdz iop(5/13=1,5/36=2,99/5=2) pseudo=read geom=check gue
 ss=(read,tcheck) scf=(maxcycle=1)
 ----------------------------------------------------------------------
 -----
 title
 -----
 Structure from the checkpoint file:  "BDE49_expt_1265_mol1.chk"
 Charge =  0 Multiplicity = 1

                         Standard orientation:
 ---------------------------------------------------------------------
 Center     Atomic      Atomic             Coordinates (Angstroms)
 Number     Number       Type             X           Y           Z
 ---------------------------------------------------------------------
      1          6           0       -0.291694   -0.145799   -0.435187
      2          7           0       -1.457786   -1.033384    0.018958
      3          7           0       -0.643232    1.288106   -0.056062
      4          8           0       -1.353016   -2.202394   -0.304122
      5          8           0       -2.369413   -0.524735    0.635533
      6          8           0       -0.334974    1.666615    1.057883
      7          8           0       -1.207480    1.938410   -0.917049
      8          1           0       -0.313678   -0.177435   -1.522158
      9          6           0        1.016809   -0.615033    0.170788
     10          6           0        2.235477    0.136855   -0.381892
     11          1           0        1.097502   -1.681728   -0.051321
     12          1           0        0.955923   -0.498487    1.255580
     13          6           0        3.545633   -0.394153    0.206023
     14          1           0        2.142908    1.203350   -0.155879
     15          1           0        2.256949    0.043852   -1.473746
     16          1           0        3.563063   -0.283321    1.293793
     17          1           0        4.401992    0.150529   -0.197599
     18          1           0        3.684175   -1.454209   -0.025292
 ---------------------------------------------------------------------

 SCF Done:  E(RHF) =  -564.482970640     A.U. after    2 cycles

 The electronic state is 1-A.
 Alpha  occ. eigenvalues --  -20.65629 -20.64978 -20.64952 -20.64846 -15.95184
 Alpha  occ. eigenvalues --  -15.94446 -11.40748 -11.29019 -11.27135 -11.25230
 Alpha  occ. eigenvalues --   -1.59277  -1.57612  -1.40685  -1.39979  -1.18309
 Alpha  occ. eigenvalues --   -1.07912  -0.97242  -0.96915  -0.86355  -0.84751
 Alpha  occ. eigenvalues --   -0.82217  -0.79828  -0.77025  -0.75946  -0.75342
 Alpha  occ. eigenvalues --   -0.72338  -0.67117  -0.64154  -0.60310  -0.58137
 Alpha  occ. eigenvalues --   -0.55964  -0.55581  -0.54420  -0.52887  -0.52134
 Alpha  occ. eigenvalues --   -0.51550  -0.50981  -0.50452  -0.49335
 Alpha virt. eigenvalues --    0.02542   0.03319   0.04093   0.04893   0.05074
 Alpha virt. eigenvalues --    0.05480   0.06536   0.06936   0.07592   0.08249
 Alpha virt. eigenvalues --    0.10532   0.11872   0.12683   0.13182   0.13623

 Mulliken charges:
               1
     1  C    1.693360
     2  N    0.316730
     3  N    0.268629
     4  O   -0.577634
     5  O   -0.521429
     6  O   -0.550112
     7  O   -0.553997
     8  H   -0.208810
     9  C    0.011748
    10  C    0.220017
    11  H   -0.032238
    12  H   -0.054709
    13  C    0.387634
    14  H   -0.123072
    15  H   -0.111945
    16  H   -0.047229
    17  H   -0.045961
    18  H   -0.070980
 Sum of Mulliken charges =  -0.00000

 Dipole moment (field-independent basis, Debye):
    X=              4.7240    Y=             -1.3570    Z=             -1.5507  Tot=              5.1538

 Test job not archived.
 1\1\GINC-SE009\SP\RHF\Aug-CC-pVDZ\C4H8N2O4\OHZDE\08-Apr-2025\0\\#t hf
 aug-cc-pvdz iop(5/13=1,5/36=2,99/5=2) pseudo=read geom=check guess=(re
 ad,tcheck) scf=(maxcycle=1)\\title\\0,1\C,0,-0.291694,-0.145799,-0.435
 187\N,0,-1.457786,-1.033384,0.018958\N,0,-0.643232,1.288106,-0.056062\
 O,0,-1.353016,-2.202394,-0.304122\O,0,-2.369413,-0.524735,0.635533\O,0
 ,-0.334974,1.666615,1.057883\O,0,-1.20748,1.93841,-0.917049\H,0,-0.313
 678,-0.177435,-1.522158\C,0,1.016809,-0.615033,0.170788\C,0,2.235477,0
 .136855,-0.381892\H,0,1.097502,-1.681728,-0.051321\H,0,0.955923,-0.498

 Normal termination of Gaussian 16 at Tue Apr  8 22:39:57 2025.
