 Gaussian 16, Revision C.01,

 ----------------------------------------------------------------------
 #t hf aug-cc-pvdz symm=none int=(grid=ultrafine) guess=(read,tcheck) s
 table=(opt,rrhf)
 ----------------------------------------------------------------------
 -----
 title
 -----
 Symbolic Z-matrix:
 Charge =  0 Multiplicity = 1

 SCF Done:  E(RHF) =  -995.800796558     A.U. after   14 cycles
 Normal termination of Gaussian 16 at Tue Apr  8 23:46:53 2025.
 Gaussian 16:  ES64L-G16RevC.01  3-Jul-2019

 ----------------------------------------------------------------------
 #t hf aug-cc-pvdz iop(5/13=1,5/36=2,99/5=2) pseudo=read geom=check gue
 ss=(read,tcheck) scf=(maxcycle=1)
 ----------------------------------------------------------------------
 -----
 title
 -----
 Structure from the checkpoint file:  "BDE49_nonexpt_1796_mol1.chk"
 Charge =  0 Multiplicity = 1

                         Standard orientation:
 ---------------------------------------------------------------------
 Center     Atomic      Atomic             Coordinates (Angstroms)
 Number     Number       Type             X           Y           Z
 ---------------------------------------------------------------------
      1          6           0       -2.073919    1.429524   -0.000000
      2          6           0       -0.717140    1.113447   -0.000002
      3          6           0       -3.003015    0.395019    0.000004
      4          6           0       -2.537839   -0.920043    0.000007
      5          7           0       -1.242037   -1.235123    0.000005
      6          6           0       -0.341840   -0.231569    0.000001
      7          1           0       -2.398856    2.464016   -0.000002
      8          1           0        0.037698    1.890707   -0.000005
      9         14           0        1.403915   -0.919695   -0.000000
     10         17           0        2.790785    0.649495   -0.000006
     11          1           0       -4.067831    0.595870    0.000006
     12          1           0       -3.234754   -1.753384    0.000010
     13          1           0        1.651179   -1.717649   -1.213883
     14          1           0        1.651183   -1.717643    1.213886
 ---------------------------------------------------------------------

 SCF Done:  E(RHF) =  -995.913547388     A.U. after    2 cycles

 The electronic state is 1-A.
 Alpha  occ. eigenvalues -- -103.64849 -69.11380 -15.64644 -11.29710 -11.28510
 Alpha  occ. eigenvalues --  -11.27923 -11.26546 -11.26404 -10.68287  -8.33977
 Alpha  occ. eigenvalues --   -8.33765  -8.33753  -6.86255  -3.97110  -3.96942
 Alpha  occ. eigenvalues --   -3.96910  -1.24094  -1.13157  -1.08759  -1.03692
 Alpha  occ. eigenvalues --   -0.86928  -0.86264  -0.74266  -0.69144  -0.67742
 Alpha  occ. eigenvalues --   -0.64548  -0.59695  -0.57638  -0.56216  -0.52601
 Alpha  occ. eigenvalues --   -0.52131  -0.50476  -0.46561  -0.45510  -0.41550
 Alpha  occ. eigenvalues --   -0.39413  -0.36075
 Alpha virt. eigenvalues --    0.02817   0.03871   0.04266   0.05717   0.05825
 Alpha virt. eigenvalues --    0.06138   0.07124   0.07160   0.08210   0.09092
 Alpha virt. eigenvalues --    0.10119   0.11414   0.11587   0.12382   0.13925

 Mulliken charges:
               1
     1  C   -0.230689
     2  C    1.044744
     3  C    0.886156
     4  C    0.511286
     5  N   -0.399183
     6  C   -0.157622
     7  H   -0.404184
     8  H   -0.505532
     9  Si   0.473852
    10  Cl  -0.547094
    11  H   -0.401668
    12  H   -0.373366
    13  H    0.051650
    14  H    0.051650
 Sum of Mulliken charges =  -0.00000

 Dipole moment (field-independent basis, Debye):
    X=             -2.8662    Y=              0.9465    Z=              0.0000  Tot=              3.0184

 Test job not archived.
 1\1\GINC-SE127\SP\RHF\Aug-CC-pVDZ\C5H6Cl1N1Si1\OHZDE\08-Apr-2025\0\\#t
  hf aug-cc-pvdz iop(5/13=1,5/36=2,99/5=2) pseudo=read geom=check guess
 =(read,tcheck) scf=(maxcycle=1)\\title\\0,1\C,0,-2.073919,1.429524,0.\
 C,0,-0.71714,1.113447,-0.000002\C,0,-3.003015,0.395019,0.000004\C,0,-2
 .537839,-0.920043,0.000007\N,0,-1.242037,-1.235123,0.000005\C,0,-0.341
 84,-0.231569,0.000001\H,0,-2.398856,2.464016,-0.000002\H,0,0.037698,1.
 890707,-0.000005\Si,0,1.403915,-0.919695,0.\Cl,0,2.790785,0.649495,-0.
 000006\H,0,-4.067831,0.59587,0.000006\H,0,-3.234754,-1.753384,0.00001\

 Normal termination of Gaussian 16 at Tue Apr  8 23:46:59 2025.
