 Gaussian 16, Revision C.01,

 ----------------------------------------------------------------------
 #t hf aug-cc-pvdz symm=none int=(grid=ultrafine) guess=(read,tcheck) s
 table=(opt,rrhf)
 ----------------------------------------------------------------------
 -----
 title
 -----
 Symbolic Z-matrix:
 Charge =  0 Multiplicity = 1

 SCF Done:  E(RHF) =  -1163.21084676     A.U. after   14 cycles
 Normal termination of Gaussian 16 at Tue Apr  8 23:57:00 2025.
 Gaussian 16:  ES64L-G16RevC.01  3-Jul-2019

 ----------------------------------------------------------------------
 #t hf aug-cc-pvdz iop(5/13=1,5/36=2,99/5=2) pseudo=read geom=check gue
 ss=(read,tcheck) scf=(maxcycle=1)
 ----------------------------------------------------------------------
 -----
 title
 -----
 Structure from the checkpoint file:  "BDE49_nonexpt_2056_mol1.chk"
 Charge =  0 Multiplicity = 1

                         Standard orientation:
 ---------------------------------------------------------------------
 Center     Atomic      Atomic             Coordinates (Angstroms)
 Number     Number       Type             X           Y           Z
 ---------------------------------------------------------------------
      1         14           0       -2.047423   -0.591827   -0.000008
      2          6           0       -0.278237    0.108166   -0.000089
      3         16           0       -0.087399    1.742111    0.000048
      4         16           0        0.978136   -1.085441   -0.000014
      5          6           0        2.516774   -0.123203    0.000007
      6          1           0        3.327812   -0.851752    0.000060
      7          1           0        2.565583    0.503012    0.890322
      8          1           0        2.565645    0.502953   -0.890347
      9          1           0       -2.731948   -0.105497    1.214051
     10          1           0       -2.014119   -2.074130   -0.000012
     11          1           0       -2.732053   -0.105493   -1.214006
 ---------------------------------------------------------------------

 SCF Done:  E(RHF) =  -1163.29736202     A.U. after    2 cycles

 The electronic state is 1-A.
 Alpha  occ. eigenvalues --  -93.57542 -93.52025 -69.08604 -11.34260 -11.28136
 Alpha  occ. eigenvalues --   -8.87339  -8.81872  -6.83880  -6.21478  -6.21213
 Alpha  occ. eigenvalues --   -6.20958  -6.16014  -6.15643  -6.15452  -3.94690
 Alpha  occ. eigenvalues --   -3.94634  -3.94617  -1.10476  -1.00470  -0.90137
 Alpha  occ. eigenvalues --   -0.76211  -0.67045  -0.61477  -0.60973  -0.55903
 Alpha  occ. eigenvalues --   -0.52342  -0.51132  -0.48985  -0.45518  -0.44990
 Alpha  occ. eigenvalues --   -0.34604  -0.33326
 Alpha virt. eigenvalues --    0.03166   0.03360   0.04251   0.05720   0.05748
 Alpha virt. eigenvalues --    0.06244   0.06972   0.07326   0.08625   0.09873
 Alpha virt. eigenvalues --    0.10231   0.10772   0.12828   0.13661   0.14208

 Mulliken charges:
               1
     1  Si   0.473027
     2  C   -0.698518
     3  S    0.000451
     4  S    0.418926
     5  C    0.063149
     6  H   -0.106429
     7  H   -0.019942
     8  H   -0.019950
     9  H   -0.017339
    10  H   -0.076037
    11  H   -0.017337
 Sum of Mulliken charges =  -0.00000

 Dipole moment (field-independent basis, Debye):
    X=              1.2969    Y=             -1.5630    Z=              0.0000  Tot=              2.0310

 Test job not archived.
 1\1\GINC-SE094\SP\RHF\Aug-CC-pVDZ\C2H6S2Si1\OHZDE\08-Apr-2025\0\\#t hf
  aug-cc-pvdz iop(5/13=1,5/36=2,99/5=2) pseudo=read geom=check guess=(r
 ead,tcheck) scf=(maxcycle=1)\\title\\0,1\Si,0,-2.047423,-0.591827,-0.0
 00008\C,0,-0.278237,0.108166,-0.000089\S,0,-0.087399,1.742111,0.000048
 \S,0,0.978136,-1.085441,-0.000014\C,0,2.516774,-0.123203,0.000007\H,0,
 3.327812,-0.851752,0.00006\H,0,2.565583,0.503012,0.890322\H,0,2.565645
 ,0.502953,-0.890347\H,0,-2.731948,-0.105497,1.214051\H,0,-2.014119,-2.
 07413,-0.000012\H,0,-2.732053,-0.105493,-1.214006\\Version=ES64L-G16Re

 Normal termination of Gaussian 16 at Tue Apr  8 23:57:04 2025.
