 Gaussian 16, Revision C.01,

 ----------------------------------------------------------------------
 #t hf aug-cc-pvdz symm=none int=(grid=ultrafine) guess=(read,tcheck) s
 table=(opt,rrhf)
 ----------------------------------------------------------------------
 -----
 title
 -----
 Symbolic Z-matrix:
 Charge =  0 Multiplicity = 1

 SCF Done:  E(RHF) =  -845.005889255     A.U. after   12 cycles
 Normal termination of Gaussian 16 at Wed Apr  9 00:13:09 2025.
 Gaussian 16:  ES64L-G16RevC.01  3-Jul-2019

 ----------------------------------------------------------------------
 #t hf aug-cc-pvdz iop(5/13=1,5/36=2,99/5=2) pseudo=read geom=check gue
 ss=(read,tcheck) scf=(maxcycle=1)
 ----------------------------------------------------------------------
 -----
 title
 -----
 Structure from the checkpoint file:  "BDE49_nonexpt_2472_mol1.chk"
 Charge =  0 Multiplicity = 1

                         Standard orientation:
 ---------------------------------------------------------------------
 Center     Atomic      Atomic             Coordinates (Angstroms)
 Number     Number       Type             X           Y           Z
 ---------------------------------------------------------------------
      1         14           0        0.265513   -0.391203   -0.007862
      2          6           0       -1.455713   -0.412524   -0.778894
      3          6           0       -2.560125    0.337948   -0.013934
      4          1           0       -1.734816   -1.468366   -0.893838
      5          1           0       -1.371731   -0.019129   -1.798943
      6          1           0       -2.324287    1.399657    0.093929
      7          1           0       -2.700603   -0.068847    0.991351
      8         16           0        0.871362    1.712281   -0.028917
      9          1           0        2.047845    1.516239    0.592562
     10          6           0        1.452455   -1.414291   -1.045184
     11          1           0        2.469670   -1.368601   -0.645667
     12          1           0        1.482589   -1.055313   -2.077051
     13          1           0        1.146617   -2.466054   -1.057650
     14          6           0        0.247694   -1.033932    1.758523
     15          1           0       -0.095247   -2.073946    1.785376
     16          1           0       -0.413222   -0.439357    2.393529
     17          1           0        1.248792   -1.004061    2.198509
     18          1           0       -3.520445    0.264920   -0.532441
 ---------------------------------------------------------------------

 SCF Done:  E(RHF) =  -845.101407716     A.U. after    2 cycles

 The electronic state is 1-A.
 Alpha  occ. eigenvalues --  -93.51519 -69.07539 -11.22993 -11.22185 -11.21745
 Alpha  occ. eigenvalues --  -11.21687  -8.81408  -6.82506  -6.15610  -6.15353
 Alpha  occ. eigenvalues --   -6.15106  -3.93330  -3.93234  -3.93219  -1.01673
 Alpha  occ. eigenvalues --   -0.96093  -0.92628  -0.92210  -0.84172  -0.63565
 Alpha  occ. eigenvalues --   -0.61124  -0.58041  -0.56962  -0.56351  -0.55238
 Alpha  occ. eigenvalues --   -0.54620  -0.52320  -0.51394  -0.49583  -0.44737
 Alpha  occ. eigenvalues --   -0.42031  -0.41409  -0.35832
 Alpha virt. eigenvalues --    0.02815   0.04252   0.04710   0.05035   0.06393
 Alpha virt. eigenvalues --    0.06468   0.06721   0.07053   0.07420   0.08651
 Alpha virt. eigenvalues --    0.08999   0.09436   0.10365   0.10609   0.12013

 Mulliken charges:
               1
     1  Si   1.166750
     2  C    0.349613
     3  C    0.254136
     4  H   -0.195496
     5  H   -0.233134
     6  H   -0.111161
     7  H   -0.113214
     8  S   -0.549835
     9  H    0.005738
    10  C    0.552186
    11  H   -0.291061
    12  H   -0.291374
    13  H   -0.171765
    14  C    0.519416
    15  H   -0.205746
    16  H   -0.310476
    17  H   -0.288999
    18  H   -0.085580
 Sum of Mulliken charges =  -0.00000

 Dipole moment (field-independent basis, Debye):
    X=             -0.0394    Y=             -1.9679    Z=              0.3041  Tot=              1.9916

 Test job not archived.
 1\1\GINC-SE457\SP\RHF\Aug-CC-pVDZ\C4H12S1Si1\OHZDE\09-Apr-2025\0\\#t h
 f aug-cc-pvdz iop(5/13=1,5/36=2,99/5=2) pseudo=read geom=check guess=(
 read,tcheck) scf=(maxcycle=1)\\title\\0,1\Si,0,0.265513,-0.391203,-0.0
 07862\C,0,-1.455713,-0.412523,-0.778894\C,0,-2.560125,0.33795,-0.01393
 4\H,0,-1.734817,-1.468365,-0.893838\H,0,-1.371731,-0.019128,-1.798943\
 H,0,-2.324286,1.399659,0.093929\H,0,-2.700603,-0.068845,0.991351\S,0,0
 .871363,1.71228,-0.028917\H,0,2.047846,1.516238,0.592562\C,0,1.452454,
 -1.414292,-1.045184\H,0,2.469669,-1.368603,-0.645667\H,0,1.482588,-1.0

 Normal termination of Gaussian 16 at Wed Apr  9 00:13:16 2025.
