 Gaussian 16, Revision C.01,

 ----------------------------------------------------------------------
 #t hf aug-cc-pvdz symm=none int=(grid=ultrafine) guess=(read,tcheck) s
 table=(opt,rrhf)
 ----------------------------------------------------------------------
 -----
 title
 -----
 Symbolic Z-matrix:
 Charge =  0 Multiplicity = 1

 SCF Done:  E(RHF) =  -930.490205314     A.U. after   18 cycles
 Normal termination of Gaussian 16 at Tue Apr  8 23:29:13 2025.
 Gaussian 16:  ES64L-G16RevC.01  3-Jul-2019

 ----------------------------------------------------------------------
 #t hf aug-cc-pvdz iop(5/13=1,5/36=2,99/5=2) pseudo=read geom=check gue
 ss=(read,tcheck) scf=(maxcycle=1)
 ----------------------------------------------------------------------
 -----
 title
 -----
 Structure from the checkpoint file:  "BDE49_nonexpt_1390_mol1.chk"
 Charge =  0 Multiplicity = 1

                         Standard orientation:
 ---------------------------------------------------------------------
 Center     Atomic      Atomic             Coordinates (Angstroms)
 Number     Number       Type             X           Y           Z
 ---------------------------------------------------------------------
      1          6           0        1.886025   -0.854541    0.180938
      2          6           0        2.269372    0.440047    0.125453
      3         15           0        0.210132   -1.345955   -0.238313
      4          6           0       -0.752724    0.186067   -0.030213
      5          6           0       -0.016128    1.423963   -0.120571
      6          6           0        1.341267    1.531092   -0.054266
      7         16           0       -2.401883    0.125629    0.109425
      8          1           0        2.618604   -1.640848    0.334576
      9          1           0        3.317173    0.695486    0.248013
     10          1           0       -0.616579    2.326571   -0.170707
     11          1           0        1.765711    2.529465   -0.090365
     12          1           0       -0.173637   -2.091182    0.894344
 ---------------------------------------------------------------------

 SCF Done:  E(RHF) =  -930.584799575     A.U. after    2 cycles

 The electronic state is 1-A.
 Alpha  occ. eigenvalues --  -93.50581 -81.28714 -11.33338 -11.29535 -11.28540
 Alpha  occ. eigenvalues --  -11.27842 -11.27258  -8.80402  -7.79244  -6.14568
 Alpha  occ. eigenvalues --   -6.14171  -6.13985  -4.93323  -4.93290  -4.92906
 Alpha  occ. eigenvalues --   -1.14543  -1.06494  -1.00564  -0.89759  -0.82044
 Alpha  occ. eigenvalues --   -0.79415  -0.70426  -0.65653  -0.63527  -0.60929
 Alpha  occ. eigenvalues --   -0.54908  -0.53475  -0.50056  -0.48496  -0.42256
 Alpha  occ. eigenvalues --   -0.38822  -0.32949  -0.30206
 Alpha virt. eigenvalues --    0.00441   0.02581   0.03722   0.04604   0.06336
 Alpha virt. eigenvalues --    0.06410   0.07538   0.08519   0.09428   0.09485
 Alpha virt. eigenvalues --    0.10715   0.12096   0.13208   0.13395   0.13775

 Mulliken charges:
               1
     1  C    0.264378
     2  C    0.428039
     3  P    0.550446
     4  C   -0.419101
     5  C    0.666191
     6  C    0.099670
     7  S   -0.080626
     8  H   -0.457190
     9  H   -0.413583
    10  H   -0.426976
    11  H   -0.423221
    12  H    0.211971
 Sum of Mulliken charges =  -0.00000

 Dipole moment (field-independent basis, Debye):
    X=              4.7230    Y=              0.2704    Z=              0.4925  Tot=              4.7563

 Test job not archived.
 1\1\GINC-SE364\SP\RHF\Aug-CC-pVDZ\C5H5P1S1\OHZDE\08-Apr-2025\0\\#t hf
 aug-cc-pvdz iop(5/13=1,5/36=2,99/5=2) pseudo=read geom=check guess=(re
 ad,tcheck) scf=(maxcycle=1)\\title\\0,1\C,0,1.886025,-0.854541,0.18093
 8\C,0,2.269372,0.440047,0.125453\P,0,0.210132,-1.345955,-0.238313\C,0,
 -0.752724,0.186067,-0.030213\C,0,-0.016128,1.423963,-0.120571\C,0,1.34
 1267,1.531092,-0.054266\S,0,-2.401883,0.125629,0.109425\H,0,2.618604,-
 1.640848,0.334576\H,0,3.317173,0.695486,0.248013\H,0,-0.616579,2.32657
 1,-0.170707\H,0,1.765711,2.529465,-0.090365\H,0,-0.173637,-2.091182,0.

 Normal termination of Gaussian 16 at Tue Apr  8 23:29:19 2025.
