 Gaussian 16, Revision C.01,

 ----------------------------------------------------------------------
 #t hf aug-cc-pvdz symm=none int=(grid=ultrafine) guess=(read,tcheck) s
 table=(opt,rrhf)
 ----------------------------------------------------------------------
 -----
 title
 -----
 Symbolic Z-matrix:
 Charge =  0 Multiplicity = 1

 SCF Done:  E(RHF) =  -597.293362841     A.U. after   16 cycles
 Normal termination of Gaussian 16 at Wed Apr  9 00:41:30 2025.
 Gaussian 16:  ES64L-G16RevC.01  3-Jul-2019

 ----------------------------------------------------------------------
 #t hf aug-cc-pvdz iop(5/13=1,5/36=2,99/5=2) pseudo=read geom=check gue
 ss=(read,tcheck) scf=(maxcycle=1)
 ----------------------------------------------------------------------
 -----
 title
 -----
 Structure from the checkpoint file:  "BDE49_nonexpt_711_mol1.chk"
 Charge =  0 Multiplicity = 1

                         Standard orientation:
 ---------------------------------------------------------------------
 Center     Atomic      Atomic             Coordinates (Angstroms)
 Number     Number       Type             X           Y           Z
 ---------------------------------------------------------------------
      1          6           0       -1.803756    1.293005   -0.093073
      2          6           0       -0.430927    1.134488   -0.255320
      3          6           0        0.154123   -0.134099   -0.149522
      4          6           0       -2.614897    0.187277    0.156735
      5          6           0       -2.042266   -1.079180    0.246735
      6          6           0       -0.667080   -1.241130    0.096119
      7          1           0       -2.241212    2.282130   -0.169894
      8          1           0        0.187218    2.001252   -0.462933
      9          1           0       -0.233695   -2.231798    0.178714
     10          1           0       -3.684917    0.311813    0.276582
     11          1           0       -2.664940   -1.945527    0.440319
     12          5           0        2.984070    0.646504    0.770248
     13         15           0        1.950609   -0.326758   -0.405540
     14          1           0        2.620697    1.717502    1.135738
     15          1           0        4.089459    0.263445    0.984547
     16          1           0        2.176734   -1.692127   -0.161260
 ---------------------------------------------------------------------

 SCF Done:  E(RHF) =  -597.389147861     A.U. after    2 cycles

 The electronic state is 1-A.
 Alpha  occ. eigenvalues --  -81.24797 -11.26555 -11.25395 -11.25331 -11.25246
 Alpha  occ. eigenvalues --  -11.25210 -11.24991  -7.75608  -7.62624  -4.89802
 Alpha  occ. eigenvalues --   -4.89713  -4.89366  -1.14978  -1.02157  -1.01777
 Alpha  occ. eigenvalues --   -0.85264  -0.83614  -0.78719  -0.70937  -0.66399
 Alpha  occ. eigenvalues --   -0.64157  -0.63017  -0.59926  -0.56871  -0.52286
 Alpha  occ. eigenvalues --   -0.51480  -0.50648  -0.48269  -0.46095  -0.38419
 Alpha  occ. eigenvalues --   -0.34834  -0.30209
 Alpha virt. eigenvalues --    0.03077   0.03905   0.04118   0.04620   0.05296
 Alpha virt. eigenvalues --    0.05449   0.06700   0.06973   0.08165   0.08878
 Alpha virt. eigenvalues --    0.09332   0.09927   0.10340   0.11428   0.11709

 Mulliken charges:
               1
     1  C    0.663485
     2  C    0.323493
     3  C   -0.311898
     4  C    0.506655
     5  C    0.667574
     6  C    0.445850
     7  H   -0.446419
     8  H   -0.566537
     9  H   -0.549301
    10  H   -0.430971
    11  H   -0.441709
    12  B   -0.486143
    13  P   -0.026273
    14  H    0.282410
    15  H    0.312475
    16  H    0.057309
 Sum of Mulliken charges =   0.00000

 Dipole moment (field-independent basis, Debye):
    X=             -1.1154    Y=             -0.3925    Z=              0.5385  Tot=              1.2993

 Test job not archived.
 1\1\GINC-SE362\SP\RHF\Aug-CC-pVDZ\C6H8B1P1\OHZDE\09-Apr-2025\0\\#t hf
 aug-cc-pvdz iop(5/13=1,5/36=2,99/5=2) pseudo=read geom=check guess=(re
 ad,tcheck) scf=(maxcycle=1)\\title\\0,1\C,0,-1.803756,1.293005,-0.0930
 73\C,0,-0.430927,1.134488,-0.25532\C,0,0.154123,-0.134099,-0.149522\C,
 0,-2.614897,0.187277,0.156735\C,0,-2.042266,-1.07918,0.246735\C,0,-0.6
 6708,-1.24113,0.096119\H,0,-2.241212,2.28213,-0.169894\H,0,0.187218,2.
 001252,-0.462933\H,0,-0.233695,-2.231798,0.178714\H,0,-3.684917,0.3118
 13,0.276582\H,0,-2.66494,-1.945527,0.440319\B,0,2.98407,0.646504,0.770

 Normal termination of Gaussian 16 at Wed Apr  9 00:41:36 2025.
