 Gaussian 16, Revision C.01,

 ----------------------------------------------------------------------
 #t hf aug-cc-pvdz symm=none int=(grid=ultrafine) guess=(read,tcheck) s
 table=(opt,rrhf)
 ----------------------------------------------------------------------
 -----
 title
 -----
 Symbolic Z-matrix:
 Charge =  0 Multiplicity = 1

 SCF Done:  E(RHF) =  -454.534485390     A.U. after   13 cycles
 Normal termination of Gaussian 16 at Tue Apr  8 23:01:07 2025.
 Gaussian 16:  ES64L-G16RevC.01  3-Jul-2019

 ----------------------------------------------------------------------
 #t hf aug-cc-pvdz iop(5/13=1,5/36=2,99/5=2) pseudo=read geom=check gue
 ss=(read,tcheck) scf=(maxcycle=1)
 ----------------------------------------------------------------------
 -----
 title
 -----
 Structure from the checkpoint file:  "BDE49_expt_256_mol1.chk"
 Charge =  0 Multiplicity = 1

                         Standard orientation:
 ---------------------------------------------------------------------
 Center     Atomic      Atomic             Coordinates (Angstroms)
 Number     Number       Type             X           Y           Z
 ---------------------------------------------------------------------
      1          6           0       -1.596873   -0.038890    0.042501
      2          6           0        1.597042   -0.038712   -0.042675
      3          8           0        2.578781   -0.361098    0.571664
      4          8           0       -2.578837   -0.360944   -0.571653
      5          8           0        1.196777   -0.676921   -1.170445
      6          1           0        1.832665   -1.391641   -1.324073
      7          6           0        0.695767    1.124966    0.318139
      8          8           0       -1.196856   -0.676978    1.170428
      9          1           0       -1.832877   -1.391573    1.324090
     10          6           0       -0.695722    1.124972   -0.318032
     11          1           0       -1.230666    2.031997   -0.016092
     12          1           0       -0.639649    1.146440   -1.406555
     13          1           0        1.230631    2.032103    0.016401
     14          1           0        0.639691    1.146186    1.406668
 ---------------------------------------------------------------------

 SCF Done:  E(RHF) =  -454.678446728     A.U. after    2 cycles

 The electronic state is 1-A.
 Alpha  occ. eigenvalues --  -20.63689 -20.63688 -20.57271 -20.57271 -11.41111
 Alpha  occ. eigenvalues --  -11.41110 -11.27635 -11.27580  -1.43797  -1.43438
 Alpha  occ. eigenvalues --   -1.33779  -1.33762  -1.09541  -0.96754  -0.85816
 Alpha  occ. eigenvalues --   -0.83275  -0.73216  -0.73090  -0.71956  -0.68036
 Alpha  occ. eigenvalues --   -0.67339  -0.66297  -0.61331  -0.60920  -0.58280
 Alpha  occ. eigenvalues --   -0.58166  -0.54602  -0.51292  -0.50579  -0.47599
 Alpha  occ. eigenvalues --   -0.47235
 Alpha virt. eigenvalues --    0.02924   0.04000   0.04242   0.05487   0.05726
 Alpha virt. eigenvalues --    0.07162   0.09616   0.09837   0.10695   0.13043
 Alpha virt. eigenvalues --    0.13435   0.13799   0.14631   0.15064   0.15116

 Mulliken charges:
               1
     1  C    0.528967
     2  C    0.529042
     3  O   -0.497244
     4  O   -0.497239
     5  O   -0.536139
     6  H    0.190095
     7  C    0.184122
     8  O   -0.536135
     9  H    0.190097
    10  C    0.184145
    11  H    0.067711
    12  H    0.062473
    13  H    0.067695
    14  H    0.062411
 Sum of Mulliken charges =  -0.00000

 Dipole moment (field-independent basis, Debye):
    X=              0.0004    Y=              1.1287    Z=             -0.0002  Tot=              1.1287

 Test job not archived.
 1\1\GINC-SE036\SP\RHF\Aug-CC-pVDZ\C4H6O4\OHZDE\08-Apr-2025\0\\#t hf au
 g-cc-pvdz iop(5/13=1,5/36=2,99/5=2) pseudo=read geom=check guess=(read
 ,tcheck) scf=(maxcycle=1)\\title\\0,1\C,0,-1.596873,-0.03889,0.042501\
 C,0,1.597042,-0.038712,-0.042675\O,0,2.578781,-0.361098,0.571664\O,0,-
 2.578837,-0.360944,-0.571653\O,0,1.196777,-0.676921,-1.170445\H,0,1.83
 2665,-1.391641,-1.324073\C,0,0.695767,1.124966,0.318139\O,0,-1.196856,
 -0.676978,1.170428\H,0,-1.832877,-1.391573,1.32409\C,0,-0.695722,1.124
 972,-0.318032\H,0,-1.230666,2.031997,-0.016092\H,0,-0.639649,1.14644,-

 Normal termination of Gaussian 16 at Tue Apr  8 23:01:12 2025.
