 Gaussian 16, Revision C.01,

 ----------------------------------------------------------------------
 #t hf aug-cc-pvdz symm=none int=(grid=ultrafine) guess=(read,tcheck) s
 table=(opt,rrhf)
 ----------------------------------------------------------------------
 -----
 title
 -----
 Symbolic Z-matrix:
 Charge =  0 Multiplicity = 1

 SCF Done:  E(RHF) =  -1139.25396402     A.U. after   11 cycles
 Normal termination of Gaussian 16 at Wed Apr  9 00:07:28 2025.
 Gaussian 16:  ES64L-G16RevC.01  3-Jul-2019

 ----------------------------------------------------------------------
 #t hf aug-cc-pvdz iop(5/13=1,5/36=2,99/5=2) pseudo=read geom=check gue
 ss=(read,tcheck) scf=(maxcycle=1)
 ----------------------------------------------------------------------
 -----
 title
 -----
 Structure from the checkpoint file:  "BDE49_nonexpt_2323_mol1.chk"
 Charge =  0 Multiplicity = 1

                         Standard orientation:
 ---------------------------------------------------------------------
 Center     Atomic      Atomic             Coordinates (Angstroms)
 Number     Number       Type             X           Y           Z
 ---------------------------------------------------------------------
      1         14           0       -1.354162   -0.582188    0.000000
      2         14           0        0.526020    0.842900    0.000001
      3         17           0        2.201794   -0.413677   -0.000001
      4          1           0        0.605369    1.690483    1.208085
      5          1           0        0.605368    1.690485   -1.208082
      6          9           0       -2.700936    0.317521    0.000000
      7          1           0       -1.369413   -1.428062    1.212424
      8          1           0       -1.369413   -1.428059   -1.212427
 ---------------------------------------------------------------------

 SCF Done:  E(RHF) =  -1139.35905246     A.U. after    2 cycles

 The electronic state is 1-A.
 Alpha  occ. eigenvalues -- -103.65999 -69.12846 -69.12093 -26.11644 -10.69422
 Alpha  occ. eigenvalues --   -8.35113  -8.34884  -8.34881  -6.87569  -6.87070
 Alpha  occ. eigenvalues --   -3.98476  -3.98280  -3.98268  -3.97910  -3.97752
 Alpha  occ. eigenvalues --   -3.97720  -1.64095  -1.14153  -0.81336  -0.73494
 Alpha  occ. eigenvalues --   -0.72865  -0.71774  -0.63844  -0.54078  -0.54019
 Alpha  occ. eigenvalues --   -0.50252  -0.50066  -0.46564  -0.41615
 Alpha virt. eigenvalues --    0.03804   0.04085   0.04619   0.06300   0.06975
 Alpha virt. eigenvalues --    0.07547   0.07719   0.08801   0.09544   0.09908
 Alpha virt. eigenvalues --    0.10538   0.12277   0.13930   0.14045   0.16089

 Mulliken charges:
               1
     1  Si   0.913468
     2  Si   0.395361
     3  Cl  -0.523702
     4  H    0.002851
     5  H    0.002851
     6  F   -0.779550
     7  H   -0.005639
     8  H   -0.005639
 Sum of Mulliken charges =  -0.00000

 Dipole moment (field-independent basis, Debye):
    X=             -0.0775    Y=              0.1390    Z=              0.0000  Tot=              0.1591

 Test job not archived.
 1\1\GINC-SE335\SP\RHF\Aug-CC-pVDZ\Cl1F1H4Si2\OHZDE\09-Apr-2025\0\\#t h
 f aug-cc-pvdz iop(5/13=1,5/36=2,99/5=2) pseudo=read geom=check guess=(
 read,tcheck) scf=(maxcycle=1)\\title\\0,1\Si,0,-1.354162,-0.582188,0.\
 Si,0,0.52602,0.8429,0.000001\Cl,0,2.201794,-0.413676,-0.000001\H,0,0.6
 05369,1.690483,1.208085\H,0,0.605368,1.690485,-1.208082\F,0,-2.700936,
 0.317521,0.\H,0,-1.369413,-1.428062,1.212424\H,0,-1.369413,-1.428059,-
 1.212427\\Version=ES64L-G16RevC.01\State=1-A\HF=-1139.3590525\RMSD=5.0
 86e-03\Dipole=-0.0305054,0.0546714,0.0000021\Quadrupole=-5.0421424,2.7

 Normal termination of Gaussian 16 at Wed Apr  9 00:07:31 2025.
