 Gaussian 16, Revision C.01,

 ----------------------------------------------------------------------
 #t hf aug-cc-pvdz symm=none int=(grid=ultrafine) guess=(read,tcheck) s
 table=(opt,rrhf)
 ----------------------------------------------------------------------
 -----
 title
 -----
 Symbolic Z-matrix:
 Charge =  0 Multiplicity = 1

 SCF Done:  E(RHF) =  -628.103267297     A.U. after   16 cycles
 Normal termination of Gaussian 16 at Tue Apr  8 23:11:43 2025.
 Gaussian 16:  ES64L-G16RevC.01  3-Jul-2019

 ----------------------------------------------------------------------
 #t hf aug-cc-pvdz iop(5/13=1,5/36=2,99/5=2) pseudo=read geom=check gue
 ss=(read,tcheck) scf=(maxcycle=1)
 ----------------------------------------------------------------------
 -----
 title
 -----
 Structure from the checkpoint file:  "BDE49_expt_432_mol1.chk"
 Charge =  0 Multiplicity = 1

                         Standard orientation:
 ---------------------------------------------------------------------
 Center     Atomic      Atomic             Coordinates (Angstroms)
 Number     Number       Type             X           Y           Z
 ---------------------------------------------------------------------
      1          6           0       -0.480431   -0.671205   -0.076184
      2          8           0       -0.223101   -1.855519   -0.210544
      3          7           0        0.474221    0.311606    0.065998
      4          6           0       -1.903242   -0.178967   -0.035576
      5          6           0        1.879634    0.194611    0.047023
      6          6           0       -2.287595    1.118402   -0.394745
      7          6           0       -3.628273    1.492946   -0.353468
      8          6           0       -4.596946    0.576128    0.048008
      9          6           0       -4.222681   -0.722248    0.393050
     10          6           0       -2.886048   -1.099935    0.342293
     11          6           0        2.622248    1.360547    0.284717
     12          6           0        2.552010   -1.008632   -0.204634
     13          6           0        3.944671   -1.022839   -0.214328
     14          6           0        4.682911    0.133725    0.022177
     15          6           0        4.010630    1.328474    0.272925
     16          1           0        2.105525    2.295993    0.478874
     17          1           0        4.566543    2.240292    0.459929
     18          1           0        1.982648   -1.907527   -0.380068
     19          1           0        4.455261   -1.959345   -0.409504
     20          1           0        5.766121    0.106211    0.012276
     21          1           0       -4.974804   -1.441198    0.697293
     22          1           0       -2.577372   -2.108323    0.587580
     23          1           0       -1.554135    1.835032   -0.748669
     24          1           0       -3.916063    2.496603   -0.644848
     25          1           0       -5.640120    0.869248    0.082337
     26          1           0        0.130324    1.229877    0.299609
 ---------------------------------------------------------------------

 SCF Done:  E(RHF) =  -628.287697816     A.U. after    2 cycles

 The electronic state is 1-A.
 Alpha  occ. eigenvalues --  -20.54608 -15.67141 -11.38053 -11.30039 -11.27044
 Alpha  occ. eigenvalues --  -11.26856 -11.26470 -11.26148 -11.26029 -11.25831
 Alpha  occ. eigenvalues --  -11.25044 -11.24753 -11.24619 -11.23883 -11.23562
 Alpha  occ. eigenvalues --   -1.35903  -1.22910  -1.16366  -1.13269  -1.04608
 Alpha  occ. eigenvalues --   -1.02801  -1.01335  -1.00122  -0.89079  -0.85167
 Alpha  occ. eigenvalues --   -0.84556  -0.82783  -0.78222  -0.75150  -0.71770
 Alpha  occ. eigenvalues --   -0.68951  -0.67965  -0.65185  -0.64228  -0.62636
 Alpha  occ. eigenvalues --   -0.61754  -0.61026  -0.60835  -0.59445  -0.59086
 Alpha  occ. eigenvalues --   -0.53561  -0.52874  -0.52440  -0.51400  -0.51006
 Alpha  occ. eigenvalues --   -0.50275  -0.44890  -0.44673  -0.36123  -0.35550
 Alpha  occ. eigenvalues --   -0.34350  -0.30996
 Alpha virt. eigenvalues --    0.02572   0.03247   0.03825   0.04544   0.04765
 Alpha virt. eigenvalues --    0.05647   0.05928   0.06232   0.06884   0.06935
 Alpha virt. eigenvalues --    0.08342   0.09011   0.09330   0.10170   0.10904

 Mulliken charges:
               1
     1  C   -0.515385
     2  O   -0.497697
     3  N   -0.445355
     4  C    1.130871
     5  C    0.467308
     6  C    0.663916
     7  C    0.252941
     8  C    0.608729
     9  C    0.319648
    10  C    0.450651
    11  C    0.628825
    12  C    0.296415
    13  C    0.620659
    14  C    0.687417
    15  C    0.608515
    16  H   -0.667843
    17  H   -0.452828
    18  H   -0.673029
    19  H   -0.453265
    20  H   -0.456477
    21  H   -0.426760
    22  H   -0.584893
    23  H   -0.608658
    24  H   -0.457691
    25  H   -0.432485
    26  H   -0.063530
 Sum of Mulliken charges =   0.00000

 Dipole moment (field-independent basis, Debye):
    X=             -1.6442    Y=              3.5934    Z=              0.5407  Tot=              3.9886

 Test job not archived.
 1\1\GINC-SE457\SP\RHF\Aug-CC-pVDZ\C13H11N1O1\OHZDE\08-Apr-2025\0\\#t h
 f aug-cc-pvdz iop(5/13=1,5/36=2,99/5=2) pseudo=read geom=check guess=(
 read,tcheck) scf=(maxcycle=1)\\title\\0,1\C,0,-0.480431,-0.671205,-0.0
 76184\O,0,-0.223101,-1.855519,-0.210544\N,0,0.474221,0.311606,0.065998
 \C,0,-1.903242,-0.178967,-0.035576\C,0,1.879634,0.194611,0.047023\C,0,
 -2.287595,1.118402,-0.394745\C,0,-3.628273,1.492946,-0.353468\C,0,-4.5
 96946,0.576128,0.048008\C,0,-4.222681,-0.722248,0.39305\C,0,-2.886048,
 -1.099935,0.342293\C,0,2.622248,1.360547,0.284717\C,0,2.55201,-1.00863

 Normal termination of Gaussian 16 at Tue Apr  8 23:12:08 2025.
