 Gaussian 16, Revision C.01,

 ----------------------------------------------------------------------
 #t hf aug-cc-pvdz symm=none int=(grid=ultrafine) guess=(read,tcheck) s
 table=(opt,rrhf)
 ----------------------------------------------------------------------
 -----
 title
 -----
 Symbolic Z-matrix:
 Charge =  0 Multiplicity = 1

 SCF Done:  E(RHF) =  -673.785607605     A.U. after   14 cycles
 Normal termination of Gaussian 16 at Tue Apr  8 23:18:56 2025.
 Gaussian 16:  ES64L-G16RevC.01  3-Jul-2019

 ----------------------------------------------------------------------
 #t hf aug-cc-pvdz iop(5/13=1,5/36=2,99/5=2) pseudo=read geom=check gue
 ss=(read,tcheck) scf=(maxcycle=1)
 ----------------------------------------------------------------------
 -----
 title
 -----
 Structure from the checkpoint file:  "BDE49_nonexpt_111_mol1.chk"
 Charge =  0 Multiplicity = 1

                         Standard orientation:
 ---------------------------------------------------------------------
 Center     Atomic      Atomic             Coordinates (Angstroms)
 Number     Number       Type             X           Y           Z
 ---------------------------------------------------------------------
      1          5           0        3.291200   -0.014123   -0.217252
      2          5           0        1.752971    0.047247    0.424680
      3         16           0       -0.910461   -0.135769    0.388717
      4          8           0        0.652798   -0.232035   -0.342112
      5          8           0       -1.275877    1.370572   -0.152295
      6          8           0       -1.696729   -1.089017   -0.364089
      7          1           0       -1.450846    1.328388   -1.108565
      8          1           0        3.951828   -1.008653   -0.179068
      9          1           0        3.816148    0.952887   -0.683330
     10          1           0        1.587849    0.337904    1.582319
 ---------------------------------------------------------------------

 SCF Done:  E(RHF) =  -673.932651020     A.U. after    2 cycles

 The electronic state is 1-A.
 Alpha  occ. eigenvalues --  -93.78711 -20.64792 -20.62866 -20.58457  -9.05647
 Alpha  occ. eigenvalues --   -7.64764  -7.61648  -6.39876  -6.39737  -6.39338
 Alpha  occ. eigenvalues --   -1.44621  -1.35166  -1.33454  -0.93839  -0.80328
 Alpha  occ. eigenvalues --   -0.73139  -0.70935  -0.70033  -0.67730  -0.61826
 Alpha  occ. eigenvalues --   -0.59656  -0.57292  -0.55873  -0.52939  -0.49848
 Alpha  occ. eigenvalues --   -0.47036  -0.42826
 Alpha virt. eigenvalues --    0.03337   0.03775   0.04364   0.04811   0.05612
 Alpha virt. eigenvalues --    0.06477   0.07029   0.08138   0.08972   0.09586
 Alpha virt. eigenvalues --    0.10962   0.11696   0.12485   0.13260   0.14056

 Mulliken charges:
               1
     1  B   -0.349870
     2  B    0.257917
     3  S    1.793622
     4  O   -0.793351
     5  O   -0.682622
     6  O   -0.841720
     7  H    0.183383
     8  H    0.205634
     9  H    0.203740
    10  H    0.023266
 Sum of Mulliken charges =  -0.00000

 Dipole moment (field-independent basis, Debye):
    X=              1.2020    Y=              1.6490    Z=              0.5793  Tot=              2.1212

 Test job not archived.
 1\1\GINC-SE165\SP\RHF\Aug-CC-pVDZ\B2H4O3S1\OHZDE\08-Apr-2025\0\\#t hf
 aug-cc-pvdz iop(5/13=1,5/36=2,99/5=2) pseudo=read geom=check guess=(re
 ad,tcheck) scf=(maxcycle=1)\\title\\0,1\B,0,3.2912,-0.014123,-0.217252
 \B,0,1.752971,0.047247,0.42468\S,0,-0.910461,-0.135769,0.388717\O,0,0.
 652798,-0.232035,-0.342112\O,0,-1.275877,1.370572,-0.152295\O,0,-1.696
 729,-1.089017,-0.364089\H,0,-1.450846,1.328388,-1.108565\H,0,3.951828,
 -1.008653,-0.179068\H,0,3.816148,0.952887,-0.68333\H,0,1.587849,0.3379
 04,1.582319\\Version=ES64L-G16RevC.01\State=1-A\HF=-673.932651\RMSD=3.

 Normal termination of Gaussian 16 at Tue Apr  8 23:19:01 2025.
