 Gaussian 16, Revision C.01,

 ----------------------------------------------------------------------
 #t hf aug-cc-pvdz symm=none int=(grid=ultrafine) guess=(read,tcheck) s
 table=opt
 ----------------------------------------------------------------------
 -----
 title
 -----
 Symbolic Z-matrix:
 Charge =  0 Multiplicity = 2

 SCF Done:  E(UHF) =  -341.874205098     A.U. after   13 cycles
 Normal termination of Gaussian 16 at Tue Apr  8 22:56:33 2025.
 Gaussian 16:  ES64L-G16RevC.01  3-Jul-2019

 ----------------------------------------------------------------------
 #t hf aug-cc-pvdz iop(5/13=1,5/36=2,99/5=2) pseudo=read geom=check gue
 ss=(read,tcheck) scf=(maxcycle=1)
 ----------------------------------------------------------------------
 -----
 title
 -----
 Structure from the checkpoint file:  "BDE49_expt_1947_mol2.chk"
 Charge =  0 Multiplicity = 2

                         Standard orientation:
 ---------------------------------------------------------------------
 Center     Atomic      Atomic             Coordinates (Angstroms)
 Number     Number       Type             X           Y           Z
 ---------------------------------------------------------------------
      1         15           0        0.000000   -0.000000    0.116504
      2          1           0        0.000000    1.022781   -0.873781
      3          1           0       -0.000000   -1.022781   -0.873781
 ---------------------------------------------------------------------

 SCF Done:  E(UHF) =  -341.892312435     A.U. after    2 cycles

 The electronic state is 2-B1.
 Alpha  occ. eigenvalues --  -81.27240  -7.77706  -4.92377  -4.91243  -4.90985
 Alpha  occ. eigenvalues --   -0.80518  -0.51912  -0.41744  -0.36543
 Alpha virt. eigenvalues --    0.03616   0.07182   0.10024   0.10123   0.10445
 Alpha virt. eigenvalues --    0.16621   0.20559   0.20692   0.25570   0.26045
 Alpha virt. eigenvalues --    0.26051   0.39459   0.39999   0.47513   0.47922

  Beta  occ. eigenvalues --  -81.26549  -7.76880  -4.90744  -4.90617  -4.89219
  Beta  occ. eigenvalues --   -0.74000  -0.51349  -0.39119
  Beta virt. eigenvalues --    0.02481   0.03808   0.07234   0.10154   0.10366
  Beta virt. eigenvalues --    0.14537   0.17443   0.21146   0.24269   0.26589
  Beta virt. eigenvalues --    0.29184   0.29582   0.40218   0.41385   0.47477

 Mulliken charges and spin densities:
               1          2
     1  P    0.060037   1.319435
     2  H   -0.030018  -0.159717
     3  H   -0.030018  -0.159717
 Sum of Mulliken charges =   0.00000   1.00000

 Dipole moment (field-independent basis, Debye):
    X=              0.0000    Y=             -0.0000    Z=             -0.5619  Tot=              0.5619
                          Isotropic Fermi Contact Couplings
        Atom                 a.u.       MegaHertz       Gauss      10(-4) cm-1
     1  P(31)              0.21480     389.01679     138.81087     129.76203
     2  H(1)              -0.01584     -70.78912     -25.25932     -23.61271
     3  H(1)              -0.01584     -70.78912     -25.25932     -23.61271
 --------------------------------------------------------
       Center         ----  Spin Dipole Couplings  ----
                      3XX-RR        3YY-RR        3ZZ-RR
 --------------------------------------------------------
     1   Atom        3.038938     -1.407798     -1.631140

 Normal termination of Gaussian 16 at Tue Apr  8 22:56:34 2025.
