 Gaussian 16, Revision C.01,

 ----------------------------------------------------------------------
 #t hf aug-cc-pvdz symm=none int=(grid=ultrafine) guess=(read,tcheck) s
 table=(opt,rrhf)
 ----------------------------------------------------------------------
 -----
 title
 -----
 Symbolic Z-matrix:
 Charge =  0 Multiplicity = 1

 SCF Done:  E(RHF) =  -537.063622658     A.U. after   13 cycles
 Normal termination of Gaussian 16 at Tue Apr  8 22:51:56 2025.
 Gaussian 16:  ES64L-G16RevC.01  3-Jul-2019

 ----------------------------------------------------------------------
 #t hf aug-cc-pvdz iop(5/13=1,5/36=2,99/5=2) pseudo=read geom=check gue
 ss=(read,tcheck) scf=(maxcycle=1)
 ----------------------------------------------------------------------
 -----
 title
 -----
 Structure from the checkpoint file:  "BDE49_expt_1815_mol1.chk"
 Charge =  0 Multiplicity = 1

                         Standard orientation:
 ---------------------------------------------------------------------
 Center     Atomic      Atomic             Coordinates (Angstroms)
 Number     Number       Type             X           Y           Z
 ---------------------------------------------------------------------
      1         14           0       -0.327856   -0.000003    0.048194
      2          7           0        1.265198    0.000050   -0.921980
      3          8           0        2.287063    0.000013   -0.258061
      4          6           0       -1.208007    1.550360   -0.531915
      5          1           0       -0.680293    2.452800   -0.211340
      6          1           0       -2.221661    1.591176   -0.120951
      7          1           0       -1.284943    1.572818   -1.622168
      8          6           0       -1.208017   -1.550291   -0.532098
      9          1           0       -1.284955   -1.572618   -1.622354
     10          1           0       -2.221671   -1.591150   -0.121138
     11          1           0       -0.680308   -2.452773   -0.211632
     12          6           0        0.010853   -0.000113    1.887230
     13          1           0        0.584750    0.882225    2.181801
     14          1           0        0.584734   -0.882494    2.181699
     15          1           0       -0.927541   -0.000137    2.450416
 ---------------------------------------------------------------------

 SCF Done:  E(RHF) =  -537.168997285     A.U. after    2 cycles

 The electronic state is 1-A.
 Alpha  occ. eigenvalues --  -69.07999 -20.63663 -15.72295 -11.22675 -11.22670
 Alpha  occ. eigenvalues --  -11.22368  -6.83148  -3.93989  -3.93877  -3.93873
 Alpha  occ. eigenvalues --   -1.43400  -0.98408  -0.93622  -0.93522  -0.90755
 Alpha  occ. eigenvalues --   -0.71080  -0.64693  -0.60234  -0.58851  -0.57969
 Alpha  occ. eigenvalues --   -0.57123  -0.55798  -0.55776  -0.55419  -0.54782
 Alpha  occ. eigenvalues --   -0.45201  -0.45083  -0.36058
 Alpha virt. eigenvalues --    0.02607   0.04358   0.04517   0.05164   0.06658
 Alpha virt. eigenvalues --    0.06665   0.07201   0.07318   0.08367   0.08529
 Alpha virt. eigenvalues --    0.09044   0.10460   0.10490   0.11668   0.14327

 Mulliken charges:
               1
     1  Si   1.960395
     2  N   -0.410149
     3  O   -0.383494
     4  C    0.408153
     5  H   -0.300747
     6  H   -0.209448
     7  H   -0.280492
     8  C    0.408152
     9  H   -0.280491
    10  H   -0.209449
    11  H   -0.300744
    12  C    0.306207
    13  H   -0.243161
    14  H   -0.243167
    15  H   -0.221565
 Sum of Mulliken charges =  -0.00000

 Dipole moment (field-independent basis, Debye):
    X=             -3.3861    Y=             -0.0001    Z=              1.0142  Tot=              3.5347

 Test job not archived.
 1\1\GINC-SE331\SP\RHF\Aug-CC-pVDZ\C3H9N1O1Si1\OHZDE\08-Apr-2025\0\\#t
 hf aug-cc-pvdz iop(5/13=1,5/36=2,99/5=2) pseudo=read geom=check guess=
 (read,tcheck) scf=(maxcycle=1)\\title\\0,1\Si,0,-0.327856,-0.000003,0.
 048194\N,0,1.265198,0.00005,-0.92198\O,0,2.287063,0.000013,-0.258061\C
 ,0,-1.208007,1.55036,-0.531915\H,0,-0.680293,2.4528,-0.21134\H,0,-2.22
 1661,1.591176,-0.120951\H,0,-1.284943,1.572818,-1.622168\C,0,-1.208017
 ,-1.550291,-0.532098\H,0,-1.284955,-1.572618,-1.622354\H,0,-2.221671,-
 1.59115,-0.121138\H,0,-0.680308,-2.452773,-0.211632\C,0,0.010853,-0.00

 Normal termination of Gaussian 16 at Tue Apr  8 22:52:01 2025.
