 Gaussian 16, Revision C.01,

 ----------------------------------------------------------------------
 #t hf aug-cc-pvdz symm=none int=(grid=ultrafine) guess=(read,tcheck) s
 table=(opt,rrhf)
 ----------------------------------------------------------------------
 -----
 title
 -----
 Symbolic Z-matrix:
 Charge =  0 Multiplicity = 1

 SCF Done:  E(RHF) =  -286.090015213     A.U. after   13 cycles
 Normal termination of Gaussian 16 at Tue Apr  8 22:38:44 2025.
 Gaussian 16:  ES64L-G16RevC.01  3-Jul-2019

 ----------------------------------------------------------------------
 #t hf aug-cc-pvdz iop(5/13=1,5/36=2,99/5=2) pseudo=read geom=check gue
 ss=(read,tcheck) scf=(maxcycle=1)
 ----------------------------------------------------------------------
 -----
 title
 -----
 Structure from the checkpoint file:  "BDE49_expt_1296_mol1.chk"
 Charge =  0 Multiplicity = 1

                         Standard orientation:
 ---------------------------------------------------------------------
 Center     Atomic      Atomic             Coordinates (Angstroms)
 Number     Number       Type             X           Y           Z
 ---------------------------------------------------------------------
      1          6           0       -2.080914    0.305410    0.755215
      2          6           0       -1.509644   -0.260264   -0.547949
      3          1           0       -2.176322   -0.473066    1.519734
      4          1           0       -3.073764    0.733508    0.593708
      5          1           0       -1.439417    1.096365    1.150278
      6          6           0       -0.128110   -0.899641   -0.380934
      7          1           0       -1.427617    0.539889   -1.287650
      8          1           0       -2.194219   -1.010420   -0.957279
      9          6           0        0.975041    0.123792   -0.105918
     10          1           0        0.153581   -1.424855   -1.302002
     11          1           0       -0.143915   -1.655036    0.413558
     12          8           0        0.888428    1.294123   -0.427854
     13          7           0        2.085283   -0.378842    0.513513
     14          1           0        2.182285   -1.354950    0.734192
     15          1           0        2.876748    0.231687    0.641210
 ---------------------------------------------------------------------

 SCF Done:  E(RHF) =  -286.181232695     A.U. after    2 cycles

 The electronic state is 1-A.
 Alpha  occ. eigenvalues --  -20.53354 -15.64905 -11.36429 -11.24991 -11.23184
 Alpha  occ. eigenvalues --  -11.21963  -1.34530  -1.17617  -1.06056  -0.95344
 Alpha  occ. eigenvalues --   -0.83724  -0.77524  -0.71723  -0.68078  -0.63580
 Alpha  occ. eigenvalues --   -0.62183  -0.57121  -0.56715  -0.54462  -0.49049
 Alpha  occ. eigenvalues --   -0.48442  -0.48021  -0.43415  -0.41791
 Alpha virt. eigenvalues --    0.02726   0.03969   0.04685   0.04906   0.06509
 Alpha virt. eigenvalues --    0.06587   0.07506   0.08139   0.08827   0.12066
 Alpha virt. eigenvalues --    0.12627   0.13889   0.14596   0.14993   0.15308

 Mulliken charges:
               1
     1  C    0.350403
     2  C    0.236654
     3  H   -0.075329
     4  H   -0.074148
     5  H   -0.081687
     6  C    0.128965
     7  H   -0.065906
     8  H   -0.070040
     9  C    0.504011
    10  H   -0.000423
    11  H   -0.136386
    12  O   -0.535262
    13  N   -0.125868
    14  H   -0.024665
    15  H   -0.030318
 Sum of Mulliken charges =   0.00000

 Dipole moment (field-independent basis, Debye):
    X=              0.8840    Y=             -3.8496    Z=              1.0589  Tot=              4.0893

 Test job not archived.
 1\1\GINC-SE403\SP\RHF\Aug-CC-pVDZ\C4H9N1O1\OHZDE\08-Apr-2025\0\\#t hf
 aug-cc-pvdz iop(5/13=1,5/36=2,99/5=2) pseudo=read geom=check guess=(re
 ad,tcheck) scf=(maxcycle=1)\\title\\0,1\C,0,-2.080914,0.30541,0.755215
 \C,0,-1.509644,-0.260264,-0.547949\H,0,-2.176322,-0.473066,1.519734\H,
 0,-3.073764,0.733508,0.593708\H,0,-1.439417,1.096365,1.150278\C,0,-0.1
 2811,-0.899641,-0.380934\H,0,-1.427617,0.539889,-1.28765\H,0,-2.194219
 ,-1.01042,-0.957279\C,0,0.975041,0.123792,-0.105918\H,0,0.153581,-1.42
 4855,-1.302002\H,0,-0.143915,-1.655036,0.413558\O,0,0.888428,1.294123,

 Normal termination of Gaussian 16 at Tue Apr  8 22:38:49 2025.
