 Gaussian 16, Revision C.01,

 ----------------------------------------------------------------------
 #t hf aug-cc-pvdz symm=none int=(grid=ultrafine) guess=(read,tcheck) s
 table=(opt,rrhf)
 ----------------------------------------------------------------------
 -----
 title
 -----
 Symbolic Z-matrix:
 Charge =  0 Multiplicity = 1

 SCF Done:  E(RHF) =  -517.313994168     A.U. after   12 cycles
 Normal termination of Gaussian 16 at Tue Apr  8 23:58:44 2025.
 Gaussian 16:  ES64L-G16RevC.01  3-Jul-2019

 ----------------------------------------------------------------------
 #t hf aug-cc-pvdz iop(5/13=1,5/36=2,99/5=2) pseudo=read geom=check gue
 ss=(read,tcheck) scf=(maxcycle=1)
 ----------------------------------------------------------------------
 -----
 title
 -----
 Structure from the checkpoint file:  "BDE49_nonexpt_2087_mol1.chk"
 Charge =  0 Multiplicity = 1

                         Standard orientation:
 ---------------------------------------------------------------------
 Center     Atomic      Atomic             Coordinates (Angstroms)
 Number     Number       Type             X           Y           Z
 ---------------------------------------------------------------------
      1          7           0        0.436424    1.411001   -0.182242
      2          7           0        0.436424   -1.411001   -0.182242
      3          6           0       -0.974107    1.285363    0.236227
      4          6           0       -1.675009   -0.000000   -0.255144
      5          6           0       -0.974107   -1.285363    0.236227
      6         14           0        1.405883    0.000000    0.105775
      7          1           0        0.523562    1.833569   -1.097507
      8          1           0        0.523562   -1.833569   -1.097507
      9          1           0       -1.006688   -1.304360    1.333669
     10          1           0       -1.527773   -2.167338   -0.097596
     11          1           0       -1.704766   -0.000000   -1.351802
     12          1           0       -2.714130   -0.000000    0.097392
     13          1           0       -1.527773    2.167339   -0.097596
     14          1           0       -1.006688    1.304360    1.333669
     15          1           0        1.802588    0.000000    1.531519
     16          1           0        2.585144    0.000000   -0.787572
 ---------------------------------------------------------------------

 SCF Done:  E(RHF) =  -517.416200515     A.U. after    2 cycles

 The electronic state is 1-A.
 Alpha  occ. eigenvalues --  -69.07372 -15.58863 -15.58859 -11.26603 -11.26599
 Alpha  occ. eigenvalues --  -11.23143  -6.82329  -3.93190  -3.93188  -3.93048
 Alpha  occ. eigenvalues --   -1.15762  -1.11116  -0.99791  -0.87512  -0.80002
 Alpha  occ. eigenvalues --   -0.71988  -0.64263  -0.63873  -0.60097  -0.56066
 Alpha  occ. eigenvalues --   -0.55836  -0.54394  -0.49491  -0.48422  -0.48249
 Alpha  occ. eigenvalues --   -0.46615  -0.38702  -0.34930
 Alpha virt. eigenvalues --    0.03074   0.04147   0.04267   0.04468   0.06643
 Alpha virt. eigenvalues --    0.06732   0.07114   0.07374   0.07416   0.09404
 Alpha virt. eigenvalues --    0.09631   0.10386   0.11704   0.13502   0.13976

 Mulliken charges:
               1
     1  N   -0.620617
     2  N   -0.620617
     3  C    0.649912
     4  C    0.052602
     5  C    0.649914
     6  Si   0.677492
     7  H   -0.073636
     8  H   -0.073636
     9  H   -0.158746
    10  H   -0.162148
    11  H   -0.099027
    12  H   -0.043894
    13  H   -0.162147
    14  H   -0.158747
    15  H    0.081395
    16  H    0.061901
 Sum of Mulliken charges =  -0.00000

 Dipole moment (field-independent basis, Debye):
    X=             -1.5631    Y=             -0.0000    Z=             -1.5791  Tot=              2.2219

 Test job not archived.
 1\1\GINC-SE419\SP\RHF\Aug-CC-pVDZ\C3H10N2Si1\OHZDE\08-Apr-2025\0\\#t h
 f aug-cc-pvdz iop(5/13=1,5/36=2,99/5=2) pseudo=read geom=check guess=(
 read,tcheck) scf=(maxcycle=1)\\title\\0,1\N,0,0.436424,1.411001,-0.182
 242\N,0,0.436424,-1.411001,-0.182242\C,0,-0.974107,1.285363,0.236227\C
 ,0,-1.675009,0.,-0.255144\C,0,-0.974107,-1.285363,0.236227\Si,0,1.4058
 83,0.,0.105775\H,0,0.523562,1.833569,-1.097507\H,0,0.523562,-1.833569,
 -1.097507\H,0,-1.006688,-1.30436,1.333669\H,0,-1.527773,-2.167338,-0.0
 97596\H,0,-1.704766,0.,-1.351802\H,0,-2.71413,0.,0.097392\H,0,-1.52777

 Normal termination of Gaussian 16 at Tue Apr  8 23:58:49 2025.
