 Gaussian 16, Revision C.01,

 ----------------------------------------------------------------------
 #t hf aug-cc-pvdz symm=none int=(grid=ultrafine) guess=(read,tcheck) s
 table=(opt,rrhf)
 ----------------------------------------------------------------------
 -----
 title
 -----
 Symbolic Z-matrix:
 Charge =  0 Multiplicity = 1

 SCF Done:  E(RHF) =  -577.203610067     A.U. after   12 cycles

 1\1\GINC-SE083\Stability\RHF\Aug-CC-pVDZ\C3H7Cl1\OHZDE\08-Apr-2025\0\\
 #t hf aug-cc-pvdz symm=none int=(grid=ultrafine) guess=(read,tcheck) s
 table=(opt,rrhf)\\title\\0,1\C,0,-0.174682,0.884446,0.311399\Cl,0,-1.4
 67174,-0.346701,-0.067622\H,0,-0.576713,1.837295,-0.028403\H,0,-0.0904
 67,0.894927,1.398047\C,0,1.151754,0.560513,-0.359802\C,0,1.823739,-0.7
 17654,0.144792\H,0,1.808828,1.420651,-0.17695\H,0,2.782912,-0.872553,-
 0.355123\H,0,2.012405,-0.666194,1.221586\H,0,1.00075,0.508867,-1.44224
 9\H,0,1.199381,-1.592908,-0.045662\\Version=ES64L-G16RevC.01\HF=-577.2

 Normal termination of Gaussian 16 at Tue Apr  8 22:29:24 2025.
 Gaussian 16:  ES64L-G16RevC.01  3-Jul-2019

 ----------------------------------------------------------------------
 #t hf aug-cc-pvdz iop(5/13=1,5/36=2,99/5=2) pseudo=read geom=check gue
 ss=(read,tcheck) scf=(maxcycle=1)
 ----------------------------------------------------------------------
 -----
 title
 -----
 Structure from the checkpoint file:  "BDE49_expt_1026_mol1.chk"
 Charge =  0 Multiplicity = 1

                         Standard orientation:
 ---------------------------------------------------------------------
 Center     Atomic      Atomic             Coordinates (Angstroms)
 Number     Number       Type             X           Y           Z
 ---------------------------------------------------------------------
      1          6           0       -0.174682    0.884446    0.311399
      2         17           0       -1.467174   -0.346701   -0.067622
      3          1           0       -0.576713    1.837295   -0.028403
      4          1           0       -0.090467    0.894927    1.398047
      5          6           0        1.151754    0.560513   -0.359802
      6          6           0        1.823739   -0.717654    0.144792
      7          1           0        1.808828    1.420651   -0.176950
      8          1           0        2.782912   -0.872553   -0.355123
      9          1           0        2.012405   -0.666194    1.221586
     10          1           0        1.000750    0.508867   -1.442249
     11          1           0        1.199381   -1.592908   -0.045662
 ---------------------------------------------------------------------

 SCF Done:  E(RHF) =  -577.260810869     A.U. after    2 cycles

 The electronic state is 1-A.
 Alpha  occ. eigenvalues -- -103.64254 -11.30490 -11.25047 -11.23149 -10.67533
 Alpha  occ. eigenvalues --   -8.33247  -8.32971  -8.32963  -1.15566  -1.04447
 Alpha  occ. eigenvalues --   -0.92566  -0.81159  -0.65040  -0.63690  -0.59004
 Alpha  occ. eigenvalues --   -0.54663  -0.51953  -0.50654  -0.48873  -0.44084
 Alpha  occ. eigenvalues --   -0.43986
 Alpha virt. eigenvalues --    0.03354   0.04526   0.04795   0.05638   0.07127
 Alpha virt. eigenvalues --    0.07378   0.07797   0.09672   0.12272   0.14238
 Alpha virt. eigenvalues --    0.14669   0.15213   0.16185   0.16464   0.16882

 Mulliken charges:
               1
     1  C    0.023491
     2  Cl  -0.177557
     3  H    0.010588
     4  H    0.014869
     5  C    0.058687
     6  C    0.365346
     7  H   -0.030967
     8  H   -0.070094
     9  H   -0.062464
    10  H   -0.077699
    11  H   -0.054201
 Sum of Mulliken charges =  -0.00000

 Dipole moment (field-independent basis, Debye):
    X=              1.9979    Y=              1.5037    Z=              0.3576  Tot=              2.5260

 Test job not archived.
 1\1\GINC-SE083\SP\RHF\Aug-CC-pVDZ\C3H7Cl1\OHZDE\08-Apr-2025\0\\#t hf a
 ug-cc-pvdz iop(5/13=1,5/36=2,99/5=2) pseudo=read geom=check guess=(rea
 d,tcheck) scf=(maxcycle=1)\\title\\0,1\C,0,-0.174682,0.884446,0.311399
 \Cl,0,-1.467174,-0.346701,-0.067622\H,0,-0.576713,1.837295,-0.028403\H
 ,0,-0.090467,0.894927,1.398047\C,0,1.151754,0.560513,-0.359802\C,0,1.8
 23739,-0.717654,0.144792\H,0,1.808828,1.420651,-0.17695\H,0,2.782912,-
 0.872553,-0.355123\H,0,2.012405,-0.666194,1.221586\H,0,1.00075,0.50886
 7,-1.442249\H,0,1.199381,-1.592908,-0.045662\\Version=ES64L-G16RevC.01

 Normal termination of Gaussian 16 at Tue Apr  8 22:29:30 2025.
