 Gaussian 16, Revision C.01,

 ----------------------------------------------------------------------
 #t hf aug-cc-pvdz symm=none int=(grid=ultrafine) guess=(read,tcheck) s
 table=(opt,rrhf)
 ----------------------------------------------------------------------
 -----
 title
 -----
 Symbolic Z-matrix:
 Charge =  0 Multiplicity = 1

 SCF Done:  E(RHF) =  -748.014779758     A.U. after   12 cycles
 Normal termination of Gaussian 16 at Wed Apr  9 00:10:34 2025.
 Gaussian 16:  ES64L-G16RevC.01  3-Jul-2019

 ----------------------------------------------------------------------
 #t hf aug-cc-pvdz iop(5/13=1,5/36=2,99/5=2) pseudo=read geom=check gue
 ss=(read,tcheck) scf=(maxcycle=1)
 ----------------------------------------------------------------------
 -----
 title
 -----
 Structure from the checkpoint file:  "BDE49_nonexpt_2397_mol1.chk"
 Charge =  0 Multiplicity = 1

                         Standard orientation:
 ---------------------------------------------------------------------
 Center     Atomic      Atomic             Coordinates (Angstroms)
 Number     Number       Type             X           Y           Z
 ---------------------------------------------------------------------
      1         14           0        2.101830   -0.735662   -0.000009
      2         14           0        0.524203    1.018655    0.000159
      3          1           0        3.469151   -0.160615    0.000712
      4          1           0        1.931374   -1.577681   -1.207603
      5          1           0        1.930519   -1.578671    1.206774
      6          7           0       -1.075668    0.389670   -0.000659
      7          1           0        0.681802    1.868262   -1.201834
      8          1           0        0.681044    1.867359    1.202900
      9          6           0       -2.120223   -0.191682   -0.000095
     10          8           0       -3.150917   -0.744768    0.000266
 ---------------------------------------------------------------------

 SCF Done:  E(RHF) =  -748.117156727     A.U. after    2 cycles

 The electronic state is 1-A.
 Alpha  occ. eigenvalues --  -69.11293 -69.07323 -20.62322 -15.64797 -11.42401
 Alpha  occ. eigenvalues --   -6.86188  -6.82770  -3.97126  -3.96909  -3.96881
 Alpha  occ. eigenvalues --   -3.93528  -3.93523  -3.93500  -1.42724  -1.22251
 Alpha  occ. eigenvalues --   -0.83375  -0.74148  -0.71598  -0.66169  -0.66165
 Alpha  occ. eigenvalues --   -0.61332  -0.52716  -0.49840  -0.49166  -0.48361
 Alpha  occ. eigenvalues --   -0.44281  -0.39678
 Alpha virt. eigenvalues --    0.03411   0.03835   0.04883   0.05663   0.06703
 Alpha virt. eigenvalues --    0.06891   0.07020   0.08482   0.08744   0.09725
 Alpha virt. eigenvalues --    0.09751   0.10628   0.12700   0.13013   0.13231

 Mulliken charges:
               1
     1  Si  -0.136773
     2  Si   0.620941
     3  H   -0.013101
     4  H    0.001935
     5  H    0.001965
     6  N   -0.139204
     7  H    0.019961
     8  H    0.019645
     9  C   -0.152351
    10  O   -0.223019
 Sum of Mulliken charges =   0.00000

 Dipole moment (field-independent basis, Debye):
    X=              2.6025    Y=              0.9778    Z=              0.0003  Tot=              2.7801

 Test job not archived.
 1\1\GINC-SE345\SP\RHF\Aug-CC-pVDZ\C1H5N1O1Si2\OHZDE\09-Apr-2025\0\\#t
 hf aug-cc-pvdz iop(5/13=1,5/36=2,99/5=2) pseudo=read geom=check guess=
 (read,tcheck) scf=(maxcycle=1)\\title\\0,1\Si,0,2.10183,-0.735662,-0.0
 00009\Si,0,0.524203,1.018655,0.000159\H,0,3.469151,-0.160615,0.000712\
 H,0,1.931374,-1.577681,-1.207603\H,0,1.930519,-1.578671,1.206774\N,0,-
 1.075668,0.38967,-0.000659\H,0,0.681802,1.868262,-1.201834\H,0,0.68104
 4,1.867359,1.2029\C,0,-2.120223,-0.191682,-0.000095\O,0,-3.150917,-0.7
 44768,0.000266\\Version=ES64L-G16RevC.01\State=1-A\HF=-748.1171567\RMS

 Normal termination of Gaussian 16 at Wed Apr  9 00:10:45 2025.
