 Gaussian 16, Revision C.01,

 ----------------------------------------------------------------------
 #t hf aug-cc-pvdz symm=none int=(grid=ultrafine) guess=(read,tcheck) s
 table=(opt,rrhf)
 ----------------------------------------------------------------------
 -----
 title
 -----
 Symbolic Z-matrix:
 Charge =  0 Multiplicity = 1

 SCF Done:  E(RHF) =  -1025.41429931     A.U. after   14 cycles
 Normal termination of Gaussian 16 at Wed Apr  9 00:16:06 2025.
 Gaussian 16:  ES64L-G16RevC.01  3-Jul-2019

 ----------------------------------------------------------------------
 #t hf aug-cc-pvdz iop(5/13=1,5/36=2,99/5=2) pseudo=read geom=check gue
 ss=(read,tcheck) scf=(maxcycle=1)
 ----------------------------------------------------------------------
 -----
 title
 -----
 Structure from the checkpoint file:  "BDE49_nonexpt_2564_mol1.chk"
 Charge =  0 Multiplicity = 1

                         Standard orientation:
 ---------------------------------------------------------------------
 Center     Atomic      Atomic             Coordinates (Angstroms)
 Number     Number       Type             X           Y           Z
 ---------------------------------------------------------------------
      1         17           0       -1.880366    0.301349   -0.000022
      2         16           0       -0.215369   -0.969367    0.000019
      3          6           0        1.248951    0.101734    0.000011
      4          8           0        2.286174   -0.517595   -0.000013
      5          7           0        1.080269    1.435032    0.000011
      6          1           0        0.164763    1.853638    0.000022
      7          1           0        1.902386    2.018429   -0.000003
 ---------------------------------------------------------------------

 SCF Done:  E(RHF) =  -1025.50739280     A.U. after    2 cycles

 The electronic state is 1-A.
 Alpha  occ. eigenvalues -- -103.70124 -93.62267 -20.57830 -15.68642 -11.43076
 Alpha  occ. eigenvalues --  -10.73264  -8.91658  -8.38990  -8.38667  -8.38616
 Alpha  occ. eigenvalues --   -6.25713  -6.25428  -6.25004  -1.39437  -1.22513
 Alpha  occ. eigenvalues --   -1.18240  -0.98281  -0.82793  -0.76006  -0.70638
 Alpha  occ. eigenvalues --   -0.63212  -0.62995  -0.54050  -0.53311  -0.51429
 Alpha  occ. eigenvalues --   -0.45752  -0.45077  -0.39673
 Alpha virt. eigenvalues --    0.02699   0.03412   0.06130   0.07954   0.10615
 Alpha virt. eigenvalues --    0.10785   0.11977   0.12801   0.13328   0.13481
 Alpha virt. eigenvalues --    0.15097   0.15576   0.15882   0.16818   0.18190

 Mulliken charges:
               1
     1  Cl  -0.330777
     2  S    0.534523
     3  C    0.221641
     4  O   -0.426895
     5  N   -0.044461
     6  H    0.043372
     7  H    0.002596
 Sum of Mulliken charges =  -0.00000

 Dipole moment (field-independent basis, Debye):
    X=             -1.1712    Y=              3.1494    Z=              0.0001  Tot=              3.3601

 Test job not archived.
 1\1\GINC-SE322\SP\RHF\Aug-CC-pVDZ\C1H2Cl1N1O1S1\OHZDE\09-Apr-2025\0\\#
 t hf aug-cc-pvdz iop(5/13=1,5/36=2,99/5=2) pseudo=read geom=check gues
 s=(read,tcheck) scf=(maxcycle=1)\\title\\0,1\Cl,0,-1.880366,0.301349,-
 0.000022\S,0,-0.215369,-0.969367,0.000019\C,0,1.248951,0.101734,0.0000
 11\O,0,2.286174,-0.517595,-0.000013\N,0,1.080269,1.435032,0.000011\H,0
 ,0.164763,1.853638,0.000022\H,0,1.902386,2.018429,-0.000003\\Version=E
 S64L-G16RevC.01\State=1-A\HF=-1025.5073928\RMSD=3.678e-03\Dipole=-0.46
 07837,1.2390704,0.0000233\Quadrupole=-4.3197938,5.2032465,-0.8834527,4

 Normal termination of Gaussian 16 at Wed Apr  9 00:16:09 2025.
