 Gaussian 16, Revision C.01,

 ----------------------------------------------------------------------
 #t hf aug-cc-pvdz symm=none int=(grid=ultrafine) guess=(read,tcheck) s
 table=(opt,rrhf)
 ----------------------------------------------------------------------
 -----
 title
 -----
 Symbolic Z-matrix:
 Charge =  0 Multiplicity = 1

 SCF Done:  E(RHF) =  -1036.97693244     A.U. after   13 cycles
 Normal termination of Gaussian 16 at Tue Apr  8 23:25:57 2025.
 Gaussian 16:  ES64L-G16RevC.01  3-Jul-2019

 ----------------------------------------------------------------------
 #t hf aug-cc-pvdz iop(5/13=1,5/36=2,99/5=2) pseudo=read geom=check gue
 ss=(read,tcheck) scf=(maxcycle=1)
 ----------------------------------------------------------------------
 -----
 title
 -----
 Structure from the checkpoint file:  "BDE49_nonexpt_1229_mol1.chk"
 Charge =  0 Multiplicity = 1

                         Standard orientation:
 ---------------------------------------------------------------------
 Center     Atomic      Atomic             Coordinates (Angstroms)
 Number     Number       Type             X           Y           Z
 ---------------------------------------------------------------------
      1          6           0        3.412097    0.732042    0.453825
      2          6           0        2.240344   -0.150005   -0.004299
      3          1           0        4.316831    0.121040    0.525350
      4          1           0        3.225413    1.171570    1.437305
      5          1           0        3.609199    1.539333   -0.256594
      6          6           0        1.945277   -1.247411    1.023142
      7          1           0        2.795184   -1.935566    1.089270
      8          1           0        1.067322   -1.825667    0.729983
      9          1           0        1.766167   -0.824292    2.013816
     10          6           0        2.510266   -0.752814   -1.388367
     11          1           0        3.331829   -1.475386   -1.330182
     12          1           0        2.780779    0.023448   -2.107119
     13          1           0        1.624121   -1.269252   -1.761296
     14         16           0        0.822355    1.035142   -0.121513
     15          8           0       -0.396175   -0.011259   -0.664787
     16         14           0       -1.937918   -0.060108    0.013233
     17          6           0       -1.869281   -0.621315    1.800737
     18          1           0       -1.449292   -1.627021    1.890774
     19          1           0       -2.875472   -0.639863    2.232464
     20          1           0       -1.259667    0.054562    2.406451
     21          6           0       -2.728863    1.635900   -0.097751
     22          1           0       -2.177494    2.373940    0.492442
     23          1           0       -3.755942    1.611460    0.280918
     24          1           0       -2.760881    1.989192   -1.132355
     25          6           0       -2.842399   -1.301959   -1.054460
     26          1           0       -2.357390   -2.281367   -1.018138
     27          1           0       -2.867132   -0.977355   -2.098123
     28          1           0       -3.875655   -1.426095   -0.714679
 ---------------------------------------------------------------------

 SCF Done:  E(RHF) =  -1037.14565698     A.U. after    2 cycles

 The electronic state is 1-A.
 Alpha  occ. eigenvalues --  -93.56795 -69.07278 -20.56935 -11.28113 -11.23658
 Alpha  occ. eigenvalues --  -11.22889 -11.22542 -11.20706 -11.20666 -11.20608
 Alpha  occ. eigenvalues --   -8.85858  -6.82070  -6.20114  -6.19755  -6.19414
 Alpha  occ. eigenvalues --   -3.92989  -3.92837  -3.92812  -1.28927  -1.09839
 Alpha  occ. eigenvalues --   -0.95868  -0.94065  -0.93445  -0.92005  -0.91848
 Alpha  occ. eigenvalues --   -0.89981  -0.74138  -0.66427  -0.63724  -0.61415
 Alpha  occ. eigenvalues --   -0.60817  -0.58413  -0.57881  -0.56525  -0.56019
 Alpha  occ. eigenvalues --   -0.55305  -0.54951  -0.54234  -0.53191  -0.53079
 Alpha  occ. eigenvalues --   -0.52675  -0.52308  -0.52158  -0.48359  -0.48058
 Alpha  occ. eigenvalues --   -0.43232  -0.42771  -0.40699  -0.33362
 Alpha virt. eigenvalues --    0.02991   0.03926   0.04495   0.04679   0.05585
 Alpha virt. eigenvalues --    0.05686   0.05748   0.06416   0.06689   0.07565
 Alpha virt. eigenvalues --    0.07789   0.08057   0.08111   0.08550   0.09391

 Mulliken charges:
               1
     1  C    1.123511
     2  C   -2.587072
     3  H    0.001885
     4  H   -0.031156
     5  H   -0.046315
     6  C    0.881252
     7  H   -0.054978
     8  H   -0.081138
     9  H   -0.108595
    10  C    0.882238
    11  H   -0.017655
    12  H   -0.061179
    13  H   -0.087080
    14  S    0.661489
    15  O   -1.125700
    16  Si   1.718652
    17  C    0.521097
    18  H   -0.338957
    19  H   -0.260098
    20  H   -0.272818
    21  C    0.530503
    22  H   -0.315738
    23  H   -0.293658
    24  H   -0.302246
    25  C    0.483732
    26  H   -0.259845
    27  H   -0.278591
    28  H   -0.281540
 Sum of Mulliken charges =  -0.00000

 Dipole moment (field-independent basis, Debye):
    X=              0.4963    Y=             -0.7822    Z=              0.9168  Tot=              1.3033

 Test job not archived.
 1\1\GINC-SE109\SP\RHF\Aug-CC-pVDZ\C7H18O1S1Si1\OHZDE\08-Apr-2025\0\\#t
  hf aug-cc-pvdz iop(5/13=1,5/36=2,99/5=2) pseudo=read geom=check guess
 =(read,tcheck) scf=(maxcycle=1)\\title\\0,1\C,0,3.412097,0.732042,0.45
 3825\C,0,2.240344,-0.150005,-0.004299\H,0,4.316831,0.12104,0.52535\H,0
 ,3.225413,1.17157,1.437305\H,0,3.609199,1.539333,-0.256594\C,0,1.94527
 7,-1.247411,1.023142\H,0,2.795184,-1.935566,1.08927\H,0,1.067322,-1.82
 5667,0.729983\H,0,1.766167,-0.824292,2.013816\C,0,2.510266,-0.752814,-
 1.388367\H,0,3.331829,-1.475386,-1.330182\H,0,2.780779,0.023448,-2.107

 Normal termination of Gaussian 16 at Tue Apr  8 23:26:20 2025.
