 Gaussian 16, Revision C.01,

 ----------------------------------------------------------------------
 #t hf aug-cc-pvdz symm=none int=(grid=ultrafine) guess=(read,tcheck) s
 table=opt
 ----------------------------------------------------------------------
 -----
 title
 -----
 Symbolic Z-matrix:
 Charge =  0 Multiplicity = 2

 SCF Done:  E(UHF) =  -1038.97847179     A.U. after   22 cycles
 Normal termination of Gaussian 16 at Wed Apr  9 00:15:44 2025.
 Gaussian 16:  ES64L-G16RevC.01  3-Jul-2019

 ----------------------------------------------------------------------
 #t hf aug-cc-pvdz iop(5/13=1,5/36=2,99/5=2) pseudo=read geom=check gue
 ss=(read,tcheck) scf=(maxcycle=1)
 ----------------------------------------------------------------------
 -----
 title
 -----
 Structure from the checkpoint file:  "BDE49_nonexpt_2555_mol2.chk"
 Charge =  0 Multiplicity = 2

                         Standard orientation:
 ---------------------------------------------------------------------
 Center     Atomic      Atomic             Coordinates (Angstroms)
 Number     Number       Type             X           Y           Z
 ---------------------------------------------------------------------
      1         16           0        2.117183   -0.061264   -0.000670
      2         15           0       -0.790012    0.012573   -0.092592
      3          8           0       -1.814909   -0.392108   -1.037381
      4          8           0       -1.005787   -0.415972    1.427148
      5          1           0       -1.532274   -1.220672    1.511014
      6          8           0       -0.459525    1.548235    0.012284
      7          1           0        0.433886    1.723836    0.354664
      8          8           0        0.664427   -0.704098   -0.460311
 ---------------------------------------------------------------------

 SCF Done:  E(UHF) =  -1039.17402515     A.U. after    2 cycles

 The electronic state is 2-A.
 Alpha  occ. eigenvalues --  -93.64868 -81.47101 -20.66333 -20.63994 -20.63818
 Alpha  occ. eigenvalues --  -20.54600  -8.93920  -7.95002  -6.29113  -6.27710
 Alpha  occ. eigenvalues --   -6.27051  -5.09694  -5.09590  -5.09497  -1.42638
 Alpha  occ. eigenvalues --   -1.38115  -1.37512  -1.28517  -0.98917  -0.86531
 Alpha  occ. eigenvalues --   -0.80131  -0.75643  -0.70265  -0.68245  -0.66270
 Alpha  occ. eigenvalues --   -0.62661  -0.61016  -0.60337  -0.58281  -0.51742
 Alpha  occ. eigenvalues --   -0.51351  -0.46489  -0.42221
 Alpha virt. eigenvalues --    0.03184   0.04187   0.05863   0.08038   0.09047
 Alpha virt. eigenvalues --    0.10499   0.10918   0.12148   0.13211   0.15757
 Alpha virt. eigenvalues --    0.17804   0.17989   0.19561   0.20534   0.22326

  Beta  occ. eigenvalues --  -93.63986 -81.47106 -20.65700 -20.64009 -20.63819
  Beta  occ. eigenvalues --  -20.54606  -8.92938  -7.95009  -6.27302  -6.26518
  Beta  occ. eigenvalues --   -6.25153  -5.09697  -5.09595  -5.09513  -1.42096
  Beta  occ. eigenvalues --   -1.37540  -1.36739  -1.28502  -0.92902  -0.85668
  Beta  occ. eigenvalues --   -0.79964  -0.74256  -0.69324  -0.65476  -0.64038
  Beta  occ. eigenvalues --   -0.61879  -0.60744  -0.58970  -0.57061  -0.51694
  Beta  occ. eigenvalues --   -0.51028  -0.40182
  Beta virt. eigenvalues --   -0.01500   0.03214   0.04487   0.06374   0.08193
  Beta virt. eigenvalues --    0.09620   0.10551   0.11291   0.13312   0.13692
  Beta virt. eigenvalues --    0.16664   0.17925   0.18281   0.19962   0.20605

 Mulliken charges and spin densities:
               1          2
     1  S    0.415632   0.972958
     2  P    2.332352  -0.001994
     3  O   -0.788418  -0.000746
     4  O   -0.675247   0.003074
     5  H    0.169980   0.000507
     6  O   -0.646671   0.003202
     7  H    0.180333  -0.017713
     8  O   -0.987961   0.040713
 Sum of Mulliken charges =   0.00000   1.00000

 Dipole moment (field-independent basis, Debye):
    X=              3.0854    Y=              0.2640    Z=              3.0854  Tot=              4.3713
                          Isotropic Fermi Contact Couplings
        Atom                 a.u.       MegaHertz       Gauss      10(-4) cm-1
     1  S(33)              0.21533      73.95931      26.39052      24.67017
     2  P(31)             -0.00702     -12.71471      -4.53692      -4.24117
     3  O(17)             -0.00041       0.24921       0.08892       0.08313
     4  O(17)             -0.00198       1.19897       0.42782       0.39993
     5  H(1)              -0.00002      -0.09697      -0.03460      -0.03234
     6  O(17)             -0.00248       1.50496       0.53701       0.50200
     7  H(1)               0.00021       0.93969       0.33531       0.31345
     8  O(17)              0.06627     -40.17429     -14.33518     -13.40070

 Normal termination of Gaussian 16 at Wed Apr  9 00:15:48 2025.
