 Gaussian 16, Revision C.01,

 ----------------------------------------------------------------------
 #t hf aug-cc-pvdz symm=none int=(grid=ultrafine) guess=(read,tcheck) s
 table=opt
 ----------------------------------------------------------------------
 -----
 title
 -----
 Symbolic Z-matrix:
 Charge =  0 Multiplicity = 2

 SCF Done:  E(UHF) =  -700.520984683     A.U. after   24 cycles
 Normal termination of Gaussian 16 at Tue Apr  8 23:33:33 2025.
 Gaussian 16:  ES64L-G16RevC.01  3-Jul-2019

 ----------------------------------------------------------------------
 #t hf aug-cc-pvdz iop(5/13=1,5/36=2,99/5=2) pseudo=read geom=check gue
 ss=(read,tcheck) scf=(maxcycle=1)
 ----------------------------------------------------------------------
 -----
 title
 -----
 Structure from the checkpoint file:  "BDE49_nonexpt_1448_mol2.chk"
 Charge =  0 Multiplicity = 2

                         Standard orientation:
 ---------------------------------------------------------------------
 Center     Atomic      Atomic             Coordinates (Angstroms)
 Number     Number       Type             X           Y           Z
 ---------------------------------------------------------------------
      1          6           0        2.045462   -0.101162   -0.000015
      2          8           0        2.453797   -1.241450   -0.000135
      3          7           0        0.681532    0.187896    0.000063
      4          6           0       -1.910173    0.309695    0.000156
      5          6           0        2.945670    1.118237    0.000092
      6          6           0       -3.331651   -0.211398    0.000103
      7          8           0       -1.665456    1.505935   -0.000287
      8          1           0        3.982671    0.789870    0.000040
      9          1           0        2.757549    1.735281    0.883244
     10          1           0        2.757518    1.735456   -0.882932
     11          1           0       -3.378548   -1.302325    0.000400
     12          1           0       -3.851904    0.171564   -0.882096
     13          1           0       -3.852152    0.172073    0.881932
     14         15           0       -0.556939   -0.972327    0.000010
     15          1           0        0.365658    1.159605    0.000192
 ---------------------------------------------------------------------

 SCF Done:  E(UHF) =  -700.656004315     A.U. after    2 cycles

 The electronic state is 2-A.
 Alpha  occ. eigenvalues --  -81.30583 -20.60015 -20.55511 -15.66172 -11.38091
 Alpha  occ. eigenvalues --  -11.35926 -11.26121 -11.25680  -7.80779  -4.95236
 Alpha  occ. eigenvalues --   -4.94591  -4.94240  -1.38806  -1.36658  -1.19032
 Alpha  occ. eigenvalues --   -1.02576  -1.00960  -0.87436  -0.79206  -0.74183
 Alpha  occ. eigenvalues --   -0.71079  -0.67242  -0.64992  -0.64187  -0.62980
 Alpha  occ. eigenvalues --   -0.62025  -0.58109  -0.56245  -0.56167  -0.54959
 Alpha  occ. eigenvalues --   -0.49770  -0.47736  -0.45301  -0.40032  -0.32990
 Alpha virt. eigenvalues --    0.03139   0.03624   0.04905   0.05359   0.06155
 Alpha virt. eigenvalues --    0.06275   0.07940   0.09486   0.09757   0.09884
 Alpha virt. eigenvalues --    0.10387   0.11197   0.12302   0.13102   0.13829

  Beta  occ. eigenvalues --  -81.29994 -20.58890 -20.55335 -15.65804 -11.38151
  Beta  occ. eigenvalues --  -11.36507 -11.26106 -11.25680  -7.80076  -4.94239
  Beta  occ. eigenvalues --   -4.93915  -4.92496  -1.36554  -1.36275  -1.17887
  Beta  occ. eigenvalues --   -1.02311  -1.00847  -0.85276  -0.78878  -0.73003
  Beta  occ. eigenvalues --   -0.70561  -0.66722  -0.64658  -0.62820  -0.61816
  Beta  occ. eigenvalues --   -0.61547  -0.57832  -0.56094  -0.54002  -0.50915
  Beta  occ. eigenvalues --   -0.47326  -0.44786  -0.43243  -0.38815
  Beta virt. eigenvalues --    0.01609   0.03166   0.03638   0.04985   0.05378
  Beta virt. eigenvalues --    0.06181   0.06282   0.08008   0.09549   0.09828
  Beta virt. eigenvalues --    0.10656   0.11038   0.12538   0.12904   0.13854

 Mulliken charges and spin densities:
               1          2
     1  C    0.415038  -0.021440
     2  O   -0.470354   0.044120
     3  N   -0.529251   0.015005
     4  C   -0.067841  -0.273216
     5  C    0.244018   0.000560
     6  C    0.368036   0.016320
     7  O   -0.587614   0.273026
     8  H   -0.072036  -0.001454
     9  H    0.037729   0.000823
    10  H    0.037743   0.000823
    11  H   -0.083978  -0.007597
    12  H    0.030539  -0.002608
    13  H    0.030481  -0.002608
    14  P    0.659795   0.968824
    15  H   -0.012305  -0.010580
 Sum of Mulliken charges =  -0.00000   1.00000

 Dipole moment (field-independent basis, Debye):
    X=             -1.9705    Y=              1.6925    Z=              0.0012  Tot=              2.5976
                          Isotropic Fermi Contact Couplings
        Atom                 a.u.       MegaHertz       Gauss      10(-4) cm-1
     1  C(13)             -0.00798      -8.97264      -3.20166      -2.99295
     2  O(17)              0.01424      -8.63197      -3.08010      -2.87931
     3  N(14)              0.03211      10.37546       3.70222       3.46088
     4  C(13)             -0.07114     -79.97286     -28.53631     -26.67607
     5  C(13)             -0.00055      -0.62383      -0.22260      -0.20809
     6  C(13)              0.00201       2.25738       0.80549       0.75298
     7  O(17)              0.09360     -56.73953     -20.24608     -18.92627
     8  H(1)              -0.00017      -0.74426      -0.26557      -0.24826

 Normal termination of Gaussian 16 at Tue Apr  8 23:33:39 2025.
