 Gaussian 16, Revision C.01,

 ----------------------------------------------------------------------
 #t hf aug-cc-pvdz symm=none int=(grid=ultrafine) guess=(read,tcheck) s
 table=(opt,rrhf)
 ----------------------------------------------------------------------
 -----
 title
 -----
 Symbolic Z-matrix:
 Charge =  0 Multiplicity = 1

 SCF Done:  E(RHF) =  -749.171882020     A.U. after   13 cycles
 Normal termination of Gaussian 16 at Wed Apr  9 00:10:28 2025.
 Gaussian 16:  ES64L-G16RevC.01  3-Jul-2019

 ----------------------------------------------------------------------
 #t hf aug-cc-pvdz iop(5/13=1,5/36=2,99/5=2) pseudo=read geom=check gue
 ss=(read,tcheck) scf=(maxcycle=1)
 ----------------------------------------------------------------------
 -----
 title
 -----
 Structure from the checkpoint file:  "BDE49_nonexpt_2387_mol1.chk"
 Charge =  0 Multiplicity = 1

                         Standard orientation:
 ---------------------------------------------------------------------
 Center     Atomic      Atomic             Coordinates (Angstroms)
 Number     Number       Type             X           Y           Z
 ---------------------------------------------------------------------
      1         14           0       -1.817810   -0.563359   -0.160416
      2         14           0       -0.237696    1.136179    0.249707
      3          1           0       -1.498862   -1.259220   -1.428430
      4          1           0       -3.154864    0.070028   -0.304046
      5          1           0       -1.873175   -1.526888    0.958097
      6          7           0        1.370051    0.699870   -0.370655
      7          1           0       -0.153454    1.451819    1.695653
      8          1           0       -0.548241    2.391133   -0.476154
      9          6           0        1.881689   -0.548941   -0.171028
     10          8           0        1.286190   -1.424757    0.426149
     11          1           0        2.886662   -0.707063   -0.603152
     12          1           0        1.949013    1.353317   -0.880472
 ---------------------------------------------------------------------

 SCF Done:  E(RHF) =  -749.271230833     A.U. after    2 cycles

 The electronic state is 1-A.
 Alpha  occ. eigenvalues --  -69.09050 -69.05820 -20.55699 -15.64953 -11.37832
 Alpha  occ. eigenvalues --   -6.84102  -6.81198  -3.94972  -3.94840  -3.94786
 Alpha  occ. eigenvalues --   -3.91958  -3.91949  -3.91935  -1.36228  -1.17587
 Alpha  occ. eigenvalues --   -0.84336  -0.75982  -0.72107  -0.68350  -0.63631
 Alpha  occ. eigenvalues --   -0.59357  -0.55873  -0.50087  -0.48026  -0.47456
 Alpha  occ. eigenvalues --   -0.45605  -0.43722  -0.38910
 Alpha virt. eigenvalues --    0.02661   0.04237   0.04403   0.05494   0.06570
 Alpha virt. eigenvalues --    0.07146   0.07747   0.08261   0.08890   0.09728
 Alpha virt. eigenvalues --    0.09877   0.10726   0.10870   0.11513   0.12709

 Mulliken charges:
               1
     1  Si  -0.302309
     2  Si   0.496160
     3  H    0.082710
     4  H    0.019021
     5  H    0.102199
     6  N   -0.426127
     7  H    0.010677
     8  H    0.043996
     9  C    0.687025
    10  O   -0.381778
    11  H   -0.206813
    12  H   -0.124761
 Sum of Mulliken charges =  -0.00000

 Dipole moment (field-independent basis, Debye):
    X=              1.6652    Y=              2.9295    Z=             -1.8154  Tot=              3.8276

 Test job not archived.
 1\1\GINC-SE094\SP\RHF\Aug-CC-pVDZ\C1H7N1O1Si2\OHZDE\09-Apr-2025\0\\#t
 hf aug-cc-pvdz iop(5/13=1,5/36=2,99/5=2) pseudo=read geom=check guess=
 (read,tcheck) scf=(maxcycle=1)\\title\\0,1\Si,0,-1.81781,-0.563359,-0.
 160416\Si,0,-0.237696,1.136179,0.249707\H,0,-1.498862,-1.25922,-1.4284
 3\H,0,-3.154864,0.070028,-0.304046\H,0,-1.873175,-1.526888,0.958097\N,
 0,1.370051,0.69987,-0.370655\H,0,-0.153454,1.451819,1.695653\H,0,-0.54
 8241,2.391133,-0.476154\C,0,1.881689,-0.548941,-0.171028\O,0,1.28619,-
 1.424757,0.426149\H,0,2.886662,-0.707063,-0.603152\H,0,1.949013,1.3533

 Normal termination of Gaussian 16 at Wed Apr  9 00:10:46 2025.
