 Gaussian 16, Revision C.01,

 ----------------------------------------------------------------------
 #t hf aug-cc-pvdz symm=none int=(grid=ultrafine) guess=(read,tcheck) s
 table=opt
 ----------------------------------------------------------------------
 -----
 title
 -----
 Symbolic Z-matrix:
 Charge =  0 Multiplicity = 2

 SCF Done:  E(UHF) =  -716.228929576     A.U. after   23 cycles
 Normal termination of Gaussian 16 at Tue Apr  8 23:15:59 2025.
 Gaussian 16:  ES64L-G16RevC.01  3-Jul-2019

 ----------------------------------------------------------------------
 #t hf aug-cc-pvdz iop(5/13=1,5/36=2,99/5=2) pseudo=read geom=check gue
 ss=(read,tcheck) scf=(maxcycle=1)
 ----------------------------------------------------------------------
 -----
 title
 -----
 Structure from the checkpoint file:  "BDE49_nonexpt_1045_mol2.chk"
 Charge =  0 Multiplicity = 2

                         Standard orientation:
 ---------------------------------------------------------------------
 Center     Atomic      Atomic             Coordinates (Angstroms)
 Number     Number       Type             X           Y           Z
 ---------------------------------------------------------------------
      1          8           0       -2.101067   -0.152621    0.078998
      2         15           0        0.459063    0.012662   -0.112525
      3          8           0        1.386763   -0.658456   -1.004313
      4          8           0       -0.102313    1.432224   -0.458506
      5          1           0       -1.068409    1.461832   -0.311310
      6          8           0        0.898000    0.137064    1.407030
      7          1           0        1.555907   -0.523331    1.659933
      8          8           0       -1.003063   -0.899265    0.019198
 ---------------------------------------------------------------------

 SCF Done:  E(UHF) =  -716.424243935     A.U. after    2 cycles

 The electronic state is 2-A.
 Alpha  occ. eigenvalues --  -81.48315 -20.74700 -20.70930 -20.65031 -20.65000
 Alpha  occ. eigenvalues --  -20.56261  -7.96252  -5.10939  -5.10820  -5.10705
 Alpha  occ. eigenvalues --   -1.55921  -1.41974  -1.38795  -1.30229  -1.21622
 Alpha  occ. eigenvalues --   -0.88397  -0.83426  -0.82179  -0.78503  -0.74902
 Alpha  occ. eigenvalues --   -0.69872  -0.65744  -0.64324  -0.63689  -0.60239
 Alpha  occ. eigenvalues --   -0.58405  -0.55905  -0.52833  -0.52171
 Alpha virt. eigenvalues --    0.02990   0.04417   0.08213   0.08551   0.10658
 Alpha virt. eigenvalues --    0.11354   0.13614   0.16579   0.18443   0.18500
 Alpha virt. eigenvalues --    0.19140   0.21470   0.22449   0.23259   0.23983

  Beta  occ. eigenvalues --  -81.48324 -20.70546 -20.70119 -20.65030 -20.65023
  Beta  occ. eigenvalues --  -20.56276  -7.96266  -5.10942  -5.10829  -5.10740
  Beta  occ. eigenvalues --   -1.49400  -1.41635  -1.38811  -1.30165  -1.11867
  Beta  occ. eigenvalues --   -0.87981  -0.82299  -0.78469  -0.72685  -0.69520
  Beta  occ. eigenvalues --   -0.65914  -0.64520  -0.63914  -0.60432  -0.59649
  Beta  occ. eigenvalues --   -0.54308  -0.52757  -0.51290
  Beta virt. eigenvalues --    0.03001   0.04301   0.04470   0.08226   0.08829
  Beta virt. eigenvalues --    0.10850   0.11463   0.14070   0.16850   0.18532
  Beta virt. eigenvalues --    0.18757   0.19775   0.22563   0.22914   0.23829

 Mulliken charges and spin densities:
               1          2
     1  O   -0.133640   0.951667
     2  P    2.361411  -0.009576
     3  O   -0.777166  -0.004037
     4  O   -0.664218  -0.003072
     5  H    0.236112  -0.005496
     6  O   -0.658167   0.002261
     7  H    0.167619  -0.000193
     8  O   -0.531951   0.068446
 Sum of Mulliken charges =  -0.00000   1.00000

 Dipole moment (field-independent basis, Debye):
    X=             -1.0256    Y=              1.0052    Z=              2.4990  Tot=              2.8823
                          Isotropic Fermi Contact Couplings
        Atom                 a.u.       MegaHertz       Gauss      10(-4) cm-1
     1  O(17)              0.29876    -181.10961     -64.62441     -60.41166
     2  P(31)             -0.01339     -24.25125      -8.65345      -8.08935
     3  O(17)             -0.00084       0.50845       0.18143       0.16960
     4  O(17)             -0.00349       2.11646       0.75521       0.70598
     5  H(1)               0.00047       2.11398       0.75432       0.70515
     6  O(17)             -0.00008       0.04784       0.01707       0.01596
     7  H(1)              -0.00004      -0.17165      -0.06125      -0.05726
     8  O(17)              0.08535     -51.73810     -18.46144     -17.25797

 Normal termination of Gaussian 16 at Tue Apr  8 23:16:02 2025.
