 Gaussian 16, Revision C.01,

 ----------------------------------------------------------------------
 #t hf aug-cc-pvdz symm=none int=(grid=ultrafine) guess=(read,tcheck) s
 table=(opt,rrhf)
 ----------------------------------------------------------------------
 -----
 title
 -----
 Symbolic Z-matrix:
 Charge =  0 Multiplicity = 1

 SCF Done:  E(RHF) =  -667.383831312     A.U. after   12 cycles
 Normal termination of Gaussian 16 at Wed Apr  9 00:34:21 2025.
 Gaussian 16:  ES64L-G16RevC.01  3-Jul-2019

 ----------------------------------------------------------------------
 #t hf aug-cc-pvdz iop(5/13=1,5/36=2,99/5=2) pseudo=read geom=check gue
 ss=(read,tcheck) scf=(maxcycle=1)
 ----------------------------------------------------------------------
 -----
 title
 -----
 Structure from the checkpoint file:  "BDE49_nonexpt_480_mol1.chk"
 Charge =  0 Multiplicity = 1

                         Standard orientation:
 ---------------------------------------------------------------------
 Center     Atomic      Atomic             Coordinates (Angstroms)
 Number     Number       Type             X           Y           Z
 ---------------------------------------------------------------------
      1          1           0        3.257722   -0.776806   -0.238701
      2          1           0        2.423371    1.005932    0.477991
      3          5           0        2.324117   -0.091899    0.030543
      4         15           0       -0.340481    0.022606    0.112987
      5          8           0       -0.644740    0.260859    1.521325
      6          8           0       -0.302713    1.285820   -0.854212
      7          1           0       -0.939458    1.962560   -0.595357
      8          8           0       -1.330879   -0.971046   -0.640979
      9          1           0       -1.745898   -1.592532   -0.031325
     10          8           0        1.089694   -0.635477   -0.208649
 ---------------------------------------------------------------------

 SCF Done:  E(RHF) =  -667.571295391     A.U. after    2 cycles

 The electronic state is 1-A.
 Alpha  occ. eigenvalues --  -81.46350 -20.63302 -20.62882 -20.62014 -20.54162
 Alpha  occ. eigenvalues --   -7.94233  -7.67033  -5.08927  -5.08834  -5.08796
 Alpha  occ. eigenvalues --   -1.41123  -1.36679  -1.35985  -1.27767  -0.89345
 Alpha  occ. eigenvalues --   -0.79938  -0.78222  -0.70519  -0.67790  -0.66648
 Alpha  occ. eigenvalues --   -0.62777  -0.61893  -0.60506  -0.58471  -0.57325
 Alpha  occ. eigenvalues --   -0.51027  -0.50573  -0.48169
 Alpha virt. eigenvalues --    0.03096   0.04301   0.04794   0.05154   0.06177
 Alpha virt. eigenvalues --    0.07992   0.09886   0.10740   0.11035   0.12282
 Alpha virt. eigenvalues --    0.12448   0.13863   0.14612   0.18639   0.19203

 Mulliken charges:
               1
     1  H    0.333162
     2  H    0.128666
     3  B   -0.167178
     4  P    2.450191
     5  O   -0.837936
     6  O   -0.648549
     7  H    0.164392
     8  O   -0.645255
     9  H    0.160883
    10  O   -0.938377
 Sum of Mulliken charges =  -0.00000

 Dipole moment (field-independent basis, Debye):
    X=             -0.5917    Y=              0.1547    Z=             -1.2241  Tot=              1.3683

 Test job not archived.
 1\1\GINC-SE227\SP\RHF\Aug-CC-pVDZ\B1H4O4P1\OHZDE\09-Apr-2025\0\\#t hf
 aug-cc-pvdz iop(5/13=1,5/36=2,99/5=2) pseudo=read geom=check guess=(re
 ad,tcheck) scf=(maxcycle=1)\\title\\0,1\H,0,3.257722,-0.776806,-0.2387
 01\H,0,2.423371,1.005932,0.477991\B,0,2.324117,-0.091899,0.030543\P,0,
 -0.340481,0.022606,0.112987\O,0,-0.64474,0.260859,1.521325\O,0,-0.3027
 13,1.28582,-0.854212\H,0,-0.939458,1.96256,-0.595357\O,0,-1.330879,-0.
 971046,-0.640979\H,0,-1.745898,-1.592532,-0.031325\O,0,1.089694,-0.635
 477,-0.208649\\Version=ES64L-G16RevC.01\State=1-A\HF=-667.5712954\RMSD

 Normal termination of Gaussian 16 at Wed Apr  9 00:34:25 2025.
