 Gaussian 16, Revision C.01,

 ----------------------------------------------------------------------
 #t hf aug-cc-pvdz symm=none int=(grid=ultrafine) guess=(read,tcheck) s
 table=(opt,rrhf)
 ----------------------------------------------------------------------
 -----
 title
 -----
 Symbolic Z-matrix:
 Charge =  0 Multiplicity = 1

 SCF Done:  E(RHF) =  -515.803694762     A.U. after   12 cycles
 Normal termination of Gaussian 16 at Tue Apr  8 22:44:43 2025.
 Gaussian 16:  ES64L-G16RevC.01  3-Jul-2019

 ----------------------------------------------------------------------
 #t hf aug-cc-pvdz iop(5/13=1,5/36=2,99/5=2) pseudo=read geom=check gue
 ss=(read,tcheck) scf=(maxcycle=1)
 ----------------------------------------------------------------------
 -----
 title
 -----
 Structure from the checkpoint file:  "BDE49_expt_1562_mol1.chk"
 Charge =  0 Multiplicity = 1

                         Standard orientation:
 ---------------------------------------------------------------------
 Center     Atomic      Atomic             Coordinates (Angstroms)
 Number     Number       Type             X           Y           Z
 ---------------------------------------------------------------------
      1         16           0       -0.706743   -0.682544   -0.220488
      2          6           0       -1.495405    0.920961    0.135599
      3          1           0       -1.495962    1.125739    1.208159
      4          1           0       -2.527981    0.839848   -0.206411
      5          1           0       -1.014502    1.739459   -0.401273
      6          6           0        0.957752   -0.422443    0.499095
      7          6           0        1.848379    0.557317   -0.261676
      8          1           0        1.402876   -1.420600    0.503565
      9          1           0        0.836759   -0.121263    1.543591
     10          1           0        1.983387    0.238362   -1.297335
     11          1           0        2.834182    0.619745    0.210923
     12          1           0        1.424775    1.564409   -0.271522
 ---------------------------------------------------------------------

 SCF Done:  E(RHF) =  -515.864708281     A.U. after    2 cycles

 The electronic state is 1-A.
 Alpha  occ. eigenvalues --  -93.52106 -11.26690 -11.26087 -11.23400  -8.81824
 Alpha  occ. eigenvalues --   -6.15964  -6.15754  -6.15427  -1.06323  -0.98737
 Alpha  occ. eigenvalues --   -0.88356  -0.78095  -0.63154  -0.60601  -0.58624
 Alpha  occ. eigenvalues --   -0.56237  -0.54067  -0.51518  -0.47361  -0.42128
 Alpha  occ. eigenvalues --   -0.33311
 Alpha virt. eigenvalues --    0.03525   0.04476   0.05063   0.05374   0.06685
 Alpha virt. eigenvalues --    0.07192   0.07877   0.08687   0.10703   0.12597
 Alpha virt. eigenvalues --    0.13973   0.14665   0.15453   0.15976   0.16224

 Mulliken charges:
               1
     1  S    0.381006
     2  C    0.088606
     3  H   -0.086310
     4  H   -0.105802
     5  H   -0.064709
     6  C   -0.141740
     7  C    0.294054
     8  H   -0.065465
     9  H   -0.070353
    10  H   -0.051031
    11  H   -0.046103
    12  H   -0.132154
 Sum of Mulliken charges =   0.00000

 Dipole moment (field-independent basis, Debye):
    X=              0.8000    Y=              1.4361    Z=              0.7995  Tot=              1.8280

 Test job not archived.
 1\1\GINC-SE043\SP\RHF\Aug-CC-pVDZ\C3H8S1\OHZDE\08-Apr-2025\0\\#t hf au
 g-cc-pvdz iop(5/13=1,5/36=2,99/5=2) pseudo=read geom=check guess=(read
 ,tcheck) scf=(maxcycle=1)\\title\\0,1\S,0,-0.706743,-0.682544,-0.22048
 8\C,0,-1.495405,0.920961,0.135599\H,0,-1.495962,1.125739,1.208159\H,0,
 -2.527981,0.839848,-0.206411\H,0,-1.014502,1.739459,-0.401273\C,0,0.95
 7752,-0.422443,0.499095\C,0,1.848379,0.557317,-0.261676\H,0,1.402876,-
 1.4206,0.503565\H,0,0.836759,-0.121263,1.543591\H,0,1.983387,0.238362,
 -1.297335\H,0,2.834182,0.619745,0.210923\H,0,1.424775,1.564409,-0.2715

 Normal termination of Gaussian 16 at Tue Apr  8 22:44:48 2025.
