 Gaussian 16, Revision C.01,

 ----------------------------------------------------------------------
 #t hf aug-cc-pvdz symm=none int=(grid=ultrafine) guess=(read,tcheck) s
 table=opt
 ----------------------------------------------------------------------
 -----
 title
 -----
 Symbolic Z-matrix:
 Charge =  0 Multiplicity = 2

 SCF Done:  E(UHF) =  -103.868092171     A.U. after   13 cycles
 Normal termination of Gaussian 16 at Tue Apr  8 23:54:19 2025.
 Gaussian 16:  ES64L-G16RevC.01  3-Jul-2019

 ----------------------------------------------------------------------
 #t hf aug-cc-pvdz iop(5/13=1,5/36=2,99/5=2) pseudo=read geom=check gue
 ss=(read,tcheck) scf=(maxcycle=1)
 ----------------------------------------------------------------------
 -----
 title
 -----
 Structure from the checkpoint file:  "BDE49_nonexpt_1_mol2.chk"
 Charge =  0 Multiplicity = 2

                         Standard orientation:
 ---------------------------------------------------------------------
 Center     Atomic      Atomic             Coordinates (Angstroms)
 Number     Number       Type             X           Y           Z
 ---------------------------------------------------------------------
      1          5           0       -0.000000    0.561277    0.000000
      2          6           0       -1.402784   -0.098296    0.011466
      3          1           0       -1.415653   -1.111174    0.439447
      4          1           0       -1.691817   -0.202910   -1.047018
      5          1           0       -2.186736    0.500665    0.481426
      6          6           0        1.402784   -0.098296   -0.011466
      7          1           0        1.691817   -0.202909    1.047018
      8          1           0        2.186736    0.500664   -0.481426
      9          1           0        1.415653   -1.111175   -0.439447
 ---------------------------------------------------------------------

 SCF Done:  E(UHF) =  -103.902368212     A.U. after    2 cycles

 The electronic state is 2-A.
 Alpha  occ. eigenvalues --  -11.21156 -11.21150  -7.62101  -0.96779  -0.92819
 Alpha  occ. eigenvalues --   -0.61660  -0.57949  -0.56345  -0.54981  -0.53648
 Alpha  occ. eigenvalues --   -0.47930  -0.29956
 Alpha virt. eigenvalues --    0.03366   0.04846   0.05025   0.05039   0.07212
 Alpha virt. eigenvalues --    0.07502   0.07913   0.08213   0.10008   0.10495
 Alpha virt. eigenvalues --    0.12814   0.15795   0.16495   0.16654   0.17428

  Beta  occ. eigenvalues --  -11.21131 -11.21125  -7.60377  -0.95718  -0.92497
  Beta  occ. eigenvalues --   -0.58748  -0.56098  -0.55370  -0.54148  -0.53479
  Beta  occ. eigenvalues --   -0.46960
  Beta virt. eigenvalues --    0.02909   0.04959   0.05081   0.05084   0.07244
  Beta virt. eigenvalues --    0.07498   0.07956   0.08570   0.09213   0.10198
  Beta virt. eigenvalues --    0.14042   0.14447   0.16505   0.16772   0.17026

 Mulliken charges and spin densities:
               1          2
     1  B    0.063478   1.094321
     2  C    0.500392  -0.049089
     3  H   -0.220202   0.034940
     4  H   -0.121207  -0.013196
     5  H   -0.190722  -0.019815
     6  C    0.500391  -0.049089
     7  H   -0.121208  -0.013196
     8  H   -0.190724  -0.019815
     9  H   -0.220199   0.034940
 Sum of Mulliken charges =  -0.00000   1.00000

 Dipole moment (field-independent basis, Debye):
    X=              0.0000    Y=             -0.8912    Z=              0.0000  Tot=              0.8912
                          Isotropic Fermi Contact Couplings
        Atom                 a.u.       MegaHertz       Gauss      10(-4) cm-1
     1  B(11)              0.24047     344.92012     123.07607     115.05297
     2  C(13)              0.02072      23.28915       8.31015       7.76842
     3  H(1)               0.01185      52.98755      18.90727      17.67474
     4  H(1)              -0.00104      -4.64678      -1.65809      -1.55000
     5  H(1)               0.00571      25.50308       9.10013       8.50691
     6  C(13)              0.02072      23.28919       8.31016       7.76844
     7  H(1)              -0.00104      -4.64678      -1.65808      -1.55000
     8  H(1)               0.00571      25.50302       9.10011       8.50689

 Normal termination of Gaussian 16 at Tue Apr  8 23:54:20 2025.
