 Gaussian 16, Revision C.01,

 ----------------------------------------------------------------------
 #t hf aug-cc-pvdz symm=none int=(grid=ultrafine) guess=(read,tcheck) s
 table=(opt,rrhf)
 ----------------------------------------------------------------------
 -----
 title
 -----
 Symbolic Z-matrix:
 Charge =  0 Multiplicity = 1

 SCF Done:  E(RHF) =  -635.424045941     A.U. after   14 cycles
 Normal termination of Gaussian 16 at Wed Apr  9 00:19:05 2025.
 Gaussian 16:  ES64L-G16RevC.01  3-Jul-2019

 ----------------------------------------------------------------------
 #t hf aug-cc-pvdz iop(5/13=1,5/36=2,99/5=2) pseudo=read geom=check gue
 ss=(read,tcheck) scf=(maxcycle=1)
 ----------------------------------------------------------------------
 -----
 title
 -----
 Structure from the checkpoint file:  "BDE49_nonexpt_2622_mol1.chk"
 Charge =  0 Multiplicity = 1

                         Standard orientation:
 ---------------------------------------------------------------------
 Center     Atomic      Atomic             Coordinates (Angstroms)
 Number     Number       Type             X           Y           Z
 ---------------------------------------------------------------------
      1          9           0       -1.429092    0.860484    0.100772
      2         16           0       -0.672880   -0.600039   -0.182318
      3          6           0        0.925572   -0.233029    0.503168
      4          9           0        1.768531    0.457372   -0.350278
      5          1           0        1.366329   -1.211150    0.726760
      6          1           0        0.791369    0.349237    1.416866
 ---------------------------------------------------------------------

 SCF Done:  E(RHF) =  -635.532625487     A.U. after    2 cycles

 The electronic state is 1-A.
 Alpha  occ. eigenvalues --  -93.63862 -26.14038 -26.13454 -11.38371  -8.92823
 Alpha  occ. eigenvalues --   -6.27003  -6.26614  -6.26200  -1.66803  -1.65130
 Alpha  occ. eigenvalues --   -1.07595  -0.91726  -0.78222  -0.77149  -0.76514
 Alpha  occ. eigenvalues --   -0.74103  -0.73161  -0.66962  -0.59377  -0.51118
 Alpha  occ. eigenvalues --   -0.40781
 Alpha virt. eigenvalues --    0.03321   0.04861   0.06395   0.07228   0.09482
 Alpha virt. eigenvalues --    0.11865   0.12773   0.14564   0.16200   0.16763
 Alpha virt. eigenvalues --    0.21957   0.22705   0.23847   0.24953   0.26541

 Mulliken charges:
               1
     1  F   -0.606880
     2  S    0.801160
     3  C    0.302668
     4  F   -0.398307
     5  H   -0.030174
     6  H   -0.068466
 Sum of Mulliken charges =  -0.00000

 Dipole moment (field-independent basis, Debye):
    X=              0.8017    Y=             -2.4220    Z=              1.5933  Tot=              3.0079

 Test job not archived.
 1\1\GINC-SE150\SP\RHF\Aug-CC-pVDZ\C1H2F2S1\OHZDE\09-Apr-2025\0\\#t hf
 aug-cc-pvdz iop(5/13=1,5/36=2,99/5=2) pseudo=read geom=check guess=(re
 ad,tcheck) scf=(maxcycle=1)\\title\\0,1\F,0,-1.429092,0.860484,0.10077
 2\S,0,-0.67288,-0.600039,-0.182318\C,0,0.925572,-0.233029,0.503168\F,0
 ,1.768531,0.457372,-0.350278\H,0,1.366329,-1.21115,0.72676\H,0,0.79136
 9,0.349237,1.416866\\Version=ES64L-G16RevC.01\State=1-A\HF=-635.532625
 5\RMSD=4.906e-03\Dipole=0.3154045,-0.9528991,0.6268456\Quadrupole=-2.0
 486817,0.9497238,1.0989579,-0.6749737,2.2999479,0.4137216\PG=C01 [X(C1

 Normal termination of Gaussian 16 at Wed Apr  9 00:19:08 2025.
