 Gaussian 16, Revision C.01,

 ----------------------------------------------------------------------
 #t hf aug-cc-pvdz symm=none int=(grid=ultrafine) guess=(read,tcheck) s
 table=opt
 ----------------------------------------------------------------------
 -----
 title
 -----
 Symbolic Z-matrix:
 Charge =  0 Multiplicity = 2

 SCF Done:  E(UHF) =  -651.426142551     A.U. after   18 cycles
 Normal termination of Gaussian 16 at Wed Apr  9 00:02:27 2025.
 Gaussian 16:  ES64L-G16RevC.01  3-Jul-2019

 ----------------------------------------------------------------------
 #t hf aug-cc-pvdz iop(5/13=1,5/36=2,99/5=2) pseudo=read geom=check gue
 ss=(read,tcheck) scf=(maxcycle=1)
 ----------------------------------------------------------------------
 -----
 title
 -----
 Structure from the checkpoint file:  "BDE49_nonexpt_219_mol2.chk"
 Charge =  0 Multiplicity = 2

                         Standard orientation:
 ---------------------------------------------------------------------
 Center     Atomic      Atomic             Coordinates (Angstroms)
 Number     Number       Type             X           Y           Z
 ---------------------------------------------------------------------
      1          5           0        0.599124    0.667324    0.000005
      2          6           0       -1.840769   -0.015882    0.000001
      3          8           0       -2.997627   -0.133876   -0.000001
      4          7           0       -0.636547    0.037319    0.000003
      5         17           0        2.146226   -0.143032   -0.000003
 ---------------------------------------------------------------------

 SCF Done:  E(UHF) =  -651.505643991     A.U. after    2 cycles

 The electronic state is 2-A.
 Alpha  occ. eigenvalues -- -103.68025 -20.66255 -15.68092 -11.46284 -10.71509
 Alpha  occ. eigenvalues --   -8.37304  -8.36948  -8.36915  -7.74542  -1.46769
 Alpha  occ. eigenvalues --   -1.26278  -1.17636  -0.88828  -0.77280  -0.70307
 Alpha  occ. eigenvalues --   -0.69154  -0.63925  -0.55754  -0.53120  -0.49003
 Alpha  occ. eigenvalues --   -0.48016  -0.35619
 Alpha virt. eigenvalues --    0.03781   0.04376   0.05007   0.05289   0.06366
 Alpha virt. eigenvalues --    0.10130   0.10464   0.11053   0.13152   0.14333
 Alpha virt. eigenvalues --    0.17068   0.17082   0.17624   0.19967   0.20625

  Beta  occ. eigenvalues -- -103.67921 -20.66066 -15.68197 -11.46152 -10.71385
  Beta  occ. eigenvalues --   -8.37046  -8.36905  -8.36720  -7.72399  -1.46386
  Beta  occ. eigenvalues --   -1.25969  -1.16643  -0.87321  -0.76910  -0.69168
  Beta  occ. eigenvalues --   -0.68858  -0.61480  -0.52862  -0.51898  -0.48400
  Beta  occ. eigenvalues --   -0.48196
  Beta virt. eigenvalues --    0.02952   0.04599   0.04711   0.05256   0.08674
  Beta virt. eigenvalues --    0.08920   0.10467   0.11151   0.11213   0.13410
  Beta virt. eigenvalues --    0.14431   0.17107   0.17820   0.18587   0.20024

 Mulliken charges and spin densities:
               1          2
     1  B    0.227227   0.983195
     2  C   -0.003142   0.074483
     3  O   -0.141169   0.032623
     4  N    0.155946  -0.123779
     5  Cl  -0.238861   0.033478
 Sum of Mulliken charges =  -0.00000   1.00000

 Dipole moment (field-independent basis, Debye):
    X=              0.3065    Y=              0.3647    Z=              0.0000  Tot=              0.4764
                          Isotropic Fermi Contact Couplings
        Atom                 a.u.       MegaHertz       Gauss      10(-4) cm-1
     1  B(11)              0.41278     592.07823     211.26823     197.49604
     2  C(13)              0.00614       6.90413       2.46356       2.30297
     3  O(17)              0.01700     -10.30561      -3.67730      -3.43758
     4  N(14)              0.01239       4.00243       1.42817       1.33507
     5  Cl(35)             0.11530      50.55575      18.03955      16.86358
 --------------------------------------------------------
       Center         ----  Spin Dipole Couplings  ----
                      3XX-RR        3YY-RR        3ZZ-RR

 1\1\GINC-SE343\SP\UHF\Aug-CC-pVDZ\C1B1Cl1N1O1(2)\OHZDE\09-Apr-2025\0\\
 #t hf aug-cc-pvdz iop(5/13=1,5/36=2,99/5=2) pseudo=read geom=check gue
 ss=(read,tcheck) scf=(maxcycle=1)\\title\\0,2\B,0,0.599124,0.667324,0.
 000005\C,0,-1.840769,-0.015882,0.000001\O,0,-2.997627,-0.133876,-0.000
 001\N,0,-0.636547,0.037319,0.000003\Cl,0,2.146226,-0.143032,-0.000003\
 \Version=ES64L-G16RevC.01\State=2-A\HF=-651.505644\S2=0.758809\S2-1=0.
 \S2A=0.750049\RMSD=3.775e-03\Dipole=0.120585,0.1434833,0.0000014\Quadr
 upole=-4.5719991,1.4859512,3.0860479,-0.7543912,-0.0000053,-0.0000101\

 Normal termination of Gaussian 16 at Wed Apr  9 00:02:30 2025.
