 Gaussian 16, Revision C.01,

 ----------------------------------------------------------------------
 #t hf aug-cc-pvdz symm=none int=(grid=ultrafine) guess=(read,tcheck) s
 table=(opt,rrhf)
 ----------------------------------------------------------------------
 -----
 title
 -----
 Symbolic Z-matrix:
 Charge =  0 Multiplicity = 1

 SCF Done:  E(RHF) =  -671.698762180     A.U. after   13 cycles
 Normal termination of Gaussian 16 at Tue Apr  8 22:43:25 2025.
 Gaussian 16:  ES64L-G16RevC.01  3-Jul-2019

 ----------------------------------------------------------------------
 #t hf aug-cc-pvdz iop(5/13=1,5/36=2,99/5=2) pseudo=read geom=check gue
 ss=(read,tcheck) scf=(maxcycle=1)
 ----------------------------------------------------------------------
 -----
 title
 -----
 Structure from the checkpoint file:  "BDE49_expt_1529_mol1.chk"
 Charge =  0 Multiplicity = 1

                         Standard orientation:
 ---------------------------------------------------------------------
 Center     Atomic      Atomic             Coordinates (Angstroms)
 Number     Number       Type             X           Y           Z
 ---------------------------------------------------------------------
      1          6           0        0.000000    0.516406    0.000000
      2          9           0        1.315128    0.717604    0.000000
      3          8           0       -0.804687    1.368067    0.000000
      4         17           0       -0.317568   -1.205965    0.000000
 ---------------------------------------------------------------------

 SCF Done:  E(RHF) =  -671.793643689     A.U. after    2 cycles

 The electronic state is 1-A'.
 Alpha  occ. eigenvalues -- -103.72305 -26.20611 -20.64252 -11.52294 -10.75606
 Alpha  occ. eigenvalues --   -8.41333  -8.40992  -8.40972  -1.75538  -1.45582
 Alpha  occ. eigenvalues --   -1.22172  -0.95316  -0.83572  -0.82396  -0.78089
 Alpha  occ. eigenvalues --   -0.68780  -0.62796  -0.56484  -0.52243  -0.51992
 Alpha virt. eigenvalues --    0.05913   0.08510   0.09280   0.09963   0.10697
 Alpha virt. eigenvalues --    0.11223   0.14939   0.15383   0.18144   0.22772
 Alpha virt. eigenvalues --    0.23882   0.26033   0.27762   0.31633   0.31768

 Mulliken charges:
               1
     1  C    0.430456
     2  F   -0.223328
     3  O   -0.216703
     4  Cl   0.009575
 Sum of Mulliken charges =   0.00000

 Dipole moment (field-independent basis, Debye):
    X=              0.3550    Y=             -1.5090    Z=              0.0000  Tot=              1.5502

 Test job not archived.
 1\1\GINC-SE361\SP\RHF\Aug-CC-pVDZ\C1Cl1F1O1\OHZDE\08-Apr-2025\0\\#t hf
  aug-cc-pvdz iop(5/13=1,5/36=2,99/5=2) pseudo=read geom=check guess=(r
 ead,tcheck) scf=(maxcycle=1)\\title\\0,1\C,0,0.,0.516406,0.\F,0,1.3151
 28,0.717604,0.\O,0,-0.804687,1.368067,0.\Cl,0,-0.317568,-1.205965,0.\\
 Version=ES64L-G16RevC.01\State=1-A'\HF=-671.7936437\RMSD=4.699e-03\Dip
 ole=0.1396833,-0.5936674,0.\Quadrupole=-1.235073,-0.2620786,1.4971516,
 1.1975501,0.,0.\PG=CS [SG(C1Cl1F1O1)]\\@

 Normal termination of Gaussian 16 at Tue Apr  8 22:43:27 2025.
