 Gaussian 16, Revision C.01,

 ----------------------------------------------------------------------
 #t hf aug-cc-pvdz symm=none int=(grid=ultrafine) guess=(read,tcheck) s
 table=(opt,rrhf)
 ----------------------------------------------------------------------
 -----
 title
 -----
 Symbolic Z-matrix:
 Charge =  0 Multiplicity = 1

 SCF Done:  E(RHF) =  -596.499371612     A.U. after   12 cycles
 Normal termination of Gaussian 16 at Tue Apr  8 23:51:49 2025.
 Gaussian 16:  ES64L-G16RevC.01  3-Jul-2019

 ----------------------------------------------------------------------
 #t hf aug-cc-pvdz iop(5/13=1,5/36=2,99/5=2) pseudo=read geom=check gue
 ss=(read,tcheck) scf=(maxcycle=1)
 ----------------------------------------------------------------------
 -----
 title
 -----
 Structure from the checkpoint file:  "BDE49_nonexpt_1902_mol1.chk"
 Charge =  0 Multiplicity = 1

                         Standard orientation:
 ---------------------------------------------------------------------
 Center     Atomic      Atomic             Coordinates (Angstroms)
 Number     Number       Type             X           Y           Z
 ---------------------------------------------------------------------
      1          6           0       -0.952404   -0.708049   -0.705840
      2         14           0        0.756869   -1.087067    0.024868
      3          7           0        1.808616    0.276728   -0.095213
      4          1           0        1.364201   -2.168155   -0.789815
      5          1           0        0.595913   -1.624116    1.409115
      6          7           0       -1.770501    0.282218    0.008689
      7          6           0        1.397553    1.601394    0.360755
      8          1           0        1.773691    1.829023    1.371201
      9          1           0        0.308387    1.674183    0.372182
     10          1           0        1.785631    2.374039   -0.316214
     11          6           0       -2.857767    0.780701   -0.826736
     12          1           0       -3.568060   -0.014036   -1.123192
     13          1           0       -2.451923    1.230810   -1.735558
     14          1           0       -3.415126    1.550672   -0.286738
     15          6           0        3.253913    0.113337   -0.159794
     16          1           0        3.511495   -0.872020   -0.554929
     17          1           0        3.737514    0.222165    0.824175
     18          1           0        3.693723    0.866038   -0.827407
     19          6           0       -2.286609   -0.233536    1.271116
     20          1           0       -1.467334   -0.546111    1.920034
     21          1           0       -2.959124   -1.101346    1.131401
     22          1           0       -2.846932    0.550333    1.786509
     23          1           0       -1.497350   -1.664603   -0.847461
     24          1           0       -0.755785   -0.323637   -1.712787
 ---------------------------------------------------------------------

 SCF Done:  E(RHF) =  -596.627814082     A.U. after    2 cycles

 The electronic state is 1-A.
 Alpha  occ. eigenvalues --  -69.06221 -15.61541 -15.59152 -11.25581 -11.25324
 Alpha  occ. eigenvalues --  -11.25270 -11.24893 -11.24277  -6.81272  -3.92125
 Alpha  occ. eigenvalues --   -3.92071  -3.92004  -1.18970  -1.15300  -0.94746
 Alpha  occ. eigenvalues --   -0.94516  -0.93858  -0.84161  -0.79810  -0.68748
 Alpha  occ. eigenvalues --   -0.64138  -0.63382  -0.61911  -0.61476  -0.59891
 Alpha  occ. eigenvalues --   -0.57992  -0.54681  -0.53795  -0.53621  -0.51417
 Alpha  occ. eigenvalues --   -0.50974  -0.50775  -0.48205  -0.46123  -0.43895
 Alpha  occ. eigenvalues --   -0.35241  -0.33564
 Alpha virt. eigenvalues --    0.03313   0.03998   0.04146   0.04265   0.05915
 Alpha virt. eigenvalues --    0.06136   0.06300   0.07039   0.07399   0.08241
 Alpha virt. eigenvalues --    0.08448   0.08612   0.08838   0.09449   0.10186

 Mulliken charges:
               1
     1  C    0.530134
     2  Si   0.357921
     3  N   -0.598034
     4  H    0.100046
     5  H    0.066065
     6  N   -0.814387
     7  C    0.894891
     8  H   -0.082360
     9  H   -0.446490
    10  H   -0.159879
    11  C    0.702209
    12  H    0.042411
    13  H   -0.269379
    14  H   -0.203354
    15  C    0.661451
    16  H   -0.299407
    17  H   -0.077794
    18  H   -0.162654
    19  C    0.772443
    20  H   -0.279263
    21  H   -0.048801
    22  H   -0.150826
    23  H   -0.292945
    24  H   -0.242000
 Sum of Mulliken charges =  -0.00000

 Dipole moment (field-independent basis, Debye):
    X=             -0.5241    Y=              0.3972    Z=             -0.1005  Tot=              0.6653

 Test job not archived.
 1\1\GINC-SE333\SP\RHF\Aug-CC-pVDZ\C5H16N2Si1\OHZDE\08-Apr-2025\0\\#t h
 f aug-cc-pvdz iop(5/13=1,5/36=2,99/5=2) pseudo=read geom=check guess=(
 read,tcheck) scf=(maxcycle=1)\\title\\0,1\C,0,-0.952404,-0.708049,-0.7
 0584\Si,0,0.756869,-1.087067,0.024868\N,0,1.808616,0.276728,-0.095213\
 H,0,1.364201,-2.168155,-0.789815\H,0,0.595913,-1.624116,1.409115\N,0,-
 1.770501,0.282218,0.008689\C,0,1.397553,1.601394,0.360755\H,0,1.773691
 ,1.829023,1.371201\H,0,0.308387,1.674183,0.372182\H,0,1.785631,2.37403
 9,-0.316214\C,0,-2.857767,0.780701,-0.826736\H,0,-3.56806,-0.014036,-1

 Normal termination of Gaussian 16 at Tue Apr  8 23:52:02 2025.
