 Gaussian 16, Revision C.01,

 ----------------------------------------------------------------------
 #t hf aug-cc-pvdz symm=none int=(grid=ultrafine) guess=(read,tcheck) s
 table=(opt,rrhf)
 ----------------------------------------------------------------------
 -----
 title
 -----
 Symbolic Z-matrix:
 Charge =  0 Multiplicity = 1

 SCF Done:  E(RHF) =  -476.770621648     A.U. after   12 cycles
 Normal termination of Gaussian 16 at Tue Apr  8 23:11:45 2025.
 Gaussian 16:  ES64L-G16RevC.01  3-Jul-2019

 ----------------------------------------------------------------------
 #t hf aug-cc-pvdz iop(5/13=1,5/36=2,99/5=2) pseudo=read geom=check gue
 ss=(read,tcheck) scf=(maxcycle=1)
 ----------------------------------------------------------------------
 -----
 title
 -----
 Structure from the checkpoint file:  "BDE49_expt_827_mol1.chk"
 Charge =  0 Multiplicity = 1

                         Standard orientation:
 ---------------------------------------------------------------------
 Center     Atomic      Atomic             Coordinates (Angstroms)
 Number     Number       Type             X           Y           Z
 ---------------------------------------------------------------------
      1          6           0       -1.650743   -0.350884   -0.051973
      2          6           0       -0.502966    0.643054    0.090315
      3          1           0       -1.625417   -1.101253    0.742530
      4          1           0       -1.600570   -0.873834   -1.009095
      5          1           0       -2.612860    0.168627    0.008953
      6         16           0        1.171812   -0.100678   -0.081327
      7          1           0       -0.551315    1.178330    1.039973
      8          1           0       -0.537289    1.392182   -0.704036
      9          1           0        1.100720   -0.906230    0.992849
 ---------------------------------------------------------------------

 SCF Done:  E(RHF) =  -476.817745227     A.U. after    2 cycles

 The electronic state is 1-A.
 Alpha  occ. eigenvalues --  -93.53087 -11.27530 -11.23840  -8.82828  -6.16983
 Alpha  occ. eigenvalues --   -6.16768  -6.16430  -1.05847  -0.93424  -0.82070
 Alpha  occ. eigenvalues --   -0.63831  -0.59245  -0.55611  -0.52604  -0.49833
 Alpha  occ. eigenvalues --   -0.44350  -0.35388
 Alpha virt. eigenvalues --    0.03484   0.04806   0.05166   0.05614   0.07454
 Alpha virt. eigenvalues --    0.07789   0.10458   0.12032   0.12963   0.14166
 Alpha virt. eigenvalues --    0.15859   0.16111   0.17081   0.17182   0.17857

 Mulliken charges:
               1
     1  C    0.305030
     2  C   -0.335372
     3  H   -0.075227
     4  H   -0.042320
     5  H   -0.062978
     6  S    0.236782
     7  H   -0.058686
     8  H   -0.013082
     9  H    0.045852
 Sum of Mulliken charges =   0.00000

 Dipole moment (field-independent basis, Debye):
    X=             -1.6632    Y=              0.1832    Z=              0.7084  Tot=              1.8170

 Test job not archived.
 1\1\GINC-SE118\SP\RHF\Aug-CC-pVDZ\C2H6S1\OHZDE\08-Apr-2025\0\\#t hf au
 g-cc-pvdz iop(5/13=1,5/36=2,99/5=2) pseudo=read geom=check guess=(read
 ,tcheck) scf=(maxcycle=1)\\title\\0,1\C,0,-1.650743,-0.350884,-0.05197
 3\C,0,-0.502966,0.643054,0.090315\H,0,-1.625417,-1.101253,0.74253\H,0,
 -1.60057,-0.873834,-1.009095\H,0,-2.61286,0.168627,0.008953\S,0,1.1718
 12,-0.100678,-0.081327\H,0,-0.551314,1.17833,1.039973\H,0,-0.537288,1.
 392182,-0.704036\H,0,1.10072,-0.90623,0.992849\\Version=ES64L-G16RevC.
 01\State=1-A\HF=-476.8177452\RMSD=5.317e-03\Dipole=-0.6543434,0.072059

 Normal termination of Gaussian 16 at Tue Apr  8 23:11:47 2025.
