 Gaussian 16, Revision C.01,

 ----------------------------------------------------------------------
 #t hf aug-cc-pvdz symm=none int=(grid=ultrafine) guess=(read,tcheck) s
 table=(opt,rrhf)
 ----------------------------------------------------------------------
 -----
 title
 -----
 Symbolic Z-matrix:
 Charge =  0 Multiplicity = 1

 SCF Done:  E(RHF) =  -540.948221641     A.U. after   14 cycles
 Normal termination of Gaussian 16 at Tue Apr  8 23:18:52 2025.
 Gaussian 16:  ES64L-G16RevC.01  3-Jul-2019

 ----------------------------------------------------------------------
 #t hf aug-cc-pvdz iop(5/13=1,5/36=2,99/5=2) pseudo=read geom=check gue
 ss=(read,tcheck) scf=(maxcycle=1)
 ----------------------------------------------------------------------
 -----
 title
 -----
 Structure from the checkpoint file:  "BDE49_nonexpt_112_mol1.chk"
 Charge =  0 Multiplicity = 1

                         Standard orientation:
 ---------------------------------------------------------------------
 Center     Atomic      Atomic             Coordinates (Angstroms)
 Number     Number       Type             X           Y           Z
 ---------------------------------------------------------------------
      1          5           0       -1.747714    1.377519    0.000035
      2          5           0       -1.514006   -0.256447    0.000121
      3         16           0        0.087796   -1.085839    0.000024
      4          6           0        1.194621    0.221407   -0.000057
      5          7           0        1.976076    1.074665   -0.000102
      6          1           0       -2.391324   -1.063492   -0.000110
      7          1           0       -1.852617    1.990268    1.018126
      8          1           0       -1.852448    1.990191   -1.018120
 ---------------------------------------------------------------------

 SCF Done:  E(RHF) =  -541.011001058     A.U. after    2 cycles

 The electronic state is 1-A.
 Alpha  occ. eigenvalues --  -93.60654 -15.66188 -11.32072  -8.90471  -7.66242
 Alpha  occ. eigenvalues --   -7.63271  -6.24699  -6.24330  -6.24109  -1.21207
 Alpha  occ. eigenvalues --   -1.05017  -0.77063  -0.70540  -0.60584  -0.56277
 Alpha  occ. eigenvalues --   -0.55457  -0.53955  -0.51314  -0.48013  -0.44770
 Alpha  occ. eigenvalues --   -0.41318
 Alpha virt. eigenvalues --    0.02972   0.03146   0.04046   0.04406   0.05612
 Alpha virt. eigenvalues --    0.06157   0.06888   0.08183   0.08839   0.09502
 Alpha virt. eigenvalues --    0.11250   0.12177   0.12437   0.12557   0.13608

 Mulliken charges:
               1
     1  B   -0.289825
     2  B    0.085285
     3  S    0.260543
     4  C   -0.524203
     5  N   -0.154795
     6  H    0.186685
     7  H    0.218147
     8  H    0.218162
 Sum of Mulliken charges =  -0.00000

 Dipole moment (field-independent basis, Debye):
    X=             -3.1819    Y=             -1.7044    Z=              0.0003  Tot=              3.6097

 Test job not archived.
 1\1\GINC-SE403\SP\RHF\Aug-CC-pVDZ\C1H3B2N1S1\OHZDE\08-Apr-2025\0\\#t h
 f aug-cc-pvdz iop(5/13=1,5/36=2,99/5=2) pseudo=read geom=check guess=(
 read,tcheck) scf=(maxcycle=1)\\title\\0,1\B,0,-1.747714,1.377519,0.000
 035\B,0,-1.514006,-0.256447,0.000121\S,0,0.087796,-1.085839,0.000024\C
 ,0,1.194621,0.221407,-0.000057\N,0,1.976076,1.074665,-0.000102\H,0,-2.
 391324,-1.063491,-0.00011\H,0,-1.852616,1.990269,1.018126\H,0,-1.85244
 7,1.990192,-1.01812\\Version=ES64L-G16RevC.01\State=1-A\HF=-541.011001
 1\RMSD=6.090e-03\Dipole=-1.2518719,-0.670554,0.000132\Quadrupole=-0.40

 Normal termination of Gaussian 16 at Tue Apr  8 23:18:55 2025.
