 Gaussian 16, Revision C.01,

 ----------------------------------------------------------------------
 #t hf aug-cc-pvdz symm=none int=(grid=ultrafine) guess=(read,tcheck) s
 table=(opt,rrhf)
 ----------------------------------------------------------------------
 -----
 title
 -----
 Symbolic Z-matrix:
 Charge =  0 Multiplicity = 1

 SCF Done:  E(RHF) =  -627.080344325     A.U. after   15 cycles
 Normal termination of Gaussian 16 at Tue Apr  8 23:33:48 2025.
 Gaussian 16:  ES64L-G16RevC.01  3-Jul-2019

 ----------------------------------------------------------------------
 #t hf aug-cc-pvdz iop(5/13=1,5/36=2,99/5=2) pseudo=read geom=check gue
 ss=(read,tcheck) scf=(maxcycle=1)
 ----------------------------------------------------------------------
 -----
 title
 -----
 Structure from the checkpoint file:  "BDE49_nonexpt_1480_mol1.chk"
 Charge =  0 Multiplicity = 1

                         Standard orientation:
 ---------------------------------------------------------------------
 Center     Atomic      Atomic             Coordinates (Angstroms)
 Number     Number       Type             X           Y           Z
 ---------------------------------------------------------------------
      1          6           0       -2.730952   -0.394462    0.000004
      2          6           0       -2.345912    0.944492    0.000006
      3          6           0       -1.000944    1.294959    0.000002
      4          6           0       -1.742399   -1.375966   -0.000003
      5          6           0       -0.392752   -1.038274   -0.000007
      6          6           0       -0.001672    0.308758   -0.000005
      7          1           0       -3.779402   -0.667064    0.000007
      8          1           0       -3.096573    1.727286    0.000011
      9          1           0       -0.715663    2.342866    0.000004
     10          1           0       -2.020287   -2.424381   -0.000004
     11          1           0        0.357626   -1.818950   -0.000012
     12          7           0        1.343392    0.709420   -0.000010
     13         15           0        2.714039   -0.323373    0.000004
     14          1           0        1.473829    1.709940   -0.000009
     15          1           0        3.476951    0.288959    1.032105
     16          1           0        3.476969    0.288961   -1.032082
 ---------------------------------------------------------------------

 SCF Done:  E(RHF) =  -627.191196519     A.U. after    2 cycles

 The electronic state is 1-A.
 Alpha  occ. eigenvalues --  -81.28873 -15.63852 -11.29613 -11.24631 -11.24526
 Alpha  occ. eigenvalues --  -11.23604 -11.23235 -11.22961  -7.78851  -4.93022
 Alpha  occ. eigenvalues --   -4.92690  -4.92552  -1.19874  -1.11627  -1.00811
 Alpha  occ. eigenvalues --   -0.98469  -0.84339  -0.82881  -0.77494  -0.71135
 Alpha  occ. eigenvalues --   -0.67348  -0.63904  -0.60543  -0.58790  -0.57471
 Alpha  occ. eigenvalues --   -0.56923  -0.51197  -0.51062  -0.49354  -0.43595
 Alpha  occ. eigenvalues --   -0.36780  -0.34087  -0.29488
 Alpha virt. eigenvalues --    0.03130   0.04066   0.04120   0.05517   0.05911
 Alpha virt. eigenvalues --    0.06699   0.07671   0.08049   0.09706   0.09764
 Alpha virt. eigenvalues --    0.10945   0.12610   0.12917   0.13425   0.13534

 Mulliken charges:
               1
     1  C    0.449488
     2  C    0.467184
     3  C    0.434986
     4  C    0.483619
     5  C    0.694715
     6  C    0.478005
     7  H   -0.450073
     8  H   -0.429334
     9  H   -0.603742
    10  H   -0.446526
    11  H   -0.600855
    12  N   -0.734109
    13  P    0.317570
    14  H   -0.131663
    15  H    0.035369
    16  H    0.035366
 Sum of Mulliken charges =  -0.00000

 Dipole moment (field-independent basis, Debye):
    X=              0.7813    Y=              1.2886    Z=              0.0000  Tot=              1.5069

 Test job not archived.
 1\1\GINC-SE402\SP\RHF\Aug-CC-pVDZ\C6H8N1P1\OHZDE\08-Apr-2025\0\\#t hf
 aug-cc-pvdz iop(5/13=1,5/36=2,99/5=2) pseudo=read geom=check guess=(re
 ad,tcheck) scf=(maxcycle=1)\\title\\0,1\C,0,-2.730952,-0.394462,0.0000
 04\C,0,-2.345912,0.944492,0.000006\C,0,-1.000944,1.294959,0.000002\C,0
 ,-1.742399,-1.375966,-0.000003\C,0,-0.392752,-1.038274,-0.000007\C,0,-
 0.001672,0.308758,-0.000005\H,0,-3.779402,-0.667064,0.000007\H,0,-3.09
 6573,1.727286,0.000011\H,0,-0.715663,2.342866,0.000004\H,0,-2.020287,-
 2.424381,-0.000004\H,0,0.357626,-1.81895,-0.000012\N,0,1.343392,0.7094

 Normal termination of Gaussian 16 at Tue Apr  8 23:33:55 2025.
