 Gaussian 16, Revision C.01,

 ----------------------------------------------------------------------
 #t hf aug-cc-pvdz symm=none int=(grid=ultrafine) guess=(read,tcheck) s
 table=(opt,rrhf)
 ----------------------------------------------------------------------
 -----
 title
 -----
 Symbolic Z-matrix:
 Charge =  0 Multiplicity = 1

 SCF Done:  E(RHF) =  -463.436870287     A.U. after   12 cycles
 Normal termination of Gaussian 16 at Tue Apr  8 23:59:41 2025.
 Gaussian 16:  ES64L-G16RevC.01  3-Jul-2019

 ----------------------------------------------------------------------
 #t hf aug-cc-pvdz iop(5/13=1,5/36=2,99/5=2) pseudo=read geom=check gue
 ss=(read,tcheck) scf=(maxcycle=1)
 ----------------------------------------------------------------------
 -----
 title
 -----
 Structure from the checkpoint file:  "BDE49_nonexpt_2136_mol1.chk"
 Charge =  0 Multiplicity = 1

                         Standard orientation:
 ---------------------------------------------------------------------
 Center     Atomic      Atomic             Coordinates (Angstroms)
 Number     Number       Type             X           Y           Z
 ---------------------------------------------------------------------
      1          7           0        2.148691    0.434389   -0.234628
      2         14           0        0.842191   -0.605920    0.216173
      3          1           0        2.994496    0.434153    0.316860
      4          1           0        2.361981    0.596738   -1.208789
      5          6           0       -0.804314    0.111729   -0.374273
      6          6           0       -1.969559   -0.854547   -0.091722
      7          1           0       -2.104474   -1.008210    0.984452
      8          1           0       -1.809570   -1.835634   -0.548049
      9          6           0       -1.068665    1.507146    0.218359
     10          1           0       -2.912562   -0.456931   -0.482363
     11          1           0       -0.712438    0.216971   -1.465657
     12          1           0       -1.986080    1.943026   -0.192835
     13          1           0       -1.190302    1.454011    1.305550
     14          1           0       -0.244358    2.194180    0.012994
     15          1           0        0.884393   -0.686878    1.698071
     16          1           0        0.942638   -1.995230   -0.318446
 ---------------------------------------------------------------------

 SCF Done:  E(RHF) =  -463.522707105     A.U. after    2 cycles

 The electronic state is 1-A.
 Alpha  occ. eigenvalues --  -69.06117 -15.59611 -11.22496 -11.22099 -11.21942
 Alpha  occ. eigenvalues --   -6.81189  -3.92059  -3.91971  -3.91917  -1.09560
 Alpha  occ. eigenvalues --   -1.03895  -0.92144  -0.79708  -0.68608  -0.64912
 Alpha  occ. eigenvalues --   -0.61167  -0.58604  -0.56444  -0.53476  -0.52386
 Alpha  occ. eigenvalues --   -0.48322  -0.47606  -0.46315  -0.41915  -0.38286
 Alpha virt. eigenvalues --    0.03198   0.04326   0.04567   0.05004   0.06574
 Alpha virt. eigenvalues --    0.06702   0.07017   0.07479   0.07762   0.09025
 Alpha virt. eigenvalues --    0.09600   0.10243   0.10975   0.11981   0.14049

 Mulliken charges:
               1
     1  N   -0.516058
     2  Si   0.560970
     3  H   -0.039329
     4  H   -0.009158
     5  C   -0.430134
     6  C    0.476943
     7  H   -0.055009
     8  H   -0.132820
     9  C    0.436061
    10  H   -0.088944
    11  H   -0.090990
    12  H   -0.074966
    13  H   -0.091862
    14  H   -0.114741
    15  H    0.120142
    16  H    0.049895
 Sum of Mulliken charges =   0.00000

 Dipole moment (field-independent basis, Debye):
    X=              0.6551    Y=              0.2452    Z=             -0.7892  Tot=              1.0546

 Test job not archived.
 1\1\GINC-SE457\SP\RHF\Aug-CC-pVDZ\C3H11N1Si1\OHZDE\08-Apr-2025\0\\#t h
 f aug-cc-pvdz iop(5/13=1,5/36=2,99/5=2) pseudo=read geom=check guess=(
 read,tcheck) scf=(maxcycle=1)\\title\\0,1\N,0,2.148691,0.434389,-0.234
 628\Si,0,0.842191,-0.60592,0.216173\H,0,2.994496,0.434153,0.31686\H,0,
 2.361981,0.596738,-1.208789\C,0,-0.804314,0.111729,-0.374273\C,0,-1.96
 9559,-0.854547,-0.091722\H,0,-2.104474,-1.00821,0.984452\H,0,-1.80957,
 -1.835634,-0.548049\C,0,-1.068665,1.507146,0.218359\H,0,-2.912562,-0.4
 56931,-0.482363\H,0,-0.712438,0.216971,-1.465657\H,0,-1.98608,1.943026

 Normal termination of Gaussian 16 at Tue Apr  8 23:59:45 2025.
