 Gaussian 16, Revision C.01,

 ----------------------------------------------------------------------
 #t hf aug-cc-pvdz symm=none int=(grid=ultrafine) guess=(read,tcheck) s
 table=(opt,rrhf)
 ----------------------------------------------------------------------
 -----
 title
 -----
 Symbolic Z-matrix:
 Charge =  0 Multiplicity = 1

 SCF Done:  E(RHF) =  -839.597676858     A.U. after   16 cycles
 Normal termination of Gaussian 16 at Tue Apr  8 23:30:00 2025.
 Gaussian 16:  ES64L-G16RevC.01  3-Jul-2019

 ----------------------------------------------------------------------
 #t hf aug-cc-pvdz iop(5/13=1,5/36=2,99/5=2) pseudo=read geom=check gue
 ss=(read,tcheck) scf=(maxcycle=1)
 ----------------------------------------------------------------------
 -----
 title
 -----
 Structure from the checkpoint file:  "BDE49_nonexpt_1358_mol1.chk"
 Charge =  0 Multiplicity = 1

                         Standard orientation:
 ---------------------------------------------------------------------
 Center     Atomic      Atomic             Coordinates (Angstroms)
 Number     Number       Type             X           Y           Z
 ---------------------------------------------------------------------
      1          9           0        3.862449    0.535127    0.012469
      2          7           0        0.313759   -0.978199   -0.030816
      3         15           0        2.946120   -0.828325   -0.077028
      4          6           0        1.265868   -0.070264   -0.018776
      5          6           0        1.034241    1.327938   -0.009358
      6          1           0        1.873613    2.011138   -0.003260
      7          6           0       -0.264858    1.767262   -0.000913
      8          1           0       -0.492448    2.828572    0.008708
      9          6           0       -2.694893    1.199645    0.013405
     10          1           0       -2.953524    2.253407    0.022065
     11          6           0       -3.676559    0.238716    0.015632
     12          1           0       -4.720933    0.528702    0.025908
     13          6           0       -3.333723   -1.134664    0.004283
     14          1           0       -4.120992   -1.879996    0.005761
     15          6           0       -2.017588   -1.527338   -0.009480
     16          1           0       -1.730383   -2.571646   -0.020096
     17          6           0       -0.982402   -0.559052   -0.011190
     18          6           0       -1.326707    0.828643    0.001156
     19          1           0        2.974246   -1.139363    1.311282
 ---------------------------------------------------------------------

 SCF Done:  E(RHF) =  -839.772319783     A.U. after    2 cycles

 The electronic state is 1-A.
 Alpha  occ. eigenvalues --  -81.33119 -26.11675 -15.64318 -11.30543 -11.29630
 Alpha  occ. eigenvalues --  -11.28084 -11.26768 -11.26270 -11.26168 -11.26121
 Alpha  occ. eigenvalues --  -11.25802 -11.25299  -7.82646  -4.96789  -4.96480
 Alpha  occ. eigenvalues --   -4.96155  -1.63696  -1.24876  -1.14510  -1.09452
 Alpha  occ. eigenvalues --   -1.02943  -1.01375  -0.90018  -0.87619  -0.83512
 Alpha  occ. eigenvalues --   -0.83059  -0.74133  -0.73713  -0.73184  -0.71908
 Alpha  occ. eigenvalues --   -0.69380  -0.65606  -0.63611  -0.62381  -0.60802
 Alpha  occ. eigenvalues --   -0.58741  -0.57826  -0.54664  -0.52699  -0.50547
 Alpha  occ. eigenvalues --   -0.48102  -0.42641  -0.42245  -0.38591  -0.33309
 Alpha  occ. eigenvalues --   -0.31950
 Alpha virt. eigenvalues --    0.02935   0.03480   0.04131   0.05057   0.05275
 Alpha virt. eigenvalues --    0.05410   0.06818   0.07228   0.07641   0.08631
 Alpha virt. eigenvalues --    0.09018   0.09823   0.10070   0.10709   0.12196

 Mulliken charges:
               1
     1  F   -0.707439
     2  N   -0.354684
     3  P    0.694887
     4  C    0.268010
     5  C    0.243114
     6  H   -0.503004
     7  C    0.154459
     8  H   -0.586693
     9  C    0.700172
    10  H   -0.577921
    11  C    0.473550
    12  H   -0.460496
    13  C    0.373846
    14  H   -0.433377
    15  C    1.218959
    16  H   -0.580047
    17  C   -0.499704
    18  C    0.506329
    19  H    0.070039
 Sum of Mulliken charges =   0.00000

 Dipole moment (field-independent basis, Debye):
    X=             -2.7324    Y=              1.0394    Z=              0.5751  Tot=              2.9795

 Test job not archived.
 1\1\GINC-SE368\SP\RHF\Aug-CC-pVDZ\C9H7F1N1P1\OHZDE\08-Apr-2025\0\\#t h
 f aug-cc-pvdz iop(5/13=1,5/36=2,99/5=2) pseudo=read geom=check guess=(
 read,tcheck) scf=(maxcycle=1)\\title\\0,1\F,0,3.862449,0.535127,0.0124
 69\N,0,0.313759,-0.978199,-0.030816\P,0,2.94612,-0.828325,-0.077028\C,
 0,1.265868,-0.070264,-0.018776\C,0,1.034241,1.327938,-0.009358\H,0,1.8
 73613,2.011138,-0.00326\C,0,-0.264858,1.767262,-0.000913\H,0,-0.492448
 ,2.828572,0.008708\C,0,-2.694893,1.199645,0.013405\H,0,-2.953524,2.253
 407,0.022065\C,0,-3.676559,0.238716,0.015632\H,0,-4.720933,0.528702,0.

 Normal termination of Gaussian 16 at Tue Apr  8 23:30:10 2025.
