 Gaussian 16, Revision C.01,

 ----------------------------------------------------------------------
 #t hf aug-cc-pvdz symm=none int=(grid=ultrafine) guess=(read,tcheck) s
 table=(opt,rrhf)
 ----------------------------------------------------------------------
 -----
 title
 -----
 Symbolic Z-matrix:
 Charge =  0 Multiplicity = 1

 SCF Done:  E(RHF) =  -1030.96131560     A.U. after   15 cycles
 Normal termination of Gaussian 16 at Tue Apr  8 23:30:41 2025.
 Gaussian 16:  ES64L-G16RevC.01  3-Jul-2019

 ----------------------------------------------------------------------
 #t hf aug-cc-pvdz iop(5/13=1,5/36=2,99/5=2) pseudo=read geom=check gue
 ss=(read,tcheck) scf=(maxcycle=1)
 ----------------------------------------------------------------------
 -----
 title
 -----
 Structure from the checkpoint file:  "BDE49_nonexpt_1419_mol1.chk"
 Charge =  0 Multiplicity = 1

                         Standard orientation:
 ---------------------------------------------------------------------
 Center     Atomic      Atomic             Coordinates (Angstroms)
 Number     Number       Type             X           Y           Z
 ---------------------------------------------------------------------
      1          6           0        0.094333    2.096652    0.003673
      2          6           0       -1.133176    1.435925   -0.013065
      3          6           0       -1.189483    0.038163   -0.011640
      4          6           0        1.283210    1.375205    0.009079
      5          6           0        1.221491   -0.015862    0.000617
      6          6           0        0.007072   -0.690433   -0.007146
      7          1           0        0.126912    3.180089    0.005559
      8          1           0       -2.052604    2.010167   -0.031762
      9         15           0       -2.860947   -0.760606   -0.028544
     10          1           0        2.242727    1.875635    0.015510
     11          1           0       -0.001102   -1.772719   -0.008321
     12         17           0        2.716445   -0.940627    0.002045
     13          1           0       -2.786677   -1.387893    1.243690
     14          1           0       -2.495298   -1.943427   -0.720393
 ---------------------------------------------------------------------

 SCF Done:  E(RHF) =  -1031.06731638     A.U. after    2 cycles

 The electronic state is 1-A.
 Alpha  occ. eigenvalues -- -103.67027 -81.26829 -11.32055 -11.27132 -11.26889
 Alpha  occ. eigenvalues --  -11.26862 -11.26580 -11.26355 -10.70296  -8.36031
 Alpha  occ. eigenvalues --   -8.35727  -8.35709  -7.77173  -4.91228  -4.91079
 Alpha  occ. eigenvalues --   -4.90890  -1.20325  -1.13950  -1.03622  -1.01064
 Alpha  occ. eigenvalues --   -0.86664  -0.83916  -0.77551  -0.71172  -0.66588
 Alpha  occ. eigenvalues --   -0.64056  -0.60283  -0.58230  -0.56165  -0.52707
 Alpha  occ. eigenvalues --   -0.52282  -0.49399  -0.47859  -0.46988  -0.37558
 Alpha  occ. eigenvalues --   -0.35573  -0.34754
 Alpha virt. eigenvalues --    0.03237   0.03964   0.04771   0.06123   0.06320
 Alpha virt. eigenvalues --    0.06485   0.08166   0.08315   0.08678   0.09799
 Alpha virt. eigenvalues --    0.10549   0.11440   0.11836   0.13169   0.13505

 Mulliken charges:
               1
     1  C    0.657275
     2  C    0.329332
     3  C   -0.089365
     4  C    0.534515
     5  C   -0.174492
     6  C    0.855744
     7  H   -0.419773
     8  H   -0.511870
     9  P   -0.172513
    10  H   -0.418430
    11  H   -0.461804
    12  Cl  -0.369020
    13  H    0.142544
    14  H    0.097856
 Sum of Mulliken charges =   0.00000

 Dipole moment (field-independent basis, Debye):
    X=             -0.7211    Y=              1.0183    Z=              0.1739  Tot=              1.2598

 Test job not archived.
 1\1\GINC-SE070\SP\RHF\Aug-CC-pVDZ\C6H6Cl1P1\OHZDE\08-Apr-2025\0\\#t hf
  aug-cc-pvdz iop(5/13=1,5/36=2,99/5=2) pseudo=read geom=check guess=(r
 ead,tcheck) scf=(maxcycle=1)\\title\\0,1\C,0,0.094333,2.096652,0.00367
 3\C,0,-1.133176,1.435925,-0.013065\C,0,-1.189483,0.038163,-0.01164\C,0
 ,1.28321,1.375205,0.009079\C,0,1.221491,-0.015862,0.000617\C,0,0.00707
 2,-0.690433,-0.007146\H,0,0.126912,3.180089,0.005559\H,0,-2.052604,2.0
 10167,-0.031762\P,0,-2.860947,-0.760606,-0.028544\H,0,2.242727,1.87563
 5,0.01551\H,0,-0.001102,-1.772719,-0.008321\Cl,0,2.716445,-0.940627,0.

 Normal termination of Gaussian 16 at Tue Apr  8 23:30:47 2025.
