 Gaussian 16, Revision C.01,

 ----------------------------------------------------------------------
 #t hf aug-cc-pvdz symm=none int=(grid=ultrafine) guess=(read,tcheck) s
 table=(opt,rrhf)
 ----------------------------------------------------------------------
 -----
 title
 -----
 Symbolic Z-matrix:
 Charge =  0 Multiplicity = 1

 SCF Done:  E(RHF) =  -519.050023525     A.U. after   12 cycles
 Normal termination of Gaussian 16 at Tue Apr  8 23:57:33 2025.
 Gaussian 16:  ES64L-G16RevC.01  3-Jul-2019

 ----------------------------------------------------------------------
 #t hf aug-cc-pvdz iop(5/13=1,5/36=2,99/5=2) pseudo=read geom=check gue
 ss=(read,tcheck) scf=(maxcycle=1)
 ----------------------------------------------------------------------
 -----
 title
 -----
 Structure from the checkpoint file:  "BDE49_nonexpt_2072_mol1.chk"
 Charge =  0 Multiplicity = 1

                         Standard orientation:
 ---------------------------------------------------------------------
 Center     Atomic      Atomic             Coordinates (Angstroms)
 Number     Number       Type             X           Y           Z
 ---------------------------------------------------------------------
      1         14           0        1.742132   -0.378316   -0.011974
      2          6           0       -0.029870    0.235483    0.358019
      3          8           0       -0.912033   -0.640837   -0.303621
      4          8           0       -0.206454    1.592350   -0.040408
      5          6           0       -2.284320   -0.464239    0.048496
      6          1           0       -2.443758   -0.685448    1.111970
      7          1           0       -2.857275   -1.167636   -0.554823
      8          1           0       -2.616752    0.556439   -0.159563
      9          1           0       -0.008982    1.645735   -0.983414
     10          1           0       -0.239885    0.249903    1.436391
     11          1           0        2.007863   -0.113601   -1.447286
     12          1           0        1.897006   -1.822333    0.271697
     13          1           0        2.704979    0.393808    0.805809
 ---------------------------------------------------------------------

 SCF Done:  E(RHF) =  -519.147808280     A.U. after    2 cycles

 The electronic state is 1-A.
 Alpha  occ. eigenvalues --  -69.06508 -20.58556 -20.58392 -11.33511 -11.28610
 Alpha  occ. eigenvalues --   -6.81897  -3.92668  -3.92663  -3.92662  -1.37053
 Alpha  occ. eigenvalues --   -1.30331  -0.96648  -0.87272  -0.74082  -0.70506
 Alpha  occ. eigenvalues --   -0.68302  -0.63603  -0.61175  -0.58881  -0.55300
 Alpha  occ. eigenvalues --   -0.50127  -0.48360  -0.48288  -0.46280  -0.42602
 Alpha virt. eigenvalues --    0.03397   0.04448   0.04776   0.05391   0.06376
 Alpha virt. eigenvalues --    0.07037   0.07184   0.08012   0.09187   0.09553
 Alpha virt. eigenvalues --    0.10345   0.12565   0.14453   0.14697   0.15473

 Mulliken charges:
               1
     1  Si   0.322664
     2  C    0.754935
     3  O   -0.599825
     4  O   -0.573915
     5  C    0.661880
     6  H   -0.091446
     7  H   -0.258194
     8  H   -0.037981
     9  H    0.129456
    10  H   -0.256467
    11  H   -0.037957
    12  H   -0.014937
    13  H    0.001786
 Sum of Mulliken charges =  -0.00000

 Dipole moment (field-independent basis, Debye):
    X=             -0.5476    Y=             -0.3716    Z=              0.0435  Tot=              0.6632

 Test job not archived.
 1\1\GINC-SE455\SP\RHF\Aug-CC-pVDZ\C2H8O2Si1\OHZDE\08-Apr-2025\0\\#t hf
  aug-cc-pvdz iop(5/13=1,5/36=2,99/5=2) pseudo=read geom=check guess=(r
 ead,tcheck) scf=(maxcycle=1)\\title\\0,1\Si,0,1.742132,-0.378316,-0.01
 1974\C,0,-0.02987,0.235483,0.358019\O,0,-0.912033,-0.640837,-0.303621\
 O,0,-0.206454,1.59235,-0.040408\C,0,-2.28432,-0.464239,0.048496\H,0,-2
 .443758,-0.685448,1.11197\H,0,-2.857275,-1.167636,-0.554823\H,0,-2.616
 752,0.556439,-0.159563\H,0,-0.008982,1.645735,-0.983414\H,0,-0.239885,
 0.249903,1.436391\H,0,2.007863,-0.113601,-1.447286\H,0,1.897006,-1.822

 Normal termination of Gaussian 16 at Tue Apr  8 23:57:36 2025.
