 Gaussian 16, Revision C.01,

 ----------------------------------------------------------------------
 #t hf aug-cc-pvdz symm=none int=(grid=ultrafine) guess=(read,tcheck) s
 table=(opt,rrhf)
 ----------------------------------------------------------------------
 -----
 title
 -----
 Symbolic Z-matrix:
 Charge =  0 Multiplicity = 1

 SCF Done:  E(RHF) =  -252.838457311     A.U. after   14 cycles
 Normal termination of Gaussian 16 at Tue Apr  8 23:18:50 2025.
 Gaussian 16:  ES64L-G16RevC.01  3-Jul-2019

 ----------------------------------------------------------------------
 #t hf aug-cc-pvdz iop(5/13=1,5/36=2,99/5=2) pseudo=read geom=check gue
 ss=(read,tcheck) scf=(maxcycle=1)
 ----------------------------------------------------------------------
 -----
 title
 -----
 Structure from the checkpoint file:  "BDE49_nonexpt_1121_mol1.chk"
 Charge =  0 Multiplicity = 1

                         Standard orientation:
 ---------------------------------------------------------------------
 Center     Atomic      Atomic             Coordinates (Angstroms)
 Number     Number       Type             X           Y           Z
 ---------------------------------------------------------------------
      1          9           0        1.395341   -0.594714    0.136129
      2          8           0        0.726427    0.590968   -0.370181
      3          6           0       -0.533674    0.624897    0.289336
      4          6           0       -1.464676   -0.505330   -0.114896
      5          1           0       -0.372447    0.668005    1.371299
      6          1           0       -1.604610   -0.519372   -1.197832
      7          1           0       -2.439794   -0.375775    0.362544
      8          1           0       -1.054505   -1.466645    0.196355
      9          1           0       -0.908029    1.601067   -0.042718
 ---------------------------------------------------------------------

 SCF Done:  E(RHF) =  -252.924723765     A.U. after    2 cycles

 The electronic state is 1-A.
 Alpha  occ. eigenvalues --  -26.14946 -20.69614 -11.31735 -11.24362  -1.65318
 Alpha  occ. eigenvalues --   -1.31921  -1.02530  -0.87358  -0.76359  -0.75754
 Alpha  occ. eigenvalues --   -0.72108  -0.63999  -0.62983  -0.59339  -0.55384
 Alpha  occ. eigenvalues --   -0.52243  -0.49941
 Alpha virt. eigenvalues --    0.03307   0.04783   0.04947   0.06019   0.07517
 Alpha virt. eigenvalues --    0.10451   0.11849   0.12370   0.13623   0.15175
 Alpha virt. eigenvalues --    0.16041   0.16717   0.17907   0.19894   0.22398

 Mulliken charges:
               1
     1  F   -0.359968
     2  O   -0.222245
     3  C    0.695764
     4  C    0.143564
     5  H   -0.097234
     6  H   -0.015108
     7  H    0.000518
     8  H   -0.021889
     9  H   -0.123402
 Sum of Mulliken charges =   0.00000

 Dipole moment (field-independent basis, Debye):
    X=             -2.9116    Y=              0.9793    Z=              0.5860  Tot=              3.1273

 Test job not archived.
 1\1\GINC-SE125\SP\RHF\Aug-CC-pVDZ\C2H5F1O1\OHZDE\08-Apr-2025\0\\#t hf
 aug-cc-pvdz iop(5/13=1,5/36=2,99/5=2) pseudo=read geom=check guess=(re
 ad,tcheck) scf=(maxcycle=1)\\title\\0,1\F,0,1.395341,-0.594714,0.13612
 9\O,0,0.726427,0.590968,-0.370181\C,0,-0.533674,0.624897,0.289336\C,0,
 -1.464676,-0.50533,-0.114896\H,0,-0.372447,0.668005,1.371299\H,0,-1.60
 461,-0.519372,-1.197832\H,0,-2.439794,-0.375775,0.362544\H,0,-1.054505
 ,-1.466645,0.196355\H,0,-0.908029,1.601067,-0.042718\\Version=ES64L-G1
 6RevC.01\State=1-A\HF=-252.9247238\RMSD=4.192e-03\Dipole=-1.1455169,0.

 Normal termination of Gaussian 16 at Tue Apr  8 23:18:53 2025.
