 Gaussian 16, Revision C.01,

 ----------------------------------------------------------------------
 #t hf aug-cc-pvdz symm=none int=(grid=ultrafine) guess=(read,tcheck) s
 table=opt
 ----------------------------------------------------------------------
 -----
 title
 -----
 Symbolic Z-matrix:
 Charge =  0 Multiplicity = 2

 SCF Done:  E(UHF) =  -1168.63319953     A.U. after   17 cycles
 Normal termination of Gaussian 16 at Tue Apr  8 23:42:17 2025.
 Gaussian 16:  ES64L-G16RevC.01  3-Jul-2019

 ----------------------------------------------------------------------
 #t hf aug-cc-pvdz iop(5/13=1,5/36=2,99/5=2) pseudo=read geom=check gue
 ss=(read,tcheck) scf=(maxcycle=1)
 ----------------------------------------------------------------------
 -----
 title
 -----
 Structure from the checkpoint file:  "BDE49_nonexpt_1701_mol2.chk"
 Charge =  0 Multiplicity = 2

                         Standard orientation:
 ---------------------------------------------------------------------
 Center     Atomic      Atomic             Coordinates (Angstroms)
 Number     Number       Type             X           Y           Z
 ---------------------------------------------------------------------
      1         16           0        2.204265   -0.275826   -0.000026
      2          8           0        0.595993   -0.750958   -0.000032
      3          6           0       -0.370138    0.248514    0.000011
      4         17           0       -1.949221   -0.563456   -0.000004
      5          9           0       -0.259931    1.028291   -1.081172
      6          9           0       -0.259913    1.028216    1.081246
 ---------------------------------------------------------------------

 SCF Done:  E(UHF) =  -1168.78470604     A.U. after    2 cycles

 The electronic state is 2-A.
 Alpha  occ. eigenvalues -- -103.70005 -93.64199 -26.18878 -26.18866 -20.68181
 Alpha  occ. eigenvalues --  -11.57301 -10.73379  -8.93283  -8.39102  -8.38756
 Alpha  occ. eigenvalues --   -8.38755  -6.28491  -6.27058  -6.26345  -1.76894
 Alpha  occ. eigenvalues --   -1.71571  -1.43489  -1.21067  -1.03078  -0.96811
 Alpha  occ. eigenvalues --   -0.89119  -0.85308  -0.83645  -0.78416  -0.74659
 Alpha  occ. eigenvalues --   -0.72919  -0.66315  -0.66018  -0.59436  -0.51251
 Alpha  occ. eigenvalues --   -0.50756  -0.46589  -0.42076
 Alpha virt. eigenvalues --    0.05061   0.07195   0.09050   0.09548   0.09899
 Alpha virt. eigenvalues --    0.11084   0.12950   0.12993   0.14969   0.15847
 Alpha virt. eigenvalues --    0.16771   0.19760   0.21646   0.23238   0.25201

  Beta  occ. eigenvalues -- -103.70008 -93.63300 -26.18873 -26.18861 -20.67686
  Beta  occ. eigenvalues --  -11.57324 -10.73382  -8.92284  -8.39111  -8.38759
  Beta  occ. eigenvalues --   -8.38755  -6.26636  -6.25807  -6.24445  -1.76873
  Beta  occ. eigenvalues --   -1.71554  -1.42126  -1.20933  -1.01326  -0.93088
  Beta  occ. eigenvalues --   -0.88828  -0.85101  -0.81965  -0.78267  -0.74635
  Beta  occ. eigenvalues --   -0.70790  -0.65269  -0.60935  -0.58600  -0.51118
  Beta  occ. eigenvalues --   -0.50691  -0.39964
  Beta virt. eigenvalues --   -0.00910   0.05807   0.07246   0.09347   0.09932
  Beta virt. eigenvalues --    0.10470   0.11325   0.13070   0.14298   0.15340
  Beta virt. eigenvalues --    0.15999   0.17337   0.19793   0.21772   0.23610

 Mulliken charges and spin densities:
               1          2
     1  S    0.493116   0.984655
     2  O   -0.702418   0.022017
     3  C    0.799975  -0.009569
     4  Cl  -0.115391  -0.001230
     5  F   -0.237642   0.002063
     6  F   -0.237641   0.002063
 Sum of Mulliken charges =  -0.00000   1.00000

 Dipole moment (field-independent basis, Debye):
    X=              1.0265    Y=             -0.2910    Z=             -0.0000  Tot=              1.0670
                          Isotropic Fermi Contact Couplings
        Atom                 a.u.       MegaHertz       Gauss      10(-4) cm-1
     1  S(33)              0.21167      72.70344      25.94240      24.25126
     2  O(17)              0.05406     -32.77211     -11.69390     -10.93160
     3  C(13)             -0.00417      -4.68392      -1.67134      -1.56239
     4  Cl(35)            -0.00105      -0.46147      -0.16466      -0.15393
     5  F(19)             -0.00195      -8.20077      -2.92624      -2.73548
     6  F(19)             -0.00195      -8.20080      -2.92625      -2.73549
 --------------------------------------------------------
       Center         ----  Spin Dipole Couplings  ----

 1\1\GINC-SE250\SP\UHF\Aug-CC-pVDZ\C1Cl1F2O1S1(2)\OHZDE\08-Apr-2025\0\\
 #t hf aug-cc-pvdz iop(5/13=1,5/36=2,99/5=2) pseudo=read geom=check gue
 ss=(read,tcheck) scf=(maxcycle=1)\\title\\0,2\S,0,2.204265,-0.275826,-
 0.000026\O,0,0.595993,-0.750958,-0.000032\C,0,-0.370138,0.248514,0.000
 011\Cl,0,-1.949221,-0.563456,-0.000004\F,0,-0.259931,1.028291,-1.08117
 2\F,0,-0.259913,1.028216,1.081246\\Version=ES64L-G16RevC.01\State=2-A\
 HF=-1168.784706\S2=0.763279\S2-1=0.\S2A=0.750051\RMSD=4.772e-03\Dipole
 =0.4038615,-0.1144909,-0.0000059\Quadrupole=3.4871102,-2.6499385,-0.83

 Normal termination of Gaussian 16 at Tue Apr  8 23:42:20 2025.
