 Gaussian 16, Revision C.01,

 ----------------------------------------------------------------------
 #t hf aug-cc-pvdz symm=none int=(grid=ultrafine) guess=(read,tcheck) s
 table=(opt,rrhf)
 ----------------------------------------------------------------------
 -----
 title
 -----
 Symbolic Z-matrix:
 Charge =  0 Multiplicity = 1

 SCF Done:  E(RHF) =  -502.868973861     A.U. after   12 cycles
 Normal termination of Gaussian 16 at Tue Apr  8 23:56:19 2025.
 Gaussian 16:  ES64L-G16RevC.01  3-Jul-2019

 ----------------------------------------------------------------------
 #t hf aug-cc-pvdz iop(5/13=1,5/36=2,99/5=2) pseudo=read geom=check gue
 ss=(read,tcheck) scf=(maxcycle=1)
 ----------------------------------------------------------------------
 -----
 title
 -----
 Structure from the checkpoint file:  "BDE49_nonexpt_2041_mol1.chk"
 Charge =  0 Multiplicity = 1

                         Standard orientation:
 ---------------------------------------------------------------------
 Center     Atomic      Atomic             Coordinates (Angstroms)
 Number     Number       Type             X           Y           Z
 ---------------------------------------------------------------------
      1         14           0        1.333488    0.016971    0.000020
      2          6           0       -0.581145    0.153579    0.000093
      3          8           0       -1.273288    1.110870   -0.000025
      4          9           0       -1.147736   -1.107924   -0.000072
      5          1           0        1.883396    1.383694   -0.000022
      6          1           0        1.725241   -0.729221   -1.211842
      7          1           0        1.725326   -0.729182    1.211878
 ---------------------------------------------------------------------

 SCF Done:  E(RHF) =  -502.965303008     A.U. after    2 cycles

 The electronic state is 1-A.
 Alpha  occ. eigenvalues --  -69.10979 -26.14741 -20.61424 -11.42903  -6.86298
 Alpha  occ. eigenvalues --   -3.97122  -3.97044  -3.97042  -1.68479  -1.41152
 Alpha  occ. eigenvalues --   -0.91395  -0.81009  -0.76060  -0.75036  -0.70931
 Alpha  occ. eigenvalues --   -0.61868  -0.57941  -0.52138  -0.51802  -0.48799
 Alpha virt. eigenvalues --    0.03131   0.04947   0.05266   0.05493   0.07408
 Alpha virt. eigenvalues --    0.08347   0.09534   0.09780   0.12532   0.12830
 Alpha virt. eigenvalues --    0.15048   0.15199   0.16947   0.18272   0.20205

 Mulliken charges:
               1
     1  Si   0.602647
     2  C    0.363602
     3  O   -0.371790
     4  F   -0.405258
     5  H   -0.018456
     6  H   -0.085369
     7  H   -0.085376
 Sum of Mulliken charges =  -0.00000

 Dipole moment (field-independent basis, Debye):
    X=              3.3987    Y=             -0.3374    Z=              0.0003  Tot=              3.4154

 Test job not archived.
 1\1\GINC-SE404\SP\RHF\Aug-CC-pVDZ\C1H3F1O1Si1\OHZDE\08-Apr-2025\0\\#t
 hf aug-cc-pvdz iop(5/13=1,5/36=2,99/5=2) pseudo=read geom=check guess=
 (read,tcheck) scf=(maxcycle=1)\\title\\0,1\Si,0,1.333488,0.016971,0.00
 002\C,0,-0.581145,0.153579,0.000093\O,0,-1.273287,1.11087,-0.000025\F,
 0,-1.147736,-1.107924,-0.000072\H,0,1.883397,1.383693,-0.000022\H,0,1.
 725241,-0.729222,-1.211842\H,0,1.725326,-0.729183,1.211878\\Version=ES
 64L-G16RevC.01\State=1-A\HF=-502.965303\RMSD=5.277e-03\Dipole=1.337161
 ,-0.1327276,0.0001147\Quadrupole=-0.2801291,-1.7327667,2.0128958,0.682

 Normal termination of Gaussian 16 at Tue Apr  8 23:56:20 2025.
