 Gaussian 16, Revision C.01,

 ----------------------------------------------------------------------
 #t hf aug-cc-pvdz symm=none int=(grid=ultrafine) guess=(read,tcheck) s
 table=(opt,rrhf)
 ----------------------------------------------------------------------
 -----
 title
 -----
 Symbolic Z-matrix:
 Charge =  0 Multiplicity = 1

 SCF Done:  E(RHF) =  -327.068086321     A.U. after   15 cycles
 Normal termination of Gaussian 16 at Wed Apr  9 00:36:37 2025.
 Gaussian 16:  ES64L-G16RevC.01  3-Jul-2019

 ----------------------------------------------------------------------
 #t hf aug-cc-pvdz iop(5/13=1,5/36=2,99/5=2) pseudo=read geom=check gue
 ss=(read,tcheck) scf=(maxcycle=1)
 ----------------------------------------------------------------------
 -----
 title
 -----
 Structure from the checkpoint file:  "BDE49_nonexpt_562_mol1.chk"
 Charge =  0 Multiplicity = 1

                         Standard orientation:
 ---------------------------------------------------------------------
 Center     Atomic      Atomic             Coordinates (Angstroms)
 Number     Number       Type             X           Y           Z
 ---------------------------------------------------------------------
      1          6           0       -0.523187   -0.205973   -0.000001
      2          6           0       -0.009645    1.094748   -0.000001
      3          6           0        1.369375    1.264767    0.000000
      4          7           0        2.258645    0.265146    0.000002
      5          6           0        1.756499   -0.972008    0.000002
      6          6           0        0.396145   -1.259730    0.000000
      7          1           0       -0.664652    1.954847   -0.000002
      8          1           0        1.783363    2.269365    0.000000
      9          1           0        2.479128   -1.783535    0.000003
     10          1           0        0.057355   -2.290757    0.000000
     11          5           0       -3.007331    0.379512   -0.000001
     12          7           0       -1.903624   -0.485356   -0.000003
     13          1           0       -4.089586   -0.114810    0.000005
     14          1           0       -2.856934    1.557485    0.000008
     15          1           0       -2.092290   -1.479519   -0.000004
 ---------------------------------------------------------------------

 SCF Done:  E(RHF) =  -327.165663172     A.U. after    2 cycles

 The electronic state is 1-A.
 Alpha  occ. eigenvalues --  -15.65652 -15.62339 -11.31903 -11.28994 -11.28864
 Alpha  occ. eigenvalues --  -11.24999 -11.24644  -7.62422  -1.23871  -1.20012
 Alpha  occ. eigenvalues --   -1.04920  -1.03109  -0.86878  -0.85438  -0.74885
 Alpha  occ. eigenvalues --   -0.73161  -0.66839  -0.65089  -0.62535  -0.60254
 Alpha  occ. eigenvalues --   -0.57558  -0.56682  -0.52003  -0.49447  -0.48704
 Alpha  occ. eigenvalues --   -0.41498  -0.35523  -0.34594
 Alpha virt. eigenvalues --    0.02592   0.03553   0.04172   0.04202   0.05385
 Alpha virt. eigenvalues --    0.05966   0.07496   0.08894   0.09402   0.09750
 Alpha virt. eigenvalues --    0.09828   0.10990   0.11691   0.12443   0.12895

 Mulliken charges:
               1
     1  C   -0.689539
     2  C    1.568522
     3  C    0.256457
     4  N   -0.413526
     5  C    0.279804
     6  C    1.307811
     7  H   -0.659893
     8  H   -0.329131
     9  H   -0.318890
    10  H   -0.578328
    11  B   -0.700780
    12  N   -0.353655
    13  H    0.412538
    14  H    0.260019
    15  H   -0.041408
 Sum of Mulliken charges =  -0.00000

 Dipole moment (field-independent basis, Debye):
    X=             -2.0562    Y=             -1.2909    Z=             -0.0000  Tot=              2.4278

 Test job not archived.
 1\1\GINC-SE054\SP\RHF\Aug-CC-pVDZ\C5H7B1N2\OHZDE\09-Apr-2025\0\\#t hf
 aug-cc-pvdz iop(5/13=1,5/36=2,99/5=2) pseudo=read geom=check guess=(re
 ad,tcheck) scf=(maxcycle=1)\\title\\0,1\C,0,0.523187,-0.205973,0.00000
 1\C,0,0.009645,1.094748,0.000001\C,0,-1.369375,1.264767,0.\N,0,-2.2586
 45,0.265146,-0.000002\C,0,-1.756499,-0.972008,-0.000002\C,0,-0.396145,
 -1.25973,0.\H,0,0.664652,1.954847,0.000002\H,0,-1.783363,2.269365,0.\H
 ,0,-2.479128,-1.783535,-0.000003\H,0,-0.057355,-2.290757,0.\B,0,3.0073
 31,0.379512,0.000001\N,0,1.903624,-0.485356,0.000003\H,0,4.089586,-0.1

 Normal termination of Gaussian 16 at Wed Apr  9 00:36:43 2025.
