 Gaussian 16, Revision C.01,

 ----------------------------------------------------------------------
 #t hf aug-cc-pvdz symm=none int=(grid=ultrafine) guess=(read,tcheck) s
 table=(opt,rrhf)
 ----------------------------------------------------------------------
 -----
 title
 -----
 Symbolic Z-matrix:
 Charge =  0 Multiplicity = 1

 SCF Done:  E(RHF) =  -556.654562836     A.U. after   13 cycles
 Normal termination of Gaussian 16 at Wed Apr  9 00:41:54 2025.
 Gaussian 16:  ES64L-G16RevC.01  3-Jul-2019

 ----------------------------------------------------------------------
 #t hf aug-cc-pvdz iop(5/13=1,5/36=2,99/5=2) pseudo=read geom=check gue
 ss=(read,tcheck) scf=(maxcycle=1)
 ----------------------------------------------------------------------
 -----
 title
 -----
 Structure from the checkpoint file:  "BDE49_nonexpt_747_mol1.chk"
 Charge =  0 Multiplicity = 1

                         Standard orientation:
 ---------------------------------------------------------------------
 Center     Atomic      Atomic             Coordinates (Angstroms)
 Number     Number       Type             X           Y           Z
 ---------------------------------------------------------------------
      1         15           0       -0.838613   -0.788495   -0.267166
      2          5           0        0.896255    0.061773   -0.017414
      3          8           0        1.966527   -0.748092    0.202562
      4          8           0        1.111781    1.410236   -0.129694
      5          6           0       -2.004900    0.582328    0.258923
      6          1           0       -1.715085    1.089010    1.181351
      7          1           0       -3.004747    0.165190    0.391624
      8          1           0       -2.076601    1.317901   -0.547568
      9          1           0        0.314007    1.927094   -0.266183
     10          1           0        2.791431   -0.250126    0.254745
     11          1           0       -0.808148   -1.521632    0.944101
 ---------------------------------------------------------------------

 SCF Done:  E(RHF) =  -556.750587342     A.U. after    2 cycles

 The electronic state is 1-A.
 Alpha  occ. eigenvalues --  -81.23791 -20.59498 -20.58463 -11.24741  -7.74326
 Alpha  occ. eigenvalues --   -7.67514  -4.88341  -4.88278  -4.88001  -1.35366
 Alpha  occ. eigenvalues --   -1.31585  -0.96685  -0.80254  -0.77220  -0.72470
 Alpha  occ. eigenvalues --   -0.63854  -0.60237  -0.59063  -0.58174  -0.57282
 Alpha  occ. eigenvalues --   -0.53007  -0.48359  -0.44557  -0.33690
 Alpha virt. eigenvalues --    0.02922   0.04549   0.05035   0.05672   0.06589
 Alpha virt. eigenvalues --    0.07328   0.07464   0.08381   0.09572   0.10284
 Alpha virt. eigenvalues --    0.11041   0.12851   0.14214   0.15498   0.16835

 Mulliken charges:
               1
     1  P   -0.055634
     2  B    0.832680
     3  O   -0.520967
     4  O   -0.455955
     5  C    0.202185
     6  H   -0.173875
     7  H   -0.256459
     8  H   -0.138387
     9  H    0.228767
    10  H    0.190830
    11  H    0.146816
 Sum of Mulliken charges =   0.00000

 Dipole moment (field-independent basis, Debye):
    X=             -0.7416    Y=              2.1091    Z=              0.6214  Tot=              2.3205

 Test job not archived.
 1\1\GINC-SE073\SP\RHF\Aug-CC-pVDZ\C1H6B1O2P1\OHZDE\09-Apr-2025\0\\#t h
 f aug-cc-pvdz iop(5/13=1,5/36=2,99/5=2) pseudo=read geom=check guess=(
 read,tcheck) scf=(maxcycle=1)\\title\\0,1\P,0,-0.838613,-0.788495,-0.2
 67166\B,0,0.896255,0.061773,-0.017414\O,0,1.966527,-0.748092,0.202562\
 O,0,1.111781,1.410236,-0.129694\C,0,-2.0049,0.582329,0.258923\H,0,-1.7
 15085,1.089011,1.181351\H,0,-3.004747,0.165191,0.391624\H,0,-2.076601,
 1.317902,-0.547568\H,0,0.314008,1.927094,-0.266183\H,0,2.791431,-0.250
 127,0.254745\H,0,-0.808148,-1.521632,0.944101\\Version=ES64L-G16RevC.0

 Normal termination of Gaussian 16 at Wed Apr  9 00:41:58 2025.
