 Gaussian 16, Revision C.01,

 ----------------------------------------------------------------------
 #t hf aug-cc-pvdz symm=none int=(grid=ultrafine) guess=(read,tcheck) s
 table=(opt,rrhf)
 ----------------------------------------------------------------------
 -----
 title
 -----
 Symbolic Z-matrix:
 Charge =  0 Multiplicity = 1

 SCF Done:  E(RHF) =  -639.437557811     A.U. after   12 cycles
 Normal termination of Gaussian 16 at Wed Apr  9 00:06:28 2025.
 Gaussian 16:  ES64L-G16RevC.01  3-Jul-2019

 ----------------------------------------------------------------------
 #t hf aug-cc-pvdz iop(5/13=1,5/36=2,99/5=2) pseudo=read geom=check gue
 ss=(read,tcheck) scf=(maxcycle=1)
 ----------------------------------------------------------------------
 -----
 title
 -----
 Structure from the checkpoint file:  "BDE49_nonexpt_2219_mol1.chk"
 Charge =  0 Multiplicity = 1

                         Standard orientation:
 ---------------------------------------------------------------------
 Center     Atomic      Atomic             Coordinates (Angstroms)
 Number     Number       Type             X           Y           Z
 ---------------------------------------------------------------------
      1          8           0       -0.731283   -0.221795   -0.622994
      2          6           0       -1.891703    0.345792    0.020116
      3          6           0       -2.997887   -0.715268    0.078942
      4          1           0       -2.690576   -1.566043    0.692122
      5          1           0       -3.222819   -1.078477   -0.926415
      6          6           0       -1.529645    0.838321    1.427557
      7          1           0       -2.391352    1.314309    1.903353
      8          1           0       -0.718909    1.569440    1.379290
      9          1           0       -1.213599    0.008428    2.066062
     10          6           0       -2.315120    1.518609   -0.868090
     11          1           0       -2.529791    1.164038   -1.878369
     12          1           0       -1.511161    2.255531   -0.929334
     13          1           0       -3.208684    2.007551   -0.470537
     14          1           0       -3.912944   -0.299377    0.509826
     15         14           0        0.383180   -1.349133   -0.166328
     16          6           0        1.962362   -0.575261    0.495504
     17          6           0        2.675674    0.384739   -0.474394
     18          1           0        2.634768   -1.402906    0.763897
     19          1           0        1.737131   -0.058032    1.437002
     20          6           0        3.963071    0.983973    0.101353
     21          1           0        1.991193    1.192809   -0.753819
     22          1           0        2.908896   -0.145624   -1.405065
     23          1           0        3.758745    1.553537    1.013476
     24          1           0        4.443664    1.659177   -0.612737
     25          1           0        4.683173    0.200139    0.356406
     26          1           0        0.695457   -2.131155   -1.385697
     27          1           0       -0.167962   -2.266550    0.867152
 ---------------------------------------------------------------------

 SCF Done:  E(RHF) =  -639.582646656     A.U. after    2 cycles

 The electronic state is 1-A.
 Alpha  occ. eigenvalues --  -69.07596 -20.54638 -11.30440 -11.23091 -11.22876
 Alpha  occ. eigenvalues --  -11.22424 -11.22132 -11.22091 -11.21280  -6.82394
 Alpha  occ. eigenvalues --   -3.93299  -3.93164  -3.93130  -1.29549  -1.05812
 Alpha  occ. eigenvalues --   -1.04157  -0.93933  -0.93528  -0.91898  -0.80383
 Alpha  occ. eigenvalues --   -0.78776  -0.68039  -0.63745  -0.63433  -0.62522
 Alpha  occ. eigenvalues --   -0.61415  -0.57502  -0.56851  -0.56301  -0.53978
 Alpha  occ. eigenvalues --   -0.53818  -0.52968  -0.52046  -0.51931  -0.51187
 Alpha  occ. eigenvalues --   -0.48216  -0.47310  -0.46624  -0.45526  -0.43495
 Alpha  occ. eigenvalues --   -0.40638
 Alpha virt. eigenvalues --    0.03260   0.04202   0.04442   0.04521   0.05512
 Alpha virt. eigenvalues --    0.05620   0.05755   0.06584   0.06655   0.07678
 Alpha virt. eigenvalues --    0.07723   0.08196   0.08242   0.09172   0.09805

 Mulliken charges:
               1
     1  O   -0.774652
     2  C   -2.662613
     3  C    0.965692
     4  H   -0.065476
     5  H    0.003387
     6  C    1.091660
     7  H   -0.023469
     8  H    0.015724
     9  H   -0.076594
    10  C    1.096050
    11  H   -0.039300
    12  H   -0.031274
    13  H    0.040305
    14  H    0.022838
    15  Si   0.402699
    16  C    0.227783
    17  C    0.046269
    18  H   -0.243826
    19  H   -0.236512
    20  C    0.466666
    21  H   -0.224768
    22  H   -0.151865
    23  H   -0.068618
    24  H   -0.068141
    25  H   -0.076890
    26  H    0.263542
    27  H    0.101382
 Sum of Mulliken charges =  -0.00000

 Dipole moment (field-independent basis, Debye):
    X=             -0.5422    Y=              0.6288    Z=              1.1062  Tot=              1.3831

 Test job not archived.
 1\1\GINC-SE396\SP\RHF\Aug-CC-pVDZ\C7H18O1Si1\OHZDE\09-Apr-2025\0\\#t h
 f aug-cc-pvdz iop(5/13=1,5/36=2,99/5=2) pseudo=read geom=check guess=(
 read,tcheck) scf=(maxcycle=1)\\title\\0,1\O,0,0.731283,0.221795,-0.622
 994\C,0,1.891703,-0.345792,0.020116\C,0,2.997887,0.715268,0.078942\H,0
 ,2.690576,1.566043,0.692122\H,0,3.222819,1.078477,-0.926415\C,0,1.5296
 45,-0.838321,1.427557\H,0,2.391352,-1.314309,1.903353\H,0,0.718909,-1.
 56944,1.37929\H,0,1.213599,-0.008428,2.066062\C,0,2.31512,-1.518609,-0
 .86809\H,0,2.529791,-1.164038,-1.878369\H,0,1.511161,-2.255531,-0.9293

 Normal termination of Gaussian 16 at Wed Apr  9 00:06:45 2025.
