 Gaussian 16, Revision C.01,

 ----------------------------------------------------------------------
 #t hf aug-cc-pvdz symm=none int=(grid=ultrafine) guess=(read,tcheck) s
 table=(opt,rrhf)
 ----------------------------------------------------------------------
 -----
 title
 -----
 Symbolic Z-matrix:
 Charge =  0 Multiplicity = 1

 SCF Done:  E(RHF) =  -683.257278595     A.U. after   11 cycles

 1\1\GINC-SE166\Stability\RHF\Aug-CC-pVDZ\B1Cl1F2\OHZDE\09-Apr-2025\0\\
 #t hf aug-cc-pvdz symm=none int=(grid=ultrafine) guess=(read,tcheck) s
 table=(opt,rrhf)\\title\\0,1\F,0,-0.000133,-1.111043,1.134279\B,0,-0.0
 00133,-0.44566,0.\Cl,0,0.00018,1.307475,0.\F,0,-0.000133,-1.111043,-1.
 134279\\Version=ES64L-G16RevC.01\HF=-683.2572786\RMSD=4.720e-09\Dipole
 =-0.0001258,0.0858477,0.\Quadrupole=1.7756335,-0.4262135,-1.34942,-0.0
 000098,0.,0.\PG=Unknown\\@
 The archive entry for this job was punched.

 Normal termination of Gaussian 16 at Wed Apr  9 00:07:53 2025.
 Gaussian 16:  ES64L-G16RevC.01  3-Jul-2019

 ----------------------------------------------------------------------
 #t hf aug-cc-pvdz iop(5/13=1,5/36=2,99/5=2) pseudo=read geom=check gue
 ss=(read,tcheck) scf=(maxcycle=1)
 ----------------------------------------------------------------------
 -----
 title
 -----
 Structure from the checkpoint file:  "BDE49_nonexpt_232_mol1.chk"
 Charge =  0 Multiplicity = 1

                         Standard orientation:
 ---------------------------------------------------------------------
 Center     Atomic      Atomic             Coordinates (Angstroms)
 Number     Number       Type             X           Y           Z
 ---------------------------------------------------------------------
      1          9           0       -0.000133   -1.111043    1.134279
      2          5           0       -0.000133   -0.445660    0.000000
      3         17           0        0.000180    1.307475   -0.000000
      4          9           0       -0.000133   -1.111043   -1.134279
 ---------------------------------------------------------------------

 SCF Done:  E(RHF) =  -683.369330631     A.U. after    2 cycles

 The electronic state is 1-A'.
 Alpha  occ. eigenvalues -- -103.68942 -26.16891 -26.16884 -10.72429  -8.38131
 Alpha  occ. eigenvalues --   -8.37890  -8.37864  -7.81594  -1.72413  -1.70337
 Alpha  occ. eigenvalues --   -1.18553  -0.90651  -0.85684  -0.80993  -0.80151
 Alpha  occ. eigenvalues --   -0.75171  -0.74703  -0.61554  -0.51876  -0.51082
 Alpha virt. eigenvalues --    0.04634   0.05381   0.05928   0.05982   0.12691
 Alpha virt. eigenvalues --    0.12755   0.15290   0.16326   0.19114   0.23249
 Alpha virt. eigenvalues --    0.23814   0.25777   0.26599   0.28481   0.28800

 Mulliken charges:
               1
     1  F   -0.361893
     2  B    0.979045
     3  Cl  -0.255258
     4  F   -0.361893
 Sum of Mulliken charges =  -0.00000

 Dipole moment (field-independent basis, Debye):
    X=             -0.0003    Y=              0.3950    Z=             -0.0000  Tot=              0.3950

 Test job not archived.
 1\1\GINC-SE166\SP\RHF\Aug-CC-pVDZ\B1Cl1F2\OHZDE\09-Apr-2025\0\\#t hf a
 ug-cc-pvdz iop(5/13=1,5/36=2,99/5=2) pseudo=read geom=check guess=(rea
 d,tcheck) scf=(maxcycle=1)\\title\\0,1\F,0,-0.000133,-1.111043,1.13427
 9\B,0,-0.000133,-0.44566,0.\Cl,0,0.00018,1.307475,0.\F,0,-0.000133,-1.
 111043,-1.134279\\Version=ES64L-G16RevC.01\State=1-A'\HF=-683.3693306\
 RMSD=5.549e-03\Dipole=-0.0001336,0.1554086,0.\Quadrupole=1.9604239,-0.
 4368389,-1.523585,-0.0000106,0.,0.\PG=CS [SG(B1Cl1),X(F2)]\\@

 Normal termination of Gaussian 16 at Wed Apr  9 00:07:55 2025.
