 Gaussian 16, Revision C.01,

 ----------------------------------------------------------------------
 #t hf aug-cc-pvdz symm=none int=(grid=ultrafine) guess=(read,tcheck) s
 table=(opt,rrhf)
 ----------------------------------------------------------------------
 -----
 title
 -----
 Symbolic Z-matrix:
 Charge =  0 Multiplicity = 1

 SCF Done:  E(RHF) =  -558.571258620     A.U. after   15 cycles
 Normal termination of Gaussian 16 at Wed Apr  9 00:42:13 2025.
 Gaussian 16:  ES64L-G16RevC.01  3-Jul-2019

 ----------------------------------------------------------------------
 #t hf aug-cc-pvdz iop(5/13=1,5/36=2,99/5=2) pseudo=read geom=check gue
 ss=(read,tcheck) scf=(maxcycle=1)
 ----------------------------------------------------------------------
 -----
 title
 -----
 Structure from the checkpoint file:  "BDE49_nonexpt_735_mol1.chk"
 Charge =  0 Multiplicity = 1

                         Standard orientation:
 ---------------------------------------------------------------------
 Center     Atomic      Atomic             Coordinates (Angstroms)
 Number     Number       Type             X           Y           Z
 ---------------------------------------------------------------------
      1          6           0       -1.859606   -0.263721    0.357428
      2          5           0        1.102763    0.166380   -0.028486
      3          6           0        0.923081    1.709189   -0.212436
      4          1           0        1.131730    1.941860   -1.268050
      5          1           0        1.642051    2.287925    0.376234
      6          1           0       -0.091448    2.066228   -0.020201
      7          6           0        2.475449   -0.475507    0.383020
      8          1           0        3.323135    0.049050   -0.071902
      9          1           0        2.579493   -1.546605    0.194940
     10          1           0        2.584184   -0.329201    1.468417
     11          8           0       -2.232008    0.872065    0.202066
     12         15           0       -0.362923   -0.999965   -0.446200
     13          1           0       -2.446317   -0.987857    0.965594
     14          1           0       -0.170277   -2.110111    0.405792
 ---------------------------------------------------------------------

 SCF Done:  E(RHF) =  -558.659739908     A.U. after    2 cycles

 The electronic state is 1-A.
 Alpha  occ. eigenvalues --  -81.25187 -20.58237 -11.35825 -11.22014 -11.20786
 Alpha  occ. eigenvalues --   -7.76008  -7.63240  -4.90077  -4.90005  -4.89714
 Alpha  occ. eigenvalues --   -1.36795  -0.97570  -0.92878  -0.88862  -0.76485
 Alpha  occ. eigenvalues --   -0.67837  -0.64011  -0.60161  -0.58268  -0.57158
 Alpha  occ. eigenvalues --   -0.55899  -0.54485  -0.53556  -0.48403  -0.46138
 Alpha  occ. eigenvalues --   -0.40561  -0.35012
 Alpha virt. eigenvalues --    0.02930   0.04183   0.04869   0.05064   0.06152
 Alpha virt. eigenvalues --    0.06793   0.07426   0.07705   0.07927   0.08209
 Alpha virt. eigenvalues --    0.09259   0.09980   0.10332   0.11117   0.12410

 Mulliken charges:
               1
     1  C    0.334824
     2  B    0.629317
     3  C    0.513697
     4  H   -0.108738
     5  H   -0.260089
     6  H   -0.244744
     7  C    0.482977
     8  H   -0.235116
     9  H   -0.345542
    10  H   -0.087861
    11  O   -0.457009
    12  P   -0.192367
    13  H   -0.214441
    14  H    0.185091
 Sum of Mulliken charges =  -0.00000

 Dipole moment (field-independent basis, Debye):
    X=              2.1309    Y=             -2.0361    Z=              0.9180  Tot=              3.0869

 Test job not archived.
 1\1\GINC-SE105\SP\RHF\Aug-CC-pVDZ\C3H8B1O1P1\OHZDE\09-Apr-2025\0\\#t h
 f aug-cc-pvdz iop(5/13=1,5/36=2,99/5=2) pseudo=read geom=check guess=(
 read,tcheck) scf=(maxcycle=1)\\title\\0,1\C,0,-1.859606,-0.263721,0.35
 7428\B,0,1.102763,0.16638,-0.028486\C,0,0.923081,1.709189,-0.212436\H,
 0,1.13173,1.94186,-1.26805\H,0,1.642051,2.287925,0.376234\H,0,-0.09144
 8,2.066228,-0.020201\C,0,2.475449,-0.475507,0.38302\H,0,3.323135,0.049
 05,-0.071902\H,0,2.579493,-1.546605,0.19494\H,0,2.584184,-0.329201,1.4
 68417\O,0,-2.232008,0.872065,0.202066\P,0,-0.362923,-0.999965,-0.4462\

 Normal termination of Gaussian 16 at Wed Apr  9 00:42:17 2025.
