 Gaussian 16, Revision C.01,

 ----------------------------------------------------------------------
 #t hf aug-cc-pvdz symm=none int=(grid=ultrafine) guess=(read,tcheck) s
 table=opt
 ----------------------------------------------------------------------
 -----
 title
 -----
 Symbolic Z-matrix:
 Charge =  0 Multiplicity = 2

 SCF Done:  E(UHF) =  -177.473458157     A.U. after   15 cycles
 Normal termination of Gaussian 16 at Tue Apr  8 22:28:37 2025.
 Gaussian 16:  ES64L-G16RevC.01  3-Jul-2019

 ----------------------------------------------------------------------
 #t hf aug-cc-pvdz iop(5/13=1,5/36=2,99/5=2) pseudo=read geom=check gue
 ss=(read,tcheck) scf=(maxcycle=1)
 ----------------------------------------------------------------------
 -----
 title
 -----
 Structure from the checkpoint file:  "BDE49_expt_1025_mol2.chk"
 Charge =  0 Multiplicity = 2

                         Standard orientation:
 ---------------------------------------------------------------------
 Center     Atomic      Atomic             Coordinates (Angstroms)
 Number     Number       Type             X           Y           Z
 ---------------------------------------------------------------------
      1          6           0       -1.193719   -0.172195    0.012277
      2          1           0       -1.258785   -1.004072   -0.696143
      3          1           0       -2.006880    0.526459   -0.196992
      4          1           0       -1.356281   -0.588944    1.018946
      5          6           0        0.110988    0.516212   -0.100851
      6          9           0        1.202424   -0.280557    0.017804
      7          1           0        0.296517    1.527474    0.245395
 ---------------------------------------------------------------------

 SCF Done:  E(UHF) =  -177.536153982     A.U. after    2 cycles

 The electronic state is 2-A.
 Alpha  occ. eigenvalues --  -26.12256 -11.32831 -11.24605  -1.66258  -1.04776
 Alpha  occ. eigenvalues --   -0.88620  -0.76659  -0.75732  -0.70416  -0.59421
 Alpha  occ. eigenvalues --   -0.56878  -0.54823  -0.37605
 Alpha virt. eigenvalues --    0.03551   0.04788   0.05751   0.06253   0.10771
 Alpha virt. eigenvalues --    0.11957   0.12372   0.14719   0.15561   0.16281
 Alpha virt. eigenvalues --    0.17289   0.21406   0.25434   0.27383   0.28305

  Beta  occ. eigenvalues --  -26.11834 -11.30121 -11.24884  -1.64997  -1.01480
  Beta  occ. eigenvalues --   -0.85952  -0.75403  -0.70715  -0.68036  -0.56877
  Beta  occ. eigenvalues --   -0.56491  -0.53763
  Beta virt. eigenvalues --    0.03567   0.04839   0.05766   0.06267   0.09126
  Beta virt. eigenvalues --    0.11202   0.12051   0.14784   0.15573   0.15787
  Beta virt. eigenvalues --    0.17124   0.18646   0.22384   0.25661   0.27824

 Mulliken charges and spin densities:
               1          2
     1  C    0.214165  -0.188733
     2  H   -0.029126   0.013385
     3  H   -0.044780   0.000213
     4  H   -0.003035   0.052890
     5  C    0.463546   1.197480
     6  F   -0.394104   0.012834
     7  H   -0.206666  -0.088069
 Sum of Mulliken charges =  -0.00000   1.00000

 Dipole moment (field-independent basis, Debye):
    X=             -1.9283    Y=              0.9308    Z=              0.2652  Tot=              2.1576
                          Isotropic Fermi Contact Couplings
        Atom                 a.u.       MegaHertz       Gauss      10(-4) cm-1
     1  C(13)             -0.04763     -53.54294     -19.10545     -17.86000
     2  H(1)               0.01134      50.70512      18.09285      16.91341
     3  H(1)               0.00236      10.53854       3.76041       3.51528
     4  H(1)               0.02544     113.71460      40.57620      37.93111
     5  C(13)              0.30900     347.37614     123.95245     115.87221
     6  F(19)              0.05410     227.61872      81.22002      75.92543
     7  H(1)              -0.01981     -88.55653     -31.59917     -29.53928
 --------------------------------------------------------

 Normal termination of Gaussian 16 at Tue Apr  8 22:28:39 2025.
