 Gaussian 16, Revision C.01,

 ----------------------------------------------------------------------
 #t hf aug-cc-pvdz symm=none int=(grid=ultrafine) guess=(read,tcheck) s
 table=(opt,rrhf)
 ----------------------------------------------------------------------
 -----
 title
 -----
 Symbolic Z-matrix:
 Charge =  0 Multiplicity = 1

 SCF Done:  E(RHF) =  -1076.02083137     A.U. after   11 cycles

 1\1\GINC-SE396\Stability\RHF\Aug-CC-pVDZ\F5H1Si2\OHZDE\09-Apr-2025\0\\
 #t hf aug-cc-pvdz symm=none int=(grid=ultrafine) guess=(read,tcheck) s
 table=(opt,rrhf)\\title\\0,1\Si,0,1.331303,0.,-0.411515\Si,0,-0.982859
 ,0.,0.003526\F,0,-1.665967,1.279947,-0.64163\F,0,1.957144,-1.293636,0.
 283663\F,0,-1.314385,-0.000005,1.554073\F,0,1.957144,1.293636,0.283663
 \F,0,-1.665967,-1.279942,-0.641638\H,0,1.710067,0.,-1.831343\\Version=
 ES64L-G16RevC.01\HF=-1076.0208314\RMSD=7.804e-09\Dipole=0.2882228,-0.0
 000009,-0.625498\Quadrupole=-1.1132091,-0.9881072,2.1013163,0.0000042,

 Normal termination of Gaussian 16 at Wed Apr  9 00:07:32 2025.
 Gaussian 16:  ES64L-G16RevC.01  3-Jul-2019

 ----------------------------------------------------------------------
 #t hf aug-cc-pvdz iop(5/13=1,5/36=2,99/5=2) pseudo=read geom=check gue
 ss=(read,tcheck) scf=(maxcycle=1)
 ----------------------------------------------------------------------
 -----
 title
 -----
 Structure from the checkpoint file:  "BDE49_nonexpt_2308_mol1.chk"
 Charge =  0 Multiplicity = 1

                         Standard orientation:
 ---------------------------------------------------------------------
 Center     Atomic      Atomic             Coordinates (Angstroms)
 Number     Number       Type             X           Y           Z
 ---------------------------------------------------------------------
      1         14           0        1.331303    0.000000   -0.411515
      2         14           0       -0.982859   -0.000000    0.003526
      3          9           0       -1.665967    1.279947   -0.641630
      4          9           0        1.957144   -1.293636    0.283663
      5          9           0       -1.314385   -0.000005    1.554073
      6          9           0        1.957144    1.293636    0.283663
      7          9           0       -1.665967   -1.279942   -0.641638
      8          1           0        1.710067    0.000000   -1.831343
 ---------------------------------------------------------------------

 SCF Done:  E(RHF) =  -1076.29066720     A.U. after    2 cycles

 The electronic state is 1-A.
 Alpha  occ. eigenvalues --  -69.23065 -69.19842 -26.15427 -26.15426 -26.15356
 Alpha  occ. eigenvalues --  -26.14805 -26.14803  -6.96732  -6.93962  -4.07739
 Alpha  occ. eigenvalues --   -4.07738  -4.07456  -4.04957  -4.04805  -4.04643
 Alpha  occ. eigenvalues --   -1.69655  -1.68244  -1.67858  -1.67826  -1.67075
 Alpha  occ. eigenvalues --   -0.89030  -0.86434  -0.81960  -0.81929  -0.80244
 Alpha  occ. eigenvalues --   -0.79513  -0.77535  -0.76917  -0.76834  -0.76822
 Alpha  occ. eigenvalues --   -0.75025  -0.74505  -0.74487  -0.73373  -0.73112
 Alpha  occ. eigenvalues --   -0.61702  -0.49337
 Alpha virt. eigenvalues --    0.04046   0.04502   0.04562   0.05093   0.07541
 Alpha virt. eigenvalues --    0.07690   0.07758   0.10474   0.11258   0.11520
 Alpha virt. eigenvalues --    0.15162   0.17327   0.19703   0.20066   0.22011

 Mulliken charges:
               1
     1  Si   1.475049
     2  Si   2.307939
     3  F   -0.744761
     4  F   -0.746846
     5  F   -0.776221
     6  F   -0.746846
     7  F   -0.744761
     8  H   -0.023553
 Sum of Mulliken charges =  -0.00000

 Dipole moment (field-independent basis, Debye):
    X=              0.7837    Y=             -0.0000    Z=             -1.7601  Tot=              1.9267

 Test job not archived.
 1\1\GINC-SE396\SP\RHF\Aug-CC-pVDZ\F5H1Si2\OHZDE\09-Apr-2025\0\\#t hf a
 ug-cc-pvdz iop(5/13=1,5/36=2,99/5=2) pseudo=read geom=check guess=(rea
 d,tcheck) scf=(maxcycle=1)\\title\\0,1\Si,0,1.331303,0.,-0.411515\Si,0
 ,-0.982859,0.,0.003526\F,0,-1.665967,1.279947,-0.64163\F,0,1.957144,-1
 .293636,0.283663\F,0,-1.314385,-0.000005,1.554073\F,0,1.957144,1.29363
 6,0.283663\F,0,-1.665967,-1.279942,-0.641638\H,0,1.710067,0.,-1.831343
 \\Version=ES64L-G16RevC.01\State=1-A\HF=-1076.2906672\RMSD=4.654e-03\D
 ipole=0.308336,-0.0000009,-0.6924723\Quadrupole=-1.2581915,-1.0748381,

 Normal termination of Gaussian 16 at Wed Apr  9 00:07:34 2025.
