 Gaussian 16, Revision C.01,

 ----------------------------------------------------------------------
 #t hf aug-cc-pvdz symm=none int=(grid=ultrafine) guess=(read,tcheck) s
 table=(opt,rrhf)
 ----------------------------------------------------------------------
 -----
 title
 -----
 Symbolic Z-matrix:
 Charge =  0 Multiplicity = 1

 SCF Done:  E(RHF) =  -799.831684073     A.U. after   15 cycles
 Normal termination of Gaussian 16 at Tue Apr  8 23:33:34 2025.
 Gaussian 16:  ES64L-G16RevC.01  3-Jul-2019

 ----------------------------------------------------------------------
 #t hf aug-cc-pvdz iop(5/13=1,5/36=2,99/5=2) pseudo=read geom=check gue
 ss=(read,tcheck) scf=(maxcycle=1)
 ----------------------------------------------------------------------
 -----
 title
 -----
 Structure from the checkpoint file:  "BDE49_nonexpt_1435_mol1.chk"
 Charge =  0 Multiplicity = 1

                         Standard orientation:
 ---------------------------------------------------------------------
 Center     Atomic      Atomic             Coordinates (Angstroms)
 Number     Number       Type             X           Y           Z
 ---------------------------------------------------------------------
      1          6           0       -1.389194   -1.293128    0.002401
      2          6           0       -0.055488   -1.712380    0.013509
      3          6           0        1.006474   -0.815033    0.020312
      4          6           0       -1.666310    0.072502    0.003495
      5          6           0       -0.618436    1.003777    0.013060
      6          6           0        0.698384    0.562364    0.016586
      7          1           0        0.151171   -2.776898    0.018623
      8         15           0        2.771537   -1.325301   -0.117434
      9          1           0       -2.179426   -2.030535   -0.001150
     10          1           0       -0.876883    2.053142    0.018387
     11          8           0        1.779086    1.394016    0.028705
     12          6           0        1.568535    2.798569   -0.025424
     13          1           0        1.031599    3.086229   -0.935523
     14          1           0        2.560296    3.247154   -0.032860
     15          1           0        1.016181    3.152570    0.851593
     16          8           0       -2.917465    0.614187   -0.000739
     17          6           0       -4.033407   -0.265161   -0.008884
     18          1           0       -4.040224   -0.896685   -0.904117
     19          1           0       -4.914901    0.373900   -0.012670
     20          1           0       -4.050526   -0.900195    0.883740
     21          1           0        2.561275   -2.674790    0.268109
     22          1           0        3.212062   -0.929051    1.173311
 ---------------------------------------------------------------------

 SCF Done:  E(RHF) =  -799.995281932     A.U. after    2 cycles

 The electronic state is 1-A.
 Alpha  occ. eigenvalues --  -81.25011 -20.60504 -20.60413 -11.31981 -11.31921
 Alpha  occ. eigenvalues --  -11.29990 -11.29963 -11.25669 -11.23924 -11.23575
 Alpha  occ. eigenvalues --  -11.23508  -7.75308  -4.89396  -4.89300  -4.88978
 Alpha  occ. eigenvalues --   -1.37575  -1.37273  -1.13948  -1.02997  -1.02001
 Alpha  occ. eigenvalues --   -0.95201  -0.94428  -0.84123  -0.81784  -0.76961
 Alpha  occ. eigenvalues --   -0.73562  -0.70421  -0.67326  -0.67275  -0.66623
 Alpha  occ. eigenvalues --   -0.63758  -0.63338  -0.59846  -0.57662  -0.54568
 Alpha  occ. eigenvalues --   -0.54527  -0.52536  -0.51726  -0.50500  -0.49570
 Alpha  occ. eigenvalues --   -0.48178  -0.45978  -0.37066  -0.33464  -0.29722
 Alpha virt. eigenvalues --    0.03162   0.03811   0.04157   0.05316   0.05476
 Alpha virt. eigenvalues --    0.05669   0.06295   0.06774   0.07992   0.08305
 Alpha virt. eigenvalues --    0.08942   0.09346   0.10571   0.11259   0.11604

 Mulliken charges:
               1
     1  C    0.442354
     2  C    0.668593
     3  C   -0.668306
     4  C    0.377950
     5  C    1.036600
     6  C    0.800606
     7  H   -0.578219
     8  P   -0.110257
     9  H   -0.732077
    10  H   -0.842001
    11  O   -0.681748
    12  C    0.901174
    13  H   -0.070017
    14  H   -0.314381
    15  H   -0.083571
    16  O   -0.711769
    17  C    0.880650
    18  H   -0.086966
    19  H   -0.324059
    20  H   -0.090326
    21  H    0.032696
    22  H    0.153075
 Sum of Mulliken charges =  -0.00000

 Dipole moment (field-independent basis, Debye):
    X=             -2.3705    Y=              0.4139    Z=              0.4447  Tot=              2.4471

 Test job not archived.
 1\1\GINC-SE340\SP\RHF\Aug-CC-pVDZ\C8H11O2P1\OHZDE\08-Apr-2025\0\\#t hf
  aug-cc-pvdz iop(5/13=1,5/36=2,99/5=2) pseudo=read geom=check guess=(r
 ead,tcheck) scf=(maxcycle=1)\\title\\0,1\C,0,-1.389194,-1.293128,0.002
 401\C,0,-0.055488,-1.71238,0.013509\C,0,1.006474,-0.815033,0.020312\C,
 0,-1.66631,0.072502,0.003495\C,0,-0.618436,1.003777,0.01306\C,0,0.6983
 84,0.562364,0.016586\H,0,0.151171,-2.776898,0.018623\P,0,2.771537,-1.3
 25301,-0.117434\H,0,-2.179426,-2.030535,-0.00115\H,0,-0.876883,2.05314
 2,0.018387\O,0,1.779086,1.394016,0.028705\C,0,1.568535,2.798569,-0.025

 Normal termination of Gaussian 16 at Tue Apr  8 23:33:47 2025.
