 Gaussian 16, Revision C.01,

 ----------------------------------------------------------------------
 #t hf aug-cc-pvdz symm=none int=(grid=ultrafine) guess=(read,tcheck) s
 table=(opt,rrhf)
 ----------------------------------------------------------------------
 -----
 title
 -----
 Symbolic Z-matrix:
 Charge =  0 Multiplicity = 1

 SCF Done:  E(RHF) =  -804.276238630     A.U. after   14 cycles
 Normal termination of Gaussian 16 at Wed Apr  9 00:52:32 2025.
 Gaussian 16:  ES64L-G16RevC.01  3-Jul-2019

 ----------------------------------------------------------------------
 #t hf aug-cc-pvdz iop(5/13=1,5/36=2,99/5=2) pseudo=read geom=check gue
 ss=(read,tcheck) scf=(maxcycle=1)
 ----------------------------------------------------------------------
 -----
 title
 -----
 Structure from the checkpoint file:  "BDE49_nonexpt_953_mol1.chk"
 Charge =  0 Multiplicity = 1

                         Standard orientation:
 ---------------------------------------------------------------------
 Center     Atomic      Atomic             Coordinates (Angstroms)
 Number     Number       Type             X           Y           Z
 ---------------------------------------------------------------------
      1          9           0        2.867673    1.636216   -0.361743
      2          9           0        1.274297   -2.095703   -0.138337
      3          9           0        0.485168   -1.206992    1.710301
      4          7           0       -1.606548    0.046369    0.151130
      5          6           0       -3.067710   -0.054770    0.127220
      6          6           0       -1.045453    1.306799    0.093817
      7          8           0       -1.671018    2.341453    0.133738
      8          7           0        0.358470    1.338580    0.012599
      9          6           0        1.209671    0.273485    0.038724
     10          7           0        2.479779    0.288179   -0.131499
     11          6           0        0.554156   -1.052063    0.355314
     12          6           0       -0.862471   -1.118196   -0.228424
     13          8           0       -0.804017   -1.201856   -1.639706
     14          1           0       -3.480133    0.889868    0.470506
     15          1           0       -3.429338   -0.257529   -0.884347
     16          1           0       -3.383816   -0.856944    0.796905
     17          1           0        0.759522    2.259288   -0.100452
     18          1           0       -1.346801   -1.998922    0.209574
     19          1           0       -0.314463   -1.997663   -1.881955
 ---------------------------------------------------------------------

 SCF Done:  E(RHF) =  -804.533274076     A.U. after    2 cycles

 The electronic state is 1-A.
 Alpha  occ. eigenvalues --  -26.18419 -26.18098 -26.14811 -20.62867 -20.57184
 Alpha  occ. eigenvalues --  -15.74375 -15.71240 -15.69316 -11.48487 -11.44080
 Alpha  occ. eigenvalues --  -11.39612 -11.39556 -11.29512  -1.74727  -1.70044
 Alpha  occ. eigenvalues --   -1.66515  -1.41336  -1.38935  -1.30452  -1.25070
 Alpha  occ. eigenvalues --   -1.18234  -1.09195  -0.98660  -0.97101  -0.91821
 Alpha  occ. eigenvalues --   -0.86698  -0.85952  -0.85326  -0.80145  -0.78595
 Alpha  occ. eigenvalues --   -0.77740  -0.76829  -0.75265  -0.74284  -0.74033
 Alpha  occ. eigenvalues --   -0.73138  -0.70987  -0.68238  -0.66600  -0.64787
 Alpha  occ. eigenvalues --   -0.62507  -0.61352  -0.59444  -0.57328  -0.54834
 Alpha  occ. eigenvalues --   -0.53516  -0.52314  -0.49449  -0.43652  -0.41880
 Alpha virt. eigenvalues --    0.02391   0.03692   0.04314   0.05071   0.06319
 Alpha virt. eigenvalues --    0.07092   0.08283   0.09081   0.09290   0.10110
 Alpha virt. eigenvalues --    0.10903   0.12406   0.12593   0.13041   0.13344

 Mulliken charges:
               1
     1  F   -0.476555
     2  F   -0.368682
     3  F   -0.389410
     4  N   -0.580037
     5  C    0.671746
     6  C    0.608159
     7  O   -0.452170
     8  N   -0.321549
     9  C    0.739556
    10  N   -0.269077
    11  C    0.660947
    12  C    1.170930
    13  O   -0.678439
    14  H   -0.188599
    15  H   -0.021541
    16  H   -0.110947
    17  H   -0.069081
    18  H   -0.115025
    19  H    0.189775
 Sum of Mulliken charges =  -0.00000

 Dipole moment (field-independent basis, Debye):
    X=             -3.2838    Y=             -3.5525    Z=             -0.3168  Tot=              4.8481

 Test job not archived.
 1\1\GINC-SE344\SP\RHF\Aug-CC-pVDZ\C5H6F3N3O2\OHZDE\09-Apr-2025\0\\#t h
 f aug-cc-pvdz iop(5/13=1,5/36=2,99/5=2) pseudo=read geom=check guess=(
 read,tcheck) scf=(maxcycle=1)\\title\\0,1\F,0,2.867673,1.636217,-0.361
 743\F,0,1.274298,-2.095703,-0.138337\F,0,0.485168,-1.206992,1.710301\N
 ,0,-1.606548,0.046369,0.15113\C,0,-3.06771,-0.054771,0.12722\C,0,-1.04
 5453,1.306799,0.093817\O,0,-1.671018,2.341453,0.133738\N,0,0.35847,1.3
 3858,0.012599\C,0,1.209671,0.273485,0.038724\N,0,2.479779,0.28818,-0.1
 31499\C,0,0.554156,-1.052063,0.355314\C,0,-0.862471,-1.118196,-0.22842

 Normal termination of Gaussian 16 at Wed Apr  9 00:52:46 2025.
