 Gaussian 16, Revision C.01,

 ----------------------------------------------------------------------
 #t hf aug-cc-pvdz symm=none int=(grid=ultrafine) guess=(read,tcheck) s
 table=(opt,rrhf)
 ----------------------------------------------------------------------
 -----
 title
 -----
 Symbolic Z-matrix:
 Charge =  0 Multiplicity = 1

 SCF Done:  E(RHF) =  -766.919726154     A.U. after   12 cycles
 Normal termination of Gaussian 16 at Wed Apr  9 00:13:00 2025.
 Gaussian 16:  ES64L-G16RevC.01  3-Jul-2019

 ----------------------------------------------------------------------
 #t hf aug-cc-pvdz iop(5/13=1,5/36=2,99/5=2) pseudo=read geom=check gue
 ss=(read,tcheck) scf=(maxcycle=1)
 ----------------------------------------------------------------------
 -----
 title
 -----
 Structure from the checkpoint file:  "BDE49_nonexpt_2474_mol1.chk"
 Charge =  0 Multiplicity = 1

                         Standard orientation:
 ---------------------------------------------------------------------
 Center     Atomic      Atomic             Coordinates (Angstroms)
 Number     Number       Type             X           Y           Z
 ---------------------------------------------------------------------
      1         16           0        1.691050    0.034062   -0.158677
      2         14           0       -0.411281   -0.010167    0.411727
      3          6           0       -1.139060    1.592612   -0.231587
      4          1           0        2.015415   -1.120423    0.450441
      5          1           0       -1.054385    1.656690   -1.319921
      6          1           0       -0.633528    2.458872    0.202079
      7          6           0       -1.282255   -1.513161   -0.295296
      8          1           0       -2.335846   -1.517163    0.003670
      9          1           0       -0.829518   -2.440193    0.066675
     10          1           0       -1.234389   -1.517644   -1.387367
     11          1           0       -2.200089    1.656166    0.028322
     12          1           0       -0.498635   -0.055665    1.892048
 ---------------------------------------------------------------------

 SCF Done:  E(RHF) =  -766.990923367     A.U. after    2 cycles

 The electronic state is 1-A.
 Alpha  occ. eigenvalues --  -93.52105 -69.08382 -11.22300 -11.22279  -8.82023
 Alpha  occ. eigenvalues --   -6.83352  -6.16195  -6.15956  -6.15686  -3.94181
 Alpha  occ. eigenvalues --   -3.94096  -3.94072  -0.97126  -0.93187  -0.92757
 Alpha  occ. eigenvalues --   -0.65151  -0.58373  -0.57689  -0.56043  -0.55676
 Alpha  occ. eigenvalues --   -0.52438  -0.46682  -0.45128  -0.42545  -0.36398
 Alpha virt. eigenvalues --    0.03120   0.04625   0.05137   0.05288   0.06991
 Alpha virt. eigenvalues --    0.07092   0.07340   0.07622   0.09454   0.09762
 Alpha virt. eigenvalues --    0.10465   0.12983   0.13881   0.15090   0.15863

 Mulliken charges:
               1
     1  S   -0.501708
     2  Si   1.260128
     3  C    0.319649
     4  H    0.019873
     5  H   -0.164035
     6  H   -0.266572
     7  C    0.308648
     8  H   -0.222704
     9  H   -0.265569
    10  H   -0.186182
    11  H   -0.251114
    12  H   -0.050414
 Sum of Mulliken charges =  -0.00000

 Dipole moment (field-independent basis, Debye):
    X=             -1.6395    Y=             -0.6235    Z=              0.1812  Tot=              1.7634

 Test job not archived.
 1\1\GINC-SE016\SP\RHF\Aug-CC-pVDZ\C2H8S1Si1\OHZDE\09-Apr-2025\0\\#t hf
  aug-cc-pvdz iop(5/13=1,5/36=2,99/5=2) pseudo=read geom=check guess=(r
 ead,tcheck) scf=(maxcycle=1)\\title\\0,1\S,0,1.69105,0.034062,-0.15867
 7\Si,0,-0.411281,-0.010167,0.411727\C,0,-1.13906,1.592612,-0.231587\H,
 0,2.015415,-1.120423,0.450441\H,0,-1.054385,1.65669,-1.319921\H,0,-0.6
 33528,2.458872,0.202079\C,0,-1.282255,-1.513161,-0.295296\H,0,-2.33584
 6,-1.517163,0.00367\H,0,-0.829518,-2.440193,0.066675\H,0,-1.234389,-1.
 517644,-1.387367\H,0,-2.200089,1.656166,0.028322\H,0,-0.498635,-0.0556

 Normal termination of Gaussian 16 at Wed Apr  9 00:13:03 2025.
