 Gaussian 16, Revision C.01,

 ----------------------------------------------------------------------
 #t hf aug-cc-pvdz symm=none int=(grid=ultrafine) guess=(read,tcheck) s
 table=opt
 ----------------------------------------------------------------------
 -----
 title
 -----
 Symbolic Z-matrix:
 Charge =  0 Multiplicity = 2

 SCF Done:  E(UHF) =  -647.903680419     A.U. after   20 cycles
 Normal termination of Gaussian 16 at Tue Apr  8 23:18:54 2025.
 Gaussian 16:  ES64L-G16RevC.01  3-Jul-2019

 ----------------------------------------------------------------------
 #t hf aug-cc-pvdz iop(5/13=1,5/36=2,99/5=2) pseudo=read geom=check gue
 ss=(read,tcheck) scf=(maxcycle=1)
 ----------------------------------------------------------------------
 -----
 title
 -----
 Structure from the checkpoint file:  "BDE49_nonexpt_111_mol2.chk"
 Charge =  0 Multiplicity = 2

                         Standard orientation:
 ---------------------------------------------------------------------
 Center     Atomic      Atomic             Coordinates (Angstroms)
 Number     Number       Type             X           Y           Z
 ---------------------------------------------------------------------
      1          5           0        2.276797    0.084206   -0.158387
      2         16           0       -0.401865    0.175960   -0.417945
      3          8           0        1.126004   -0.412653    0.291257
      4          8           0       -1.241295   -1.129641    0.076389
      5          8           0       -0.762044    1.312378    0.398353
      6          1           0       -1.266370   -1.158615    1.048681
      7          1           0        3.330903   -0.238453    0.302376
 ---------------------------------------------------------------------

 SCF Done:  E(UHF) =  -648.041798673     A.U. after    2 cycles

 The electronic state is 2-A.
 Alpha  occ. eigenvalues --  -93.80061 -20.65875 -20.63437 -20.59912  -9.06962
 Alpha  occ. eigenvalues --   -7.67852  -6.41173  -6.41034  -6.40614  -1.45689
 Alpha  occ. eigenvalues --   -1.36308  -1.34484  -0.95185  -0.80442  -0.74578
 Alpha  occ. eigenvalues --   -0.71445  -0.66153  -0.64117  -0.62636  -0.58560
 Alpha  occ. eigenvalues --   -0.57507  -0.53335  -0.47729  -0.34438
 Alpha virt. eigenvalues --    0.03683   0.04653   0.05572   0.05910   0.07262
 Alpha virt. eigenvalues --    0.07903   0.09839   0.11501   0.12461   0.12881
 Alpha virt. eigenvalues --    0.13449   0.18132   0.18439   0.18988   0.20311

  Beta  occ. eigenvalues --  -93.80020 -20.65874 -20.63386 -20.59901  -9.06907
  Beta  occ. eigenvalues --   -7.66046  -6.41132  -6.40917  -6.40574  -1.45576
  Beta  occ. eigenvalues --   -1.36242  -1.34166  -0.94867  -0.79856  -0.73742
  Beta  occ. eigenvalues --   -0.71062  -0.64330  -0.63972  -0.61416  -0.57857
  Beta  occ. eigenvalues --   -0.56316  -0.53009  -0.47108
  Beta virt. eigenvalues --    0.03680   0.04411   0.05318   0.05688   0.07358
  Beta virt. eigenvalues --    0.07670   0.09586   0.10037   0.12072   0.13036
  Beta virt. eigenvalues --    0.15081   0.15966   0.18228   0.18683   0.19472

 Mulliken charges and spin densities:
               1          2
     1  B   -0.265070   1.005325
     2  S    1.850450   0.010343
     3  O   -0.659829  -0.039025
     4  O   -0.629409   0.000284
     5  O   -0.827304   0.000696
     6  H    0.179174   0.001011
     7  H    0.351988   0.021365
 Sum of Mulliken charges =  -0.00000   1.00000

 Dipole moment (field-independent basis, Debye):
    X=             -0.0942    Y=             -1.6138    Z=             -0.1702  Tot=              1.6255
                          Isotropic Fermi Contact Couplings
        Atom                 a.u.       MegaHertz       Gauss      10(-4) cm-1
     1  B(11)              0.29711     426.15957     152.06433     142.15153
     2  S(33)              0.05688      19.53612       6.97097       6.51655
     3  O(17)             -0.00829       5.02655       1.79360       1.67668
     4  O(17)             -0.00180       1.09031       0.38905       0.36369
     5  O(17)              0.00105      -0.63942      -0.22816      -0.21329
     6  H(1)              -0.00009      -0.41824      -0.14924      -0.13951
     7  H(1)               0.02423     108.32095      38.65161      36.13198
 --------------------------------------------------------

 Normal termination of Gaussian 16 at Tue Apr  8 23:18:57 2025.
