 Gaussian 16, Revision C.01,

 ----------------------------------------------------------------------
 #t hf aug-cc-pvdz symm=none int=(grid=ultrafine) guess=(read,tcheck) s
 table=(opt,rrhf)
 ----------------------------------------------------------------------
 -----
 title
 -----
 Symbolic Z-matrix:
 Charge =  0 Multiplicity = 1

 SCF Done:  E(RHF) =  -1151.13307641     A.U. after   14 cycles
 Normal termination of Gaussian 16 at Wed Apr  9 00:03:38 2025.
 Gaussian 16:  ES64L-G16RevC.01  3-Jul-2019

 ----------------------------------------------------------------------
 #t hf aug-cc-pvdz iop(5/13=1,5/36=2,99/5=2) pseudo=read geom=check gue
 ss=(read,tcheck) scf=(maxcycle=1)
 ----------------------------------------------------------------------
 -----
 title
 -----
 Structure from the checkpoint file:  "BDE49_nonexpt_221_mol1.chk"
 Charge =  0 Multiplicity = 1

                         Standard orientation:
 ---------------------------------------------------------------------
 Center     Atomic      Atomic             Coordinates (Angstroms)
 Number     Number       Type             X           Y           Z
 ---------------------------------------------------------------------
      1         17           0        1.253986    1.716147   -0.000244
      2          5           0        0.666342    0.058631    0.000872
      3         17           0        1.874880   -1.234102   -0.000412
      4          6           0       -0.848963   -0.294614    0.000453
      5          7           0       -1.620723    0.741995    0.000352
      6          8           0       -2.960252    0.398580    0.000015
      7          1           0       -3.402152    1.255380   -0.000001
      8          6           0       -1.392056   -1.700615    0.000189
      9          1           0       -0.593653   -2.439137    0.000324
     10          1           0       -2.026504   -1.857619   -0.876711
     11          1           0       -2.026942   -1.857776    0.876744
 ---------------------------------------------------------------------

 SCF Done:  E(RHF) =  -1151.23709274     A.U. after    2 cycles

 The electronic state is 1-A.
 Alpha  occ. eigenvalues -- -103.67366-103.66662 -20.63828 -15.72478 -11.29044
 Alpha  occ. eigenvalues --  -11.24837 -10.70853 -10.70142  -8.36541  -8.36326
 Alpha  occ. eigenvalues --   -8.36296  -8.35840  -8.35615  -8.35577  -7.73803
 Alpha  occ. eigenvalues --   -1.41199  -1.18964  -1.15486  -1.14371  -0.98504
 Alpha  occ. eigenvalues --   -0.82585  -0.73090  -0.69940  -0.65392  -0.64107
 Alpha  occ. eigenvalues --   -0.60680  -0.57557  -0.57244  -0.54903  -0.52947
 Alpha  occ. eigenvalues --   -0.48748  -0.48092  -0.46750  -0.45364  -0.40871
 Alpha virt. eigenvalues --    0.03273   0.04262   0.04407   0.05008   0.05567
 Alpha virt. eigenvalues --    0.06915   0.07195   0.07612   0.07825   0.13099
 Alpha virt. eigenvalues --    0.13389   0.13664   0.14707   0.16005   0.16407

 Mulliken charges:
               1
     1  Cl  -0.282679
     2  B    0.605228
     3  Cl  -0.329816
     4  C    0.181768
     5  N   -0.204040
     6  O   -0.467060
     7  H    0.183902
     8  C    0.344137
     9  H   -0.164397
    10  H    0.066431
    11  H    0.066526
 Sum of Mulliken charges =  -0.00000

 Dipole moment (field-independent basis, Debye):
    X=             -1.8575    Y=             -0.5538    Z=              0.0019  Tot=              1.9383

 Test job not archived.
 1\1\GINC-SE424\SP\RHF\Aug-CC-pVDZ\C2H4B1Cl2N1O1\OHZDE\09-Apr-2025\0\\#
 t hf aug-cc-pvdz iop(5/13=1,5/36=2,99/5=2) pseudo=read geom=check gues
 s=(read,tcheck) scf=(maxcycle=1)\\title\\0,1\Cl,0,1.253986,1.716147,-0
 .000244\B,0,0.666342,0.058631,0.000872\Cl,0,1.87488,-1.234102,-0.00041
 2\C,0,-0.848963,-0.294614,0.000453\N,0,-1.620723,0.741995,0.000352\O,0
 ,-2.960252,0.39858,0.000015\H,0,-3.402152,1.25538,-0.000001\C,0,-1.392
 056,-1.700615,0.000189\H,0,-0.593653,-2.439137,0.000324\H,0,-2.026504,
 -1.857619,-0.876711\H,0,-2.026942,-1.857776,0.876744\\Version=ES64L-G1

 Normal termination of Gaussian 16 at Wed Apr  9 00:03:43 2025.
