 Gaussian 16, Revision C.01,

 ----------------------------------------------------------------------
 #t hf aug-cc-pvdz symm=none int=(grid=ultrafine) guess=(read,tcheck) s
 table=(opt,rrhf)
 ----------------------------------------------------------------------
 -----
 title
 -----
 Symbolic Z-matrix:
 Charge =  0 Multiplicity = 1

 SCF Done:  E(RHF) =  -750.398297366     A.U. after   15 cycles
 Normal termination of Gaussian 16 at Tue Apr  8 23:15:40 2025.
 Gaussian 16:  ES64L-G16RevC.01  3-Jul-2019

 ----------------------------------------------------------------------
 #t hf aug-cc-pvdz iop(5/13=1,5/36=2,99/5=2) pseudo=read geom=check gue
 ss=(read,tcheck) scf=(maxcycle=1)
 ----------------------------------------------------------------------
 -----
 title
 -----
 Structure from the checkpoint file:  "BDE49_expt_813_mol1.chk"
 Charge =  0 Multiplicity = 1

                         Standard orientation:
 ---------------------------------------------------------------------
 Center     Atomic      Atomic             Coordinates (Angstroms)
 Number     Number       Type             X           Y           Z
 ---------------------------------------------------------------------
      1          6           0        3.922723   -1.043201   -0.177817
      2          6           0        3.831634    0.036016    0.697624
      3          6           0        2.659854    0.788779    0.755531
      4          6           0        2.838857   -1.367801   -0.992604
      5          6           0        1.670514   -0.613161   -0.931482
      6          6           0        1.558401    0.481771   -0.058421
      7          1           0        4.832728   -1.631297   -0.223795
      8          1           0        4.670377    0.290170    1.336525
      9          1           0        2.602414    1.624531    1.445826
     10          1           0        2.904444   -2.209383   -1.673582
     11          1           0        0.833888   -0.885010   -1.567655
     12          6           0       -3.831613    0.035995   -0.697665
     13          1           0       -4.670340    0.290124   -1.336597
     14          6           0       -2.659831    0.788754   -0.755571
     15          6           0       -3.922726   -1.043187    0.177817
     16          1           0       -2.602373    1.624480   -1.445897
     17          1           0       -4.832733   -1.631281    0.223795
     18          6           0       -1.558400    0.481778    0.058421
     19          6           0       -2.838882   -1.367755    0.992646
     20          6           0       -1.670537   -0.613119    0.931524
     21          1           0       -2.904488   -2.209310    1.673656
     22          1           0       -0.833928   -0.884943    1.567730
     23         14           0        0.000003    1.530465   -0.000001
     24          1           0       -0.103584    2.403101   -1.196805
     25          1           0        0.103593    2.403105    1.196799
 ---------------------------------------------------------------------

 SCF Done:  E(RHF) =  -750.554672534     A.U. after    2 cycles

 The electronic state is 1-A.
 Alpha  occ. eigenvalues --  -69.06132 -11.25057 -11.25057 -11.25041 -11.25040
 Alpha  occ. eigenvalues --  -11.24979 -11.24978 -11.24627 -11.24627 -11.24616
 Alpha  occ. eigenvalues --  -11.24615 -11.23377 -11.23374  -6.81467  -3.92190
 Alpha  occ. eigenvalues --   -3.92176  -3.92175  -1.14282  -1.13990  -1.01333
 Alpha  occ. eigenvalues --   -1.01127  -1.01091  -1.00374  -0.83277  -0.82817
 Alpha  occ. eigenvalues --   -0.82708  -0.81745  -0.73079  -0.70593  -0.66816
 Alpha  occ. eigenvalues --   -0.63482  -0.63116  -0.62925  -0.62370  -0.59284
 Alpha  occ. eigenvalues --   -0.59281  -0.56250  -0.54484  -0.51142  -0.50898
 Alpha  occ. eigenvalues --   -0.49765  -0.49752  -0.47034  -0.45582  -0.44355
 Alpha  occ. eigenvalues --   -0.34724  -0.34308  -0.34142  -0.33537
 Alpha virt. eigenvalues --    0.03021   0.03721   0.04117   0.04263   0.04760
 Alpha virt. eigenvalues --    0.05652   0.05951   0.06066   0.07077   0.07217
 Alpha virt. eigenvalues --    0.07852   0.08207   0.09037   0.09420   0.09746

 Mulliken charges:
               1
     1  C    0.735753
     2  C    0.707191
     3  C    0.343614
     4  C    0.567438
     5  C    0.478361
     6  C   -0.235694
     7  H   -0.445875
     8  H   -0.450282
     9  H   -0.627559
    10  H   -0.468503
    11  H   -0.731383
    12  C    0.707174
    13  H   -0.450284
    14  C    0.343621
    15  C    0.735763
    16  H   -0.627557
    17  H   -0.445875
    18  C   -0.235714
    19  C    0.567431
    20  C    0.478396
    21  H   -0.468503
    22  H   -0.731387
    23  Si   0.110744
    24  H    0.071564
    25  H    0.071565
 Sum of Mulliken charges =  -0.00000

 Dipole moment (field-independent basis, Debye):
    X=             -0.0000    Y=             -0.9789    Z=              0.0000  Tot=              0.9789

 Test job not archived.
 1\1\GINC-SE220\SP\RHF\Aug-CC-pVDZ\C12H12Si1\OHZDE\08-Apr-2025\0\\#t hf
  aug-cc-pvdz iop(5/13=1,5/36=2,99/5=2) pseudo=read geom=check guess=(r
 ead,tcheck) scf=(maxcycle=1)\\title\\0,1\C,0,3.922723,-1.043201,-0.177
 817\C,0,3.831634,0.036016,0.697624\C,0,2.659854,0.788779,0.755531\C,0,
 2.838857,-1.367801,-0.992604\C,0,1.670514,-0.613161,-0.931482\C,0,1.55
 8401,0.481771,-0.058421\H,0,4.832728,-1.631297,-0.223795\H,0,4.670377,
 0.29017,1.336525\H,0,2.602414,1.624531,1.445826\H,0,2.904444,-2.209383
 ,-1.673582\H,0,0.833888,-0.88501,-1.567655\C,0,-3.831613,0.035995,-0.6

 Normal termination of Gaussian 16 at Tue Apr  8 23:16:04 2025.
