 Gaussian 16, Revision C.01,

 ----------------------------------------------------------------------
 #t hf aug-cc-pvdz symm=none int=(grid=ultrafine) guess=(read,tcheck) s
 table=(opt,rrhf)
 ----------------------------------------------------------------------
 -----
 title
 -----
 Symbolic Z-matrix:
 Charge =  0 Multiplicity = 1

 SCF Done:  E(RHF) =  -441.603316946     A.U. after   15 cycles
 Normal termination of Gaussian 16 at Tue Apr  8 23:20:12 2025.
 Gaussian 16:  ES64L-G16RevC.01  3-Jul-2019

 ----------------------------------------------------------------------
 #t hf aug-cc-pvdz iop(5/13=1,5/36=2,99/5=2) pseudo=read geom=check gue
 ss=(read,tcheck) scf=(maxcycle=1)
 ----------------------------------------------------------------------
 -----
 title
 -----
 Structure from the checkpoint file:  "BDE49_nonexpt_1164_mol1.chk"
 Charge =  0 Multiplicity = 1

                         Standard orientation:
 ---------------------------------------------------------------------
 Center     Atomic      Atomic             Coordinates (Angstroms)
 Number     Number       Type             X           Y           Z
 ---------------------------------------------------------------------
      1          9           0       -0.990056    2.006439    0.056070
      2          8           0       -0.135754    1.020987   -0.565428
      3          6           0        0.087127    0.008911    0.447007
      4          8           0        1.107280   -0.739147   -0.111520
      5          8           0       -1.013965   -0.747397    0.702482
      6          6           0        2.406321   -0.142912   -0.040417
      7          1           0        3.104074   -0.891682   -0.410867
      8          1           0        2.659171    0.107304    0.996317
      9          1           0        2.465472    0.755110   -0.658755
     10          6           0       -1.540197   -1.493827   -0.407521
     11          1           0       -2.456758   -1.951319   -0.040917
     12          1           0       -0.837133   -2.266974   -0.722391
     13          1           0       -1.766970   -0.831530   -1.245367
     14          1           0        0.362652    0.512556    1.378660
 ---------------------------------------------------------------------

 SCF Done:  E(RHF) =  -441.752078044     A.U. after    2 cycles

 The electronic state is 1-A.
 Alpha  occ. eigenvalues --  -26.15913 -20.69880 -20.61021 -20.60002 -11.42758
 Alpha  occ. eigenvalues --  -11.30737 -11.29143  -1.66290  -1.43233  -1.34212
 Alpha  occ. eigenvalues --   -1.29102  -1.00226  -0.95633  -0.86520  -0.78450
 Alpha  occ. eigenvalues --   -0.77028  -0.76298  -0.72649  -0.70375  -0.65812
 Alpha  occ. eigenvalues --   -0.64865  -0.62877  -0.61310  -0.58254  -0.55194
 Alpha  occ. eigenvalues --   -0.53463  -0.52429  -0.49195  -0.48110
 Alpha virt. eigenvalues --    0.03326   0.04471   0.04926   0.05760   0.06563
 Alpha virt. eigenvalues --    0.06932   0.07332   0.10048   0.11347   0.12580
 Alpha virt. eigenvalues --    0.13749   0.14079   0.14925   0.15513   0.16321

 Mulliken charges:
               1
     1  F   -0.384378
     2  O   -0.215526
     3  C    1.410588
     4  O   -0.621807
     5  O   -0.646186
     6  C    0.671615
     7  H   -0.237951
     8  H   -0.051505
     9  H   -0.040858
    10  C    0.664634
    11  H   -0.227676
    12  H   -0.061954
    13  H   -0.015247
    14  H   -0.243748
 Sum of Mulliken charges =  -0.00000

 Dipole moment (field-independent basis, Debye):
    X=              2.2263    Y=             -1.4582    Z=             -0.0557  Tot=              2.6619

 Test job not archived.
 1\1\GINC-SE332\SP\RHF\Aug-CC-pVDZ\C3H7F1O3\OHZDE\08-Apr-2025\0\\#t hf
 aug-cc-pvdz iop(5/13=1,5/36=2,99/5=2) pseudo=read geom=check guess=(re
 ad,tcheck) scf=(maxcycle=1)\\title\\0,1\F,0,-0.990057,2.006439,0.05607
 \O,0,-0.135754,1.020987,-0.565428\C,0,0.087127,0.008911,0.447007\O,0,1
 .10728,-0.739147,-0.11152\O,0,-1.013965,-0.747397,0.702482\C,0,2.40632
 1,-0.142911,-0.040417\H,0,3.104074,-0.891681,-0.410867\H,0,2.659171,0.
 107305,0.996317\H,0,2.465472,0.755111,-0.658755\C,0,-1.540197,-1.49382
 7,-0.407521\H,0,-2.456758,-1.95132,-0.040917\H,0,-0.837133,-2.266974,-

 Normal termination of Gaussian 16 at Tue Apr  8 23:20:16 2025.
