 Gaussian 16, Revision C.01,

 ----------------------------------------------------------------------
 #t hf aug-cc-pvdz symm=none int=(grid=ultrafine) guess=(read,tcheck) s
 table=(opt,rrhf)
 ----------------------------------------------------------------------
 -----
 title
 -----
 Symbolic Z-matrix:
 Charge =  0 Multiplicity = 1

 SCF Done:  E(RHF) =  -913.319020760     A.U. after   18 cycles
 Normal termination of Gaussian 16 at Wed Apr  9 00:51:04 2025.
 Gaussian 16:  ES64L-G16RevC.01  3-Jul-2019

 ----------------------------------------------------------------------
 #t hf aug-cc-pvdz iop(5/13=1,5/36=2,99/5=2) pseudo=read geom=check gue
 ss=(read,tcheck) scf=(maxcycle=1)
 ----------------------------------------------------------------------
 -----
 title
 -----
 Structure from the checkpoint file:  "BDE49_nonexpt_926_mol1.chk"
 Charge =  0 Multiplicity = 1

                         Standard orientation:
 ---------------------------------------------------------------------
 Center     Atomic      Atomic             Coordinates (Angstroms)
 Number     Number       Type             X           Y           Z
 ---------------------------------------------------------------------
      1         17           0       -3.810036   -0.050580   -0.410497
      2          7           0       -0.241961   -1.035010    0.169838
      3          7           0       -2.477463   -0.707628    0.554428
      4          1           0       -2.446236   -1.704079    0.353607
      5          6           0       -1.207044   -0.155384    0.285085
      6          6           0       -1.013170    1.253847    0.266431
      7          1           0       -1.859758    1.919895    0.362635
      8          6           0        0.263828    1.720533    0.131056
      9          1           0        0.459697    2.787539    0.111177
     10          6           0        2.698886    1.217753   -0.103045
     11          1           0        2.928189    2.278009   -0.130106
     12          6           0        3.703368    0.282547   -0.194368
     13          1           0        4.734976    0.599431   -0.294547
     14          6           0        3.395662   -1.096388   -0.158554
     15          1           0        4.196714   -1.823336   -0.231609
     16          6           0        2.094094   -1.522515   -0.031763
     17          1           0        1.837055   -2.574321   -0.003770
     18          6           0        1.040318   -0.582092    0.065213
     19          6           0        1.350048    0.810896    0.030147
 ---------------------------------------------------------------------

 SCF Done:  E(RHF) =  -913.466640904     A.U. after    2 cycles

 The electronic state is 1-A.
 Alpha  occ. eigenvalues -- -103.69362 -15.70385 -15.63479 -11.34490 -11.29508
 Alpha  occ. eigenvalues --  -11.28122 -11.26203 -11.26099 -11.26037 -11.25855
 Alpha  occ. eigenvalues --  -11.25272 -11.24865 -10.72317  -8.38064  -8.37703
 Alpha  occ. eigenvalues --   -8.37669  -1.28605  -1.22399  -1.14372  -1.09422
 Alpha  occ. eigenvalues --   -1.07602  -1.01312  -0.99553  -0.88713  -0.85469
 Alpha  occ. eigenvalues --   -0.83327  -0.73791  -0.73485  -0.71419  -0.65300
 Alpha  occ. eigenvalues --   -0.64134  -0.62047  -0.60758  -0.59991  -0.59630
 Alpha  occ. eigenvalues --   -0.58231  -0.54386  -0.52503  -0.52063  -0.48473
 Alpha  occ. eigenvalues --   -0.47469  -0.43200  -0.42518  -0.41466  -0.32905
 Alpha  occ. eigenvalues --   -0.31423
 Alpha virt. eigenvalues --    0.03039   0.03428   0.04180   0.05079   0.05502
 Alpha virt. eigenvalues --    0.05886   0.07102   0.07376   0.08137   0.08534
 Alpha virt. eigenvalues --    0.09893   0.10450   0.11474   0.11917   0.12468

 Mulliken charges:
               1
     1  Cl   0.183141
     2  N   -0.485774
     3  N   -0.776816
     4  H    0.073144
     5  C    0.776987
     6  C    0.489642
     7  H   -0.485124
     8  C    0.000552
     9  H   -0.576484
    10  C    0.545081
    11  H   -0.577200
    12  C    0.500940
    13  H   -0.463723
    14  C    0.355136
    15  H   -0.441928
    16  C    1.225461
    17  H   -0.580252
    18  C   -0.402691
    19  C    0.639908
 Sum of Mulliken charges =  -0.00000

 Dipole moment (field-independent basis, Debye):
    X=              1.9010    Y=              1.1769    Z=             -0.2657  Tot=              2.2515

 Test job not archived.
 1\1\GINC-SE367\SP\RHF\Aug-CC-pVDZ\C9H7Cl1N2\OHZDE\09-Apr-2025\0\\#t hf
  aug-cc-pvdz iop(5/13=1,5/36=2,99/5=2) pseudo=read geom=check guess=(r
 ead,tcheck) scf=(maxcycle=1)\\title\\0,1\Cl,0,-3.810036,-0.05058,-0.41
 0497\N,0,-0.241961,-1.03501,0.169838\N,0,-2.477463,-0.707628,0.554428\
 H,0,-2.446236,-1.704079,0.353607\C,0,-1.207044,-0.155384,0.285085\C,0,
 -1.01317,1.253847,0.266431\H,0,-1.859758,1.919895,0.362635\C,0,0.26382
 8,1.720533,0.131056\H,0,0.459697,2.787539,0.111177\C,0,2.698886,1.2177
 53,-0.103045\H,0,2.928189,2.278009,-0.130106\C,0,3.703368,0.282547,-0.

 Normal termination of Gaussian 16 at Wed Apr  9 00:51:16 2025.
