 Gaussian 16, Revision C.01,

 ----------------------------------------------------------------------
 #t hf aug-cc-pvdz symm=none int=(grid=ultrafine) guess=(read,tcheck) s
 table=(opt,rrhf)
 ----------------------------------------------------------------------
 -----
 title
 -----
 Symbolic Z-matrix:
 Charge =  0 Multiplicity = 1

 SCF Done:  E(RHF) =  -792.768690936     A.U. after   16 cycles
 Normal termination of Gaussian 16 at Wed Apr  9 00:52:10 2025.
 Gaussian 16:  ES64L-G16RevC.01  3-Jul-2019

 ----------------------------------------------------------------------
 #t hf aug-cc-pvdz iop(5/13=1,5/36=2,99/5=2) pseudo=read geom=check gue
 ss=(read,tcheck) scf=(maxcycle=1)
 ----------------------------------------------------------------------
 -----
 title
 -----
 Structure from the checkpoint file:  "BDE49_nonexpt_969_mol1.chk"
 Charge =  0 Multiplicity = 1

                         Standard orientation:
 ---------------------------------------------------------------------
 Center     Atomic      Atomic             Coordinates (Angstroms)
 Number     Number       Type             X           Y           Z
 ---------------------------------------------------------------------
      1          9           0       -3.294588    0.037818   -0.261242
      2          7           0       -2.008760    0.104983   -0.852063
      3          6           0       -1.149057   -0.082361    0.091607
      4          7           0       -1.390220   -0.379389    1.387649
      5          1           0       -2.349000   -0.274606    1.683839
      6          1           0       -0.666383   -0.206154    2.067594
      7          6           0        0.281665   -0.007836   -0.404387
      8          9           0        0.386224   -0.046114   -1.714697
      9          7           0        1.013634    1.290870    0.092861
     10          8           0        1.898564    1.685322   -0.626184
     11          8           0        0.630692    1.758300    1.144626
     12          7           0        1.144101   -1.187242    0.179436
     13          8           0        1.384148   -1.121046    1.370136
     14          8           0        1.472062   -2.036070   -0.606889
 ---------------------------------------------------------------------

 SCF Done:  E(RHF) =  -793.016185409     A.U. after    2 cycles

 The electronic state is 1-A.
 Alpha  occ. eigenvalues --  -26.23533 -26.16477 -20.69368 -20.68742 -20.68306
 Alpha  occ. eigenvalues --  -20.68252 -15.98750 -15.98525 -15.75962 -15.70469
 Alpha  occ. eigenvalues --  -11.54538 -11.42337  -1.79051  -1.68228  -1.62734
 Alpha  occ. eigenvalues --   -1.61558  -1.44657  -1.44157  -1.31419  -1.18850
 Alpha  occ. eigenvalues --   -1.16913  -1.01320  -0.96446  -0.92288  -0.88429
 Alpha  occ. eigenvalues --   -0.87974  -0.84363  -0.81300  -0.80389  -0.79834
 Alpha  occ. eigenvalues --   -0.79407  -0.78805  -0.77560  -0.77009  -0.76770
 Alpha  occ. eigenvalues --   -0.72915  -0.69102  -0.61022  -0.59071  -0.57957
 Alpha  occ. eigenvalues --   -0.57294  -0.54735  -0.54316  -0.53629  -0.52903
 Alpha  occ. eigenvalues --   -0.43076
 Alpha virt. eigenvalues --    0.00918   0.02461   0.02607   0.05744   0.06653
 Alpha virt. eigenvalues --    0.07978   0.09494   0.09639   0.10296   0.12009
 Alpha virt. eigenvalues --    0.12284   0.13229   0.13731   0.15692   0.15841

 Mulliken charges:
               1
     1  F   -0.464710
     2  N   -0.271677
     3  C    0.854955
     4  N   -0.192637
     5  H    0.010590
     6  H    0.121485
     7  C    1.527182
     8  F   -0.101731
     9  N    0.311138
    10  O   -0.485074
    11  O   -0.553100
    12  N    0.251797
    13  O   -0.527556
    14  O   -0.480663
 Sum of Mulliken charges =  -0.00000

 Dipole moment (field-independent basis, Debye):
    X=             -0.8653    Y=             -0.2518    Z=              2.4679  Tot=              2.6274

 Test job not archived.
 1\1\GINC-SE366\SP\RHF\Aug-CC-pVDZ\C2H2F2N4O4\OHZDE\09-Apr-2025\0\\#t h
 f aug-cc-pvdz iop(5/13=1,5/36=2,99/5=2) pseudo=read geom=check guess=(
 read,tcheck) scf=(maxcycle=1)\\title\\0,1\F,0,-3.294588,0.037818,-0.26
 1242\N,0,-2.00876,0.104983,-0.852063\C,0,-1.149057,-0.082361,0.091607\
 N,0,-1.39022,-0.379389,1.387649\H,0,-2.349,-0.274606,1.683839\H,0,-0.6
 66383,-0.206154,2.067594\C,0,0.281665,-0.007836,-0.404387\F,0,0.386224
 ,-0.046114,-1.714697\N,0,1.013634,1.29087,0.092861\O,0,1.898564,1.6853
 22,-0.626184\O,0,0.630692,1.7583,1.144626\N,0,1.144101,-1.187242,0.179

 Normal termination of Gaussian 16 at Wed Apr  9 00:52:17 2025.
