 Gaussian 16, Revision C.01,

 ----------------------------------------------------------------------
 #t hf aug-cc-pvdz symm=none int=(grid=ultrafine) guess=(read,tcheck) s
 table=(opt,rrhf)
 ----------------------------------------------------------------------
 -----
 title
 -----
 Symbolic Z-matrix:
 Charge =  0 Multiplicity = 1

 SCF Done:  E(RHF) =  -933.287087668     A.U. after   15 cycles
 Normal termination of Gaussian 16 at Tue Apr  8 23:25:05 2025.
 Gaussian 16:  ES64L-G16RevC.01  3-Jul-2019

 ----------------------------------------------------------------------
 #t hf aug-cc-pvdz iop(5/13=1,5/36=2,99/5=2) pseudo=read geom=check gue
 ss=(read,tcheck) scf=(maxcycle=1)
 ----------------------------------------------------------------------
 -----
 title
 -----
 Structure from the checkpoint file:  "BDE49_nonexpt_1204_mol1.chk"
 Charge =  0 Multiplicity = 1

                         Standard orientation:
 ---------------------------------------------------------------------
 Center     Atomic      Atomic             Coordinates (Angstroms)
 Number     Number       Type             X           Y           Z
 ---------------------------------------------------------------------
      1          8           0        0.790335   -1.565588   -0.120472
      2         16           0       -0.853917   -1.679777    0.266310
      3          6           0       -1.494117   -0.329488   -0.739485
      4          6           0        1.521856   -0.536949    0.454804
      5          8           0        1.071035    0.242358    1.239918
      6          8           0       -0.780548    0.380356   -1.392880
      7          6           0       -3.415213    1.220956   -0.198945
      8          6           0        3.740617    0.676437    0.218508
      9          6           0        2.946321   -0.605687   -0.050624
     10          6           0       -3.000907   -0.199640   -0.625886
     11          1           0        3.409324   -1.466332    0.446282
     12          1           0        2.918330   -0.849955   -1.115939
     13          1           0       -3.396424   -0.946096    0.073212
     14          1           0       -3.409635   -0.431237   -1.615282
     15          6           0        3.293276    1.859458   -0.645061
     16          1           0        4.798960    0.464885    0.035875
     17          1           0        3.646457    0.933818    1.276935
     18          1           0        3.415029    1.638822   -1.710111
     19          1           0        3.884160    2.750982   -0.420001
     20          1           0        2.242872    2.101225   -0.469736
     21          6           0       -2.987277    1.577722    1.227289
     22          1           0       -4.502131    1.302426   -0.295977
     23          1           0       -2.978376    1.927978   -0.909258
     24          1           0       -3.434004    0.895953    1.957753
     25          1           0       -3.304023    2.591763    1.482974
     26          1           0       -1.901777    1.528334    1.346185
 ---------------------------------------------------------------------

 SCF Done:  E(RHF) =  -933.479056285     A.U. after    2 cycles

 The electronic state is 1-A.
 Alpha  occ. eigenvalues --  -93.61301 -20.64205 -20.58419 -20.57262 -11.40351
 Alpha  occ. eigenvalues --  -11.38443 -11.26786 -11.25647 -11.24886 -11.23733
 Alpha  occ. eigenvalues --  -11.22865 -11.22004  -8.90468  -6.24709  -6.24306
 Alpha  occ. eigenvalues --   -6.23976  -1.42332  -1.38133  -1.33597  -1.08782
 Alpha  occ. eigenvalues --   -1.07433  -1.01801  -0.97182  -0.93938  -0.85489
 Alpha  occ. eigenvalues --   -0.82456  -0.78412  -0.74357  -0.71477  -0.70126
 Alpha  occ. eigenvalues --   -0.68109  -0.66449  -0.64308  -0.63085  -0.61532
 Alpha  occ. eigenvalues --   -0.59821  -0.58901  -0.56823  -0.56424  -0.55877
 Alpha  occ. eigenvalues --   -0.54546  -0.51770  -0.50569  -0.49742  -0.49494
 Alpha  occ. eigenvalues --   -0.49277  -0.49016  -0.48465  -0.46420  -0.41892
 Alpha  occ. eigenvalues --   -0.39191
 Alpha virt. eigenvalues --    0.03287   0.03773   0.04558   0.04844   0.05061
 Alpha virt. eigenvalues --    0.05570   0.05686   0.06613   0.07108   0.07332
 Alpha virt. eigenvalues --    0.07877   0.08251   0.08775   0.09579   0.10268

 Mulliken charges:
               1
     1  O   -0.861302
     2  S    0.745656
     3  C    0.027957
     4  C    0.394356
     5  O   -0.421848
     6  O   -0.568429
     7  C    0.235178
     8  C    0.310891
     9  C    0.078215
    10  C    0.264162
    11  H    0.022718
    12  H   -0.053325
    13  H   -0.088245
    14  H    0.053019
    15  C    0.412806
    16  H   -0.065575
    17  H   -0.102162
    18  H   -0.076070
    19  H   -0.085191
    20  H   -0.119035
    21  C    0.418147
    22  H   -0.087693
    23  H   -0.110018
    24  H   -0.078096
    25  H   -0.080878
    26  H   -0.165240
 Sum of Mulliken charges =  -0.00000

 Dipole moment (field-independent basis, Debye):
    X=             -1.1503    Y=             -1.2460    Z=             -0.0685  Tot=              1.6972

 Test job not archived.
 1\1\GINC-SE435\SP\RHF\Aug-CC-pVDZ\C8H14O3S1\OHZDE\08-Apr-2025\0\\#t hf
  aug-cc-pvdz iop(5/13=1,5/36=2,99/5=2) pseudo=read geom=check guess=(r
 ead,tcheck) scf=(maxcycle=1)\\title\\0,1\O,0,0.790335,-1.565588,-0.120
 472\S,0,-0.853917,-1.679777,0.26631\C,0,-1.494117,-0.329488,-0.739485\
 C,0,1.521856,-0.536949,0.454804\O,0,1.071035,0.242358,1.239918\O,0,-0.
 780548,0.380356,-1.39288\C,0,-3.415213,1.220956,-0.198945\C,0,3.740617
 ,0.676437,0.218508\C,0,2.946321,-0.605687,-0.050624\C,0,-3.000907,-0.1
 9964,-0.625886\H,0,3.409324,-1.466332,0.446282\H,0,2.91833,-0.849955,-

 Normal termination of Gaussian 16 at Tue Apr  8 23:25:25 2025.
