 Gaussian 16, Revision C.01,

 ----------------------------------------------------------------------
 #t hf aug-cc-pvdz symm=none int=(grid=ultrafine) guess=(read,tcheck) s
 table=(opt,rrhf)
 ----------------------------------------------------------------------
 -----
 title
 -----
 Symbolic Z-matrix:
 Charge =  0 Multiplicity = 1

 SCF Done:  E(RHF) =  -617.666639927     A.U. after   14 cycles
 Normal termination of Gaussian 16 at Tue Apr  8 23:28:57 2025.
 Gaussian 16:  ES64L-G16RevC.01  3-Jul-2019

 ----------------------------------------------------------------------
 #t hf aug-cc-pvdz iop(5/13=1,5/36=2,99/5=2) pseudo=read geom=check gue
 ss=(read,tcheck) scf=(maxcycle=1)
 ----------------------------------------------------------------------
 -----
 title
 -----
 Structure from the checkpoint file:  "BDE49_nonexpt_136_mol1.chk"
 Charge =  0 Multiplicity = 1

                         Standard orientation:
 ---------------------------------------------------------------------
 Center     Atomic      Atomic             Coordinates (Angstroms)
 Number     Number       Type             X           Y           Z
 ---------------------------------------------------------------------
      1          5           0       -2.692037   -0.012386   -0.077087
      2          5           0       -1.315293   -0.829285   -0.367772
      3         15           0        0.382507   -0.074889    0.100968
      4          8           0        1.348055   -0.078057   -1.202568
      5          8           0        0.076741    1.499843    0.212520
      6          1           0        1.909634   -0.863307   -1.218504
      7          1           0        0.857231    2.034165    0.411549
      8          8           0        0.976618   -0.738896    1.276267
      9          1           0       -1.244365   -1.926372   -0.826295
     10          1           0       -3.244181   -0.039170    0.981111
     11          1           0       -3.190593    0.663254   -0.927846
 ---------------------------------------------------------------------

 SCF Done:  E(RHF) =  -617.818297718     A.U. after    2 cycles

 The electronic state is 1-A.
 Alpha  occ. eigenvalues --  -81.40631 -20.61826 -20.61689 -20.52534  -7.89162
 Alpha  occ. eigenvalues --   -7.63655  -7.62186  -5.03793  -5.03681  -5.03299
 Alpha  occ. eigenvalues --   -1.37957  -1.34530  -1.25593  -0.86168  -0.77495
 Alpha  occ. eigenvalues --   -0.74986  -0.68583  -0.66899  -0.63825  -0.60261
 Alpha  occ. eigenvalues --   -0.58392  -0.57358  -0.52126  -0.50712  -0.49342
 Alpha  occ. eigenvalues --   -0.47968  -0.43447
 Alpha virt. eigenvalues --    0.02924   0.03645   0.03880   0.04133   0.05320
 Alpha virt. eigenvalues --    0.05563   0.05774   0.07686   0.08596   0.09233
 Alpha virt. eigenvalues --    0.09677   0.10799   0.11361   0.12482   0.13505

 Mulliken charges:
               1
     1  B   -0.302791
     2  B   -0.142300
     3  P    1.932841
     4  O   -0.766382
     5  O   -0.673677
     6  H    0.143842
     7  H    0.145974
     8  O   -0.954376
     9  H    0.176605
    10  H    0.225592
    11  H    0.214672
 Sum of Mulliken charges =  -0.00000

 Dipole moment (field-independent basis, Debye):
    X=             -0.5136    Y=              0.3777    Z=             -2.4981  Tot=              2.5782

 Test job not archived.
 1\1\GINC-SE127\SP\RHF\Aug-CC-pVDZ\B2H5O3P1\OHZDE\08-Apr-2025\0\\#t hf
 aug-cc-pvdz iop(5/13=1,5/36=2,99/5=2) pseudo=read geom=check guess=(re
 ad,tcheck) scf=(maxcycle=1)\\title\\0,1\B,0,-2.692037,-0.012386,-0.077
 087\B,0,-1.315293,-0.829285,-0.367772\P,0,0.382507,-0.074889,0.100968\
 O,0,1.348055,-0.078057,-1.202568\O,0,0.076741,1.499843,0.21252\H,0,1.9
 09634,-0.863307,-1.218504\H,0,0.857231,2.034165,0.411549\O,0,0.976618,
 -0.738896,1.276267\H,0,-1.244365,-1.926372,-0.826295\H,0,-3.244181,-0.
 03917,0.981111\H,0,-3.190593,0.663254,-0.927846\\Version=ES64L-G16RevC

 Normal termination of Gaussian 16 at Tue Apr  8 23:29:01 2025.
