 Gaussian 16, Revision C.01,

 ----------------------------------------------------------------------
 #t hf aug-cc-pvdz symm=none int=(grid=ultrafine) guess=(read,tcheck) s
 table=(opt,rrhf)
 ----------------------------------------------------------------------
 -----
 title
 -----
 Symbolic Z-matrix:
 Charge =  0 Multiplicity = 1

 SCF Done:  E(RHF) =  -209.142761648     A.U. after   12 cycles
 Normal termination of Gaussian 16 at Tue Apr  8 22:31:22 2025.
 Gaussian 16:  ES64L-G16RevC.01  3-Jul-2019

 ----------------------------------------------------------------------
 #t hf aug-cc-pvdz iop(5/13=1,5/36=2,99/5=2) pseudo=read geom=check gue
 ss=(read,tcheck) scf=(maxcycle=1)
 ----------------------------------------------------------------------
 -----
 title
 -----
 Structure from the checkpoint file:  "BDE49_expt_1072_mol1.chk"
 Charge =  0 Multiplicity = 1

                         Standard orientation:
 ---------------------------------------------------------------------
 Center     Atomic      Atomic             Coordinates (Angstroms)
 Number     Number       Type             X           Y           Z
 ---------------------------------------------------------------------
      1          6           0        0.634042    0.659787   -0.267345
      2          6           0       -0.795632    0.558465    0.263986
      3          7           0        1.357887   -0.561912    0.120454
      4          8           0       -1.401360   -0.644947   -0.167655
      5          1           0       -0.693266   -1.303333   -0.099254
      6          1           0        1.105135    1.591764    0.079315
      7          1           0        0.597103    0.689507   -1.359815
      8          1           0        1.664127   -0.508977    1.087152
      9          1           0        2.184454   -0.698604   -0.449418
     10          1           0       -1.401185    1.390419   -0.105252
     11          1           0       -0.781156    0.622670    1.365486
 ---------------------------------------------------------------------

 SCF Done:  E(RHF) =  -209.209743195     A.U. after    2 cycles

 The electronic state is 1-A.
 Alpha  occ. eigenvalues --  -20.55435 -15.62243 -11.28011 -11.26816  -1.31034
 Alpha  occ. eigenvalues --   -1.15594  -0.96928  -0.83049  -0.70498  -0.65863
 Alpha  occ. eigenvalues --   -0.64017  -0.62007  -0.56405  -0.52927  -0.49248
 Alpha  occ. eigenvalues --   -0.44761  -0.40584
 Alpha virt. eigenvalues --    0.03115   0.04322   0.04416   0.05398   0.07342
 Alpha virt. eigenvalues --    0.07526   0.08125   0.12074   0.12379   0.14254
 Alpha virt. eigenvalues --    0.15251   0.16481   0.16892   0.17561   0.19253

 Mulliken charges:
               1
     1  C    0.599340
     2  C    0.721985
     3  N   -0.522950
     4  O   -0.559002
     5  H    0.205346
     6  H   -0.065912
     7  H   -0.167020
     8  H    0.052911
     9  H    0.018367
    10  H   -0.137311
    11  H   -0.145754
 Sum of Mulliken charges =  -0.00000

 Dipole moment (field-independent basis, Debye):
    X=              3.0583    Y=              1.3226    Z=              0.6460  Tot=              3.3941

 Test job not archived.
 1\1\GINC-SE099\SP\RHF\Aug-CC-pVDZ\C2H7N1O1\OHZDE\08-Apr-2025\0\\#t hf
 aug-cc-pvdz iop(5/13=1,5/36=2,99/5=2) pseudo=read geom=check guess=(re
 ad,tcheck) scf=(maxcycle=1)\\title\\0,1\C,0,0.634042,0.659787,-0.26734
 5\C,0,-0.795632,0.558465,0.263986\N,0,1.357887,-0.561912,0.120454\O,0,
 -1.40136,-0.644947,-0.167655\H,0,-0.693266,-1.303333,-0.099254\H,0,1.1
 05135,1.591764,0.079315\H,0,0.597103,0.689507,-1.359815\H,0,1.664127,-
 0.508977,1.087152\H,0,2.184454,-0.698604,-0.449418\H,0,-1.401185,1.390
 419,-0.105252\H,0,-0.781156,0.62267,1.365486\\Version=ES64L-G16RevC.01

 Normal termination of Gaussian 16 at Tue Apr  8 22:31:25 2025.
