 Gaussian 16, Revision C.01,

 ----------------------------------------------------------------------
 #t hf aug-cc-pvdz symm=none int=(grid=ultrafine) guess=(read,tcheck) s
 table=(opt,rrhf)
 ----------------------------------------------------------------------
 -----
 title
 -----
 Symbolic Z-matrix:
 Charge =  0 Multiplicity = 1

 SCF Done:  E(RHF) =  -723.830451892     A.U. after   17 cycles
 Normal termination of Gaussian 16 at Tue Apr  8 23:32:48 2025.
 Gaussian 16:  ES64L-G16RevC.01  3-Jul-2019

 ----------------------------------------------------------------------
 #t hf aug-cc-pvdz iop(5/13=1,5/36=2,99/5=2) pseudo=read geom=check gue
 ss=(read,tcheck) scf=(maxcycle=1)
 ----------------------------------------------------------------------
 -----
 title
 -----
 Structure from the checkpoint file:  "BDE49_nonexpt_1428_mol1.chk"
 Charge =  0 Multiplicity = 1

                         Standard orientation:
 ---------------------------------------------------------------------
 Center     Atomic      Atomic             Coordinates (Angstroms)
 Number     Number       Type             X           Y           Z
 ---------------------------------------------------------------------
      1          6           0        0.436047    1.159988   -0.002909
      2          6           0       -0.955499    1.199322    0.000889
      3          6           0       -1.703232    0.016708   -0.000253
      4          6           0        1.115559   -0.062725   -0.000199
      5          6           0        0.366866   -1.247462   -0.005010
      6          6           0       -1.018535   -1.208744   -0.016989
      7          1           0        0.985558    2.093632    0.000003
      8          1           0       -1.459073    2.159213    0.012011
      9         15           0       -3.546921    0.003633   -0.091698
     10          1           0       -1.576227   -2.139599   -0.039940
     11          1           0        0.900485   -2.189949   -0.007646
     12          6           0        2.612649   -0.167491    0.004322
     13          8           0        3.155831   -1.254410    0.007725
     14          6           0        3.435203    1.108768    0.004744
     15          1           0        3.217701    1.715561   -0.879079
     16          1           0        4.490112    0.840408    0.008807
     17          1           0        3.211753    1.718726    0.884930
     18          1           0       -3.748566    1.380098    0.177056
     19          1           0       -3.798940   -0.387484    1.249965
 ---------------------------------------------------------------------

 SCF Done:  E(RHF) =  -723.964457750     A.U. after    2 cycles

 The electronic state is 1-A.
 Alpha  occ. eigenvalues --  -81.27063 -20.56257 -11.35056 -11.27463 -11.26953
 Alpha  occ. eigenvalues --  -11.26211 -11.26190 -11.26059 -11.25911 -11.24879
 Alpha  occ. eigenvalues --   -7.77433  -4.91513  -4.91396  -4.91103  -1.35480
 Alpha  occ. eigenvalues --   -1.16242  -1.05227  -1.02890  -0.99743  -0.88125
 Alpha  occ. eigenvalues --   -0.84640  -0.79240  -0.77084  -0.70177  -0.66677
 Alpha  occ. eigenvalues --   -0.64560  -0.62103  -0.61343  -0.61293  -0.60882
 Alpha  occ. eigenvalues --   -0.55541  -0.54119  -0.52456  -0.51353  -0.50465
 Alpha  occ. eigenvalues --   -0.49193  -0.43549  -0.39570  -0.35751  -0.33331
 Alpha virt. eigenvalues --    0.02882   0.03771   0.04337   0.04749   0.05266
 Alpha virt. eigenvalues --    0.06173   0.06221   0.07076   0.07581   0.08477
 Alpha virt. eigenvalues --    0.08605   0.09173   0.09988   0.10776   0.11801

 Mulliken charges:
               1
     1  C    0.521711
     2  C    0.425557
     3  C    0.014874
     4  C    0.939390
     5  C    0.080372
     6  C    0.607045
     7  H   -0.708716
     8  H   -0.561391
     9  P   -0.085826
    10  H   -0.513754
    11  H   -0.656610
    12  C   -0.351264
    13  O   -0.526477
    14  C    0.512917
    15  H    0.105898
    16  H   -0.155739
    17  H    0.104707
    18  H    0.076305
    19  H    0.171003
 Sum of Mulliken charges =  -0.00000

 Dipole moment (field-independent basis, Debye):
    X=             -1.4802    Y=              3.1964    Z=              0.4948  Tot=              3.5571

 Test job not archived.
 1\1\GINC-SE150\SP\RHF\Aug-CC-pVDZ\C8H9O1P1\OHZDE\08-Apr-2025\0\\#t hf
 aug-cc-pvdz iop(5/13=1,5/36=2,99/5=2) pseudo=read geom=check guess=(re
 ad,tcheck) scf=(maxcycle=1)\\title\\0,1\C,0,0.436047,1.159988,-0.00290
 9\C,0,-0.955499,1.199322,0.000889\C,0,-1.703232,0.016708,-0.000253\C,0
 ,1.115559,-0.062725,-0.000199\C,0,0.366866,-1.247462,-0.00501\C,0,-1.0
 18535,-1.208744,-0.016989\H,0,0.985558,2.093632,0.000003\H,0,-1.459073
 ,2.159213,0.012011\P,0,-3.546921,0.003633,-0.091698\H,0,-1.576227,-2.1
 39599,-0.03994\H,0,0.900485,-2.189949,-0.007646\C,0,2.612649,-0.167491

 Normal termination of Gaussian 16 at Tue Apr  8 23:33:00 2025.
