 Gaussian 16, Revision C.01,

 ----------------------------------------------------------------------
 #t hf aug-cc-pvdz symm=none int=(grid=ultrafine) guess=(read,tcheck) s
 table=(opt,rrhf)
 ----------------------------------------------------------------------
 -----
 title
 -----
 Symbolic Z-matrix:
 Charge =  0 Multiplicity = 1

 SCF Done:  E(RHF) =  -462.244400315     A.U. after   13 cycles
 Normal termination of Gaussian 16 at Tue Apr  8 23:58:37 2025.
 Gaussian 16:  ES64L-G16RevC.01  3-Jul-2019

 ----------------------------------------------------------------------
 #t hf aug-cc-pvdz iop(5/13=1,5/36=2,99/5=2) pseudo=read geom=check gue
 ss=(read,tcheck) scf=(maxcycle=1)
 ----------------------------------------------------------------------
 -----
 title
 -----
 Structure from the checkpoint file:  "BDE49_nonexpt_2090_mol1.chk"
 Charge =  0 Multiplicity = 1

                         Standard orientation:
 ---------------------------------------------------------------------
 Center     Atomic      Atomic             Coordinates (Angstroms)
 Number     Number       Type             X           Y           Z
 ---------------------------------------------------------------------
      1          7           0        0.263175   -0.619512   -0.000008
      2          6           0       -1.120794    1.444598    0.000001
      3          6           0       -0.872091   -0.053045   -0.000018
      4          6           0       -2.127831   -0.900148    0.000005
      5         14           0        1.901420   -0.067020    0.000005
      6          1           0       -0.193272    2.015748    0.000005
      7          1           0       -1.710805    1.727341    0.878089
      8          1           0       -1.710808    1.727359   -0.878080
      9          1           0       -1.864913   -1.956389    0.000012
     10          1           0       -2.742028   -0.676122   -0.879072
     11          1           0       -2.742011   -0.676108    0.879090
     12          1           0        2.552241   -0.621659   -1.207669
     13          1           0        2.552223   -0.621654    1.207690
     14          1           0        2.121562    1.407914    0.000003
 ---------------------------------------------------------------------

 SCF Done:  E(RHF) =  -462.326863454     A.U. after    2 cycles

 The electronic state is 1-A.
 Alpha  occ. eigenvalues --  -69.06952 -15.59202 -11.31543 -11.24533 -11.23692
 Alpha  occ. eigenvalues --   -6.81978  -3.92859  -3.92740  -3.92735  -1.17534
 Alpha  occ. eigenvalues --   -1.00114  -0.95415  -0.76831  -0.67466  -0.61574
 Alpha  occ. eigenvalues --   -0.61242  -0.60739  -0.55341  -0.54294  -0.52474
 Alpha  occ. eigenvalues --   -0.49058  -0.47154  -0.40913  -0.36651
 Alpha virt. eigenvalues --    0.03132   0.04205   0.04693   0.04803   0.06745
 Alpha virt. eigenvalues --    0.07146   0.07380   0.07711   0.08089   0.09107
 Alpha virt. eigenvalues --    0.10531   0.11047   0.12598   0.13490   0.14737

 Mulliken charges:
               1
     1  N   -0.649865
     2  C    0.473215
     3  C   -0.349371
     4  C    0.452466
     5  Si   0.283912
     6  H   -0.241788
     7  H    0.059568
     8  H    0.059574
     9  H   -0.152618
    10  H    0.036920
    11  H    0.036916
    12  H    0.049633
    13  H    0.049630
    14  H   -0.108192
 Sum of Mulliken charges =  -0.00000

 Dipole moment (field-independent basis, Debye):
    X=             -2.1131    Y=              1.4875    Z=              0.0000  Tot=              2.5842

 Test job not archived.
 1\1\GINC-SE453\SP\RHF\Aug-CC-pVDZ\C3H9N1Si1\OHZDE\08-Apr-2025\0\\#t hf
  aug-cc-pvdz iop(5/13=1,5/36=2,99/5=2) pseudo=read geom=check guess=(r
 ead,tcheck) scf=(maxcycle=1)\\title\\0,1\N,0,0.263175,-0.619512,-0.000
 008\C,0,-1.120794,1.444598,0.000001\C,0,-0.872091,-0.053045,-0.000018\
 C,0,-2.127831,-0.900148,0.000005\Si,0,1.90142,-0.06702,0.000005\H,0,-0
 .193272,2.015748,0.000005\H,0,-1.710805,1.727341,0.878089\H,0,-1.71080
 8,1.727359,-0.87808\H,0,-1.864913,-1.956389,0.000012\H,0,-2.742028,-0.
 676122,-0.879072\H,0,-2.742011,-0.676108,0.87909\H,0,2.552241,-0.62165

 Normal termination of Gaussian 16 at Tue Apr  8 23:58:40 2025.
