 Gaussian 16, Revision C.01,

 ----------------------------------------------------------------------
 #t hf aug-cc-pvdz symm=none int=(grid=ultrafine) guess=(read,tcheck) s
 table=opt
 ----------------------------------------------------------------------
 -----
 title
 -----
 Symbolic Z-matrix:
 Charge =  0 Multiplicity = 2

 SCF Done:  E(UHF) =  -796.926526855     A.U. after   30 cycles
 Normal termination of Gaussian 16 at Tue Apr  8 23:14:36 2025.
 Gaussian 16:  ES64L-G16RevC.01  3-Jul-2019

 ----------------------------------------------------------------------
 #t hf aug-cc-pvdz iop(5/13=1,5/36=2,99/5=2) pseudo=read geom=check gue
 ss=(read,tcheck) scf=(maxcycle=1)
 ----------------------------------------------------------------------
 -----
 title
 -----
 Structure from the checkpoint file:  "BDE49_expt_843_mol2.chk"
 Charge =  0 Multiplicity = 2

                         Standard orientation:
 ---------------------------------------------------------------------
 Center     Atomic      Atomic             Coordinates (Angstroms)
 Number     Number       Type             X           Y           Z
 ---------------------------------------------------------------------
      1          6           0       -3.227029    0.146827   -0.743801
      2          6           0       -1.915032    0.860483   -0.413091
      3          1           0       -3.136305   -0.427869   -1.669783
      4          1           0       -4.032236    0.873434   -0.878184
      5          1           0       -3.521926   -0.543500    0.048087
      6          6           0       -0.685868   -0.068541   -0.283075
      7          1           0       -2.029059    1.451547    0.502345
      8          1           0       -1.682116    1.575359   -1.212077
      9          6           0        0.644905    0.713360   -0.251143
     10          6           0        1.841411   -0.221961   -0.548461
     11          8           0        1.770908   -1.151235   -1.308404
     12          8           0        2.964579    0.133337    0.081326
     13          7           0        0.924572    1.488977    0.960533
     14         16           0       -0.854402   -1.170580    1.162248
     15          1           0       -0.655305   -0.736076   -1.149860
     16          1           0        0.632585    1.416461   -1.093893
     17          1           0        2.708143    0.887888    0.656319
     18          1           0        0.473540    2.395653    0.950701
     19          1           0        0.606893    0.975728    1.780710
 ---------------------------------------------------------------------

 SCF Done:  E(UHF) =  -797.066034666     A.U. after    2 cycles

 The electronic state is 2-A.
 Alpha  occ. eigenvalues --  -93.56325 -20.61394 -20.55737 -15.65108 -11.39496
 Alpha  occ. eigenvalues --  -11.31233 -11.29567 -11.26498 -11.24041  -8.86021
 Alpha  occ. eigenvalues --   -6.21406  -6.19709  -6.19308  -1.41768  -1.32889
 Alpha  occ. eigenvalues --   -1.20123  -1.09885  -1.00928  -0.96129  -0.89104
 Alpha  occ. eigenvalues --   -0.82935  -0.79267  -0.74621  -0.70570  -0.68353
 Alpha  occ. eigenvalues --   -0.64924  -0.64050  -0.63279  -0.60242  -0.59401
 Alpha  occ. eigenvalues --   -0.57154  -0.53148  -0.52517  -0.51088  -0.49072
 Alpha  occ. eigenvalues --   -0.48177  -0.46564  -0.43895  -0.42958  -0.38468
 Alpha virt. eigenvalues --    0.02310   0.03686   0.03952   0.04799   0.06048
 Alpha virt. eigenvalues --    0.06268   0.06566   0.07418   0.08414   0.08941
 Alpha virt. eigenvalues --    0.09930   0.11097   0.11900   0.12963   0.13296

  Beta  occ. eigenvalues --  -93.55424 -20.61397 -20.55721 -15.65104 -11.39503
  Beta  occ. eigenvalues --  -11.31227 -11.29703 -11.26393 -11.24046  -8.85018
  Beta  occ. eigenvalues --   -6.19165  -6.18762  -6.17458  -1.41764  -1.32864
  Beta  occ. eigenvalues --   -1.20038  -1.09037  -1.00290  -0.93110  -0.86658
  Beta  occ. eigenvalues --   -0.82724  -0.77332  -0.73931  -0.70424  -0.68264
  Beta  occ. eigenvalues --   -0.64257  -0.63730  -0.63232  -0.60055  -0.58980
  Beta  occ. eigenvalues --   -0.56946  -0.52795  -0.52178  -0.50550  -0.48952
  Beta  occ. eigenvalues --   -0.47914  -0.45641  -0.42955  -0.36305
  Beta virt. eigenvalues --    0.00636   0.02533   0.03698   0.04080   0.04841
  Beta virt. eigenvalues --    0.06127   0.06282   0.06615   0.07468   0.08603
  Beta virt. eigenvalues --    0.09162   0.10016   0.11111   0.12059   0.13114

 Mulliken charges and spin densities:
               1          2
     1  C    0.501650  -0.001950
     2  C    0.282924   0.042763
     3  H   -0.051390   0.000329
     4  H   -0.038867   0.000241
     5  H   -0.058231  -0.007205
     6  C   -0.021925  -0.127914
     7  H   -0.190908  -0.002782
     8  H   -0.099914   0.003106
     9  C    0.197691  -0.052493
    10  C    0.715371   0.017088
    11  O   -0.476167   0.007934
    12  O   -0.487534  -0.001450
    13  N   -0.601992  -0.007250
    14  S    0.121625   1.126605
    15  H   -0.223575   0.010991
    16  H   -0.013480   0.001186
    17  H    0.265315   0.000193
    18  H    0.058250  -0.000277
    19  H    0.121156  -0.009114
 Sum of Mulliken charges =  -0.00000   1.00000

 Dipole moment (field-independent basis, Debye):
    X=             -3.5524    Y=              4.7800    Z=              1.3379  Tot=              6.1040
                          Isotropic Fermi Contact Couplings
        Atom                 a.u.       MegaHertz       Gauss      10(-4) cm-1
     1  C(13)             -0.00098      -1.09820      -0.39187      -0.36632
     2  C(13)              0.02410      27.09155       9.66694       9.03677
     3  H(1)               0.00007       0.31918       0.11389       0.10647
     4  H(1)               0.00004       0.18591       0.06634       0.06201
     5  H(1)              -0.00003      -0.12237      -0.04366      -0.04082
     6  C(13)             -0.02724     -30.62208     -10.92672     -10.21443
     7  H(1)              -0.00070      -3.10886      -1.10932      -1.03701
     8  H(1)               0.00089       3.96461       1.41467       1.32245

 1\1\GINC-SE364\SP\UHF\Aug-CC-pVDZ\C5H10N1O2S1(2)\OHZDE\08-Apr-2025\0\\
 #t hf aug-cc-pvdz iop(5/13=1,5/36=2,99/5=2) pseudo=read geom=check gue
 ss=(read,tcheck) scf=(maxcycle=1)\\title\\0,2\C,0,-3.227029,0.146827,-
 0.743801\C,0,-1.915032,0.860483,-0.413091\H,0,-3.136305,-0.427869,-1.6
 69783\H,0,-4.032236,0.873435,-0.878184\H,0,-3.521926,-0.5435,0.048087\
 C,0,-0.685868,-0.068541,-0.283075\H,0,-2.029059,1.451547,0.502345\H,0,
 -1.682116,1.575359,-1.212077\C,0,0.644905,0.71336,-0.251143\C,0,1.8414
 11,-0.221961,-0.548461\O,0,1.770908,-1.151235,-1.308404\O,0,2.964579,0

 Normal termination of Gaussian 16 at Tue Apr  8 23:14:47 2025.
