 Gaussian 16, Revision C.01,

 ----------------------------------------------------------------------
 #t hf aug-cc-pvdz symm=none int=(grid=ultrafine) guess=(read,tcheck) s
 table=(opt,rrhf)
 ----------------------------------------------------------------------
 -----
 title
 -----
 Symbolic Z-matrix:
 Charge =  0 Multiplicity = 1

 SCF Done:  E(RHF) =  -596.079537741     A.U. after   13 cycles
 Normal termination of Gaussian 16 at Wed Apr  9 00:06:05 2025.
 Gaussian 16:  ES64L-G16RevC.01  3-Jul-2019

 ----------------------------------------------------------------------
 #t hf aug-cc-pvdz iop(5/13=1,5/36=2,99/5=2) pseudo=read geom=check gue
 ss=(read,tcheck) scf=(maxcycle=1)
 ----------------------------------------------------------------------
 -----
 title
 -----
 Structure from the checkpoint file:  "BDE49_nonexpt_2252_mol1.chk"
 Charge =  0 Multiplicity = 1

                         Standard orientation:
 ---------------------------------------------------------------------
 Center     Atomic      Atomic             Coordinates (Angstroms)
 Number     Number       Type             X           Y           Z
 ---------------------------------------------------------------------
      1          8           0        0.530278   -0.000160   -0.810678
      2          6           0        1.442873   -0.000140    0.184200
      3         14           0       -1.157270   -0.000025   -0.533956
      4          8           0        1.138089    0.000159    1.352706
      5          6           0        2.855723   -0.000035   -0.340479
      6          6           0       -1.676011    1.558237    0.353173
      7          1           0       -1.266634    1.584552    1.365098
      8          1           0       -2.767667    1.608360    0.419207
      9          1           0       -1.334004    2.448599   -0.181657
     10          1           0        3.014372    0.879044   -0.969347
     11          1           0        3.014576   -0.879261   -0.969087
     12          1           0        3.558769    0.000171    0.489698
     13          6           0       -1.676225   -1.558080    0.353411
     14          1           0       -1.266850   -1.584296    1.365340
     15          1           0       -1.334340   -2.448571   -0.181282
     16          1           0       -2.767888   -1.608043    0.419453
     17          1           0       -1.673641   -0.000097   -1.920106
 ---------------------------------------------------------------------

 SCF Done:  E(RHF) =  -596.211486249     A.U. after    2 cycles

 The electronic state is 1-A.
 Alpha  occ. eigenvalues --  -69.09043 -20.59417 -20.56081 -11.39969 -11.25199
 Alpha  occ. eigenvalues --  -11.21474 -11.21470  -6.83818  -3.94736  -3.94568
 Alpha  occ. eigenvalues --   -3.94540  -1.40432  -1.30836  -1.01458  -0.95392
 Alpha  occ. eigenvalues --   -0.92678  -0.82281  -0.70753  -0.68835  -0.65792
 Alpha  occ. eigenvalues --   -0.61504  -0.58523  -0.57111  -0.56938  -0.56865
 Alpha  occ. eigenvalues --   -0.55145  -0.54378  -0.52812  -0.49906  -0.46832
 Alpha  occ. eigenvalues --   -0.45055  -0.43996
 Alpha virt. eigenvalues --    0.03066   0.04165   0.04706   0.05135   0.06156
 Alpha virt. eigenvalues --    0.06279   0.06598   0.07482   0.07548   0.08513
 Alpha virt. eigenvalues --    0.09393   0.10267   0.10719   0.12491   0.14126

 Mulliken charges:
               1
     1  O   -0.825848
     2  C    0.304914
     3  Si   1.336420
     4  O   -0.430713
     5  C    0.280634
     6  C    0.345891
     7  H   -0.161821
     8  H   -0.245194
     9  H   -0.269946
    10  H    0.033985
    11  H    0.033974
    12  H   -0.024206
    13  C    0.345880
    14  H   -0.161849
    15  H   -0.269943
    16  H   -0.245176
    17  H   -0.047002
 Sum of Mulliken charges =  -0.00000

 Dipole moment (field-independent basis, Debye):
    X=              0.1806    Y=             -0.0004    Z=             -1.4865  Tot=              1.4974

 Test job not archived.
 1\1\GINC-SE329\SP\RHF\Aug-CC-pVDZ\C4H10O2Si1\OHZDE\09-Apr-2025\0\\#t h
 f aug-cc-pvdz iop(5/13=1,5/36=2,99/5=2) pseudo=read geom=check guess=(
 read,tcheck) scf=(maxcycle=1)\\title\\0,1\O,0,0.530278,-0.00016,-0.810
 678\C,0,1.442873,-0.00014,0.1842\Si,0,-1.15727,-0.000025,-0.533956\O,0
 ,1.138089,0.000159,1.352706\C,0,2.855723,-0.000035,-0.340479\C,0,-1.67
 6011,1.558237,0.353173\H,0,-1.266634,1.584552,1.365098\H,0,-2.767667,1
 .60836,0.419207\H,0,-1.334004,2.448599,-0.181657\H,0,3.014372,0.879044
 ,-0.969347\H,0,3.014576,-0.879261,-0.969087\H,0,3.558769,0.000171,0.48

 Normal termination of Gaussian 16 at Wed Apr  9 00:06:12 2025.
