 Gaussian 16, Revision C.01,

 ----------------------------------------------------------------------
 #t hf aug-cc-pvdz symm=none int=(grid=ultrafine) guess=(read,tcheck) s
 table=opt
 ----------------------------------------------------------------------
 -----
 title
 -----
 Symbolic Z-matrix:
 Charge =  0 Multiplicity = 2

 SCF Done:  E(UHF) =  -200.892186112     A.U. after   14 cycles
 Normal termination of Gaussian 16 at Tue Apr  8 23:33:02 2025.
 Gaussian 16:  ES64L-G16RevC.01  3-Jul-2019

 ----------------------------------------------------------------------
 #t hf aug-cc-pvdz iop(5/13=1,5/36=2,99/5=2) pseudo=read geom=check gue
 ss=(read,tcheck) scf=(maxcycle=1)
 ----------------------------------------------------------------------
 -----
 title
 -----
 Structure from the checkpoint file:  "BDE49_nonexpt_146_mol2.chk"
 Charge =  0 Multiplicity = 2

                         Standard orientation:
 ---------------------------------------------------------------------
 Center     Atomic      Atomic             Coordinates (Angstroms)
 Number     Number       Type             X           Y           Z
 ---------------------------------------------------------------------
      1          5           0        1.730854   -0.000004   -0.091348
      2          5           0        0.087146   -0.000000   -0.002146
      3          8           0       -0.555732    1.216911    0.007659
      4          8           0       -0.555737   -1.216910    0.007659
      5          1           0       -1.517259    1.175606    0.013635
      6          1           0       -1.517263   -1.175601    0.013636
      7          1           0        2.836274   -0.000002    0.317657
 ---------------------------------------------------------------------

 SCF Done:  E(UHF) =  -200.960878774     A.U. after    2 cycles

 The electronic state is 2-A.
 Alpha  occ. eigenvalues --  -20.58768 -20.58767  -7.65836  -7.62932  -1.34781
 Alpha  occ. eigenvalues --   -1.31169  -0.80326  -0.75590  -0.67188  -0.64175
 Alpha  occ. eigenvalues --   -0.59819  -0.55664  -0.53532  -0.49768  -0.30530
 Alpha virt. eigenvalues --    0.02769   0.04293   0.04395   0.06449   0.06527
 Alpha virt. eigenvalues --    0.06978   0.07816   0.09981   0.10127   0.10747
 Alpha virt. eigenvalues --    0.12885   0.14917   0.18494   0.19421   0.20812

  Beta  occ. eigenvalues --  -20.58655 -20.58653  -7.65902  -7.61479  -1.34501
  Beta  occ. eigenvalues --   -1.30863  -0.79475  -0.75539  -0.66004  -0.60388
  Beta  occ. eigenvalues --   -0.58649  -0.55553  -0.52420  -0.48397
  Beta virt. eigenvalues --    0.02787   0.04380   0.04991   0.05358   0.06602
  Beta virt. eigenvalues --    0.06753   0.07421   0.10022   0.10202   0.11637
  Beta virt. eigenvalues --    0.11984   0.13033   0.15607   0.18775   0.19635

 Mulliken charges and spin densities:
               1          2
     1  B   -0.594451   0.988039
     2  B    0.946332  -0.010541
     3  O   -0.501335   0.034807
     4  O   -0.501334   0.034807
     5  H    0.142478  -0.001091
     6  H    0.142477  -0.001091
     7  H    0.365833  -0.044931
 Sum of Mulliken charges =  -0.00000   1.00000

 Dipole moment (field-independent basis, Debye):
    X=             -2.3318    Y=              0.0000    Z=              0.3546  Tot=              2.3586
                          Isotropic Fermi Contact Couplings
        Atom                 a.u.       MegaHertz       Gauss      10(-4) cm-1
     1  B(11)              0.12626     181.10839      64.62398      60.41126
     2  B(11)             -0.02279     -32.68965     -11.66448     -10.90409
     3  O(17)              0.00584      -3.53790      -1.26241      -1.18012
     4  O(17)              0.00584      -3.53787      -1.26240      -1.18011
     5  H(1)              -0.00128      -5.71003      -2.03748      -1.90466
     6  H(1)              -0.00128      -5.71004      -2.03748      -1.90466
     7  H(1)              -0.01728     -77.23710     -27.56012     -25.76352
 --------------------------------------------------------

 Normal termination of Gaussian 16 at Tue Apr  8 23:33:04 2025.
