 Gaussian 16, Revision C.01,

 ----------------------------------------------------------------------
 #t hf aug-cc-pvdz symm=none int=(grid=ultrafine) guess=(read,tcheck) s
 table=(opt,rrhf)
 ----------------------------------------------------------------------
 -----
 title
 -----
 Symbolic Z-matrix:
 Charge =  0 Multiplicity = 1

 SCF Done:  E(RHF) =  -1017.94352748     A.U. after   11 cycles
 Normal termination of Gaussian 16 at Wed Apr  9 00:11:37 2025.
 Gaussian 16:  ES64L-G16RevC.01  3-Jul-2019

 ----------------------------------------------------------------------
 #t hf aug-cc-pvdz iop(5/13=1,5/36=2,99/5=2) pseudo=read geom=check gue
 ss=(read,tcheck) scf=(maxcycle=1)
 ----------------------------------------------------------------------
 -----
 title
 -----
 Structure from the checkpoint file:  "BDE49_nonexpt_2417_mol1.chk"
 Charge =  0 Multiplicity = 1

                         Standard orientation:
 ---------------------------------------------------------------------
 Center     Atomic      Atomic             Coordinates (Angstroms)
 Number     Number       Type             X           Y           Z
 ---------------------------------------------------------------------
      1         14           0       -2.381842   -0.247828    0.000001
      2         14           0       -0.263564    0.786625    0.000001
      3         16           0        1.237698   -0.762840   -0.000002
      4          1           0       -0.106189    1.655367    1.195197
      5          1           0       -0.106190    1.655371   -1.195192
      6          1           0       -3.427435    0.804423    0.000004
      7          1           0       -2.549634   -1.089464    1.207519
      8          6           0        2.780253    0.243769   -0.000002
      9          1           0        3.609418   -0.463709   -0.000003
     10          1           0        2.840341    0.863573    0.894237
     11          1           0        2.840340    0.863576   -0.894238
     12          1           0       -2.549636   -1.089460   -1.207519
 ---------------------------------------------------------------------

 SCF Done:  E(RHF) =  -1018.01796840     A.U. after    2 cycles

 The electronic state is 1-A.
 Alpha  occ. eigenvalues --  -93.52312 -69.08495 -69.06528 -11.27458  -8.82208
 Alpha  occ. eigenvalues --   -6.83645  -6.81951  -6.16317  -6.16126  -6.15853
 Alpha  occ. eigenvalues --   -3.94441  -3.94352  -3.94345  -3.92709  -3.92705
 Alpha  occ. eigenvalues --   -3.92685  -1.02017  -0.85727  -0.72808  -0.65702
 Alpha  occ. eigenvalues --   -0.59767  -0.59198  -0.51047  -0.50351  -0.48320
 Alpha  occ. eigenvalues --   -0.47731  -0.41877  -0.39896  -0.35444
 Alpha virt. eigenvalues --    0.03605   0.04078   0.04863   0.06007   0.06492
 Alpha virt. eigenvalues --    0.06848   0.07051   0.07441   0.08973   0.09247
 Alpha virt. eigenvalues --    0.09575   0.09617   0.10575   0.10764   0.13075

 Mulliken charges:
               1
     1  Si  -0.264888
     2  Si   0.435506
     3  S   -0.174435
     4  H    0.038173
     5  H    0.038172
     6  H    0.062082
     7  H    0.043707
     8  C    0.099775
     9  H   -0.100859
    10  H   -0.110468
    11  H   -0.110471
    12  H    0.043707
 Sum of Mulliken charges =  -0.00000

 Dipole moment (field-independent basis, Debye):
    X=              0.7663    Y=              1.2592    Z=             -0.0000  Tot=              1.4740

 Test job not archived.
 1\1\GINC-SE166\SP\RHF\Aug-CC-pVDZ\C1H8S1Si2\OHZDE\09-Apr-2025\0\\#t hf
  aug-cc-pvdz iop(5/13=1,5/36=2,99/5=2) pseudo=read geom=check guess=(r
 ead,tcheck) scf=(maxcycle=1)\\title\\0,1\Si,0,-2.381842,-0.247828,0.00
 0001\Si,0,-0.263564,0.786625,0.000001\S,0,1.237698,-0.76284,-0.000002\
 H,0,-0.106189,1.655367,1.195197\H,0,-0.10619,1.655371,-1.195192\H,0,-3
 .427435,0.804423,0.000004\H,0,-2.549634,-1.089464,1.207519\C,0,2.78025
 3,0.243769,-0.000002\H,0,3.609418,-0.463709,-0.000003\H,0,2.840341,0.8
 63573,0.894237\H,0,2.84034,0.863576,-0.894238\H,0,-2.549636,-1.08946,-

 Normal termination of Gaussian 16 at Wed Apr  9 00:11:41 2025.
