 Gaussian 16, Revision C.01,

 ----------------------------------------------------------------------
 #t hf aug-cc-pvdz symm=none int=(grid=ultrafine) guess=(read,tcheck) s
 table=(opt,rrhf)
 ----------------------------------------------------------------------
 -----
 title
 -----
 Symbolic Z-matrix:
 Charge =  0 Multiplicity = 1

 SCF Done:  E(RHF) =  -2417.26458669     A.U. after   11 cycles
 Normal termination of Gaussian 16 at Wed Apr  9 00:07:33 2025.
 Gaussian 16:  ES64L-G16RevC.01  3-Jul-2019

 ----------------------------------------------------------------------
 #t hf aug-cc-pvdz iop(5/13=1,5/36=2,99/5=2) pseudo=read geom=check gue
 ss=(read,tcheck) scf=(maxcycle=1)
 ----------------------------------------------------------------------
 -----
 title
 -----
 Structure from the checkpoint file:  "BDE49_nonexpt_2318_mol1.chk"
 Charge =  0 Multiplicity = 1

                         Standard orientation:
 ---------------------------------------------------------------------
 Center     Atomic      Atomic             Coordinates (Angstroms)
 Number     Number       Type             X           Y           Z
 ---------------------------------------------------------------------
      1         14           0       -1.419934    1.154272   -0.000000
      2         14           0        0.629594    0.001501   -0.000000
      3         17           0        2.154832    1.399244   -0.000001
      4          1           0       -1.515205    1.980723   -1.218468
      5         17           0        0.826429   -1.183962   -1.674753
      6         17           0       -2.978565   -0.216160    0.000001
      7         17           0        0.826430   -1.183961    1.674754
      8          1           0       -1.515205    1.980724    1.218466
 ---------------------------------------------------------------------

 SCF Done:  E(RHF) =  -2417.38523846     A.U. after    2 cycles

 The electronic state is 1-A.
 Alpha  occ. eigenvalues -- -103.68312-103.68212-103.68212-103.67168 -69.21216
 Alpha  occ. eigenvalues --  -69.14059 -10.71751 -10.71663 -10.71654 -10.70599
 Alpha  occ. eigenvalues --   -8.37441  -8.37354  -8.37349  -8.37202  -8.37199
 Alpha  occ. eigenvalues --   -8.37110  -8.37108  -8.37105  -8.37103  -8.36295
 Alpha  occ. eigenvalues --   -8.36057  -8.36053  -6.95188  -6.88959  -4.05996
 Alpha  occ. eigenvalues --   -4.05994  -4.05790  -3.99800  -3.99643  -3.99642
 Alpha  occ. eigenvalues --   -1.18850  -1.15614  -1.15578  -1.15435  -0.75861
 Alpha  occ. eigenvalues --   -0.69383  -0.59322  -0.59317  -0.56651  -0.55320
 Alpha  occ. eigenvalues --   -0.55174  -0.52048  -0.52015  -0.50653  -0.49452
 Alpha  occ. eigenvalues --   -0.49416  -0.48193  -0.47755  -0.42543
 Alpha virt. eigenvalues --    0.03605   0.04612   0.05113   0.05933   0.06983
 Alpha virt. eigenvalues --    0.07089   0.07595   0.08791   0.09230   0.09600
 Alpha virt. eigenvalues --    0.10629   0.11181   0.12900   0.13825   0.14091

 Mulliken charges:
               1
     1  Si   0.584393
     2  Si   1.323172
     3  Cl  -0.493052
     4  H    0.030149
     5  Cl  -0.480036
     6  Cl  -0.514738
     7  Cl  -0.480037
     8  H    0.030149
 Sum of Mulliken charges =  -0.00000

 Dipole moment (field-independent basis, Debye):
    X=             -0.4376    Y=              1.6358    Z=             -0.0000  Tot=              1.6933

 Test job not archived.
 1\1\GINC-SE340\SP\RHF\Aug-CC-pVDZ\Cl4H2Si2\OHZDE\09-Apr-2025\0\\#t hf
 aug-cc-pvdz iop(5/13=1,5/36=2,99/5=2) pseudo=read geom=check guess=(re
 ad,tcheck) scf=(maxcycle=1)\\title\\0,1\Si,0,-1.419934,1.154272,0.\Si,
 0,0.629594,0.001501,0.\Cl,0,2.154832,1.399244,-0.000001\H,0,-1.515205,
 1.980723,-1.218468\Cl,0,0.826429,-1.183962,-1.674753\Cl,0,-2.978565,-0
 .21616,0.000001\Cl,0,0.82643,-1.183961,1.674754\H,0,-1.515205,1.980724
 ,1.218466\\Version=ES64L-G16RevC.01\State=1-A\HF=-2417.3852385\RMSD=4.
 171e-03\Dipole=-0.1721767,0.6435676,-0.0000003\Quadrupole=-2.4375173,1

 Normal termination of Gaussian 16 at Wed Apr  9 00:07:37 2025.
