 Gaussian 16, Revision C.01,

 ----------------------------------------------------------------------
 #t hf aug-cc-pvdz symm=none int=(grid=ultrafine) guess=(read,tcheck) s
 table=opt
 ----------------------------------------------------------------------
 -----
 title
 -----
 Symbolic Z-matrix:
 Charge =  0 Multiplicity = 2

 SCF Done:  E(UHF) =  -434.754640108     A.U. after   19 cycles
 Normal termination of Gaussian 16 at Tue Apr  8 23:29:59 2025.
 Gaussian 16:  ES64L-G16RevC.01  3-Jul-2019

 ----------------------------------------------------------------------
 #t hf aug-cc-pvdz iop(5/13=1,5/36=2,99/5=2) pseudo=read geom=check gue
 ss=(read,tcheck) scf=(maxcycle=1)
 ----------------------------------------------------------------------
 -----
 title
 -----
 Structure from the checkpoint file:  "BDE49_nonexpt_1398_mol2.chk"
 Charge =  0 Multiplicity = 2

                         Standard orientation:
 ---------------------------------------------------------------------
 Center     Atomic      Atomic             Coordinates (Angstroms)
 Number     Number       Type             X           Y           Z
 ---------------------------------------------------------------------
      1         15           0       -0.873542   -0.099328    0.011435
      2          7           0        0.596457    0.812225   -0.142233
      3          6           0        0.903545   -0.601229    0.017531
      4          1           0        1.332392   -1.073348   -0.860541
      5          1           0        1.309845   -0.948445    0.965128
      6          1           0        0.864427    1.433505    0.614340
 ---------------------------------------------------------------------

 SCF Done:  E(UHF) =  -434.803930230     A.U. after    2 cycles

 The electronic state is 2-A.
 Alpha  occ. eigenvalues --  -81.28178 -15.64082 -11.28447  -7.78449  -4.93000
 Alpha  occ. eigenvalues --   -4.92051  -4.91853  -1.19374  -0.87706  -0.75623
 Alpha  occ. eigenvalues --   -0.66084  -0.60044  -0.48044  -0.44171  -0.38337
 Alpha  occ. eigenvalues --   -0.31900
 Alpha virt. eigenvalues --    0.03605   0.04495   0.05534   0.06595   0.08978
 Alpha virt. eigenvalues --    0.11164   0.12104   0.12311   0.15783   0.16497
 Alpha virt. eigenvalues --    0.17523   0.18597   0.20526   0.20832   0.23988

  Beta  occ. eigenvalues --  -81.27476 -15.63838 -11.28641  -7.77616  -4.91733
  Beta  occ. eigenvalues --   -4.91251  -4.89835  -1.18730  -0.87636  -0.72575
  Beta  occ. eigenvalues --   -0.63677  -0.58136  -0.46204  -0.41158  -0.36764
  Beta virt. eigenvalues --    0.03573   0.04352   0.05068   0.06491   0.06877
  Beta virt. eigenvalues --    0.09094   0.11334   0.12599   0.14845   0.16113
  Beta virt. eigenvalues --    0.16808   0.17949   0.19246   0.21066   0.21308

 Mulliken charges and spin densities:
               1          2
     1  P    0.492265   1.064227
     2  N   -0.696150  -0.012039
     3  C    0.730912  -0.074468
     4  H   -0.261995   0.012535
     5  H   -0.256948   0.003117
     6  H   -0.008084   0.006629
 Sum of Mulliken charges =  -0.00000   1.00000

 Dipole moment (field-independent basis, Debye):
    X=              0.6726    Y=             -0.3383    Z=              1.2249  Tot=              1.4378
                          Isotropic Fermi Contact Couplings
        Atom                 a.u.       MegaHertz       Gauss      10(-4) cm-1
     1  P(31)              0.22137     400.91635     143.05692     133.73130
     2  N(14)              0.04002      12.93181       4.61439       4.31359
     3  C(13)             -0.02825     -31.75818     -11.33211     -10.59339
     4  H(1)               0.00176       7.87475       2.80991       2.62673
     5  H(1)               0.00289      12.92741       4.61282       4.31212
     6  H(1)               0.00830      37.10792      13.24103      12.37787
 --------------------------------------------------------
       Center         ----  Spin Dipole Couplings  ----

 Normal termination of Gaussian 16 at Tue Apr  8 23:30:01 2025.
