 Gaussian 16, Revision C.01,

 ----------------------------------------------------------------------
 #t hf aug-cc-pvdz symm=none int=(grid=ultrafine) guess=(read,tcheck) s
 table=opt
 ----------------------------------------------------------------------
 -----
 title
 -----
 Symbolic Z-matrix:
 Charge =  0 Multiplicity = 2

 SCF Done:  E(UHF) =  -154.379039991     A.U. after   16 cycles
 Normal termination of Gaussian 16 at Tue Apr  8 22:51:30 2025.
 Gaussian 16:  ES64L-G16RevC.01  3-Jul-2019

 ----------------------------------------------------------------------
 #t hf aug-cc-pvdz iop(5/13=1,5/36=2,99/5=2) pseudo=read geom=check gue
 ss=(read,tcheck) scf=(maxcycle=1)
 ----------------------------------------------------------------------
 -----
 title
 -----
 Structure from the checkpoint file:  "BDE49_expt_1813_mol2.chk"
 Charge =  0 Multiplicity = 2

                         Standard orientation:
 ---------------------------------------------------------------------
 Center     Atomic      Atomic             Coordinates (Angstroms)
 Number     Number       Type             X           Y           Z
 ---------------------------------------------------------------------
      1          7           0        0.059993    0.716103    0.000000
      2          1           0       -0.959889    0.898256    0.000000
      3          9           0        0.059993   -0.656775    0.000000
 ---------------------------------------------------------------------

 SCF Done:  E(UHF) =  -154.430052195     A.U. after    2 cycles

 The electronic state is 2-A".
 Alpha  occ. eigenvalues --  -26.16386 -15.77592  -1.69646  -1.14044  -0.80087
 Alpha  occ. eigenvalues --   -0.79862  -0.73015  -0.54794  -0.53446
 Alpha virt. eigenvalues --    0.03578   0.10572   0.14073   0.14384   0.19198
 Alpha virt. eigenvalues --    0.25549   0.27974   0.28949   0.29469   0.31320
 Alpha virt. eigenvalues --    0.36542   0.45727   0.51198   0.58471   0.69764

  Beta  occ. eigenvalues --  -26.15984 -15.74055  -1.68124  -1.03727  -0.79101
  Beta  occ. eigenvalues --   -0.72633  -0.71869  -0.50713
  Beta virt. eigenvalues --    0.03717   0.06847   0.10882   0.14614   0.20035
  Beta virt. eigenvalues --    0.20460   0.25562   0.28728   0.29768   0.30336
  Beta virt. eigenvalues --    0.32676   0.38633   0.46375   0.51468   0.59650

 Mulliken charges and spin densities:
               1          2
     1  N    0.218877   1.099860
     2  H    0.147141  -0.092080
     3  F   -0.366018  -0.007781
 Sum of Mulliken charges =  -0.00000   1.00000

 Dipole moment (field-independent basis, Debye):
    X=             -1.7216    Y=              1.3021    Z=              0.0000  Tot=              2.1586
                          Isotropic Fermi Contact Couplings
        Atom                 a.u.       MegaHertz       Gauss      10(-4) cm-1
     1  N(14)              0.28372      91.67022      32.71021      30.57789
     2  H(1)              -0.02627    -117.40276     -41.89222     -39.16135
     3  F(19)              0.05494     231.17614      82.48940      77.11206
 --------------------------------------------------------
       Center         ----  Spin Dipole Couplings  ----
                      3XX-RR        3YY-RR        3ZZ-RR
 --------------------------------------------------------
     1   Atom       -1.087891     -1.210722      2.298613

 Normal termination of Gaussian 16 at Tue Apr  8 22:51:31 2025.
