 Gaussian 16, Revision C.01,

 ----------------------------------------------------------------------
 #t hf aug-cc-pvdz symm=none int=(grid=ultrafine) guess=(read,tcheck) s
 table=(opt,rrhf)
 ----------------------------------------------------------------------
 -----
 title
 -----
 Symbolic Z-matrix:
 Charge =  0 Multiplicity = 1

 SCF Done:  E(RHF) =  -749.689776619     A.U. after   12 cycles
 Normal termination of Gaussian 16 at Tue Apr  8 23:52:40 2025.
 Gaussian 16:  ES64L-G16RevC.01  3-Jul-2019

 ----------------------------------------------------------------------
 #t hf aug-cc-pvdz iop(5/13=1,5/36=2,99/5=2) pseudo=read geom=check gue
 ss=(read,tcheck) scf=(maxcycle=1)
 ----------------------------------------------------------------------
 -----
 title
 -----
 Structure from the checkpoint file:  "BDE49_nonexpt_1953_mol1.chk"
 Charge =  0 Multiplicity = 1

                         Standard orientation:
 ---------------------------------------------------------------------
 Center     Atomic      Atomic             Coordinates (Angstroms)
 Number     Number       Type             X           Y           Z
 ---------------------------------------------------------------------
      1         14           0        2.258073   -0.022833   -0.025066
      2          6           0        0.557576   -0.715290    0.409248
      3         15           0       -0.861865   -0.008273   -0.574640
      4          1           0        2.582670   -0.297343   -1.443630
      5          1           0        3.289355   -0.657593    0.831654
      6          6           0       -2.272416   -0.936286    0.200973
      7          1           0       -2.264887   -0.874026    1.293773
      8          1           0       -2.222620   -1.987138   -0.094229
      9          1           0       -3.217690   -0.531530   -0.170103
     10          6           0       -1.077358    1.625107    0.281634
     11          1           0       -0.245789    2.288568    0.035695
     12          1           0       -1.139495    1.523217    1.369959
     13          1           0       -1.994616    2.096399   -0.080251
     14          1           0        2.313843    1.441964    0.196672
     15          1           0        0.378155   -0.610216    1.486567
     16          1           0        0.589217   -1.789737    0.193287
 ---------------------------------------------------------------------

 SCF Done:  E(RHF) =  -749.776961358     A.U. after    2 cycles

 The electronic state is 1-A.
 Alpha  occ. eigenvalues --  -81.25140 -69.06095 -11.23302 -11.23257 -11.22877
 Alpha  occ. eigenvalues --   -7.75323  -6.81383  -4.89305  -4.89287  -4.88950
 Alpha  occ. eigenvalues --   -3.92162  -3.92154  -3.92152  -0.99598  -0.93198
 Alpha  occ. eigenvalues --   -0.92973  -0.70059  -0.67450  -0.60188  -0.58650
 Alpha  occ. eigenvalues --   -0.57222  -0.55529  -0.55183  -0.50631  -0.47597
 Alpha  occ. eigenvalues --   -0.46963  -0.44673  -0.42565  -0.32175
 Alpha virt. eigenvalues --    0.03396   0.04333   0.04493   0.05046   0.06142
 Alpha virt. eigenvalues --    0.06849   0.07062   0.07277   0.07948   0.08490
 Alpha virt. eigenvalues --    0.09493   0.09862   0.10217   0.10370   0.12341

 Mulliken charges:
               1
     1  Si   0.276012
     2  C    0.139577
     3  P    0.438529
     4  H    0.038171
     5  H   -0.009087
     6  C    0.342646
     7  H   -0.140652
     8  H   -0.157388
     9  H   -0.165580
    10  C    0.304168
    11  H   -0.182777
    12  H   -0.163430
    13  H   -0.142899
    14  H   -0.028390
    15  H   -0.303964
    16  H   -0.244938
 Sum of Mulliken charges =  -0.00000

 Dipole moment (field-independent basis, Debye):
    X=             -0.8275    Y=             -0.2539    Z=              1.4027  Tot=              1.6483

 Test job not archived.
 1\1\GINC-SE341\SP\RHF\Aug-CC-pVDZ\C3H11P1Si1\OHZDE\08-Apr-2025\0\\#t h
 f aug-cc-pvdz iop(5/13=1,5/36=2,99/5=2) pseudo=read geom=check guess=(
 read,tcheck) scf=(maxcycle=1)\\title\\0,1\Si,0,2.258073,-0.022833,-0.0
 25066\C,0,0.557576,-0.71529,0.409248\P,0,-0.861865,-0.008273,-0.57464\
 H,0,2.58267,-0.297343,-1.44363\H,0,3.289355,-0.657593,0.831654\C,0,-2.
 272416,-0.936286,0.200973\H,0,-2.264887,-0.874026,1.293773\H,0,-2.2226
 2,-1.987138,-0.094229\H,0,-3.21769,-0.53153,-0.170103\C,0,-1.077358,1.
 625107,0.281634\H,0,-0.245789,2.288568,0.035695\H,0,-1.139495,1.523217

 Normal termination of Gaussian 16 at Tue Apr  8 23:52:46 2025.
