 Gaussian 16, Revision C.01,

 ----------------------------------------------------------------------
 #t hf aug-cc-pvdz symm=none int=(grid=ultrafine) guess=(read,tcheck) s
 table=(opt,rrhf)
 ----------------------------------------------------------------------
 -----
 title
 -----
 Symbolic Z-matrix:
 Charge =  0 Multiplicity = 1

 SCF Done:  E(RHF) =  -1261.80295411     A.U. after   16 cycles
 Normal termination of Gaussian 16 at Wed Apr  9 00:25:21 2025.
 Gaussian 16:  ES64L-G16RevC.01  3-Jul-2019

 ----------------------------------------------------------------------
 #t hf aug-cc-pvdz iop(5/13=1,5/36=2,99/5=2) pseudo=read geom=check gue
 ss=(read,tcheck) scf=(maxcycle=1)
 ----------------------------------------------------------------------
 -----
 title
 -----
 Structure from the checkpoint file:  "BDE49_nonexpt_2516_mol1.chk"
 Charge =  0 Multiplicity = 1

                         Standard orientation:
 ---------------------------------------------------------------------
 Center     Atomic      Atomic             Coordinates (Angstroms)
 Number     Number       Type             X           Y           Z
 ---------------------------------------------------------------------
      1          6           0       -2.130090   -0.501184    1.411841
      2          6           0       -0.903830   -1.130709    1.271943
      3          6           0       -2.855365   -0.105425    0.280897
      4          6           0       -2.334062   -0.352914   -0.991498
      5          6           0       -1.097874   -0.986409   -1.122154
      6          6           0       -0.368687   -1.376547   -0.000064
      7          1           0       -0.352747   -1.439129    2.151532
      8          1           0       -2.553243   -0.307018    2.389997
      9          8           0       -4.049534    0.504005    0.526054
     10          1           0       -2.874174   -0.064233   -1.883096
     11          1           0       -0.700353   -1.180175   -2.110673
     12         16           0        1.186845   -2.260420   -0.182255
     13         14           0        2.655483   -0.651131   -0.171733
     14          6           0        2.682719    0.299539    1.413477
     15          6           0        2.459353    0.522190   -1.586887
     16          6           0        1.843099    1.726983   -1.593098
     17          6           0        2.086836    1.483235    1.687519
     18          6           0        1.327380    2.373414    0.834813
     19          6           0        1.227273    2.473945   -0.516474
     20          1           0        3.214864   -0.165852    2.242569
     21          1           0        2.164769    1.847611    2.711757
     22          1           0        2.858896    0.189692   -2.544479
     23          1           0        1.774411    2.239187   -2.552798
     24          1           0        0.784324    3.135964    1.387308
     25          1           0        0.618206    3.304323   -0.864786
     26          6           0       -4.840779    0.914285   -0.579913
     27          1           0       -4.319941    1.657979   -1.193583
     28          1           0       -5.736190    1.364028   -0.154066
     29          1           0       -5.127429    0.062846   -1.207208
     30          1           0        3.902758   -1.437125   -0.322971
 ---------------------------------------------------------------------

 SCF Done:  E(RHF) =  -1262.01566270     A.U. after    2 cycles

 The electronic state is 1-A.
 Alpha  occ. eigenvalues --  -93.51550 -69.08129 -20.60284 -11.31525 -11.30040
 Alpha  occ. eigenvalues --  -11.26662 -11.26453 -11.26419 -11.25887 -11.25748
 Alpha  occ. eigenvalues --  -11.25303 -11.25151 -11.24328 -11.23887 -11.23561
 Alpha  occ. eigenvalues --  -11.23540  -8.81394  -6.83189  -6.15589  -6.15343
 Alpha  occ. eigenvalues --   -6.15119  -3.93977  -3.93968  -3.93933  -1.37238
 Alpha  occ. eigenvalues --   -1.14597  -1.10607  -1.04457  -1.03671  -1.01755
 Alpha  occ. eigenvalues --   -0.98829  -0.96065  -0.90065  -0.87048  -0.84015
 Alpha  occ. eigenvalues --   -0.80920  -0.79073  -0.72949  -0.69607  -0.68460
 Alpha  occ. eigenvalues --   -0.67914  -0.67330  -0.66876  -0.63476  -0.62849
 Alpha  occ. eigenvalues --   -0.61563  -0.59676  -0.59036  -0.58239  -0.55393
 Alpha  occ. eigenvalues --   -0.53856  -0.53325  -0.52308  -0.50452  -0.49249
 Alpha  occ. eigenvalues --   -0.49066  -0.46889  -0.45907  -0.45630  -0.42344
 Alpha  occ. eigenvalues --   -0.39261  -0.35240  -0.34507  -0.31871  -0.30312
 Alpha virt. eigenvalues --    0.02732   0.03564   0.03692   0.04258   0.04974
 Alpha virt. eigenvalues --    0.05061   0.05219   0.05558   0.05814   0.06444
 Alpha virt. eigenvalues --    0.06747   0.07021   0.07588   0.07866   0.08254

 Mulliken charges:
               1
     1  C    0.850818
     2  C    0.659187
     3  C    0.180054
     4  C    0.602375
     5  C    0.433334
     6  C    0.132316
     7  H   -0.626058
     8  H   -0.649544
     9  O   -0.679709
    10  H   -0.769543
    11  H   -0.611952
    12  S   -0.378034
    13  Si   1.297395
    14  C    0.192189
    15  C    0.178917
    16  C    0.648780
    17  C    0.636763
    18  C    0.453070
    19  C    0.449803
    20  H   -0.594644
    21  H   -0.505820
    22  H   -0.597452
    23  H   -0.503112
    24  H   -0.560656
    25  H   -0.569580
    26  C    0.880379
    27  H   -0.104728
    28  H   -0.318086
    29  H   -0.088389
    30  H   -0.038072
 Sum of Mulliken charges =  -0.00000

 Dipole moment (field-independent basis, Debye):
    X=             -1.4777    Y=              2.9941    Z=             -1.0282  Tot=              3.4936

 Test job not archived.
 1\1\GINC-SE184\SP\RHF\Aug-CC-pVDZ\C13H14O1S1Si1\OHZDE\09-Apr-2025\0\\#
 t hf aug-cc-pvdz iop(5/13=1,5/36=2,99/5=2) pseudo=read geom=check gues
 s=(read,tcheck) scf=(maxcycle=1)\\title\\0,1\C,0,-2.13009,-0.501184,1.
 411841\C,0,-0.90383,-1.130709,1.271943\C,0,-2.855365,-0.105425,0.28089
 7\C,0,-2.334062,-0.352914,-0.991498\C,0,-1.097874,-0.986409,-1.122154\
 C,0,-0.368687,-1.376547,-0.000064\H,0,-0.352747,-1.439129,2.151532\H,0
 ,-2.553243,-0.307018,2.389997\O,0,-4.049534,0.504005,0.526054\H,0,-2.8
 74174,-0.064233,-1.883096\H,0,-0.700353,-1.180175,-2.110673\S,0,1.1868

 Normal termination of Gaussian 16 at Wed Apr  9 00:26:02 2025.
