 Gaussian 16, Revision C.01,

 ----------------------------------------------------------------------
 #t hf aug-cc-pvdz symm=none int=(grid=ultrafine) guess=(read,tcheck) s
 table=(opt,rrhf)
 ----------------------------------------------------------------------
 -----
 title
 -----
 Symbolic Z-matrix:
 Charge =  0 Multiplicity = 1

 SCF Done:  E(RHF) =  -591.596028795     A.U. after   14 cycles
 Normal termination of Gaussian 16 at Wed Apr  9 00:18:56 2025.
 Gaussian 16:  ES64L-G16RevC.01  3-Jul-2019

 ----------------------------------------------------------------------
 #t hf aug-cc-pvdz iop(5/13=1,5/36=2,99/5=2) pseudo=read geom=check gue
 ss=(read,tcheck) scf=(maxcycle=1)
 ----------------------------------------------------------------------
 -----
 title
 -----
 Structure from the checkpoint file:  "BDE49_nonexpt_2620_mol1.chk"
 Charge =  0 Multiplicity = 1

                         Standard orientation:
 ---------------------------------------------------------------------
 Center     Atomic      Atomic             Coordinates (Angstroms)
 Number     Number       Type             X           Y           Z
 ---------------------------------------------------------------------
      1          9           0       -1.498952    0.885073    0.118271
      2          7           0        0.819464   -0.387004    0.423152
      3         16           0       -0.663115   -0.584879   -0.192660
      4          6           0        1.851492    0.443524   -0.207621
      5          1           0        0.912457   -0.493239    1.426882
      6          1           0        1.757344    0.348198   -1.288910
      7          1           0        2.837965    0.087477    0.098529
      8          1           0        1.747444    1.497863    0.065281
 ---------------------------------------------------------------------

 SCF Done:  E(RHF) =  -591.690520300     A.U. after    2 cycles

 The electronic state is 1-A.
 Alpha  occ. eigenvalues --  -93.63767 -26.09323 -15.67988 -11.28759  -8.92271
 Alpha  occ. eigenvalues --   -6.26459  -6.26125  -6.25631  -1.59968  -1.22429
 Alpha  occ. eigenvalues --   -0.98585  -0.87636  -0.73126  -0.69744  -0.69426
 Alpha  occ. eigenvalues --   -0.65904  -0.62138  -0.57930  -0.52714  -0.43723
 Alpha  occ. eigenvalues --   -0.37855
 Alpha virt. eigenvalues --    0.03026   0.04489   0.05496   0.06135   0.08901
 Alpha virt. eigenvalues --    0.09108   0.11038   0.12982   0.15176   0.15932
 Alpha virt. eigenvalues --    0.16213   0.17072   0.18846   0.20387   0.21316

 Mulliken charges:
               1
     1  F   -0.640054
     2  N   -0.661203
     3  S    0.955440
     4  C    0.735648
     5  H   -0.046120
     6  H   -0.152451
     7  H   -0.132007
     8  H   -0.059252
 Sum of Mulliken charges =  -0.00000

 Dipole moment (field-independent basis, Debye):
    X=              3.4858    Y=             -1.0284    Z=              0.6031  Tot=              3.6840

 Test job not archived.
 1\1\GINC-SE162\SP\RHF\Aug-CC-pVDZ\C1H4F1N1S1\OHZDE\09-Apr-2025\0\\#t h
 f aug-cc-pvdz iop(5/13=1,5/36=2,99/5=2) pseudo=read geom=check guess=(
 read,tcheck) scf=(maxcycle=1)\\title\\0,1\F,0,-1.498952,0.885073,0.118
 271\N,0,0.819464,-0.387004,0.423152\S,0,-0.663115,-0.584879,-0.19266\C
 ,0,1.851492,0.443524,-0.207621\H,0,0.912457,-0.493239,1.426882\H,0,1.7
 57344,0.348198,-1.28891\H,0,2.837965,0.087477,0.098529\H,0,1.747444,1.
 497863,0.065281\\Version=ES64L-G16RevC.01\State=1-A\HF=-591.6905203\RM
 SD=3.742e-03\Dipole=1.3714115,-0.4046164,0.2372671\Quadrupole=-0.01007

 Normal termination of Gaussian 16 at Wed Apr  9 00:18:58 2025.
