 Gaussian 16, Revision C.01,

 ----------------------------------------------------------------------
 #t hf aug-cc-pvdz symm=none int=(grid=ultrafine) guess=(read,tcheck) s
 table=opt
 ----------------------------------------------------------------------
 -----
 title
 -----
 Symbolic Z-matrix:
 Charge =  0 Multiplicity = 2

 SCF Done:  E(UHF) =  -502.251500184     A.U. after   19 cycles
 Normal termination of Gaussian 16 at Tue Apr  8 23:49:23 2025.
 Gaussian 16:  ES64L-G16RevC.01  3-Jul-2019

 ----------------------------------------------------------------------
 #t hf aug-cc-pvdz iop(5/13=1,5/36=2,99/5=2) pseudo=read geom=check gue
 ss=(read,tcheck) scf=(maxcycle=1)
 ----------------------------------------------------------------------
 -----
 title
 -----
 Structure from the checkpoint file:  "BDE49_nonexpt_1876_mol2.chk"
 Charge =  0 Multiplicity = 2

                         Standard orientation:
 ---------------------------------------------------------------------
 Center     Atomic      Atomic             Coordinates (Angstroms)
 Number     Number       Type             X           Y           Z
 ---------------------------------------------------------------------
      1         14           0        1.360028   -0.011122   -0.084370
      2          6           0       -0.529388    0.145153    0.013776
      3          8           0       -1.181643    1.134247    0.022991
      4          1           0        1.991404    1.246237    0.360477
      5          1           0        1.861716   -1.223144    0.593441
      6          9           0       -1.140449   -1.090253   -0.004369
 ---------------------------------------------------------------------

 SCF Done:  E(UHF) =  -502.344562962     A.U. after    2 cycles

 The electronic state is 2-A.
 Alpha  occ. eigenvalues --  -69.11866 -26.14996 -20.61743 -11.43097  -6.87299
 Alpha  occ. eigenvalues --   -3.98670  -3.97795  -3.97719  -1.68757  -1.41640
 Alpha  occ. eigenvalues --   -0.91831  -0.81489  -0.76262  -0.75435  -0.70704
 Alpha  occ. eigenvalues --   -0.61858  -0.59583  -0.52836  -0.49653  -0.36599
 Alpha virt. eigenvalues --    0.03488   0.05004   0.05504   0.05807   0.07898
 Alpha virt. eigenvalues --    0.08253   0.10177   0.12603   0.12941   0.13121
 Alpha virt. eigenvalues --    0.15242   0.16269   0.17347   0.20242   0.22602

  Beta  occ. eigenvalues --  -69.11269 -26.15042 -20.61131 -11.43369  -6.86413
  Beta  occ. eigenvalues --   -3.97361  -3.97290  -3.96399  -1.68898  -1.40392
  Beta  occ. eigenvalues --   -0.91464  -0.80437  -0.76473  -0.74695  -0.68406
  Beta  occ. eigenvalues --   -0.60931  -0.56011  -0.52173  -0.48989
  Beta virt. eigenvalues --   -0.00103   0.03790   0.05248   0.05618   0.06956
  Beta virt. eigenvalues --    0.08595   0.09605   0.11682   0.12748   0.13596
  Beta virt. eigenvalues --    0.15225   0.16159   0.18709   0.19072   0.20917

 Mulliken charges and spin densities:
               1          2
     1  Si   0.480587   0.991533
     2  C    0.358748  -0.116939
     3  O   -0.363092   0.140594
     4  H   -0.037311  -0.001717
     5  H   -0.051004  -0.008417
     6  F   -0.387928  -0.005054
 Sum of Mulliken charges =  -0.00000   1.00000

 Dipole moment (field-independent basis, Debye):
    X=              3.4131    Y=             -0.5077    Z=              0.0029  Tot=              3.4506
                          Isotropic Fermi Contact Couplings
        Atom                 a.u.       MegaHertz       Gauss      10(-4) cm-1
     1  Si(29)             0.54461    -484.00626    -172.70547    -161.44711
     2  C(13)             -0.02778     -31.23276     -11.14462     -10.41813
     3  O(17)              0.05024     -30.45323     -10.86647     -10.15810
     4  H(1)              -0.00105      -4.67658      -1.66872      -1.55994
     5  H(1)              -0.00220      -9.83813      -3.51049      -3.28165
     6  F(19)             -0.00952     -40.06534     -14.29631     -13.36436
 --------------------------------------------------------
       Center         ----  Spin Dipole Couplings  ----

 1\1\GINC-SE424\SP\UHF\Aug-CC-pVDZ\C1H2F1O1Si1(2)\OHZDE\08-Apr-2025\0\\
 #t hf aug-cc-pvdz iop(5/13=1,5/36=2,99/5=2) pseudo=read geom=check gue
 ss=(read,tcheck) scf=(maxcycle=1)\\title\\0,2\Si,0,1.360028,-0.011122,
 -0.08437\C,0,-0.529388,0.145153,0.013776\O,0,-1.181643,1.134247,0.0229
 91\H,0,1.991404,1.246237,0.360477\H,0,1.861716,-1.223144,0.593441\F,0,
 -1.140449,-1.090253,-0.004369\\Version=ES64L-G16RevC.01\State=2-A\HF=-
 502.344563\S2=0.768658\S2-1=0.\S2A=0.750155\RMSD=5.414e-03\Dipole=1.34
 28152,-0.1997287,0.0011412\Quadrupole=0.0197515,-1.7575534,1.7378019,0

 Normal termination of Gaussian 16 at Tue Apr  8 23:49:25 2025.
