 Gaussian 16, Revision C.01,

 ----------------------------------------------------------------------
 #t hf aug-cc-pvdz symm=none int=(grid=ultrafine) guess=(read,tcheck) s
 table=(opt,rrhf)
 ----------------------------------------------------------------------
 -----
 title
 -----
 Symbolic Z-matrix:
 Charge =  0 Multiplicity = 1

 SCF Done:  E(RHF) =  -770.047141144     A.U. after   13 cycles
 Normal termination of Gaussian 16 at Wed Apr  9 00:09:44 2025.
 Gaussian 16:  ES64L-G16RevC.01  3-Jul-2019

 ----------------------------------------------------------------------
 #t hf aug-cc-pvdz iop(5/13=1,5/36=2,99/5=2) pseudo=read geom=check gue
 ss=(read,tcheck) scf=(maxcycle=1)
 ----------------------------------------------------------------------
 -----
 title
 -----
 Structure from the checkpoint file:  "BDE49_nonexpt_2365_mol1.chk"
 Charge =  0 Multiplicity = 1

                         Standard orientation:
 ---------------------------------------------------------------------
 Center     Atomic      Atomic             Coordinates (Angstroms)
 Number     Number       Type             X           Y           Z
 ---------------------------------------------------------------------
      1         14           0        0.418179    0.776449    0.121232
      2         14           0        2.443186   -0.426133    0.013870
      3          8           0       -0.728807   -0.364266   -0.354173
      4          1           0        0.419162    1.939007   -0.796929
      5          1           0        0.133949    1.262017    1.493433
      6          1           0        3.545850    0.474249    0.433474
      7          1           0        2.708298   -0.892583   -1.366835
      8          1           0        2.410817   -1.593212    0.926264
      9          8           0       -2.038458    0.312525   -0.363144
     10          6           0       -2.933381   -0.563948    0.298268
     11          1           0       -3.901341   -0.060742    0.233790
     12          1           0       -2.656373   -0.706108    1.347813
     13          1           0       -2.981062   -1.529424   -0.213514
 ---------------------------------------------------------------------

 SCF Done:  E(RHF) =  -770.158835754     A.U. after    2 cycles

 The electronic state is 1-A.
 Alpha  occ. eigenvalues --  -69.09646 -69.06298 -20.64706 -20.62173 -11.29625
 Alpha  occ. eigenvalues --   -6.84538  -6.81740  -3.95424  -3.95269  -3.95248
 Alpha  occ. eigenvalues --   -3.92502  -3.92496  -3.92470  -1.41056  -1.19699
 Alpha  occ. eigenvalues --   -0.92123  -0.75349  -0.70321  -0.68191  -0.66915
 Alpha  occ. eigenvalues --   -0.63086  -0.56939  -0.54976  -0.52802  -0.49228
 Alpha  occ. eigenvalues --   -0.48520  -0.47667  -0.45566  -0.40174
 Alpha virt. eigenvalues --    0.03514   0.04242   0.04957   0.05772   0.06064
 Alpha virt. eigenvalues --    0.06929   0.07358   0.07519   0.08763   0.09075
 Alpha virt. eigenvalues --    0.09325   0.09730   0.10436   0.11107   0.12228

 Mulliken charges:
               1
     1  Si   0.818999
     2  Si  -0.266645
     3  O   -0.617439
     4  H    0.000463
     5  H   -0.018707
     6  H    0.036105
     7  H    0.018319
     8  H    0.015101
     9  O   -0.437625
    10  C    0.839933
    11  H   -0.176504
    12  H   -0.112741
    13  H   -0.099259
 Sum of Mulliken charges =  -0.00000

 Dipole moment (field-independent basis, Debye):
    X=             -0.6089    Y=             -0.1997    Z=              1.2031  Tot=              1.3631

 Test job not archived.
 1\1\GINC-SE329\SP\RHF\Aug-CC-pVDZ\C1H8O2Si2\OHZDE\09-Apr-2025\0\\#t hf
  aug-cc-pvdz iop(5/13=1,5/36=2,99/5=2) pseudo=read geom=check guess=(r
 ead,tcheck) scf=(maxcycle=1)\\title\\0,1\Si,0,0.418179,0.776449,0.1212
 32\Si,0,2.443186,-0.426133,0.01387\O,0,-0.728807,-0.364266,-0.354173\H
 ,0,0.419162,1.939007,-0.796929\H,0,0.133949,1.262017,1.493433\H,0,3.54
 585,0.474249,0.433474\H,0,2.708298,-0.892583,-1.366835\H,0,2.410817,-1
 .593212,0.926264\O,0,-2.038458,0.312525,-0.363144\C,0,-2.933381,-0.563
 948,0.298268\H,0,-3.901341,-0.060742,0.23379\H,0,-2.656373,-0.706108,1

 Normal termination of Gaussian 16 at Wed Apr  9 00:09:47 2025.
