 Gaussian 16, Revision C.01,

 ----------------------------------------------------------------------
 #t hf aug-cc-pvdz symm=none int=(grid=ultrafine) guess=(read,tcheck) s
 table=(opt,rrhf)
 ----------------------------------------------------------------------
 -----
 title
 -----
 Symbolic Z-matrix:
 Charge =  0 Multiplicity = 1

 SCF Done:  E(RHF) =  -411.704584253     A.U. after   11 cycles
 Normal termination of Gaussian 16 at Tue Apr  8 22:39:24 2025.
 Gaussian 16:  ES64L-G16RevC.01  3-Jul-2019

 ----------------------------------------------------------------------
 #t hf aug-cc-pvdz iop(5/13=1,5/36=2,99/5=2) pseudo=read geom=check gue
 ss=(read,tcheck) scf=(maxcycle=1)
 ----------------------------------------------------------------------
 -----
 title
 -----
 Structure from the checkpoint file:  "BDE49_expt_1325_mol1.chk"
 Charge =  0 Multiplicity = 1

                         Standard orientation:
 ---------------------------------------------------------------------
 Center     Atomic      Atomic             Coordinates (Angstroms)
 Number     Number       Type             X           Y           Z
 ---------------------------------------------------------------------
      1          6           0        0.007286    0.023707    0.000000
      2          8           0        1.280118    0.460371    0.000014
      3          9           0       -0.274463   -0.734720    1.082021
      4          9           0       -0.274427   -0.734755   -1.082007
      5          9           0       -0.801741    1.078077   -0.000031
      6          1           0        1.871029   -0.302635    0.000040
 ---------------------------------------------------------------------

 SCF Done:  E(RHF) =  -411.854898757     A.U. after    2 cycles

 The electronic state is 1-A.
 Alpha  occ. eigenvalues --  -26.18126 -26.17747 -26.17736 -20.65511 -11.59142
 Alpha  occ. eigenvalues --   -1.78138  -1.70966  -1.70255  -1.43100  -1.03172
 Alpha  occ. eigenvalues --   -0.91776  -0.90366  -0.88582  -0.79455  -0.78820
 Alpha  occ. eigenvalues --   -0.74924  -0.73964  -0.73443  -0.72992  -0.65897
 Alpha  occ. eigenvalues --   -0.60414
 Alpha virt. eigenvalues --    0.03041   0.09145   0.09246   0.09256   0.13049
 Alpha virt. eigenvalues --    0.17576   0.19401   0.21240   0.23144   0.23962
 Alpha virt. eigenvalues --    0.30219   0.30586   0.31001   0.33012   0.33454

 Mulliken charges:
               1
     1  C    1.069732
     2  O   -0.435299
     3  F   -0.287464
     4  F   -0.287465
     5  F   -0.229302
     6  H    0.169798
 Sum of Mulliken charges =  -0.00000

 Dipole moment (field-independent basis, Debye):
    X=              2.0385    Y=             -1.0050    Z=              0.0001  Tot=              2.2728

 Test job not archived.
 1\1\GINC-SE097\SP\RHF\Aug-CC-pVDZ\C1H1F3O1\OHZDE\08-Apr-2025\0\\#t hf
 aug-cc-pvdz iop(5/13=1,5/36=2,99/5=2) pseudo=read geom=check guess=(re
 ad,tcheck) scf=(maxcycle=1)\\title\\0,1\C,0,0.007286,0.023707,0.\O,0,1
 .280117,0.460375,0.000014\F,0,-0.274461,-0.734721,1.082021\F,0,-0.2744
 25,-0.734756,-1.082007\F,0,-0.801744,1.078075,-0.000031\H,0,1.87103,-0
 .30263,0.00004\\Version=ES64L-G16RevC.01\State=1-A\HF=-411.8548988\RMS
 D=6.334e-03\Dipole=0.8020096,-0.395411,0.0000247\Quadrupole=2.5900485,
 -1.2028119,-1.3872366,-1.8428073,0.0001068,-0.0000393\PG=C01 [X(C1H1F3

 Normal termination of Gaussian 16 at Tue Apr  8 22:39:25 2025.
