 Gaussian 16, Revision C.01,

 ----------------------------------------------------------------------
 #t hf aug-cc-pvdz symm=none int=(grid=ultrafine) guess=(read,tcheck) s
 table=(opt,rrhf)
 ----------------------------------------------------------------------
 -----
 title
 -----
 Symbolic Z-matrix:
 Charge =  0 Multiplicity = 1

 SCF Done:  E(RHF) =  -1054.64582625     A.U. after   15 cycles
 Normal termination of Gaussian 16 at Wed Apr  9 00:02:26 2025.
 Gaussian 16:  ES64L-G16RevC.01  3-Jul-2019

 ----------------------------------------------------------------------
 #t hf aug-cc-pvdz iop(5/13=1,5/36=2,99/5=2) pseudo=read geom=check gue
 ss=(read,tcheck) scf=(maxcycle=1)
 ----------------------------------------------------------------------
 -----
 title
 -----
 Structure from the checkpoint file:  "BDE49_nonexpt_2186_mol1.chk"
 Charge =  0 Multiplicity = 1

                         Standard orientation:
 ---------------------------------------------------------------------
 Center     Atomic      Atomic             Coordinates (Angstroms)
 Number     Number       Type             X           Y           Z
 ---------------------------------------------------------------------
      1          6           0        1.996229    1.136633    0.000000
      2          6           0        1.494147   -0.158177    0.000001
      3          6           0        0.126970   -0.418094    0.000000
      4          6           0        1.089345    2.196344   -0.000001
      5          6           0       -0.280853    1.969177   -0.000002
      6          6           0       -0.763640    0.658065   -0.000001
      7          1           0        3.063848    1.309065    0.000001
      8         17           0        2.609441   -1.516150    0.000003
      9          1           0       -0.226643   -1.441227    0.000001
     10          1           0        1.462227    3.214014   -0.000002
     11          1           0       -0.992125    2.785056   -0.000003
     12          8           0       -2.116957    0.487241   -0.000002
     13         14           0       -3.050800   -0.891388   -0.000001
     14          1           0       -4.439618   -0.402697   -0.000002
     15          1           0       -2.777264   -1.705920    1.205063
     16          1           0       -2.777263   -1.705923   -1.205062
 ---------------------------------------------------------------------

 SCF Done:  E(RHF) =  -1054.78773064     A.U. after    2 cycles

 The electronic state is 1-A.
 Alpha  occ. eigenvalues -- -103.66945 -69.11117 -20.59833 -11.33483 -11.32255
 Alpha  occ. eigenvalues --  -11.26651 -11.26114 -11.25560 -11.25148 -10.70214
 Alpha  occ. eigenvalues --   -8.35950  -8.35645  -8.35627  -6.85918  -3.96833
 Alpha  occ. eigenvalues --   -3.96680  -3.96652  -1.35766  -1.20051  -1.13249
 Alpha  occ. eigenvalues --   -1.02627  -1.00763  -0.86897  -0.83605  -0.76442
 Alpha  occ. eigenvalues --   -0.71030  -0.68386  -0.65432  -0.63138  -0.62851
 Alpha  occ. eigenvalues --   -0.60079  -0.57744  -0.54574  -0.54562  -0.51783
 Alpha  occ. eigenvalues --   -0.49162  -0.48478  -0.47114  -0.46665  -0.35539
 Alpha  occ. eigenvalues --   -0.33492
 Alpha virt. eigenvalues --    0.03135   0.03754   0.04685   0.05449   0.05879
 Alpha virt. eigenvalues --    0.05947   0.07258   0.08402   0.08628   0.09794
 Alpha virt. eigenvalues --    0.09802   0.10496   0.11396   0.12423   0.12500

 Mulliken charges:
               1
     1  C    0.555406
     2  C   -0.224625
     3  C    0.645869
     4  C    0.901829
     5  C    0.331944
     6  C    0.432674
     7  H   -0.423893
     8  Cl  -0.383454
     9  H   -0.538166
    10  H   -0.419636
    11  H   -0.511970
    12  O   -0.881999
    13  Si   0.284209
    14  H    0.043950
    15  H    0.093931
    16  H    0.093931
 Sum of Mulliken charges =  -0.00000

 Dipole moment (field-independent basis, Debye):
    X=             -1.1335    Y=              0.8446    Z=             -0.0000  Tot=              1.4136

 Test job not archived.
 1\1\GINC-SE342\SP\RHF\Aug-CC-pVDZ\C6H7Cl1O1Si1\OHZDE\09-Apr-2025\0\\#t
  hf aug-cc-pvdz iop(5/13=1,5/36=2,99/5=2) pseudo=read geom=check guess
 =(read,tcheck) scf=(maxcycle=1)\\title\\0,1\C,0,1.996229,1.136633,0.\C
 ,0,1.494147,-0.158177,0.000001\C,0,0.12697,-0.418094,0.\C,0,1.089345,2
 .196344,-0.000001\C,0,-0.280853,1.969177,-0.000002\C,0,-0.76364,0.6580
 65,-0.000001\H,0,3.063848,1.309065,0.000001\Cl,0,2.609441,-1.51615,0.0
 00003\H,0,-0.226643,-1.441227,0.000001\H,0,1.462227,3.214014,-0.000002
 \H,0,-0.992125,2.785056,-0.000003\O,0,-2.116957,0.487241,-0.000002\Si,

 Normal termination of Gaussian 16 at Wed Apr  9 00:02:34 2025.
