 Gaussian 16, Revision C.01,

 ----------------------------------------------------------------------
 #t hf aug-cc-pvdz symm=none int=(grid=ultrafine) guess=(read,tcheck) s
 table=(opt,rrhf)
 ----------------------------------------------------------------------
 -----
 title
 -----
 Symbolic Z-matrix:
 Charge =  0 Multiplicity = 1

 SCF Done:  E(RHF) =  -1479.65928317     A.U. after   15 cycles
 Normal termination of Gaussian 16 at Wed Apr  9 00:15:36 2025.
 Gaussian 16:  ES64L-G16RevC.01  3-Jul-2019

 ----------------------------------------------------------------------
 #t hf aug-cc-pvdz iop(5/13=1,5/36=2,99/5=2) pseudo=read geom=check gue
 ss=(read,tcheck) scf=(maxcycle=1)
 ----------------------------------------------------------------------
 -----
 title
 -----
 Structure from the checkpoint file:  "BDE49_nonexpt_2550_mol1.chk"
 Charge =  0 Multiplicity = 1

                         Standard orientation:
 ---------------------------------------------------------------------
 Center     Atomic      Atomic             Coordinates (Angstroms)
 Number     Number       Type             X           Y           Z
 ---------------------------------------------------------------------
      1         17           0        2.202398   -0.407011   -0.019569
      2         16           0        0.764431    1.067734    0.083242
      3         16           0       -1.025850   -0.060516   -0.128559
      4          8           0       -2.012131    0.973386   -0.065129
      5          8           0       -0.916739   -1.013319   -1.193933
      6          8           0       -1.129510   -0.886823    1.254065
      7          1           0       -0.791020   -1.782251    1.097723
 ---------------------------------------------------------------------

 SCF Done:  E(RHF) =  -1479.85470901     A.U. after    2 cycles

 The electronic state is 1-A.
 Alpha  occ. eigenvalues -- -103.72115 -93.87679 -93.65335 -20.67934 -20.61732
 Alpha  occ. eigenvalues --  -20.61465 -10.75256  -9.13628  -8.94711  -8.40991
 Alpha  occ. eigenvalues --   -8.40625  -8.40584  -6.48268  -6.48160  -6.47969
 Alpha  occ. eigenvalues --   -6.28704  -6.28476  -6.28013  -1.51249  -1.39280
 Alpha  occ. eigenvalues --   -1.37169  -1.21059  -1.01260  -0.89856  -0.79107
 Alpha  occ. eigenvalues --   -0.74612  -0.73899  -0.68467  -0.62854  -0.59760
 Alpha  occ. eigenvalues --   -0.58607  -0.56056  -0.55755  -0.55286  -0.54069
 Alpha  occ. eigenvalues --   -0.47762  -0.42283
 Alpha virt. eigenvalues --    0.01625   0.03084   0.05238   0.08165   0.09752
 Alpha virt. eigenvalues --    0.10331   0.11322   0.12157   0.12628   0.13775
 Alpha virt. eigenvalues --    0.14323   0.15615   0.16944   0.18381   0.18646

 Mulliken charges:
               1
     1  Cl  -0.257211
     2  S    0.369444
     3  S    2.106592
     4  O   -0.832254
     5  O   -0.880301
     6  O   -0.680873
     7  H    0.174604
 Sum of Mulliken charges =  -0.00000

 Dipole moment (field-independent basis, Debye):
    X=              2.2949    Y=             -1.0486    Z=              1.5707  Tot=              2.9721

 Test job not archived.
 1\1\GINC-SE424\SP\RHF\Aug-CC-pVDZ\Cl1H1O3S2\OHZDE\09-Apr-2025\0\\#t hf
  aug-cc-pvdz iop(5/13=1,5/36=2,99/5=2) pseudo=read geom=check guess=(r
 ead,tcheck) scf=(maxcycle=1)\\title\\0,1\Cl,0,2.202398,-0.407011,-0.01
 9569\S,0,0.764431,1.067734,0.083242\S,0,-1.02585,-0.060516,-0.128559\O
 ,0,-2.012131,0.973386,-0.065129\O,0,-0.916739,-1.013319,-1.193933\O,0,
 -1.12951,-0.886823,1.254065\H,0,-0.79102,-1.782251,1.097723\\Version=E
 S64L-G16RevC.01\State=1-A\HF=-1479.854709\RMSD=4.458e-03\Dipole=0.9028
 964,-0.4125488,0.617959\Quadrupole=-2.214035,4.1330627,-1.9190276,2.34

 Normal termination of Gaussian 16 at Wed Apr  9 00:15:39 2025.
