 Gaussian 16, Revision C.01,

 ----------------------------------------------------------------------
 #t hf aug-cc-pvdz symm=none int=(grid=ultrafine) guess=(read,tcheck) s
 table=(opt,rrhf)
 ----------------------------------------------------------------------
 -----
 title
 -----
 Symbolic Z-matrix:
 Charge =  0 Multiplicity = 1

 SCF Done:  E(RHF) =  -1759.93318101     A.U. after   12 cycles
 Normal termination of Gaussian 16 at Tue Apr  8 23:44:55 2025.
 Gaussian 16:  ES64L-G16RevC.01  3-Jul-2019

 ----------------------------------------------------------------------
 #t hf aug-cc-pvdz iop(5/13=1,5/36=2,99/5=2) pseudo=read geom=check gue
 ss=(read,tcheck) scf=(maxcycle=1)
 ----------------------------------------------------------------------
 -----
 title
 -----
 Structure from the checkpoint file:  "BDE49_nonexpt_1766_mol1.chk"
 Charge =  0 Multiplicity = 1

                         Standard orientation:
 ---------------------------------------------------------------------
 Center     Atomic      Atomic             Coordinates (Angstroms)
 Number     Number       Type             X           Y           Z
 ---------------------------------------------------------------------
      1          6           0       -1.840947    0.000031    0.000490
      2         14           0       -0.007912    0.000001   -0.000045
      3          7           0       -2.996110    0.000045    0.000847
      4         17           0        0.629668   -1.672157   -0.971578
      5         17           0        0.629727    1.677394   -0.962473
      6         17           0        0.630560   -0.005267    1.933567
 ---------------------------------------------------------------------

 SCF Done:  E(RHF) =  -1760.04649461     A.U. after    2 cycles

 The electronic state is 1-A.
 Alpha  occ. eigenvalues -- -103.70360-103.70360-103.70359 -69.25806 -15.68812
 Alpha  occ. eigenvalues --  -11.30099 -10.73844 -10.73826 -10.73825  -8.39533
 Alpha  occ. eigenvalues --   -8.39525  -8.39525  -8.39274  -8.39274  -8.39272
 Alpha  occ. eigenvalues --   -8.39269  -8.39269  -8.39267  -6.99515  -4.10391
 Alpha  occ. eigenvalues --   -4.10391  -4.10349  -1.22572  -1.21074  -1.17958
 Alpha  occ. eigenvalues --   -1.17957  -0.81817  -0.67691  -0.62030  -0.62029
 Alpha  occ. eigenvalues --   -0.58595  -0.54411  -0.54410  -0.52898  -0.52323
 Alpha  occ. eigenvalues --   -0.52322  -0.50178  -0.49775  -0.49774
 Alpha virt. eigenvalues --    0.04373   0.05233   0.05233   0.05879   0.07932
 Alpha virt. eigenvalues --    0.07933   0.08819   0.11468   0.12217   0.12217
 Alpha virt. eigenvalues --    0.12479   0.12479   0.14561   0.17166   0.17166

 Mulliken charges:
               1
     1  C   -0.149455
     2  Si   1.521568
     3  N   -0.146386
     4  Cl  -0.408573
     5  Cl  -0.408573
     6  Cl  -0.408580
 Sum of Mulliken charges =  -0.00000

 Dipole moment (field-independent basis, Debye):
    X=              2.1826    Y=             -0.0000    Z=             -0.0010  Tot=              2.1826

 Test job not archived.
 1\1\GINC-SE026\SP\RHF\Aug-CC-pVDZ\C1Cl3N1Si1\OHZDE\08-Apr-2025\0\\#t h
 f aug-cc-pvdz iop(5/13=1,5/36=2,99/5=2) pseudo=read geom=check guess=(
 read,tcheck) scf=(maxcycle=1)\\title\\0,1\C,0,-1.840947,-0.000036,-0.0
 00486\Si,0,-0.007912,-0.000001,0.000045\N,0,-2.99611,-0.000053,-0.0008
 41\Cl,0,0.629666,1.673686,0.968943\Cl,0,0.629733,-1.675875,0.965111\Cl
 ,0,0.630556,0.002225,-1.933574\\Version=ES64L-G16RevC.01\State=1-A\HF=
 -1760.0464946\RMSD=3.656e-03\Dipole=0.8587014,0.0000129,0.0003816\Quad
 rupole=-5.1773976,2.588901,2.5884966,-0.0001342,-0.0021435,-0.0000006\

 Normal termination of Gaussian 16 at Tue Apr  8 23:44:57 2025.
