 Gaussian 16, Revision C.01,

 ----------------------------------------------------------------------
 #t hf aug-cc-pvdz symm=none int=(grid=ultrafine) guess=(read,tcheck) s
 table=(opt,rrhf)
 ----------------------------------------------------------------------
 -----
 title
 -----
 Symbolic Z-matrix:
 Charge =  0 Multiplicity = 1

 SCF Done:  E(RHF) =  -580.665558585     A.U. after   14 cycles
 Normal termination of Gaussian 16 at Tue Apr  8 23:54:30 2025.
 Gaussian 16:  ES64L-G16RevC.01  3-Jul-2019

 ----------------------------------------------------------------------
 #t hf aug-cc-pvdz iop(5/13=1,5/36=2,99/5=2) pseudo=read geom=check gue
 ss=(read,tcheck) scf=(maxcycle=1)
 ----------------------------------------------------------------------
 -----
 title
 -----
 Structure from the checkpoint file:  "BDE49_nonexpt_1987_mol1.chk"
 Charge =  0 Multiplicity = 1

                         Standard orientation:
 ---------------------------------------------------------------------
 Center     Atomic      Atomic             Coordinates (Angstroms)
 Number     Number       Type             X           Y           Z
 ---------------------------------------------------------------------
      1         14           0       -0.942382    0.000000   -0.000001
      2          6           0        0.024608    1.459658   -0.000001
      3          9           0       -2.540867    0.000000   -0.000001
      4          6           0        0.024608   -1.459658    0.000001
      5          6           0        1.409088    1.241945    0.000000
      6          6           0        2.054788   -0.000000    0.000001
      7          6           0        1.409088   -1.241945    0.000001
      8          1           0       -0.353532   -2.474089    0.000001
      9          1           0        3.138612   -0.000000    0.000002
     10          1           0        2.048264   -2.122469    0.000002
     11          1           0       -0.353531    2.474090   -0.000002
     12          1           0        2.048264    2.122469    0.000000
 ---------------------------------------------------------------------

 SCF Done:  E(RHF) =  -580.787835811     A.U. after    2 cycles

 The electronic state is 1-A.
 Alpha  occ. eigenvalues --  -69.11697 -26.13850 -11.27194 -11.27193 -11.23733
 Alpha  occ. eigenvalues --  -11.23729 -11.23214  -6.86949  -3.97803  -3.97652
 Alpha  occ. eigenvalues --   -3.97564  -1.66365  -1.10802  -1.01551  -0.93467
 Alpha  occ. eigenvalues --   -0.81865  -0.81339  -0.74505  -0.74489  -0.72774
 Alpha  occ. eigenvalues --   -0.68619  -0.60836  -0.58971  -0.57178  -0.52375
 Alpha  occ. eigenvalues --   -0.48579  -0.46021  -0.36439  -0.29338
 Alpha virt. eigenvalues --    0.03236   0.03994   0.04149   0.05725   0.05914
 Alpha virt. eigenvalues --    0.06257   0.07642   0.07922   0.08362   0.08906
 Alpha virt. eigenvalues --    0.10650   0.13195   0.13467   0.13510   0.13909

 Mulliken charges:
               1
     1  Si   1.515409
     2  C    0.458110
     3  F   -0.852421
     4  C    0.458113
     5  C    0.101295
     6  C    0.320197
     7  C    0.101294
     8  H   -0.398065
     9  H   -0.459649
    10  H   -0.423110
    11  H   -0.398063
    12  H   -0.423110
 Sum of Mulliken charges =  -0.00000

 Dipole moment (field-independent basis, Debye):
    X=              0.8871    Y=             -0.0000    Z=             -0.0000  Tot=              0.8871

 Test job not archived.
 1\1\GINC-SE423\SP\RHF\Aug-CC-pVDZ\C5H5F1Si1\OHZDE\08-Apr-2025\0\\#t hf
  aug-cc-pvdz iop(5/13=1,5/36=2,99/5=2) pseudo=read geom=check guess=(r
 ead,tcheck) scf=(maxcycle=1)\\title\\0,1\Si,0,-0.942382,0.,-0.000001\C
 ,0,0.024608,1.459658,-0.000001\F,0,-2.540867,0.,-0.000001\C,0,0.024608
 ,-1.459658,0.000001\C,0,1.409088,1.241945,0.\C,0,2.054788,0.,0.000001\
 C,0,1.409088,-1.241945,0.000001\H,0,-0.353532,-2.474089,0.000001\H,0,3
 .138612,0.,0.000002\H,0,2.048264,-2.122469,0.000002\H,0,-0.353531,2.47
 409,-0.000002\H,0,2.048264,2.122469,0.\\Version=ES64L-G16RevC.01\State

 Normal termination of Gaussian 16 at Tue Apr  8 23:54:35 2025.
