 Gaussian 16, Revision C.01,

 ----------------------------------------------------------------------
 #t hf aug-cc-pvdz symm=none int=(grid=ultrafine) guess=(read,tcheck) s
 table=(opt,rrhf)
 ----------------------------------------------------------------------
 -----
 title
 -----
 Symbolic Z-matrix:
 Charge =  0 Multiplicity = 1

 SCF Done:  E(RHF) =  -611.761877026     A.U. after   14 cycles
 Normal termination of Gaussian 16 at Tue Apr  8 23:15:48 2025.
 Gaussian 16:  ES64L-G16RevC.01  3-Jul-2019

 ----------------------------------------------------------------------
 #t hf aug-cc-pvdz iop(5/13=1,5/36=2,99/5=2) pseudo=read geom=check gue
 ss=(read,tcheck) scf=(maxcycle=1)
 ----------------------------------------------------------------------
 -----
 title
 -----
 Structure from the checkpoint file:  "BDE49_nonexpt_1050_mol1.chk"
 Charge =  0 Multiplicity = 1

                         Standard orientation:
 ---------------------------------------------------------------------
 Center     Atomic      Atomic             Coordinates (Angstroms)
 Number     Number       Type             X           Y           Z
 ---------------------------------------------------------------------
      1         17           0       -1.332912   -0.165675    0.000000
      2          8           0        0.000000    0.947428    0.000000
      3          6           0        1.248021    0.376347    0.000000
      4          6           0        1.610339   -0.896902    0.000000
      5          1           0        1.949617    1.206450    0.000000
      6          1           0        0.895748   -1.707709    0.000000
      7          1           0        2.663974   -1.138358    0.000000
 ---------------------------------------------------------------------

 SCF Done:  E(RHF) =  -611.830778292     A.U. after    2 cycles

 The electronic state is 1-A'.
 Alpha  occ. eigenvalues -- -103.72595 -20.67628 -11.32849 -11.24378 -10.75272
 Alpha  occ. eigenvalues --   -8.41032  -8.40610  -8.40582  -1.40222  -1.13644
 Alpha  occ. eigenvalues --   -1.02912  -0.81507  -0.71520  -0.67460  -0.66199
 Alpha  occ. eigenvalues --   -0.57931  -0.54919  -0.49003  -0.48423  -0.37763
 Alpha virt. eigenvalues --    0.03591   0.04192   0.05186   0.06142   0.10085
 Alpha virt. eigenvalues --    0.10769   0.11336   0.13007   0.14605   0.15201
 Alpha virt. eigenvalues --    0.15437   0.16997   0.17437   0.19540   0.20005

 Mulliken charges:
               1
     1  Cl   0.269531
     2  O   -0.598724
     3  C    0.559310
     4  C    0.567753
     5  H   -0.289966
     6  H   -0.261353
     7  H   -0.246551
 Sum of Mulliken charges =  -0.00000

 Dipole moment (field-independent basis, Debye):
    X=              1.0660    Y=             -0.7183    Z=              0.0000  Tot=              1.2854

 Test job not archived.
 1\1\GINC-SE253\SP\RHF\Aug-CC-pVDZ\C2H3Cl1O1\OHZDE\08-Apr-2025\0\\#t hf
  aug-cc-pvdz iop(5/13=1,5/36=2,99/5=2) pseudo=read geom=check guess=(r
 ead,tcheck) scf=(maxcycle=1)\\title\\0,1\Cl,0,-1.332912,-0.165675,0.\O
 ,0,0.,0.947428,0.\C,0,1.248021,0.376347,0.\C,0,1.610339,-0.896902,0.\H
 ,0,1.949617,1.20645,0.\H,0,0.895748,-1.707709,0.\H,0,2.663974,-1.13835
 8,0.\\Version=ES64L-G16RevC.01\State=1-A'\HF=-611.8307783\RMSD=4.869e-
 03\Dipole=0.4193859,-0.282583,0.\Quadrupole=2.3653474,0.1685642,-2.533
 9116,1.4420493,0.,0.\PG=CS [SG(C2H3Cl1O1)]\\@

 Normal termination of Gaussian 16 at Tue Apr  8 23:15:51 2025.
