 Gaussian 16, Revision C.01,

 ----------------------------------------------------------------------
 #t hf aug-cc-pvdz symm=none int=(grid=ultrafine) guess=(read,tcheck) s
 table=(opt,rrhf)
 ----------------------------------------------------------------------
 -----
 title
 -----
 Symbolic Z-matrix:
 Charge =  0 Multiplicity = 1

 SCF Done:  E(RHF) =  -978.912259743     A.U. after   11 cycles

 1\1\GINC-SE253\Stability\RHF\Aug-CC-pVDZ\H6S1Si2\OHZDE\09-Apr-2025\0\\
 #t hf aug-cc-pvdz symm=none int=(grid=ultrafine) guess=(read,tcheck) s
 table=(opt,rrhf)\\title\\0,1\Si,0,1.879524,-0.36485,0.000016\Si,0,-0.1
 3001,0.866589,0.000008\H,0,1.961185,-1.218533,1.207891\H,0,3.01935,0.5
 83655,0.000044\H,0,1.961215,-1.218499,-1.20788\S,0,-1.766887,-0.562678
 ,-0.000025\H,0,-0.208819,1.736334,-1.198421\H,0,-0.208844,1.736309,1.1
 98454\H,0,-2.747084,0.359234,-0.000031\\Version=ES64L-G16RevC.01\HF=-9
 78.9122597\RMSD=3.483e-09\Dipole=0.1347948,0.4606203,0.0000044\Quadrup

 Normal termination of Gaussian 16 at Wed Apr  9 00:11:02 2025.
 Gaussian 16:  ES64L-G16RevC.01  3-Jul-2019

 ----------------------------------------------------------------------
 #t hf aug-cc-pvdz iop(5/13=1,5/36=2,99/5=2) pseudo=read geom=check gue
 ss=(read,tcheck) scf=(maxcycle=1)
 ----------------------------------------------------------------------
 -----
 title
 -----
 Structure from the checkpoint file:  "BDE49_nonexpt_2414_mol1.chk"
 Charge =  0 Multiplicity = 1

                         Standard orientation:
 ---------------------------------------------------------------------
 Center     Atomic      Atomic             Coordinates (Angstroms)
 Number     Number       Type             X           Y           Z
 ---------------------------------------------------------------------
      1         14           0        1.879524   -0.364850    0.000016
      2         14           0       -0.130010    0.866589    0.000008
      3          1           0        1.961185   -1.218533    1.207891
      4          1           0        3.019350    0.583655    0.000044
      5          1           0        1.961215   -1.218499   -1.207880
      6         16           0       -1.766887   -0.562678   -0.000025
      7          1           0       -0.208819    1.736334   -1.198421
      8          1           0       -0.208844    1.736309    1.198454
      9          1           0       -2.747084    0.359234   -0.000031
 ---------------------------------------------------------------------

 SCF Done:  E(RHF) =  -978.972958162     A.U. after    2 cycles

 The electronic state is 1-A.
 Alpha  occ. eigenvalues --  -93.53494 -69.09316 -69.06936  -8.83399  -6.84438
 Alpha  occ. eigenvalues --   -6.82372  -6.17548  -6.17326  -6.17034  -3.95238
 Alpha  occ. eigenvalues --   -3.95138  -3.95136  -3.93129  -3.93125  -3.93107
 Alpha  occ. eigenvalues --   -0.95397  -0.73717  -0.66079  -0.55483  -0.51153
 Alpha  occ. eigenvalues --   -0.49114  -0.48315  -0.44324  -0.40615  -0.37564
 Alpha virt. eigenvalues --    0.03609   0.04069   0.05103   0.06572   0.06906
 Alpha virt. eigenvalues --    0.07235   0.07823   0.08556   0.09079   0.09565
 Alpha virt. eigenvalues --    0.10165   0.10452   0.12181   0.13586   0.13825

 Mulliken charges:
               1
     1  Si  -0.036598
     2  Si   0.323714
     3  H    0.011934
     4  H    0.023619
     5  H    0.011934
     6  S   -0.416189
     7  H    0.027295
     8  H    0.027294
     9  H    0.026997
 Sum of Mulliken charges =  -0.00000

 Dipole moment (field-independent basis, Debye):
    X=              0.3077    Y=              1.0897    Z=              0.0000  Tot=              1.1323

 Test job not archived.
 1\1\GINC-SE253\SP\RHF\Aug-CC-pVDZ\H6S1Si2\OHZDE\09-Apr-2025\0\\#t hf a
 ug-cc-pvdz iop(5/13=1,5/36=2,99/5=2) pseudo=read geom=check guess=(rea
 d,tcheck) scf=(maxcycle=1)\\title\\0,1\Si,0,1.879524,-0.36485,0.000016
 \Si,0,-0.13001,0.866589,0.000008\H,0,1.961185,-1.218533,1.207891\H,0,3
 .01935,0.583655,0.000044\H,0,1.961215,-1.218499,-1.20788\S,0,-1.766887
 ,-0.562678,-0.000025\H,0,-0.208819,1.736334,-1.198421\H,0,-0.208844,1.
 736309,1.198454\H,0,-2.747084,0.359234,-0.000031\\Version=ES64L-G16Rev
 C.01\State=1-A\HF=-978.9729582\RMSD=6.567e-03\Dipole=0.1210577,0.42870

 Normal termination of Gaussian 16 at Wed Apr  9 00:11:04 2025.
