 Gaussian 16, Revision C.01,

 ----------------------------------------------------------------------
 #t hf aug-cc-pvdz symm=none int=(grid=ultrafine) guess=(read,tcheck) s
 table=(opt,rrhf)
 ----------------------------------------------------------------------
 -----
 title
 -----
 Symbolic Z-matrix:
 Charge =  0 Multiplicity = 1

 SCF Done:  E(RHF) =  -631.750338855     A.U. after   12 cycles

 1\1\GINC-SE132\Stability\RHF\Aug-CC-pVDZ\C6H12S1\OHZDE\08-Apr-2025\0\\
 #t hf aug-cc-pvdz symm=none int=(grid=ultrafine) guess=(read,tcheck) s
 table=(opt,rrhf)\\title\\0,1\C,0,-0.002805,-0.161694,0.77841\C,0,-1.21
 2187,-1.101113,0.602243\C,0,-0.613412,1.229772,0.544104\C,0,-1.623884,
 1.030134,-0.602949\H,0,0.127175,2.003681,0.332527\H,0,-1.135263,1.5287
 3,1.461837\C,0,-2.106904,-0.442839,-0.481047\H,0,-1.129405,1.184715,-1
 .563829\H,0,-2.4474,1.745239,-0.545407\H,0,-3.160752,-0.500805,-0.1994
 61\H,0,-2.007287,-0.96026,-1.437193\H,0,-1.745955,-1.147681,1.556655\H

 Normal termination of Gaussian 16 at Tue Apr  8 22:46:21 2025.
 Gaussian 16:  ES64L-G16RevC.01  3-Jul-2019

 ----------------------------------------------------------------------
 #t hf aug-cc-pvdz iop(5/13=1,5/36=2,99/5=2) pseudo=read geom=check gue
 ss=(read,tcheck) scf=(maxcycle=1)
 ----------------------------------------------------------------------
 -----
 title
 -----
 Structure from the checkpoint file:  "BDE49_expt_1572_mol1.chk"
 Charge =  0 Multiplicity = 1

                         Standard orientation:
 ---------------------------------------------------------------------
 Center     Atomic      Atomic             Coordinates (Angstroms)
 Number     Number       Type             X           Y           Z
 ---------------------------------------------------------------------
      1          6           0       -0.002805   -0.161694    0.778410
      2          6           0       -1.212187   -1.101113    0.602243
      3          6           0       -0.613412    1.229772    0.544104
      4          6           0       -1.623884    1.030134   -0.602949
      5          1           0        0.127175    2.003681    0.332527
      6          1           0       -1.135263    1.528730    1.461837
      7          6           0       -2.106904   -0.442839   -0.481047
      8          1           0       -1.129405    1.184715   -1.563829
      9          1           0       -2.447400    1.745239   -0.545407
     10          1           0       -3.160752   -0.500805   -0.199461
     11          1           0       -2.007287   -0.960260   -1.437193
     12          1           0       -1.745955   -1.147681    1.556655
     13          1           0       -0.918166   -2.122669    0.352433
     14         16           0        1.293165   -0.624211   -0.451812
     15          1           0        0.450836   -0.260684    1.767403
     16          6           0        2.640156    0.505046    0.024084
     17          1           0        2.924402    0.354056    1.067505
     18          1           0        2.373674    1.549817   -0.141522
     19          1           0        3.491725    0.257402   -0.611022
 ---------------------------------------------------------------------

 SCF Done:  E(RHF) =  -631.842115705     A.U. after    2 cycles

 The electronic state is 1-A.
 Alpha  occ. eigenvalues --  -93.51681 -11.26503 -11.25914 -11.23237 -11.23200
 Alpha  occ. eigenvalues --  -11.22601 -11.22454  -8.81405  -6.15572  -6.15350
 Alpha  occ. eigenvalues --   -6.15035  -1.11853  -1.02051  -0.96134  -0.95216
 Alpha  occ. eigenvalues --   -0.84428  -0.77712  -0.74269  -0.66226  -0.64785
 Alpha  occ. eigenvalues --   -0.59397  -0.58479  -0.57636  -0.54821  -0.49968
 Alpha  occ. eigenvalues --   -0.49427  -0.48160  -0.47371  -0.46299  -0.44937
 Alpha  occ. eigenvalues --   -0.41065  -0.33016
 Alpha virt. eigenvalues --    0.03449   0.04229   0.04711   0.04946   0.06085
 Alpha virt. eigenvalues --    0.06398   0.06601   0.06985   0.07150   0.08931
 Alpha virt. eigenvalues --    0.09092   0.09368   0.11380   0.13165   0.13628

 Mulliken charges:
               1
     1  C   -0.303351
     2  C    0.555428
     3  C    0.458677
     4  C    0.199835
     5  H   -0.191981
     6  H   -0.087811
     7  C    0.256779
     8  H   -0.149647
     9  H   -0.122019
    10  H   -0.103613
    11  H   -0.108476
    12  H   -0.079983
    13  H   -0.173835
    14  S    0.322131
    15  H   -0.269980
    16  C    0.108726
    17  H   -0.090986
    18  H   -0.124918
    19  H   -0.094978
 Sum of Mulliken charges =  -0.00000

 Dipole moment (field-independent basis, Debye):
    X=             -0.2427    Y=              1.2159    Z=              1.2298  Tot=              1.7463

 Test job not archived.
 1\1\GINC-SE132\SP\RHF\Aug-CC-pVDZ\C6H12S1\OHZDE\08-Apr-2025\0\\#t hf a
 ug-cc-pvdz iop(5/13=1,5/36=2,99/5=2) pseudo=read geom=check guess=(rea
 d,tcheck) scf=(maxcycle=1)\\title\\0,1\C,0,-0.002805,-0.161694,0.77841
 \C,0,-1.212187,-1.101113,0.602243\C,0,-0.613412,1.229772,0.544104\C,0,
 -1.623884,1.030134,-0.602949\H,0,0.127175,2.003681,0.332527\H,0,-1.135
 263,1.52873,1.461837\C,0,-2.106904,-0.442839,-0.481047\H,0,-1.129405,1
 .184715,-1.563829\H,0,-2.4474,1.745239,-0.545407\H,0,-3.160752,-0.5008
 05,-0.199461\H,0,-2.007287,-0.96026,-1.437193\H,0,-1.745955,-1.147681,

 Normal termination of Gaussian 16 at Tue Apr  8 22:46:30 2025.
