 Gaussian 16, Revision C.01,

 ----------------------------------------------------------------------
 #t hf aug-cc-pvdz symm=none int=(grid=ultrafine) guess=(read,tcheck) s
 table=(opt,rrhf)
 ----------------------------------------------------------------------
 -----
 title
 -----
 Symbolic Z-matrix:
 Charge =  0 Multiplicity = 1

 SCF Done:  E(RHF) =  -271.978824348     A.U. after   14 cycles
 Normal termination of Gaussian 16 at Wed Apr  9 00:25:01 2025.
 Gaussian 16:  ES64L-G16RevC.01  3-Jul-2019

 ----------------------------------------------------------------------
 #t hf aug-cc-pvdz iop(5/13=1,5/36=2,99/5=2) pseudo=read geom=check gue
 ss=(read,tcheck) scf=(maxcycle=1)
 ----------------------------------------------------------------------
 -----
 title
 -----
 Structure from the checkpoint file:  "BDE49_nonexpt_282_mol1.chk"
 Charge =  0 Multiplicity = 1

                         Standard orientation:
 ---------------------------------------------------------------------
 Center     Atomic      Atomic             Coordinates (Angstroms)
 Number     Number       Type             X           Y           Z
 ---------------------------------------------------------------------
      1          6           0        0.000000   -0.000000   -1.004500
      2          6           0        0.000000    1.194470   -0.261610
      3          6           0        0.000000    1.143402    1.129515
      4          7           0        0.000000    0.000000    1.822669
      5          6           0       -0.000000   -1.143402    1.129515
      6          6           0       -0.000000   -1.194470   -0.261610
      7          1           0        0.000000    2.153136   -0.768664
      8          1           0        0.000000    2.056971    1.717647
      9          1           0       -0.000000   -2.056971    1.717647
     10          1           0       -0.000000   -2.153136   -0.768664
     11          5           0        0.000000   -0.000000   -2.549491
     12          1           0        0.000000    1.030555   -3.148529
     13          1           0       -0.000000   -1.030555   -3.148529
 ---------------------------------------------------------------------

 SCF Done:  E(RHF) =  -272.057444109     A.U. after    2 cycles

 The electronic state is 1-A1.
 Alpha  occ. eigenvalues --  -15.64432 -11.28864 -11.28851 -11.26269 -11.26265
 Alpha  occ. eigenvalues --  -11.24879  -7.62527  -1.23673  -1.07695  -1.03344
 Alpha  occ. eigenvalues --   -0.86300  -0.86086  -0.74113  -0.67312  -0.66094
 Alpha  occ. eigenvalues --   -0.64866  -0.60625  -0.54647  -0.52927  -0.51569
 Alpha  occ. eigenvalues --   -0.48869  -0.41908  -0.39173  -0.35357
 Alpha virt. eigenvalues --    0.02738   0.03213   0.03667   0.04623   0.05577
 Alpha virt. eigenvalues --    0.05623   0.06217   0.08110   0.08261   0.09819
 Alpha virt. eigenvalues --    0.10317   0.10682   0.12428   0.13328   0.13886

 Mulliken charges:
               1
     1  C   -0.787450
     2  C    1.073525
     3  C    0.466703
     4  N   -0.412356
     5  C    0.466703
     6  C    1.073525
     7  H   -0.479958
     8  H   -0.328853
     9  H   -0.328853
    10  H   -0.479958
    11  B   -1.010048
    12  H    0.373511
    13  H    0.373511
 Sum of Mulliken charges =  -0.00000

 Dipole moment (field-independent basis, Debye):
    X=             -0.0000    Y=              0.0000    Z=             -1.2748  Tot=              1.2748

 Test job not archived.
 1\1\GINC-SE099\SP\RHF\Aug-CC-pVDZ\C5H6B1N1\OHZDE\09-Apr-2025\0\\#t hf
 aug-cc-pvdz iop(5/13=1,5/36=2,99/5=2) pseudo=read geom=check guess=(re
 ad,tcheck) scf=(maxcycle=1)\\title\\0,1\C,0,0.,0.,-1.0045\C,0,0.,1.194
 47,-0.26161\C,0,0.,1.143402,1.129515\N,0,0.,0.,1.822669\C,0,0.,-1.1434
 02,1.129515\C,0,0.,-1.19447,-0.26161\H,0,0.,2.153136,-0.768664\H,0,0.,
 2.056971,1.717647\H,0,0.,-2.056971,1.717647\H,0,0.,-2.153136,-0.768664
 \B,0,0.,0.,-2.549491\H,0,0.,1.030555,-3.148529\H,0,0.,-1.030555,-3.148
 529\\Version=ES64L-G16RevC.01\State=1-A1\HF=-272.0574441\RMSD=9.800e-0

 Normal termination of Gaussian 16 at Wed Apr  9 00:25:05 2025.
