 Gaussian 16, Revision C.01,

 ----------------------------------------------------------------------
 #t hf aug-cc-pvdz symm=none int=(grid=ultrafine) guess=(read,tcheck) s
 table=(opt,rrhf)
 ----------------------------------------------------------------------
 -----
 title
 -----
 Symbolic Z-matrix:
 Charge =  0 Multiplicity = 1

 SCF Done:  E(RHF) =  -1022.45176704     A.U. after   12 cycles
 Normal termination of Gaussian 16 at Tue Apr  8 23:46:56 2025.
 Gaussian 16:  ES64L-G16RevC.01  3-Jul-2019

 ----------------------------------------------------------------------
 #t hf aug-cc-pvdz iop(5/13=1,5/36=2,99/5=2) pseudo=read geom=check gue
 ss=(read,tcheck) scf=(maxcycle=1)
 ----------------------------------------------------------------------
 -----
 title
 -----
 Structure from the checkpoint file:  "BDE49_nonexpt_180_mol1.chk"
 Charge =  0 Multiplicity = 1

                         Standard orientation:
 ---------------------------------------------------------------------
 Center     Atomic      Atomic             Coordinates (Angstroms)
 Number     Number       Type             X           Y           Z
 ---------------------------------------------------------------------
      1         17           0       -0.111449    1.631560   -0.000011
      2         17           0        1.856332   -0.658428   -0.000011
      3          5           0        0.171631   -0.111517    0.000028
      4          6           0       -0.984907   -1.159541    0.000018
      5          6           0       -2.429902   -0.643349    0.000010
      6          1           0       -0.811748   -1.817939   -0.863446
      7          1           0       -2.634523   -0.029199    0.879981
      8          1           0       -3.139759   -1.474051    0.000004
      9          1           0       -2.634512   -0.029195   -0.879960
     10          1           0       -0.811759   -1.817943    0.863482
 ---------------------------------------------------------------------

 SCF Done:  E(RHF) =  -1022.51963313     A.U. after    2 cycles

 The electronic state is 1-A.
 Alpha  occ. eigenvalues -- -103.66837-103.66611 -11.23830 -11.23766 -10.70328
 Alpha  occ. eigenvalues --  -10.70093  -8.36017  -8.35804  -8.35786  -8.35769
 Alpha  occ. eigenvalues --   -8.35570  -8.35538  -7.72820  -1.18092  -1.14271
 Alpha  occ. eigenvalues --   -1.03082  -0.86951  -0.68486  -0.62239  -0.61622
 Alpha  occ. eigenvalues --   -0.58727  -0.53376  -0.52838  -0.51172  -0.50049
 Alpha  occ. eigenvalues --   -0.47753  -0.46569  -0.45980
 Alpha virt. eigenvalues --    0.03236   0.04857   0.04922   0.05087   0.07003
 Alpha virt. eigenvalues --    0.07360   0.07523   0.07643   0.09450   0.10460
 Alpha virt. eigenvalues --    0.12640   0.13936   0.15010   0.16270   0.16596

 Mulliken charges:
               1
     1  Cl  -0.309640
     2  Cl  -0.351491
     3  B    0.610457
     4  C    0.232926
     5  C    0.240444
     6  H   -0.105882
     7  H   -0.078499
     8  H   -0.053938
     9  H   -0.078502
    10  H   -0.105875
 Sum of Mulliken charges =  -0.00000

 Dipole moment (field-independent basis, Debye):
    X=             -1.4828    Y=             -1.1623    Z=              0.0001  Tot=              1.8841

 Test job not archived.
 1\1\GINC-SE090\SP\RHF\Aug-CC-pVDZ\C2H5B1Cl2\OHZDE\08-Apr-2025\0\\#t hf
  aug-cc-pvdz iop(5/13=1,5/36=2,99/5=2) pseudo=read geom=check guess=(r
 ead,tcheck) scf=(maxcycle=1)\\title\\0,1\Cl,0,-0.111449,1.63156,-0.000
 011\Cl,0,1.856332,-0.658428,-0.000011\B,0,0.171631,-0.111517,0.000028\
 C,0,-0.984907,-1.159541,0.000018\C,0,-2.429902,-0.643349,0.00001\H,0,-
 0.811748,-1.817939,-0.863446\H,0,-2.634523,-0.029199,0.879981\H,0,-3.1
 39759,-1.474051,0.000004\H,0,-2.634512,-0.029195,-0.87996\H,0,-0.81175
 9,-1.817943,0.863482\\Version=ES64L-G16RevC.01\State=1-A\HF=-1022.5196

 Normal termination of Gaussian 16 at Tue Apr  8 23:46:59 2025.
