 Gaussian 16, Revision C.01,

 ----------------------------------------------------------------------
 #t hf aug-cc-pvdz symm=none int=(grid=ultrafine) guess=(read,tcheck) s
 table=(opt,rrhf)
 ----------------------------------------------------------------------
 -----
 title
 -----
 Symbolic Z-matrix:
 Charge =  0 Multiplicity = 1

 SCF Done:  E(RHF) =  -515.994435220     A.U. after   15 cycles
 Normal termination of Gaussian 16 at Wed Apr  9 00:38:18 2025.
 Gaussian 16:  ES64L-G16RevC.01  3-Jul-2019

 ----------------------------------------------------------------------
 #t hf aug-cc-pvdz iop(5/13=1,5/36=2,99/5=2) pseudo=read geom=check gue
 ss=(read,tcheck) scf=(maxcycle=1)
 ----------------------------------------------------------------------
 -----
 title
 -----
 Structure from the checkpoint file:  "BDE49_nonexpt_596_mol1.chk"
 Charge =  0 Multiplicity = 1

                         Standard orientation:
 ---------------------------------------------------------------------
 Center     Atomic      Atomic             Coordinates (Angstroms)
 Number     Number       Type             X           Y           Z
 ---------------------------------------------------------------------
      1          6           0        2.087010   -1.667627    0.257858
      2          6           0        0.711282   -1.788379    0.100071
      3          6           0        2.721203   -0.433221    0.177560
      4          6           0        1.965052    0.716327   -0.093756
      5          6           0        0.578549    0.596956   -0.269875
      6          6           0       -0.060603   -0.645832   -0.158892
      7          1           0        0.007614    1.472072   -0.561072
      8          1           0        3.794009   -0.354982    0.316476
      9          1           0        2.678221   -2.554714    0.458090
     10          1           0        0.227521   -2.754441    0.190717
     11          5           0       -2.482322    0.165642    0.038296
     12          8           0       -3.767544   -0.187390   -0.287110
     13          8           0       -2.267827    1.356297    0.689257
     14          7           0        2.573542    1.970173   -0.150191
     15          1           0        3.557125    1.958776   -0.376397
     16          1           0        2.073039    2.670098   -0.678192
     17          1           0       -4.399515    0.458046    0.041221
     18          1           0       -1.363651    1.461336    1.001251
     19          7           0       -1.449509   -0.759885   -0.318003
     20          1           0       -1.762978   -1.677019   -0.601181
 ---------------------------------------------------------------------

 SCF Done:  E(RHF) =  -516.156369598     A.U. after    2 cycles

 The electronic state is 1-A.
 Alpha  occ. eigenvalues --  -20.57791 -20.57212 -15.63729 -15.62256 -11.29944
 Alpha  occ. eigenvalues --  -11.29885 -11.25321 -11.23330 -11.22941 -11.22810
 Alpha  occ. eigenvalues --   -7.66969  -1.34096  -1.30324  -1.20839  -1.18414
 Alpha  occ. eigenvalues --   -1.09879  -0.99993  -0.97725  -0.84196  -0.82703
 Alpha  occ. eigenvalues --   -0.77698  -0.74991  -0.71662  -0.69732  -0.67650
 Alpha  occ. eigenvalues --   -0.66618  -0.62055  -0.60904  -0.59807  -0.59165
 Alpha  occ. eigenvalues --   -0.57515  -0.56613  -0.54409  -0.52601  -0.52268
 Alpha  occ. eigenvalues --   -0.50616  -0.47754  -0.42132  -0.32559  -0.29433
 Alpha virt. eigenvalues --    0.02979   0.03600   0.03701   0.05071   0.05462
 Alpha virt. eigenvalues --    0.05853   0.06706   0.07792   0.08133   0.08745
 Alpha virt. eigenvalues --    0.09417   0.09591   0.11096   0.11211   0.12159

 Mulliken charges:
               1
     1  C    0.246345
     2  C    0.720057
     3  C    0.920600
     4  C    0.050175
     5  C    1.058139
     6  C    0.208366
     7  H   -0.785608
     8  H   -0.568781
     9  H   -0.434524
    10  H   -0.600214
    11  B    0.693666
    12  O   -0.510499
    13  O   -0.516814
    14  N   -0.304446
    15  H   -0.041113
    16  H   -0.029382
    17  H    0.197277
    18  H    0.234752
    19  N   -0.446826
    20  H   -0.091172
 Sum of Mulliken charges =  -0.00000

 Dipole moment (field-independent basis, Debye):
    X=              1.7979    Y=              0.6506    Z=             -0.4975  Tot=              1.9756

 Test job not archived.
 1\1\GINC-SE368\SP\RHF\Aug-CC-pVDZ\C6H9B1N2O2\OHZDE\09-Apr-2025\0\\#t h
 f aug-cc-pvdz iop(5/13=1,5/36=2,99/5=2) pseudo=read geom=check guess=(
 read,tcheck) scf=(maxcycle=1)\\title\\0,1\C,0,-2.08701,1.667627,0.2578
 58\C,0,-0.711282,1.788379,0.100071\C,0,-2.721203,0.433221,0.17756\C,0,
 -1.965052,-0.716327,-0.093756\C,0,-0.578549,-0.596956,-0.269875\C,0,0.
 060603,0.645832,-0.158892\H,0,-0.007614,-1.472072,-0.561072\H,0,-3.794
 009,0.354982,0.316476\H,0,-2.678221,2.554714,0.45809\H,0,-0.227521,2.7
 54441,0.190717\B,0,2.482322,-0.165642,0.038296\O,0,3.767544,0.18739,-0

 Normal termination of Gaussian 16 at Wed Apr  9 00:38:28 2025.
