 Gaussian 16, Revision C.01,

 ----------------------------------------------------------------------
 #t hf aug-cc-pvdz symm=none int=(grid=ultrafine) guess=(read,tcheck) s
 table=opt
 ----------------------------------------------------------------------
 -----
 title
 -----
 Symbolic Z-matrix:
 Charge =  0 Multiplicity = 2

 SCF Done:  E(UHF) =  -612.666403957     A.U. after   14 cycles
 Normal termination of Gaussian 16 at Wed Apr  9 00:33:48 2025.
 Gaussian 16:  ES64L-G16RevC.01  3-Jul-2019

 ----------------------------------------------------------------------
 #t hf aug-cc-pvdz iop(5/13=1,5/36=2,99/5=2) pseudo=read geom=check gue
 ss=(read,tcheck) scf=(maxcycle=1)
 ----------------------------------------------------------------------
 -----
 title
 -----
 Structure from the checkpoint file:  "BDE49_nonexpt_457_mol2.chk"
 Charge =  0 Multiplicity = 2

                         Standard orientation:
 ---------------------------------------------------------------------
 Center     Atomic      Atomic             Coordinates (Angstroms)
 Number     Number       Type             X           Y           Z
 ---------------------------------------------------------------------
      1          1           0        2.973898   -0.000084    0.798474
      2          5           0        2.032591   -0.000077    0.087797
      3         14           0        0.067684   -0.000005    0.011846
      4          9           0       -0.418701   -1.293010   -0.772970
      5          9           0       -0.727646    0.000012    1.389992
      6          9           0       -0.418590    1.293057   -0.772946
 ---------------------------------------------------------------------

 SCF Done:  E(UHF) =  -612.831829988     A.U. after    2 cycles

 The electronic state is 2-A.
 Alpha  occ. eigenvalues --  -69.21317 -26.13902 -26.13900 -26.13581  -7.68942
 Alpha  occ. eigenvalues --   -6.94982  -4.06027  -4.06007  -4.05731  -1.68109
 Alpha  occ. eigenvalues --   -1.66377  -1.66149  -0.87551  -0.80511  -0.80353
 Alpha  occ. eigenvalues --   -0.78637  -0.75433  -0.75351  -0.73070  -0.72899
 Alpha  occ. eigenvalues --   -0.71562  -0.70267  -0.53861  -0.36913
 Alpha virt. eigenvalues --   -0.00437   0.04128   0.05213   0.06005   0.07642
 Alpha virt. eigenvalues --    0.07683   0.07928   0.07993   0.11988   0.15309
 Alpha virt. eigenvalues --    0.19261   0.19950   0.20513   0.22944   0.23100

  Beta  occ. eigenvalues --  -69.21322 -26.13917 -26.13916 -26.13467  -7.67239
  Beta  occ. eigenvalues --   -6.94993  -4.06026  -4.05975  -4.05755  -1.68061
  Beta  occ. eigenvalues --   -1.66435  -1.65901  -0.87320  -0.80582  -0.80121
  Beta  occ. eigenvalues --   -0.77918  -0.75445  -0.75078  -0.73084  -0.72658
  Beta  occ. eigenvalues --   -0.71459  -0.65290  -0.52296
  Beta virt. eigenvalues --    0.01062   0.02865   0.04375   0.05320   0.07711
  Beta virt. eigenvalues --    0.07907   0.08099   0.08334   0.08851   0.12471
  Beta virt. eigenvalues --    0.15661   0.19821   0.21003   0.22803   0.23552

 Mulliken charges and spin densities:
               1          2
     1  H    0.370611  -0.048819
     2  B   -0.557826   1.140453
     3  Si   2.499843  -0.078065
     4  F   -0.770042   0.008699
     5  F   -0.772546  -0.030967
     6  F   -0.770039   0.008700
 Sum of Mulliken charges =  -0.00000   1.00000

 Dipole moment (field-independent basis, Debye):
    X=              2.5814    Y=             -0.0001    Z=              0.6351  Tot=              2.6584
                          Isotropic Fermi Contact Couplings
        Atom                 a.u.       MegaHertz       Gauss      10(-4) cm-1
     1  H(1)              -0.01296     -57.93339     -20.67207     -19.32450
     2  B(11)              0.20064     287.79710     102.69316      95.99878
     3  Si(29)            -0.02637      23.43551       8.36237       7.81724
     4  F(19)             -0.00594     -24.98636      -8.91575      -8.33455
     5  F(19)              0.02553     107.41423      38.32807      35.82953
     6  F(19)             -0.00594     -24.98614      -8.91568      -8.33448
 --------------------------------------------------------
       Center         ----  Spin Dipole Couplings  ----

 Normal termination of Gaussian 16 at Wed Apr  9 00:33:51 2025.
