 Gaussian 16, Revision C.01,

 ----------------------------------------------------------------------
 #t hf aug-cc-pvdz symm=none int=(grid=ultrafine) guess=(read,tcheck) s
 table=(opt,rrhf)
 ----------------------------------------------------------------------
 -----
 title
 -----
 Symbolic Z-matrix:
 Charge =  0 Multiplicity = 1

 SCF Done:  E(RHF) =  -743.092431181     A.U. after   15 cycles
 Normal termination of Gaussian 16 at Wed Apr  9 00:21:54 2025.
 Gaussian 16:  ES64L-G16RevC.01  3-Jul-2019

 ----------------------------------------------------------------------
 #t hf aug-cc-pvdz iop(5/13=1,5/36=2,99/5=2) pseudo=read geom=check gue
 ss=(read,tcheck) scf=(maxcycle=1)
 ----------------------------------------------------------------------
 -----
 title
 -----
 Structure from the checkpoint file:  "BDE49_nonexpt_2692_mol1.chk"
 Charge =  0 Multiplicity = 1

                         Standard orientation:
 ---------------------------------------------------------------------
 Center     Atomic      Atomic             Coordinates (Angstroms)
 Number     Number       Type             X           Y           Z
 ---------------------------------------------------------------------
      1          9           0       -2.521122    0.872962   -0.000002
      2         16           0       -1.817623   -0.641046   -0.000000
      3          6           0       -0.111625   -0.178543   -0.000000
      4          6           0        0.347240    1.138696   -0.000001
      5          7           0        0.665293   -1.256571    0.000002
      6          6           0        1.986700   -1.060018    0.000002
      7          6           0        1.724984    1.318860   -0.000001
      8          6           0        2.565925    0.205827    0.000001
      9          1           0       -0.347198    1.967043   -0.000003
     10          1           0        2.138898    2.320970   -0.000002
     11          1           0        3.643121    0.314393    0.000001
     12          1           0        2.600845   -1.955265    0.000004
 ---------------------------------------------------------------------

 SCF Done:  E(RHF) =  -743.221781215     A.U. after    2 cycles

 The electronic state is 1-A.
 Alpha  occ. eigenvalues --  -93.63276 -26.13651 -15.65154 -11.33880 -11.30688
 Alpha  occ. eigenvalues --  -11.28744 -11.26797 -11.26352  -8.92169  -6.26373
 Alpha  occ. eigenvalues --   -6.26016  -6.25523  -1.64803  -1.26215  -1.09688
 Alpha  occ. eigenvalues --   -1.07496  -0.97318  -0.88198  -0.85189  -0.75825
 Alpha  occ. eigenvalues --   -0.74090  -0.72984  -0.68966  -0.68090  -0.64736
 Alpha  occ. eigenvalues --   -0.59996  -0.57722  -0.56768  -0.51153  -0.43694
 Alpha  occ. eigenvalues --   -0.43632  -0.39865  -0.33572
 Alpha virt. eigenvalues --    0.02847   0.03818   0.04896   0.05988   0.07644
 Alpha virt. eigenvalues --    0.07646   0.08127   0.08390   0.10449   0.11030
 Alpha virt. eigenvalues --    0.12081   0.13072   0.13368   0.14034   0.14036

 Mulliken charges:
               1
     1  F   -0.632617
     2  S    0.738047
     3  C   -0.076212
     4  C    0.933049
     5  N   -0.360638
     6  C    0.373059
     7  C   -0.311459
     8  C    0.900862
     9  H   -0.450858
    10  H   -0.390334
    11  H   -0.401895
    12  H   -0.321003
 Sum of Mulliken charges =  -0.00000

 Dipole moment (field-independent basis, Debye):
    X=              3.2127    Y=              0.7864    Z=             -0.0000  Tot=              3.3075

 Test job not archived.
 1\1\GINC-SE458\SP\RHF\Aug-CC-pVDZ\C5H4F1N1S1\OHZDE\09-Apr-2025\0\\#t h
 f aug-cc-pvdz iop(5/13=1,5/36=2,99/5=2) pseudo=read geom=check guess=(
 read,tcheck) scf=(maxcycle=1)\\title\\0,1\F,0,-2.521122,0.872962,-0.00
 0002\S,0,-1.817623,-0.641046,0.\C,0,-0.111625,-0.178543,0.\C,0,0.34724
 ,1.138696,-0.000001\N,0,0.665293,-1.256571,0.000002\C,0,1.9867,-1.0600
 18,0.000002\C,0,1.724984,1.31886,-0.000001\C,0,2.565925,0.205827,0.000
 001\H,0,-0.347198,1.967043,-0.000003\H,0,2.138898,2.32097,-0.000002\H,
 0,3.643121,0.314393,0.000001\H,0,2.600845,-1.955265,0.000004\\Version=

 Normal termination of Gaussian 16 at Wed Apr  9 00:22:00 2025.
