 Gaussian 16, Revision C.01,

 ----------------------------------------------------------------------
 #t hf aug-cc-pvdz symm=none int=(grid=ultrafine) guess=(read,tcheck) s
 table=(opt,rrhf)
 ----------------------------------------------------------------------
 -----
 title
 -----
 Symbolic Z-matrix:
 Charge =  0 Multiplicity = 1

 SCF Done:  E(RHF) =  -351.412414683     A.U. after   10 cycles
 Normal termination of Gaussian 16 at Wed Apr  9 00:02:29 2025.
 Gaussian 16:  ES64L-G16RevC.01  3-Jul-2019

 ----------------------------------------------------------------------
 #t hf aug-cc-pvdz iop(5/13=1,5/36=2,99/5=2) pseudo=read geom=check gue
 ss=(read,tcheck) scf=(maxcycle=1)
 ----------------------------------------------------------------------
 -----
 title
 -----
 Structure from the checkpoint file:  "BDE49_nonexpt_21_mol1.chk"
 Charge =  0 Multiplicity = 1

                         Standard orientation:
 ---------------------------------------------------------------------
 Center     Atomic      Atomic             Coordinates (Angstroms)
 Number     Number       Type             X           Y           Z
 ---------------------------------------------------------------------
      1          5           0        0.000000   -0.000000    0.855878
      2          5           0       -0.000000    0.000000   -0.855878
      3          8           0        1.204885    0.000030   -1.510513
      4          1           0        1.150904    0.000034   -2.473063
      5          8           0        0.000000    1.204885    1.510513
      6          1           0        0.000005    1.150904    2.473063
      7          8           0       -1.204885   -0.000030   -1.510513
      8          1           0       -1.150904   -0.000034   -2.473063
      9          8           0       -0.000000   -1.204885    1.510513
     10          1           0       -0.000005   -1.150904    2.473063
 ---------------------------------------------------------------------

 SCF Done:  E(RHF) =  -351.535866632     A.U. after    2 cycles

 The electronic state is 1-A.
 Alpha  occ. eigenvalues --  -20.58136 -20.58135 -20.58134 -20.58134  -7.64253
 Alpha  occ. eigenvalues --   -7.64190  -1.34494  -1.33888  -1.30305  -1.30305
 Alpha  occ. eigenvalues --   -0.80655  -0.75917  -0.74832  -0.74832  -0.65563
 Alpha  occ. eigenvalues --   -0.64760  -0.58357  -0.58357  -0.54827  -0.54827
 Alpha  occ. eigenvalues --   -0.52396  -0.51836  -0.45192
 Alpha virt. eigenvalues --    0.02926   0.03011   0.06316   0.06316   0.06963
 Alpha virt. eigenvalues --    0.06963   0.07535   0.08361   0.09984   0.09984
 Alpha virt. eigenvalues --    0.12222   0.12586   0.18387   0.18704   0.18704

 Mulliken charges:
               1
     1  B    0.724639
     2  B    0.724639
     3  O   -0.510228
     4  H    0.147908
     5  O   -0.510228
     6  H    0.147908
     7  O   -0.510228
     8  H    0.147908
     9  O   -0.510228
    10  H    0.147908
 Sum of Mulliken charges =  -0.00000

 Dipole moment (field-independent basis, Debye):
    X=             -0.0000    Y=             -0.0000    Z=             -0.0000  Tot=              0.0000

 Test job not archived.
 1\1\GINC-SE396\SP\RHF\Aug-CC-pVDZ\B2H4O4\OHZDE\09-Apr-2025\0\\#t hf au
 g-cc-pvdz iop(5/13=1,5/36=2,99/5=2) pseudo=read geom=check guess=(read
 ,tcheck) scf=(maxcycle=1)\\title\\0,1\B,0,0.,0.,0.855878\B,0,0.,0.,-0.
 855878\O,0,0.,1.204885,-1.510513\H,0,-0.000005,1.150904,-2.473063\O,0,
 -1.204885,0.00003,1.510513\H,0,-1.150904,0.000034,2.473063\O,0,0.,-1.2
 04885,-1.510513\H,0,0.000005,-1.150904,-2.473063\O,0,1.204885,-0.00003
 ,1.510513\H,0,1.150904,-0.000034,2.473063\\Version=ES64L-G16RevC.01\St
 ate=1-A\HF=-351.5358666\RMSD=3.134e-03\Dipole=0.,0.,0.\Quadrupole=-6.7

 Normal termination of Gaussian 16 at Wed Apr  9 00:02:32 2025.
