 Gaussian 16, Revision C.01,

 ----------------------------------------------------------------------
 #t hf aug-cc-pvdz symm=none int=(grid=ultrafine) guess=(read,tcheck) s
 table=(opt,rrhf)
 ----------------------------------------------------------------------
 -----
 title
 -----
 Symbolic Z-matrix:
 Charge =  0 Multiplicity = 1

 SCF Done:  E(RHF) =  -508.575204662     A.U. after   12 cycles
 Normal termination of Gaussian 16 at Wed Apr  9 00:45:23 2025.
 Gaussian 16:  ES64L-G16RevC.01  3-Jul-2019

 ----------------------------------------------------------------------
 #t hf aug-cc-pvdz iop(5/13=1,5/36=2,99/5=2) pseudo=read geom=check gue
 ss=(read,tcheck) scf=(maxcycle=1)
 ----------------------------------------------------------------------
 -----
 title
 -----
 Structure from the checkpoint file:  "BDE49_nonexpt_827_mol1.chk"
 Charge =  0 Multiplicity = 1

                         Standard orientation:
 ---------------------------------------------------------------------
 Center     Atomic      Atomic             Coordinates (Angstroms)
 Number     Number       Type             X           Y           Z
 ---------------------------------------------------------------------
      1         14           0        0.380133   -0.011037    0.000005
      2          5           0       -1.497197   -0.798830   -0.000006
      3          8           0       -2.564062    0.042671   -0.000037
      4          6           0        1.310146   -0.618066   -1.535478
      5          1           0        0.831279   -0.274130   -2.457414
      6          1           0        1.350990   -1.711031   -1.570686
      7          6           0        1.310100   -0.618003    1.535542
      8          1           0        1.350943   -1.710966    1.570796
      9          1           0        0.831206   -0.274028    2.457449
     10          1           0        2.340307   -0.246967    1.539726
     11          1           0        2.340354   -0.247031   -1.539646
     12          6           0        0.340706    1.877534   -0.000034
     13          1           0        1.351015    2.299276   -0.000026
     14          1           0       -0.182700    2.259859    0.881308
     15          1           0       -0.182672    2.259823   -0.881408
     16          1           0       -3.414899   -0.409895   -0.000041
     17          1           0       -1.704920   -1.986392    0.000011
 ---------------------------------------------------------------------

 SCF Done:  E(RHF) =  -508.675306439     A.U. after    2 cycles

 The electronic state is 1-A.
 Alpha  occ. eigenvalues --  -69.02727 -20.59347 -11.20364 -11.20360 -11.19960
 Alpha  occ. eigenvalues --   -7.62837  -6.78087  -3.88868  -3.88863  -3.88817
 Alpha  occ. eigenvalues --   -1.33223  -0.94975  -0.91051  -0.90854  -0.77684
 Alpha  occ. eigenvalues --   -0.65770  -0.62149  -0.56951  -0.56176  -0.55661
 Alpha  occ. eigenvalues --   -0.55161  -0.53573  -0.53441  -0.52409  -0.52353
 Alpha  occ. eigenvalues --   -0.42209  -0.42036  -0.37408
 Alpha virt. eigenvalues --    0.02770   0.04091   0.04347   0.04695   0.06381
 Alpha virt. eigenvalues --    0.06444   0.06514   0.07073   0.07168   0.08821
 Alpha virt. eigenvalues --    0.09148   0.09297   0.10288   0.10311   0.10817

 Mulliken charges:
               1
     1  Si   1.056802
     2  B    0.240704
     3  O   -0.552321
     4  C    0.492430
     5  H   -0.314802
     6  H   -0.307331
     7  C    0.492434
     8  H   -0.307332
     9  H   -0.314803
    10  H   -0.239824
    11  H   -0.239822
    12  C    0.418235
    13  H   -0.262197
    14  H   -0.300503
    15  H   -0.300504
    16  H    0.193978
    17  H    0.244857
 Sum of Mulliken charges =  -0.00000

 Dipole moment (field-independent basis, Debye):
    X=             -0.9934    Y=             -0.9333    Z=              0.0000  Tot=              1.3630

 Test job not archived.
 1\1\GINC-SE253\SP\RHF\Aug-CC-pVDZ\C3H11B1O1Si1\OHZDE\09-Apr-2025\0\\#t
  hf aug-cc-pvdz iop(5/13=1,5/36=2,99/5=2) pseudo=read geom=check guess
 =(read,tcheck) scf=(maxcycle=1)\\title\\0,1\Si,0,0.380133,-0.011037,0.
 000005\B,0,-1.497197,-0.79883,-0.000006\O,0,-2.564062,0.042671,-0.0000
 37\C,0,1.310146,-0.618066,-1.535478\H,0,0.831279,-0.27413,-2.457414\H,
 0,1.35099,-1.711031,-1.570686\C,0,1.3101,-0.618003,1.535542\H,0,1.3509
 43,-1.710966,1.570796\H,0,0.831206,-0.274028,2.457449\H,0,2.340307,-0.
 246967,1.539726\H,0,2.340354,-0.247031,-1.539646\C,0,0.340706,1.877534

 Normal termination of Gaussian 16 at Wed Apr  9 00:45:29 2025.
