 Gaussian 16, Revision C.01,

 ----------------------------------------------------------------------
 #t hf aug-cc-pvdz symm=none int=(grid=ultrafine) guess=(read,tcheck) s
 table=(opt,rrhf)
 ----------------------------------------------------------------------
 -----
 title
 -----
 Symbolic Z-matrix:
 Charge =  0 Multiplicity = 1

 SCF Done:  E(RHF) =  -1076.66892984     A.U. after   17 cycles
 Normal termination of Gaussian 16 at Tue Apr  8 23:15:10 2025.
 Gaussian 16:  ES64L-G16RevC.01  3-Jul-2019

 ----------------------------------------------------------------------
 #t hf aug-cc-pvdz iop(5/13=1,5/36=2,99/5=2) pseudo=read geom=check gue
 ss=(read,tcheck) scf=(maxcycle=1)
 ----------------------------------------------------------------------
 -----
 title
 -----
 Structure from the checkpoint file:  "BDE49_expt_849_mol1.chk"
 Charge =  0 Multiplicity = 1

                         Standard orientation:
 ---------------------------------------------------------------------
 Center     Atomic      Atomic             Coordinates (Angstroms)
 Number     Number       Type             X           Y           Z
 ---------------------------------------------------------------------
      1          6           0       -0.757066   -0.983738   -0.330463
      2          6           0        0.628798   -1.095182   -0.317831
      3          6           0        1.412522    0.025314   -0.049049
      4          6           0        0.812433    1.262968    0.187664
      5          6           0       -0.570153    1.375293    0.157351
      6          6           0       -1.367124    0.249086   -0.082971
      7          1           0       -1.353736   -1.854113   -0.571511
      8          1           0        1.100491   -2.046088   -0.528786
      9          1           0        1.426517    2.133426    0.380351
     10          1           0       -1.052109    2.331209    0.317013
     11          6           0        2.911131   -0.106034    0.030136
     12          6           0       -2.850458    0.471894   -0.122284
     13          8           0       -3.336210    1.540291   -0.389019
     14         16           0       -3.981626   -0.890414    0.263688
     15          1           0       -3.085820   -1.779119    0.721062
     16          9           0        3.371485   -1.120415   -0.731175
     17          9           0        3.317559   -0.349376    1.297035
     18          9           0        3.537608    1.018832   -0.372561
 ---------------------------------------------------------------------

 SCF Done:  E(RHF) =  -1076.90897805     A.U. after    2 cycles

 The electronic state is 1-A.
 Alpha  occ. eigenvalues --  -93.57415 -26.17640 -26.17561 -26.17169 -20.59468
 Alpha  occ. eigenvalues --  -11.54233 -11.40358 -11.30356 -11.29854 -11.29340
 Alpha  occ. eigenvalues --  -11.29041 -11.28858 -11.28667  -8.87231  -6.21375
 Alpha  occ. eigenvalues --   -6.21175  -6.20811  -1.76938  -1.70069  -1.69638
 Alpha  occ. eigenvalues --   -1.39424  -1.19890  -1.10889  -1.05831  -1.03742
 Alpha  occ. eigenvalues --   -1.00558  -0.92269  -0.90011  -0.88622  -0.86527
 Alpha  occ. eigenvalues --   -0.84192  -0.79742  -0.78105  -0.78017  -0.73879
 Alpha  occ. eigenvalues --   -0.73526  -0.73235  -0.72502  -0.68778  -0.68562
 Alpha  occ. eigenvalues --   -0.65512  -0.64163  -0.63577  -0.60322  -0.57309
 Alpha  occ. eigenvalues --   -0.54545  -0.54180  -0.52640  -0.44802  -0.40450
 Alpha  occ. eigenvalues --   -0.38948  -0.38134
 Alpha virt. eigenvalues --    0.02783   0.03201   0.03806   0.04671   0.05846
 Alpha virt. eigenvalues --    0.06284   0.07500   0.07990   0.08765   0.08841
 Alpha virt. eigenvalues --    0.09307   0.10428   0.11154   0.11944   0.12459

 Mulliken charges:
               1
     1  C    0.579716
     2  C   -0.011500
     3  C    1.209778
     4  C    0.020537
     5  C    0.119345
     6  C    0.885179
     7  H   -0.573558
     8  H   -0.550544
     9  H   -0.547841
    10  H   -0.609842
    11  C    0.805092
    12  C   -0.172863
    13  O   -0.512331
    14  S    0.281135
    15  H    0.052240
    16  F   -0.319585
    17  F   -0.328696
    18  F   -0.326264
 Sum of Mulliken charges =   0.00000

 Dipole moment (field-independent basis, Debye):
    X=              0.0947    Y=             -2.2515    Z=              0.5836  Tot=              2.3279

 Test job not archived.
 1\1\GINC-SE048\SP\RHF\Aug-CC-pVDZ\C8H5F3O1S1\OHZDE\08-Apr-2025\0\\#t h
 f aug-cc-pvdz iop(5/13=1,5/36=2,99/5=2) pseudo=read geom=check guess=(
 read,tcheck) scf=(maxcycle=1)\\title\\0,1\C,0,-0.757066,-0.983738,-0.3
 30463\C,0,0.628798,-1.095182,-0.317831\C,0,1.412522,0.025314,-0.049049
 \C,0,0.812433,1.262968,0.187664\C,0,-0.570153,1.375293,0.157351\C,0,-1
 .367124,0.249086,-0.082971\H,0,-1.353736,-1.854113,-0.571511\H,0,1.100
 491,-2.046088,-0.528786\H,0,1.426517,2.133426,0.380351\H,0,-1.052109,2
 .331209,0.317013\C,0,2.911131,-0.106034,0.030136\C,0,-2.850458,0.47189

 Normal termination of Gaussian 16 at Tue Apr  8 23:15:23 2025.
