 Gaussian 16, Revision C.01,

 ----------------------------------------------------------------------
 #t hf aug-cc-pvdz symm=none int=(grid=ultrafine) guess=(read,tcheck) s
 table=(opt,rrhf)
 ----------------------------------------------------------------------
 -----
 title
 -----
 Symbolic Z-matrix:
 Charge =  0 Multiplicity = 1

 SCF Done:  E(RHF) =  -268.781199905     A.U. after   17 cycles
 Normal termination of Gaussian 16 at Tue Apr  8 23:17:49 2025.
 Gaussian 16:  ES64L-G16RevC.01  3-Jul-2019

 ----------------------------------------------------------------------
 #t hf aug-cc-pvdz iop(5/13=1,5/36=2,99/5=2) pseudo=read geom=check gue
 ss=(read,tcheck) scf=(maxcycle=1)
 ----------------------------------------------------------------------
 -----
 title
 -----
 Structure from the checkpoint file:  "BDE49_nonexpt_1103_mol1.chk"
 Charge =  0 Multiplicity = 1

                         Standard orientation:
 ---------------------------------------------------------------------
 Center     Atomic      Atomic             Coordinates (Angstroms)
 Number     Number       Type             X           Y           Z
 ---------------------------------------------------------------------
      1          9           0       -1.538762    0.568676    0.112837
      2          7           0        0.554542   -0.581229    0.260456
      3          8           0       -0.531526   -0.700371   -0.359246
      4          6           0        1.451054    0.512367   -0.103676
      5          1           0        0.519995   -0.846825    1.246527
      6          1           0        1.014307    1.459076    0.223862
      7          1           0        1.560832    0.517102   -1.187101
      8          1           0        2.417810    0.349928    0.374008
 ---------------------------------------------------------------------

 SCF Done:  E(RHF) =  -268.867818736     A.U. after    2 cycles

 The electronic state is 1-A.
 Alpha  occ. eigenvalues --  -26.03849 -20.76216 -15.76611 -11.30514  -1.54383
 Alpha  occ. eigenvalues --   -1.46090  -1.12479  -0.94608  -0.80357  -0.73635
 Alpha  occ. eigenvalues --   -0.71050  -0.62646  -0.60803  -0.60204  -0.59673
 Alpha  occ. eigenvalues --   -0.55026  -0.44615
 Alpha virt. eigenvalues --    0.02434   0.03754   0.03999   0.05690   0.06091
 Alpha virt. eigenvalues --    0.10407   0.12565   0.14150   0.14759   0.16063
 Alpha virt. eigenvalues --    0.17218   0.17532   0.23056   0.23410   0.25737

 Mulliken charges:
               1
     1  F   -0.587388
     2  N    0.089989
     3  O   -0.139523
     4  C    0.826006
     5  H    0.059119
     6  H   -0.033006
     7  H   -0.121972
     8  H   -0.093224
 Sum of Mulliken charges =  -0.00000

 Dipole moment (field-independent basis, Debye):
    X=              5.6994    Y=             -1.3113    Z=              1.1497  Tot=              5.9603

 Test job not archived.
 1\1\GINC-SE073\SP\RHF\Aug-CC-pVDZ\C1H4F1N1O1\OHZDE\08-Apr-2025\0\\#t h
 f aug-cc-pvdz iop(5/13=1,5/36=2,99/5=2) pseudo=read geom=check guess=(
 read,tcheck) scf=(maxcycle=1)\\title\\0,1\F,0,-1.538762,0.568677,0.112
 837\N,0,0.554542,-0.581229,0.260456\O,0,-0.531526,-0.700371,-0.359246\
 C,0,1.451054,0.512367,-0.103676\H,0,0.519995,-0.846825,1.246527\H,0,1.
 014307,1.459076,0.223862\H,0,1.560832,0.517102,-1.187101\H,0,2.41781,0
 .349927,0.374008\\Version=ES64L-G16RevC.01\State=1-A\HF=-268.8678187\R
 MSD=3.236e-03\Dipole=2.242335,-0.5159207,0.4523246\Quadrupole=-2.19648

 Normal termination of Gaussian 16 at Tue Apr  8 23:17:51 2025.
