 Gaussian 16, Revision C.01,

 ----------------------------------------------------------------------
 #t hf aug-cc-pvdz symm=none int=(grid=ultrafine) guess=(read,tcheck) s
 table=(opt,rrhf)
 ----------------------------------------------------------------------
 -----
 title
 -----
 Symbolic Z-matrix:
 Charge =  0 Multiplicity = 1

 SCF Done:  E(RHF) =  -441.920262835     A.U. after   15 cycles
 Normal termination of Gaussian 16 at Tue Apr  8 23:09:44 2025.
 Gaussian 16:  ES64L-G16RevC.01  3-Jul-2019

 ----------------------------------------------------------------------
 #t hf aug-cc-pvdz iop(5/13=1,5/36=2,99/5=2) pseudo=read geom=check gue
 ss=(read,tcheck) scf=(maxcycle=1)
 ----------------------------------------------------------------------
 -----
 title
 -----
 Structure from the checkpoint file:  "BDE49_expt_468_mol1.chk"
 Charge =  0 Multiplicity = 1

                         Standard orientation:
 ---------------------------------------------------------------------
 Center     Atomic      Atomic             Coordinates (Angstroms)
 Number     Number       Type             X           Y           Z
 ---------------------------------------------------------------------
      1          6           0       -0.384483    1.212624   -0.002849
      2          6           0       -1.777215    1.206209   -0.005732
      3          6           0       -2.490337    0.002806   -0.006554
      4          6           0        0.363493    0.031073   -0.001323
      5          6           0       -0.365849   -1.167551   -0.003044
      6          6           0       -1.753445   -1.190725   -0.006493
      7          1           0        0.114862    2.173012   -0.000667
      8          1           0       -2.316979    2.148444   -0.011641
      9          7           0       -3.886621   -0.013425   -0.071956
     10          1           0       -4.337658    0.819058    0.278842
     11          1           0       -4.319129   -0.850791    0.290365
     12          1           0       -2.276197   -2.142494   -0.013655
     13          1           0        0.157958   -2.117263   -0.001127
     14          6           0        1.901720    0.003296    0.002490
     15          6           0        2.509627    1.417907    0.002263
     16          1           0        2.215815    1.985643   -0.884861
     17          1           0        3.600978    1.349595    0.004180
     18          1           0        2.212920    1.987365    0.887370
     19          6           0        2.410870   -0.737048   -1.256285
     20          1           0        2.075857   -0.231677   -2.166127
     21          1           0        2.047532   -1.766689   -1.294417
     22          1           0        3.505166   -0.768663   -1.266060
     23          6           0        2.405231   -0.734361    1.265097
     24          1           0        2.041306   -1.763793    1.303935
     25          1           0        2.066794   -0.226661    2.172461
     26          1           0        3.499454   -0.766497    1.279682
 ---------------------------------------------------------------------

 SCF Done:  E(RHF) =  -442.052360424     A.U. after    2 cycles

 The electronic state is 1-A.
 Alpha  occ. eigenvalues --  -15.62753 -11.28238 -11.24752 -11.23782 -11.23681
 Alpha  occ. eigenvalues --  -11.23094 -11.23042 -11.22903 -11.21975 -11.21885
 Alpha  occ. eigenvalues --  -11.21848  -1.19225  -1.12511  -1.07118  -1.00283
 Alpha  occ. eigenvalues --   -0.96681  -0.92552  -0.92308  -0.82792  -0.82346
 Alpha  occ. eigenvalues --   -0.74762  -0.69909  -0.68547  -0.64031  -0.61531
 Alpha  occ. eigenvalues --   -0.60606  -0.59887  -0.58445  -0.57504  -0.55470
 Alpha  occ. eigenvalues --   -0.54547  -0.52693  -0.52241  -0.51242  -0.49537
 Alpha  occ. eigenvalues --   -0.47065  -0.46042  -0.45095  -0.43269  -0.33584
 Alpha  occ. eigenvalues --   -0.28614
 Alpha virt. eigenvalues --    0.03137   0.03804   0.03872   0.05042   0.05218
 Alpha virt. eigenvalues --    0.05318   0.06714   0.07155   0.07245   0.07402
 Alpha virt. eigenvalues --    0.07993   0.09333   0.09729   0.09970   0.11118

 Mulliken charges:
               1
     1  C    0.874356
     2  C    0.541386
     3  C    0.207056
     4  C    1.008177
     5  C    0.519888
     6  C    0.670147
     7  H   -0.788253
     8  H   -0.577675
     9  N   -0.314173
    10  H   -0.036621
    11  H   -0.038170
    12  H   -0.580159
    13  H   -0.745908
    14  C   -3.462525
    15  C    1.229448
    16  H    0.008972
    17  H   -0.098494
    18  H    0.007881
    19  C    1.014637
    20  H   -0.047578
    21  H   -0.113994
    22  H   -0.064150
    23  C    1.011885
    24  H   -0.113173
    25  H   -0.047875
    26  H   -0.065082
 Sum of Mulliken charges =  -0.00000

 Dipole moment (field-independent basis, Debye):
    X=             -0.7249    Y=             -0.0246    Z=              1.0026  Tot=              1.2375

 Test job not archived.
 1\1\GINC-SE329\SP\RHF\Aug-CC-pVDZ\C10H15N1\OHZDE\08-Apr-2025\0\\#t hf
 aug-cc-pvdz iop(5/13=1,5/36=2,99/5=2) pseudo=read geom=check guess=(re
 ad,tcheck) scf=(maxcycle=1)\\title\\0,1\C,0,-0.384483,1.212624,-0.0028
 49\C,0,-1.777215,1.206209,-0.005732\C,0,-2.490337,0.002806,-0.006554\C
 ,0,0.363493,0.031073,-0.001323\C,0,-0.365849,-1.167551,-0.003044\C,0,-
 1.753445,-1.190725,-0.006493\H,0,0.114862,2.173012,-0.000667\H,0,-2.31
 6979,2.148444,-0.011641\N,0,-3.886621,-0.013425,-0.071956\H,0,-4.33765
 8,0.819058,0.278842\H,0,-4.319129,-0.850791,0.290365\H,0,-2.276197,-2.

 Normal termination of Gaussian 16 at Tue Apr  8 23:10:04 2025.
