 Gaussian 16, Revision C.01,

 ----------------------------------------------------------------------
 #t hf aug-cc-pvdz symm=none int=(grid=ultrafine) guess=(read,tcheck) s
 table=opt
 ----------------------------------------------------------------------
 -----
 title
 -----
 Symbolic Z-matrix:
 Charge =  0 Multiplicity = 2

 SCF Done:  E(UHF) =  -778.598178230     A.U. after   15 cycles

 1\1\GINC-SE340\Stability\UHF\Aug-CC-pVDZ\F2H3Si2\OHZDE\08-Apr-2025\0\\
 #t hf aug-cc-pvdz symm=none int=(grid=ultrafine) guess=(read,tcheck) s
 table=opt\\title\\0,2\Si,0,-1.786527,-0.069672,-0.034727\Si,0,0.514211
 ,0.02575,0.364496\F,0,1.180583,-1.298623,-0.248144\F,0,1.223336,1.2654
 76,-0.368315\H,0,0.879953,0.100599,1.789687\H,0,-2.160419,-0.223066,-1
 .460376\H,0,-2.54239,1.03569,0.602066\\Version=ES64L-G16RevC.01\HF=-77
 8.5981782\S2=0.758708\S2-1=0.\S2A=0.750029\RMSD=3.301e-09\Dipole=-0.70
 46088,0.047346,0.4280409\Quadrupole=0.1002772,-1.561675,1.4613978,-0.0

 Normal termination of Gaussian 16 at Tue Apr  8 23:55:20 2025.
 Gaussian 16:  ES64L-G16RevC.01  3-Jul-2019

 ----------------------------------------------------------------------
 #t hf aug-cc-pvdz iop(5/13=1,5/36=2,99/5=2) pseudo=read geom=check gue
 ss=(read,tcheck) scf=(maxcycle=1)
 ----------------------------------------------------------------------
 -----
 title
 -----
 Structure from the checkpoint file:  "BDE49_nonexpt_2019_mol2.chk"
 Charge =  0 Multiplicity = 2

                         Standard orientation:
 ---------------------------------------------------------------------
 Center     Atomic      Atomic             Coordinates (Angstroms)
 Number     Number       Type             X           Y           Z
 ---------------------------------------------------------------------
      1         14           0        1.786527    0.069672   -0.034727
      2         14           0       -0.514211   -0.025750    0.364496
      3          9           0       -1.180583    1.298623   -0.248144
      4          9           0       -1.223336   -1.265476   -0.368315
      5          1           0       -0.879953   -0.100599    1.789687
      6          1           0        2.160419    0.223066   -1.460376
      7          1           0        2.542390   -1.035690    0.602066
 ---------------------------------------------------------------------

 SCF Done:  E(UHF) =  -778.726608014     A.U. after    2 cycles

 The electronic state is 2-A.
 Alpha  occ. eigenvalues --  -69.17115 -69.08889 -26.12305 -26.12282  -6.91205
 Alpha  occ. eigenvalues --   -6.84447  -4.02182  -4.02021  -4.01873  -3.95817
 Alpha  occ. eigenvalues --   -3.94897  -3.94872  -1.65710  -1.64488  -0.84344
 Alpha  occ. eigenvalues --   -0.77744  -0.75815  -0.75021  -0.72484  -0.71447
 Alpha  occ. eigenvalues --   -0.70854  -0.58054  -0.50765  -0.44709  -0.34230
 Alpha virt. eigenvalues --    0.03741   0.04578   0.05685   0.06336   0.07267
 Alpha virt. eigenvalues --    0.07445   0.07764   0.08333   0.09741   0.12398
 Alpha virt. eigenvalues --    0.12729   0.14153   0.15644   0.16999   0.17849

  Beta  occ. eigenvalues --  -69.17108 -69.08324 -26.12320 -26.12177  -6.91189
  Beta  occ. eigenvalues --   -6.83625  -4.02165  -4.02037  -4.01851  -3.94482
  Beta  occ. eigenvalues --   -3.94468  -3.93605  -1.65589  -1.64330  -0.84087
  Beta  occ. eigenvalues --   -0.77566  -0.75134  -0.74888  -0.72310  -0.70756
  Beta  occ. eigenvalues --   -0.67557  -0.57940  -0.50306  -0.43636
  Beta virt. eigenvalues --    0.00911   0.04031   0.04653   0.05820   0.07208
  Beta virt. eigenvalues --    0.07417   0.07849   0.08654   0.09193   0.10083
  Beta virt. eigenvalues --    0.13024   0.13816   0.16144   0.17128   0.18515

 Mulliken charges and spin densities:
               1          2
     1  Si  -0.040769   1.127366
     2  Si   1.641306  -0.035371
     3  F   -0.738991   0.006960
     4  F   -0.747678  -0.033670
     5  H   -0.024836  -0.007416
     6  H   -0.045067  -0.024933
     7  H   -0.043965  -0.032936
 Sum of Mulliken charges =  -0.00000   1.00000

 Dipole moment (field-independent basis, Debye):
    X=              1.9791    Y=             -0.0852    Z=              1.2338  Tot=              2.3337
                          Isotropic Fermi Contact Couplings
        Atom                 a.u.       MegaHertz       Gauss      10(-4) cm-1
     1  Si(29)             0.45568    -404.97107    -144.50375    -135.08381
     2  Si(29)             0.01899     -16.87531      -6.02153      -5.62900
     3  F(19)             -0.00380     -16.00695      -5.71168      -5.33934
     4  F(19)              0.02395     100.75150      35.95064      33.60708
     5  H(1)              -0.00216      -9.63637      -3.43850      -3.21435
     6  H(1)              -0.00553     -24.73881      -8.82742      -8.25198
     7  H(1)              -0.00584     -26.08970      -9.30945      -8.70259
 --------------------------------------------------------

 Normal termination of Gaussian 16 at Tue Apr  8 23:55:23 2025.
