 Gaussian 16, Revision C.01,

 ----------------------------------------------------------------------
 #t hf aug-cc-pvdz symm=none int=(grid=ultrafine) guess=(read,tcheck) s
 table=(opt,rrhf)
 ----------------------------------------------------------------------
 -----
 title
 -----
 Symbolic Z-matrix:
 Charge =  0 Multiplicity = 1

 SCF Done:  E(RHF) =  -1030.91302579     A.U. after   12 cycles

 1\1\GINC-SE103\Stability\RHF\Aug-CC-pVDZ\H6O6Si2\OHZDE\09-Apr-2025\0\\
 #t hf aug-cc-pvdz symm=none int=(grid=ultrafine) guess=(read,tcheck) s
 table=(opt,rrhf)\\title\\0,1\Si,0,0.071439,1.166118,0.030084\Si,0,-0.0
 71439,-1.166118,0.030084\O,0,-0.418765,-1.939824,1.438451\H,0,0.329981
 ,-2.24267,1.958669\O,0,0.418765,1.939824,1.438451\H,0,-0.329981,2.2426
 7,1.958669\O,0,1.351473,-1.815227,-0.492401\H,0,1.880333,-1.241481,-1.
 056349\O,0,-1.351473,1.815227,-0.492401\H,0,-1.880333,1.241481,-1.0563
 49\O,0,-1.351473,-1.413845,-0.977272\H,0,-1.699204,-2.30569,-1.073722\

 Normal termination of Gaussian 16 at Wed Apr  9 00:09:05 2025.
 Gaussian 16:  ES64L-G16RevC.01  3-Jul-2019

 ----------------------------------------------------------------------
 #t hf aug-cc-pvdz iop(5/13=1,5/36=2,99/5=2) pseudo=read geom=check gue
 ss=(read,tcheck) scf=(maxcycle=1)
 ----------------------------------------------------------------------
 -----
 title
 -----
 Structure from the checkpoint file:  "BDE49_nonexpt_2332_mol1.chk"
 Charge =  0 Multiplicity = 1

                         Standard orientation:
 ---------------------------------------------------------------------
 Center     Atomic      Atomic             Coordinates (Angstroms)
 Number     Number       Type             X           Y           Z
 ---------------------------------------------------------------------
      1         14           0        0.071439    1.166118    0.030084
      2         14           0       -0.071439   -1.166118    0.030084
      3          8           0       -0.418765   -1.939824    1.438451
      4          1           0        0.329981   -2.242670    1.958669
      5          8           0        0.418765    1.939824    1.438451
      6          1           0       -0.329981    2.242670    1.958669
      7          8           0        1.351473   -1.815227   -0.492401
      8          1           0        1.880333   -1.241481   -1.056349
      9          8           0       -1.351473    1.815227   -0.492401
     10          1           0       -1.880333    1.241481   -1.056349
     11          8           0       -1.351473   -1.413845   -0.977272
     12          1           0       -1.699204   -2.305690   -1.073722
     13          8           0        1.351473    1.413845   -0.977272
     14          1           0        1.699204    2.305690   -1.073722
 ---------------------------------------------------------------------

 SCF Done:  E(RHF) =  -1031.15559040     A.U. after    2 cycles

 The electronic state is 1-A.
 Alpha  occ. eigenvalues --  -69.13482 -69.13481 -20.57809 -20.57809 -20.57486
 Alpha  occ. eigenvalues --  -20.57486 -20.57400 -20.57400  -6.87632  -6.87623
 Alpha  occ. eigenvalues --   -3.98640  -3.98638  -3.98619  -3.98615  -3.98450
 Alpha  occ. eigenvalues --   -3.98351  -1.33108  -1.32624  -1.30158  -1.29901
 Alpha  occ. eigenvalues --   -1.29526  -1.29453  -0.79743  -0.77718  -0.73645
 Alpha  occ. eigenvalues --   -0.72687  -0.72228  -0.72072  -0.62358  -0.60973
 Alpha  occ. eigenvalues --   -0.59620  -0.59364  -0.57933  -0.57742  -0.55846
 Alpha  occ. eigenvalues --   -0.55186  -0.55038  -0.53869  -0.52566  -0.52125
 Alpha  occ. eigenvalues --   -0.41755
 Alpha virt. eigenvalues --    0.03172   0.04159   0.05098   0.05267   0.06708
 Alpha virt. eigenvalues --    0.06819   0.07586   0.07596   0.08319   0.09517
 Alpha virt. eigenvalues --    0.09770   0.09896   0.12574   0.14268   0.15387

 Mulliken charges:
               1
     1  Si   2.024668
     2  Si   2.024668
     3  O   -0.770268
     4  H    0.118569
     5  O   -0.770268
     6  H    0.118569
     7  O   -0.832175
     8  H    0.151441
     9  O   -0.832175
    10  H    0.151441
    11  O   -0.804791
    12  H    0.112555
    13  O   -0.804791
    14  H    0.112555
 Sum of Mulliken charges =   0.00000

 Dipole moment (field-independent basis, Debye):
    X=             -0.0000    Y=              0.0000    Z=             -0.2033  Tot=              0.2033

 Test job not archived.
 1\1\GINC-SE103\SP\RHF\Aug-CC-pVDZ\H6O6Si2\OHZDE\09-Apr-2025\0\\#t hf a
 ug-cc-pvdz iop(5/13=1,5/36=2,99/5=2) pseudo=read geom=check guess=(rea
 d,tcheck) scf=(maxcycle=1)\\title\\0,1\Si,0,0.071439,1.166118,0.030084
 \Si,0,-0.071439,-1.166118,0.030084\O,0,-0.418765,-1.939824,1.438451\H,
 0,0.329981,-2.24267,1.958669\O,0,0.418765,1.939824,1.438451\H,0,-0.329
 981,2.24267,1.958669\O,0,1.351473,-1.815227,-0.492401\H,0,1.880333,-1.
 241481,-1.056349\O,0,-1.351473,1.815227,-0.492401\H,0,-1.880333,1.2414
 81,-1.056349\O,0,-1.351473,-1.413845,-0.977272\H,0,-1.699204,-2.30569,

 Normal termination of Gaussian 16 at Wed Apr  9 00:09:09 2025.
