 Gaussian 16, Revision C.01,

 ----------------------------------------------------------------------
 #t hf aug-cc-pvdz symm=none int=(grid=ultrafine) guess=(read,tcheck) s
 table=(opt,rrhf)
 ----------------------------------------------------------------------
 -----
 title
 -----
 Symbolic Z-matrix:
 Charge =  0 Multiplicity = 1

 SCF Done:  E(RHF) =  -663.502849458     A.U. after   14 cycles
 Normal termination of Gaussian 16 at Tue Apr  8 23:51:15 2025.
 Gaussian 16:  ES64L-G16RevC.01  3-Jul-2019

 ----------------------------------------------------------------------
 #t hf aug-cc-pvdz iop(5/13=1,5/36=2,99/5=2) pseudo=read geom=check gue
 ss=(read,tcheck) scf=(maxcycle=1)
 ----------------------------------------------------------------------
 -----
 title
 -----
 Structure from the checkpoint file:  "BDE49_nonexpt_1914_mol1.chk"
 Charge =  0 Multiplicity = 1

                         Standard orientation:
 ---------------------------------------------------------------------
 Center     Atomic      Atomic             Coordinates (Angstroms)
 Number     Number       Type             X           Y           Z
 ---------------------------------------------------------------------
      1         14           0        0.363964    1.107337    0.240731
      2          6           0       -0.624136   -0.304728    1.022730
      3          8           0       -1.451948   -1.013474    0.030865
      4          6           0       -2.564686   -0.439774   -0.275408
      5          7           0       -3.570409    0.055084   -0.564776
      6          8           0        1.586912    0.443239   -0.738540
      7          1           0        0.999788    1.891518    1.314404
      8          1           0       -0.436587    1.898968   -0.698330
      9          6           0        2.517699   -0.352361   -0.344271
     10          7           0        3.358264   -1.072525   -0.007008
     11          1           0       -1.264240    0.046970    1.837188
     12          1           0        0.037581   -1.075038    1.422090
 ---------------------------------------------------------------------

 SCF Done:  E(RHF) =  -663.650573938     A.U. after    2 cycles

 The electronic state is 1-A.
 Alpha  occ. eigenvalues --  -69.16702 -20.69473 -20.68334 -15.65187 -15.64970
 Alpha  occ. eigenvalues --  -11.37151 -11.36599 -11.35654  -6.91514  -4.02437
 Alpha  occ. eigenvalues --   -4.02245  -4.02230  -1.46199  -1.44843  -1.20369
 Alpha  occ. eigenvalues --   -1.20199  -1.02922  -0.89893  -0.82686  -0.75383
 Alpha  occ. eigenvalues --   -0.73498  -0.71536  -0.70083  -0.66290  -0.61239
 Alpha  occ. eigenvalues --   -0.56543  -0.56496  -0.54484  -0.53462  -0.47439
 Alpha  occ. eigenvalues --   -0.46912  -0.46238  -0.45018
 Alpha virt. eigenvalues --    0.02180   0.03337   0.03744   0.04959   0.06064
 Alpha virt. eigenvalues --    0.06556   0.07201   0.08507   0.09184   0.10330
 Alpha virt. eigenvalues --    0.11592   0.12063   0.12289   0.12637   0.12824

 Mulliken charges:
               1
     1  Si   1.081952
     2  C    0.595884
     3  O   -0.370344
     4  C   -0.149957
     5  N   -0.093484
     6  O   -0.603608
     7  H    0.044788
     8  H    0.075500
     9  C   -0.105884
    10  N   -0.079648
    11  H   -0.159180
    12  H   -0.236018
 Sum of Mulliken charges =   0.00000

 Dipole moment (field-independent basis, Debye):
    X=              0.1270    Y=              2.4868    Z=              2.7153  Tot=              3.6842

 Test job not archived.
 1\1\GINC-SE092\SP\RHF\Aug-CC-pVDZ\C3H4N2O2Si1\OHZDE\08-Apr-2025\0\\#t
 hf aug-cc-pvdz iop(5/13=1,5/36=2,99/5=2) pseudo=read geom=check guess=
 (read,tcheck) scf=(maxcycle=1)\\title\\0,1\Si,0,0.363964,1.107337,0.24
 0731\C,0,-0.624136,-0.304728,1.02273\O,0,-1.451948,-1.013474,0.030865\
 C,0,-2.564686,-0.439774,-0.275408\N,0,-3.570409,0.055084,-0.564776\O,0
 ,1.586912,0.443239,-0.73854\H,0,0.999788,1.891518,1.314404\H,0,-0.4365
 87,1.898968,-0.69833\C,0,2.517699,-0.352361,-0.344271\N,0,3.358264,-1.
 072525,-0.007008\H,0,-1.26424,0.04697,1.837188\H,0,0.037581,-1.075038,

 Normal termination of Gaussian 16 at Tue Apr  8 23:51:21 2025.
