 Gaussian 16, Revision C.01,

 ----------------------------------------------------------------------
 #t hf aug-cc-pvdz symm=none int=(grid=ultrafine) guess=(read,tcheck) s
 table=(opt,rrhf)
 ----------------------------------------------------------------------
 -----
 title
 -----
 Symbolic Z-matrix:
 Charge =  0 Multiplicity = 1

 SCF Done:  E(RHF) =  -549.557060985     A.U. after   12 cycles
 Normal termination of Gaussian 16 at Wed Apr  9 00:45:37 2025.
 Gaussian 16:  ES64L-G16RevC.01  3-Jul-2019

 ----------------------------------------------------------------------
 #t hf aug-cc-pvdz iop(5/13=1,5/36=2,99/5=2) pseudo=read geom=check gue
 ss=(read,tcheck) scf=(maxcycle=1)
 ----------------------------------------------------------------------
 -----
 title
 -----
 Structure from the checkpoint file:  "BDE49_nonexpt_808_mol1.chk"
 Charge =  0 Multiplicity = 1

                         Standard orientation:
 ---------------------------------------------------------------------
 Center     Atomic      Atomic             Coordinates (Angstroms)
 Number     Number       Type             X           Y           Z
 ---------------------------------------------------------------------
      1          6           0        0.240913    0.000002   -0.607113
      2          6           0       -0.381137   -1.270734    0.014244
      3          6           0       -1.915578   -1.268100   -0.079246
      4          6           0       -2.518246   -0.000001    0.540588
      5          6           0       -1.915577    1.268102   -0.079239
      6          6           0       -0.381136    1.270734    0.014251
      7          5           0        2.937440   -0.000008    1.348299
      8          1           0       -0.091413   -1.337831    1.071937
      9          1           0        0.018372   -2.166606   -0.473293
     10          1           0       -2.321954   -2.159588    0.410241
     11          1           0       -2.209755   -1.329603   -1.134969
     12          1           0       -2.324355   -0.000004    1.621300
     13          1           0       -3.606520    0.000000    0.420663
     14          1           0       -2.321953    2.159587    0.410253
     15          1           0       -2.209754    1.329611   -1.134962
     16          1           0        0.018373    2.166609   -0.473280
     17          1           0       -0.091413    1.337824    1.071945
     18         14           0        2.137416    0.000002   -0.503740
     19          1           0       -0.002751    0.000005   -1.680200
     20          1           0        2.668246    1.196091   -1.220712
     21          1           0        2.668245   -1.196098   -1.220695
     22          1           0        4.124715    0.000045    1.468056
     23          1           0        2.295460   -0.000055    2.353671
 ---------------------------------------------------------------------

 SCF Done:  E(RHF) =  -549.656441307     A.U. after    2 cycles

 The electronic state is 1-A.
 Alpha  occ. eigenvalues --  -69.03824 -11.23042 -11.23036 -11.22573 -11.22559
 Alpha  occ. eigenvalues --  -11.22486 -11.21990  -7.62137  -6.79342  -3.90117
 Alpha  occ. eigenvalues --   -3.90080  -3.90041  -1.10061  -0.99548  -0.99230
 Alpha  occ. eigenvalues --   -0.83075  -0.82685  -0.75326  -0.71835  -0.65329
 Alpha  occ. eigenvalues --   -0.62162  -0.60285  -0.60099  -0.58603  -0.53052
 Alpha  occ. eigenvalues --   -0.52444  -0.50573  -0.48966  -0.48574  -0.48119
 Alpha  occ. eigenvalues --   -0.46224  -0.45338  -0.43019  -0.40746  -0.38681
 Alpha virt. eigenvalues --    0.03314   0.03399   0.03897   0.04091   0.04605
 Alpha virt. eigenvalues --    0.05224   0.05761   0.06243   0.06547   0.07618
 Alpha virt. eigenvalues --    0.07708   0.08119   0.08413   0.08997   0.09123

 Mulliken charges:
               1
     1  C    0.227147
     2  C    0.183826
     3  C    0.361807
     4  C    0.256056
     5  C    0.361809
     6  C    0.183817
     7  B   -0.690512
     8  H   -0.186342
     9  H   -0.193856
    10  H   -0.107455
    11  H   -0.090504
    12  H   -0.087720
    13  H   -0.120228
    14  H   -0.107456
    15  H   -0.090503
    16  H   -0.193853
    17  H   -0.186338
    18  Si  -0.590645
    19  H   -0.189277
    20  H    0.186605
    21  H    0.186607
    22  H    0.457097
    23  H    0.429919
 Sum of Mulliken charges =  -0.00000

 Dipole moment (field-independent basis, Debye):
    X=             -0.8574    Y=              0.0000    Z=              0.2954  Tot=              0.9068

 Test job not archived.
 1\1\GINC-SE125\SP\RHF\Aug-CC-pVDZ\C6H15B1Si1\OHZDE\09-Apr-2025\0\\#t h
 f aug-cc-pvdz iop(5/13=1,5/36=2,99/5=2) pseudo=read geom=check guess=(
 read,tcheck) scf=(maxcycle=1)\\title\\0,1\C,0,-0.240913,-0.000002,-0.6
 07113\C,0,0.381137,1.270734,0.014244\C,0,1.915578,1.2681,-0.079246\C,0
 ,2.518246,0.000001,0.540588\C,0,1.915577,-1.268102,-0.079239\C,0,0.381
 136,-1.270734,0.014251\B,0,-2.93744,0.000008,1.348299\H,0,0.091413,1.3
 37831,1.071937\H,0,-0.018372,2.166606,-0.473293\H,0,2.321954,2.159588,
 0.410241\H,0,2.209755,1.329603,-1.134969\H,0,2.324355,0.000004,1.6213\

 Normal termination of Gaussian 16 at Wed Apr  9 00:45:50 2025.
