 Gaussian 16, Revision C.01,

 ----------------------------------------------------------------------
 #t hf aug-cc-pvdz symm=none int=(grid=ultrafine) guess=(read,tcheck) s
 table=(opt,rrhf)
 ----------------------------------------------------------------------
 -----
 title
 -----
 Symbolic Z-matrix:
 Charge =  0 Multiplicity = 1

 SCF Done:  E(RHF) =  -1347.72865416     A.U. after   15 cycles
 Normal termination of Gaussian 16 at Wed Apr  9 00:48:30 2025.
 Gaussian 16:  ES64L-G16RevC.01  3-Jul-2019

 ----------------------------------------------------------------------
 #t hf aug-cc-pvdz iop(5/13=1,5/36=2,99/5=2) pseudo=read geom=check gue
 ss=(read,tcheck) scf=(maxcycle=1)
 ----------------------------------------------------------------------
 -----
 title
 -----
 Structure from the checkpoint file:  "BDE49_nonexpt_872_mol1.chk"
 Charge =  0 Multiplicity = 1

                         Standard orientation:
 ---------------------------------------------------------------------
 Center     Atomic      Atomic             Coordinates (Angstroms)
 Number     Number       Type             X           Y           Z
 ---------------------------------------------------------------------
      1          9           0       -0.048149    2.350313    0.000071
      2          9           0       -0.048140   -2.350307   -0.000072
      3          9           0       -4.111260   -0.000005    0.000000
      4         16           0        2.569016   -0.000078    1.534079
      5         16           0        2.569016    0.000076   -1.534079
      6          6           0        0.035417    0.000003    0.000000
      7          6           0       -0.714033    1.176345    0.000029
      8          6           0       -2.766428   -0.000003    0.000000
      9          6           0       -0.714028   -1.176342   -0.000029
     10          6           0       -2.099773    1.216100    0.000037
     11          1           0       -2.635072    2.155252    0.000058
     12          6           0       -2.099768   -1.216103   -0.000037
     13          1           0       -2.635064   -2.155257   -0.000058
     14          5           0        1.606336    0.000006    0.000000
     15          1           0        1.524779    0.000092   -2.379128
     16          1           0        1.524778   -0.000100    2.379129
 ---------------------------------------------------------------------

 SCF Done:  E(RHF) =  -1347.94485216     A.U. after    2 cycles

 The electronic state is 1-A.
 Alpha  occ. eigenvalues --  -93.54985 -93.54984 -26.16489 -26.16407 -26.16405
 Alpha  occ. eigenvalues --  -11.38337 -11.38337 -11.38235 -11.27963 -11.27962
 Alpha  occ. eigenvalues --  -11.27064  -8.84979  -8.84920  -7.69495  -6.19138
 Alpha  occ. eigenvalues --   -6.19134  -6.18893  -6.18893  -6.18661  -6.18640
 Alpha  occ. eigenvalues --   -1.70451  -1.70321  -1.70287  -1.19949  -1.07341
 Alpha  occ. eigenvalues --   -1.06824  -1.00391  -0.95894  -0.92431  -0.92196
 Alpha  occ. eigenvalues --   -0.86087  -0.82482  -0.78274  -0.77757  -0.77596
 Alpha  occ. eigenvalues --   -0.77547  -0.77546  -0.72866  -0.71147  -0.70912
 Alpha  occ. eigenvalues --   -0.65124  -0.62753  -0.59160  -0.59053  -0.55231
 Alpha  occ. eigenvalues --   -0.53519  -0.48864  -0.46125  -0.43470  -0.38303
 Alpha  occ. eigenvalues --   -0.37387  -0.37206
 Alpha virt. eigenvalues --    0.02976   0.04158   0.04723   0.04920   0.06159
 Alpha virt. eigenvalues --    0.06708   0.08065   0.08097   0.08670   0.08843
 Alpha virt. eigenvalues --    0.09382   0.09511   0.11072   0.11452   0.11540

 Mulliken charges:
               1
     1  F   -0.352321
     2  F   -0.352321
     3  F   -0.313467
     4  S   -0.239269
     5  S   -0.239267
     6  C    0.115029
     7  C   -0.137291
     8  C    0.164697
     9  C   -0.137282
    10  C    0.876563
    11  H   -0.401844
    12  C    0.876559
    13  H   -0.401843
    14  B    0.534109
    15  H    0.003973
    16  H    0.003975
 Sum of Mulliken charges =  -0.00000

 Dipole moment (field-independent basis, Debye):
    X=             -1.9147    Y=             -0.0000    Z=              0.0000  Tot=              1.9147

 Test job not archived.
 1\1\GINC-SE419\SP\RHF\Aug-CC-pVDZ\C6H4B1F3S2\OHZDE\09-Apr-2025\0\\#t h
 f aug-cc-pvdz iop(5/13=1,5/36=2,99/5=2) pseudo=read geom=check guess=(
 read,tcheck) scf=(maxcycle=1)\\title\\0,1\F,0,-0.048149,2.350313,0.000
 071\F,0,-0.04814,-2.350307,-0.000072\F,0,-4.11126,-0.000006,0.\S,0,2.5
 69016,-0.000077,1.534079\S,0,2.569016,0.000077,-1.534079\C,0,0.035417,
 0.000003,0.\C,0,-0.714033,1.176345,0.000029\C,0,-2.766428,-0.000003,0.
 \C,0,-0.714028,-1.176342,-0.000029\C,0,-2.099773,1.2161,0.000037\H,0,-
 2.635072,2.155252,0.000058\C,0,-2.099768,-1.216103,-0.000037\H,0,-2.63

 Normal termination of Gaussian 16 at Wed Apr  9 00:48:40 2025.
