 Gaussian 16, Revision C.01,

 ----------------------------------------------------------------------
 #t hf aug-cc-pvdz symm=none int=(grid=ultrafine) guess=(read,tcheck) s
 table=(opt,rrhf)
 ----------------------------------------------------------------------
 -----
 title
 -----
 Symbolic Z-matrix:
 Charge =  0 Multiplicity = 1

 SCF Done:  E(RHF) =  -1423.48506805     A.U. after   13 cycles
 Normal termination of Gaussian 16 at Tue Apr  8 23:22:59 2025.
 Gaussian 16:  ES64L-G16RevC.01  3-Jul-2019

 ----------------------------------------------------------------------
 #t hf aug-cc-pvdz iop(5/13=1,5/36=2,99/5=2) pseudo=read geom=check gue
 ss=(read,tcheck) scf=(maxcycle=1)
 ----------------------------------------------------------------------
 -----
 title
 -----
 Structure from the checkpoint file:  "BDE49_nonexpt_1256_mol1.chk"
 Charge =  0 Multiplicity = 1

                         Standard orientation:
 ---------------------------------------------------------------------
 Center     Atomic      Atomic             Coordinates (Angstroms)
 Number     Number       Type             X           Y           Z
 ---------------------------------------------------------------------
      1         16           0       -1.062478   -0.037606    0.106184
      2         17           0        2.219676   -0.450498    0.009564
      3          8           0       -0.964799   -1.094290   -1.128143
      4          8           0       -2.051246    0.931890   -0.276902
      5          8           0       -1.139523   -0.799186    1.325567
      6         15           0        0.829008    1.108759    0.059549
      7          1           0       -0.638451   -1.936299   -0.774907
      8          1           0        0.713031    1.257760   -1.344040
 ---------------------------------------------------------------------

 SCF Done:  E(RHF) =  -1423.67621583     A.U. after    2 cycles

 The electronic state is 1-A.
 Alpha  occ. eigenvalues -- -103.70136 -93.84422 -81.37990 -20.66377 -20.59771
 Alpha  occ. eigenvalues --  -20.59675 -10.73446  -9.10630  -8.39152  -8.38861
 Alpha  occ. eigenvalues --   -8.38835  -7.87825  -6.45258  -6.45157  -6.44894
 Alpha  occ. eigenvalues --   -5.01565  -5.01465  -5.01218  -1.48959  -1.37433
 Alpha  occ. eigenvalues --   -1.35002  -1.18206  -0.94220  -0.84356  -0.77180
 Alpha  occ. eigenvalues --   -0.72275  -0.71445  -0.66811  -0.61451  -0.60204
 Alpha  occ. eigenvalues --   -0.57056  -0.55383  -0.53749  -0.53118  -0.52780
 Alpha  occ. eigenvalues --   -0.47685  -0.42171
 Alpha virt. eigenvalues --    0.02977   0.03835   0.04793   0.05443   0.08601
 Alpha virt. eigenvalues --    0.09773   0.10589   0.11373   0.11546   0.12753
 Alpha virt. eigenvalues --    0.13706   0.15300   0.15609   0.16720   0.17127

 Mulliken charges:
               1
     1  S    2.173670
     2  Cl  -0.413509
     3  O   -0.749343
     4  O   -0.944611
     5  O   -0.966887
     6  P    0.443154
     7  H    0.182326
     8  H    0.275200
 Sum of Mulliken charges =  -0.00000

 Dipole moment (field-independent basis, Debye):
    X=              3.3247    Y=              0.0525    Z=             -1.5266  Tot=              3.6588

 Test job not archived.
 1\1\GINC-SE186\SP\RHF\Aug-CC-pVDZ\Cl1H2O3P1S1\OHZDE\08-Apr-2025\0\\#t
 hf aug-cc-pvdz iop(5/13=1,5/36=2,99/5=2) pseudo=read geom=check guess=
 (read,tcheck) scf=(maxcycle=1)\\title\\0,1\S,0,-1.062478,-0.037606,0.1
 06184\Cl,0,2.219676,-0.450498,0.009564\O,0,-0.964799,-1.09429,-1.12814
 3\O,0,-2.051246,0.93189,-0.276902\O,0,-1.139523,-0.799186,1.325567\P,0
 ,0.829008,1.108759,0.059549\H,0,-0.638451,-1.936299,-0.774907\H,0,0.71
 3031,1.25776,-1.34404\\Version=ES64L-G16RevC.01\State=1-A\HF=-1423.676
 2158\RMSD=5.922e-03\Dipole=1.3080313,0.0206592,-0.600614\Quadrupole=-4

 Normal termination of Gaussian 16 at Tue Apr  8 23:23:03 2025.
