 Gaussian 16, Revision C.01,

 ----------------------------------------------------------------------
 #t hf aug-cc-pvdz symm=none int=(grid=ultrafine) guess=(read,tcheck) s
 table=(opt,rrhf)
 ----------------------------------------------------------------------
 -----
 title
 -----
 Symbolic Z-matrix:
 Charge =  0 Multiplicity = 1

 SCF Done:  E(RHF) =  -468.285798584     A.U. after   11 cycles
 Normal termination of Gaussian 16 at Tue Apr  8 23:53:56 2025.
 Gaussian 16:  ES64L-G16RevC.01  3-Jul-2019

 ----------------------------------------------------------------------
 #t hf aug-cc-pvdz iop(5/13=1,5/36=2,99/5=2) pseudo=read geom=check gue
 ss=(read,tcheck) scf=(maxcycle=1)
 ----------------------------------------------------------------------
 -----
 title
 -----
 Structure from the checkpoint file:  "BDE49_nonexpt_1973_mol1.chk"
 Charge =  0 Multiplicity = 1

                         Standard orientation:
 ---------------------------------------------------------------------
 Center     Atomic      Atomic             Coordinates (Angstroms)
 Number     Number       Type             X           Y           Z
 ---------------------------------------------------------------------
      1         14           0        0.259288    0.255676    0.000000
      2          6           0        0.259288   -0.777155    1.552298
      3          9           0       -1.081296    1.169120   -0.000000
      4          1           0       -0.596510   -1.457960    1.577103
      5          1           0        0.217544   -0.147059    2.444854
      6          6           0        0.259288   -0.777155   -1.552298
      7          1           0       -0.596510   -1.457960   -1.577103
      8          1           0        1.171417   -1.379983   -1.610331
      9          1           0        0.217544   -0.147059   -2.444854
     10          1           0        1.171417   -1.379983    1.610331
     11          1           0        1.405279    1.194315    0.000000
 ---------------------------------------------------------------------

 SCF Done:  E(RHF) =  -468.382487803     A.U. after    2 cycles

 The electronic state is 1-A'.
 Alpha  occ. eigenvalues --  -69.09985 -26.09079 -11.22182 -11.22177  -6.84671
 Alpha  occ. eigenvalues --   -3.95618  -3.95418  -3.95411  -1.61594  -0.96239
 Alpha  occ. eigenvalues --   -0.93402  -0.77559  -0.70495  -0.70338  -0.61070
 Alpha  occ. eigenvalues --   -0.57715  -0.56145  -0.55733  -0.55403  -0.46023
 Alpha  occ. eigenvalues --   -0.45162
 Alpha virt. eigenvalues --    0.03203   0.04713   0.05103   0.05379   0.07087
 Alpha virt. eigenvalues --    0.07342   0.07606   0.08467   0.09530   0.09948
 Alpha virt. eigenvalues --    0.14513   0.15163   0.16122   0.16289   0.16702

 Mulliken charges:
               1
     1  Si   1.719779
     2  C    0.276028
     3  F   -0.824879
     4  H   -0.186127
     5  H   -0.272311
     6  C    0.276028
     7  H   -0.186127
     8  H   -0.212439
     9  H   -0.272311
    10  H   -0.212439
    11  H   -0.105200
 Sum of Mulliken charges =  -0.00000

 Dipole moment (field-independent basis, Debye):
    X=              1.3428    Y=             -1.7158    Z=             -0.0000  Tot=              2.1788

 Test job not archived.
 1\1\GINC-SE103\SP\RHF\Aug-CC-pVDZ\C2H7F1Si1\OHZDE\08-Apr-2025\0\\#t hf
  aug-cc-pvdz iop(5/13=1,5/36=2,99/5=2) pseudo=read geom=check guess=(r
 ead,tcheck) scf=(maxcycle=1)\\title\\0,1\Si,0,0.259288,0.255676,0.\C,0
 ,0.259288,-0.777155,1.552298\F,0,-1.081296,1.16912,0.\H,0,-0.59651,-1.
 45796,1.577103\H,0,0.217544,-0.147059,2.444854\C,0,0.259288,-0.777155,
 -1.552298\H,0,-0.59651,-1.45796,-1.577103\H,0,1.171417,-1.379983,-1.61
 0331\H,0,0.217544,-0.147059,-2.444854\H,0,1.171417,-1.379983,1.610331\
 H,0,1.405279,1.194315,0.\\Version=ES64L-G16RevC.01\State=1-A'\HF=-468.

 Normal termination of Gaussian 16 at Tue Apr  8 23:53:59 2025.
