 Gaussian 16, Revision C.01,

 ----------------------------------------------------------------------
 #t hf aug-cc-pvdz symm=none int=(grid=ultrafine) guess=(read,tcheck) s
 table=(opt,rrhf)
 ----------------------------------------------------------------------
 -----
 title
 -----
 Symbolic Z-matrix:
 Charge =  0 Multiplicity = 1

 SCF Done:  E(RHF) =  -193.046341115     A.U. after   13 cycles
 Normal termination of Gaussian 16 at Wed Apr  9 00:34:45 2025.
 Gaussian 16:  ES64L-G16RevC.01  3-Jul-2019

 ----------------------------------------------------------------------
 #t hf aug-cc-pvdz iop(5/13=1,5/36=2,99/5=2) pseudo=read geom=check gue
 ss=(read,tcheck) scf=(maxcycle=1)
 ----------------------------------------------------------------------
 -----
 title
 -----
 Structure from the checkpoint file:  "BDE49_nonexpt_509_mol1.chk"
 Charge =  0 Multiplicity = 1

                         Standard orientation:
 ---------------------------------------------------------------------
 Center     Atomic      Atomic             Coordinates (Angstroms)
 Number     Number       Type             X           Y           Z
 ---------------------------------------------------------------------
      1          1           0       -2.686481   -0.201704   -0.000003
      2          5           0       -1.638596    0.346900   -0.000000
      3          6           0        0.684500   -0.089502   -0.000001
      4          7           0        1.798380    0.214644    0.000005
      5          8           0       -0.544262   -0.502127   -0.000003
      6          1           0       -1.462103    1.518726    0.000004
 ---------------------------------------------------------------------

 SCF Done:  E(RHF) =  -193.112776917     A.U. after    2 cycles

 The electronic state is 1-A.
 Alpha  occ. eigenvalues --  -20.69159 -15.65032 -11.36668  -7.70611  -1.46055
 Alpha  occ. eigenvalues --   -1.20265  -0.92119  -0.75375  -0.69958  -0.65383
 Alpha  occ. eigenvalues --   -0.56510  -0.53432  -0.47245  -0.46532
 Alpha virt. eigenvalues --    0.02900   0.03754   0.04494   0.05040   0.09414
 Alpha virt. eigenvalues --    0.09876   0.09942   0.10644   0.11339   0.13689
 Alpha virt. eigenvalues --    0.14565   0.18691   0.19221   0.21025   0.21691

 Mulliken charges:
               1
     1  H    0.211400
     2  B    0.045241
     3  C    0.030556
     4  N   -0.073722
     5  O   -0.334405
     6  H    0.120931
 Sum of Mulliken charges =  -0.00000

 Dipole moment (field-independent basis, Debye):
    X=             -3.7114    Y=              0.1642    Z=             -0.0000  Tot=              3.7150

 Test job not archived.
 1\1\GINC-SE363\SP\RHF\Aug-CC-pVDZ\C1H2B1N1O1\OHZDE\09-Apr-2025\0\\#t h
 f aug-cc-pvdz iop(5/13=1,5/36=2,99/5=2) pseudo=read geom=check guess=(
 read,tcheck) scf=(maxcycle=1)\\title\\0,1\H,0,-2.686481,-0.201704,-0.0
 00003\B,0,-1.638596,0.3469,0.\C,0,0.6845,-0.089502,-0.000001\N,0,1.798
 38,0.214644,0.000005\O,0,-0.544262,-0.502127,-0.000003\H,0,-1.462103,1
 .518726,0.000004\\Version=ES64L-G16RevC.01\State=1-A\HF=-193.1127769\R
 MSD=3.458e-03\Dipole=-1.46017,0.0646165,-0.000003\Quadrupole=-2.455162
 1,0.4440714,2.0110908,-1.4920821,-0.0000165,-0.0000076\PG=C01 [X(C1H2B

 Normal termination of Gaussian 16 at Wed Apr  9 00:34:46 2025.
