 Gaussian 16, Revision C.01,

 ----------------------------------------------------------------------
 #t hf aug-cc-pvdz symm=none int=(grid=ultrafine) guess=(read,tcheck) s
 table=(opt,rrhf)
 ----------------------------------------------------------------------
 -----
 title
 -----
 Symbolic Z-matrix:
 Charge =  0 Multiplicity = 1

 SCF Done:  E(RHF) =  -341.292756012     A.U. after   17 cycles
 Normal termination of Gaussian 16 at Tue Apr  8 23:19:50 2025.
 Gaussian 16:  ES64L-G16RevC.01  3-Jul-2019

 ----------------------------------------------------------------------
 #t hf aug-cc-pvdz iop(5/13=1,5/36=2,99/5=2) pseudo=read geom=check gue
 ss=(read,tcheck) scf=(maxcycle=1)
 ----------------------------------------------------------------------
 -----
 title
 -----
 Structure from the checkpoint file:  "BDE49_nonexpt_1157_mol1.chk"
 Charge =  0 Multiplicity = 1

                         Standard orientation:
 ---------------------------------------------------------------------
 Center     Atomic      Atomic             Coordinates (Angstroms)
 Number     Number       Type             X           Y           Z
 ---------------------------------------------------------------------
      1          9           0       -1.585653    0.813969    0.080553
      2          8           0       -1.153571   -0.589252   -0.254969
      3          6           0        1.062171   -0.099111   -0.015289
      4          8           0        2.087428    0.427648   -0.073516
      5          7           0        0.061000   -0.776889    0.284948
 ---------------------------------------------------------------------

 SCF Done:  E(RHF) =  -341.404395404     A.U. after    2 cycles

 The electronic state is 1-A.
 Alpha  occ. eigenvalues --  -26.18266 -20.79068 -20.70429 -15.75129 -11.48714
 Alpha  occ. eigenvalues --   -1.67594  -1.50683  -1.44496  -1.19439  -0.86066
 Alpha  occ. eigenvalues --   -0.80709  -0.79569  -0.78143  -0.72402  -0.70960
 Alpha  occ. eigenvalues --   -0.68735  -0.65220  -0.52433  -0.47615
 Alpha virt. eigenvalues --    0.02478   0.05042   0.07509   0.08162   0.08296
 Alpha virt. eigenvalues --    0.11690   0.14381   0.17447   0.18358   0.18595
 Alpha virt. eigenvalues --    0.22430   0.23430   0.23564   0.24988   0.25805

 Mulliken charges:
               1
     1  F   -0.323316
     2  O   -0.150499
     3  C    0.391620
     4  O   -0.115518
     5  N    0.197713
 Sum of Mulliken charges =  -0.00000

 Dipole moment (field-independent basis, Debye):
    X=              1.1590    Y=             -0.8561    Z=             -0.5465  Tot=              1.5411

 Test job not archived.
 1\1\GINC-SE361\SP\RHF\Aug-CC-pVDZ\C1F1N1O2\OHZDE\08-Apr-2025\0\\#t hf
 aug-cc-pvdz iop(5/13=1,5/36=2,99/5=2) pseudo=read geom=check guess=(re
 ad,tcheck) scf=(maxcycle=1)\\title\\0,1\F,0,-1.585653,0.813969,0.08055
 3\O,0,-1.153571,-0.589252,-0.254969\C,0,1.062171,-0.099111,-0.015289\O
 ,0,2.087428,0.427648,-0.073516\N,0,0.061,-0.776889,0.284948\\Version=E
 S64L-G16RevC.01\State=1-A\HF=-341.4043954\RMSD=3.846e-03\Dipole=0.4559
 939,-0.3368198,-0.2149918\Quadrupole=-2.1411465,0.6400087,1.5011378,-0
 .2016507,0.183685,0.413515\PG=C01 [X(C1F1N1O2)]\\@

 Normal termination of Gaussian 16 at Tue Apr  8 23:19:52 2025.
