 Gaussian 16, Revision C.01,

 ----------------------------------------------------------------------
 #t hf aug-cc-pvdz symm=none int=(grid=ultrafine) guess=(read,tcheck) s
 table=(opt,rrhf)
 ----------------------------------------------------------------------
 -----
 title
 -----
 Symbolic Z-matrix:
 Charge =  0 Multiplicity = 1

 SCF Done:  E(RHF) =  -1407.07940377     A.U. after   11 cycles
 Normal termination of Gaussian 16 at Tue Apr  8 23:46:13 2025.
 Gaussian 16:  ES64L-G16RevC.01  3-Jul-2019

 ----------------------------------------------------------------------
 #t hf aug-cc-pvdz iop(5/13=1,5/36=2,99/5=2) pseudo=read geom=check gue
 ss=(read,tcheck) scf=(maxcycle=1)
 ----------------------------------------------------------------------
 -----
 title
 -----
 Structure from the checkpoint file:  "BDE49_nonexpt_1807_mol1.chk"
 Charge =  0 Multiplicity = 1

                         Standard orientation:
 ---------------------------------------------------------------------
 Center     Atomic      Atomic             Coordinates (Angstroms)
 Number     Number       Type             X           Y           Z
 ---------------------------------------------------------------------
      1         14           0       -0.000017    0.328815    0.000000
      2          9           0       -0.000017    1.260569    1.275184
      3          9           0       -0.000017    1.260569   -1.275184
      4         17           0       -1.680155   -0.802806    0.000000
      5         17           0        1.680187   -0.802703    0.000000
 ---------------------------------------------------------------------

 SCF Done:  E(RHF) =  -1407.23761248     A.U. after    2 cycles

 The electronic state is 1-A'.
 Alpha  occ. eigenvalues -- -103.69643-103.69642 -69.26705 -26.15902 -26.15901
 Alpha  occ. eigenvalues --  -10.73171 -10.73157  -8.38863  -8.38857  -8.38606
 Alpha  occ. eigenvalues --   -8.38604  -8.38603  -8.38601  -6.99969  -4.10984
 Alpha  occ. eigenvalues --   -4.10942  -4.10903  -1.69706  -1.68476  -1.19630
 Alpha  occ. eigenvalues --   -1.17505  -0.87289  -0.81785  -0.78647  -0.78396
 Alpha  occ. eigenvalues --   -0.76096  -0.74571  -0.65291  -0.58755  -0.54173
 Alpha  occ. eigenvalues --   -0.53282  -0.51768  -0.50503
 Alpha virt. eigenvalues --    0.04770   0.05835   0.06247   0.06300   0.11932
 Alpha virt. eigenvalues --    0.12289   0.14123   0.14241   0.15293   0.16361
 Alpha virt. eigenvalues --    0.17327   0.18046   0.19954   0.21120   0.22586

 Mulliken charges:
               1
     1  Si   2.303962
     2  F   -0.770296
     3  F   -0.770296
     4  Cl  -0.381684
     5  Cl  -0.381686
 Sum of Mulliken charges =  -0.00000

 Dipole moment (field-independent basis, Debye):
    X=             -0.0001    Y=             -0.9101    Z=              0.0000  Tot=              0.9101

 Test job not archived.
 1\1\GINC-SE435\SP\RHF\Aug-CC-pVDZ\Cl2F2Si1\OHZDE\08-Apr-2025\0\\#t hf
 aug-cc-pvdz iop(5/13=1,5/36=2,99/5=2) pseudo=read geom=check guess=(re
 ad,tcheck) scf=(maxcycle=1)\\title\\0,1\Si,0,-0.000017,0.328815,0.\F,0
 ,-0.000017,1.260569,1.275184\F,0,-0.000017,1.260569,-1.275184\Cl,0,-1.
 680155,-0.802806,0.\Cl,0,1.680187,-0.802703,0.\\Version=ES64L-G16RevC.
 01\State=1-A'\HF=-1407.2376125\RMSD=4.610e-03\Dipole=-0.0000531,-0.358
 0769,0.\Quadrupole=1.492987,-0.3730534,-1.1199336,0.0000258,0.,0.\PG=C
 S [SG(Cl2Si1),X(F2)]\\@

 Normal termination of Gaussian 16 at Tue Apr  8 23:46:15 2025.
