 Gaussian 16, Revision C.01,

 ----------------------------------------------------------------------
 #t hf aug-cc-pvdz symm=none int=(grid=ultrafine) guess=(read,tcheck) s
 table=(opt,rrhf)
 ----------------------------------------------------------------------
 -----
 title
 -----
 Symbolic Z-matrix:
 Charge =  0 Multiplicity = 1

 SCF Done:  E(RHF) =  -867.353966514     A.U. after   12 cycles
 Normal termination of Gaussian 16 at Tue Apr  8 23:43:29 2025.
 Gaussian 16:  ES64L-G16RevC.01  3-Jul-2019

 ----------------------------------------------------------------------
 #t hf aug-cc-pvdz iop(5/13=1,5/36=2,99/5=2) pseudo=read geom=check gue
 ss=(read,tcheck) scf=(maxcycle=1)
 ----------------------------------------------------------------------
 -----
 title
 -----
 Structure from the checkpoint file:  "BDE49_nonexpt_1729_mol1.chk"
 Charge =  0 Multiplicity = 1

                         Standard orientation:
 ---------------------------------------------------------------------
 Center     Atomic      Atomic             Coordinates (Angstroms)
 Number     Number       Type             X           Y           Z
 ---------------------------------------------------------------------
      1         14           0       -0.918808    0.922580    0.137009
      2          6           0        0.854799    0.684071   -0.412365
      3          6           0        1.672677   -0.340214    0.395646
      4         17           0       -1.994915   -0.859141   -0.084462
      5          6           0        3.118918   -0.468060   -0.093700
      6          1           0        3.647354    0.487535   -0.020945
      7          1           0        3.153520   -0.787492   -1.139686
      8          1           0        3.673325   -1.202056    0.497526
      9          1           0        1.331027    1.673526   -0.357755
     10          1           0        0.848734    0.411788   -1.474836
     11          1           0        1.183837   -1.318331    0.343106
     12          1           0        1.671699   -0.056040    1.454143
     13          1           0       -1.605563    1.937811   -0.687866
     14          1           0       -1.005435    1.287763    1.566553
 ---------------------------------------------------------------------

 SCF Done:  E(RHF) =  -867.435263653     A.U. after    2 cycles

 The electronic state is 1-A.
 Alpha  occ. eigenvalues -- -103.64393 -69.10617 -11.24397 -11.23477 -11.23023
 Alpha  occ. eigenvalues --  -10.67830  -8.33521  -8.33304  -8.33299  -6.85513
 Alpha  occ. eigenvalues --   -3.96367  -3.96215  -3.96204  -1.12726  -1.05565
 Alpha  occ. eigenvalues --   -0.93388  -0.81636  -0.69469  -0.64253  -0.58779
 Alpha  occ. eigenvalues --   -0.56055  -0.55786  -0.52020  -0.51426  -0.49008
 Alpha  occ. eigenvalues --   -0.48515  -0.48154  -0.44910  -0.43017
 Alpha virt. eigenvalues --    0.03368   0.04287   0.04651   0.04879   0.06468
 Alpha virt. eigenvalues --    0.06655   0.06945   0.07462   0.08911   0.09622
 Alpha virt. eigenvalues --    0.09884   0.10192   0.12508   0.13754   0.14805

 Mulliken charges:
               1
     1  Si   0.755649
     2  C    0.107469
     3  C    0.005556
     4  Cl  -0.555524
     5  C    0.399995
     6  H   -0.066614
     7  H   -0.061849
     8  H   -0.070345
     9  H   -0.162149
    10  H   -0.146365
    11  H   -0.119076
    12  H   -0.133609
    13  H   -0.007927
    14  H    0.054789
 Sum of Mulliken charges =  -0.00000

 Dipole moment (field-independent basis, Debye):
    X=              1.8975    Y=              1.3334    Z=             -0.0055  Tot=              2.3192

 Test job not archived.
 1\1\GINC-SE043\SP\RHF\Aug-CC-pVDZ\C3H9Cl1Si1\OHZDE\08-Apr-2025\0\\#t h
 f aug-cc-pvdz iop(5/13=1,5/36=2,99/5=2) pseudo=read geom=check guess=(
 read,tcheck) scf=(maxcycle=1)\\title\\0,1\Si,0,-0.918808,0.92258,0.137
 009\C,0,0.854799,0.684071,-0.412365\C,0,1.672677,-0.340214,0.395646\Cl
 ,0,-1.994915,-0.859141,-0.084462\C,0,3.118918,-0.46806,-0.0937\H,0,3.6
 47354,0.487535,-0.020945\H,0,3.15352,-0.787492,-1.139686\H,0,3.673325,
 -1.202056,0.497526\H,0,1.331027,1.673526,-0.357755\H,0,0.848734,0.4117
 88,-1.474836\H,0,1.183837,-1.318331,0.343106\H,0,1.671699,-0.05604,1.4

 Normal termination of Gaussian 16 at Tue Apr  8 23:43:35 2025.
