 Gaussian 16, Revision C.01,

 ----------------------------------------------------------------------
 #t hf aug-cc-pvdz symm=none int=(grid=ultrafine) guess=(read,tcheck) s
 table=(opt,rrhf)
 ----------------------------------------------------------------------
 -----
 title
 -----
 Symbolic Z-matrix:
 Charge =  0 Multiplicity = 1

 SCF Done:  E(RHF) =  -805.932339072     A.U. after   12 cycles
 Normal termination of Gaussian 16 at Wed Apr  9 00:14:24 2025.
 Gaussian 16:  ES64L-G16RevC.01  3-Jul-2019

 ----------------------------------------------------------------------
 #t hf aug-cc-pvdz iop(5/13=1,5/36=2,99/5=2) pseudo=read geom=check gue
 ss=(read,tcheck) scf=(maxcycle=1)
 ----------------------------------------------------------------------
 -----
 title
 -----
 Structure from the checkpoint file:  "BDE49_nonexpt_2511_mol1.chk"
 Charge =  0 Multiplicity = 1

                         Standard orientation:
 ---------------------------------------------------------------------
 Center     Atomic      Atomic             Coordinates (Angstroms)
 Number     Number       Type             X           Y           Z
 ---------------------------------------------------------------------
      1         16           0        1.383456    0.053189   -0.716355
      2          6           0        2.042515   -0.902929    0.712878
      3          1           0        2.266030   -0.244236    1.552191
      4          1           0        2.967386   -1.368225    0.372733
      5          1           0        1.349212   -1.684468    1.022774
      6         14           0       -0.322737    1.022444    0.185074
      7          6           0       -1.718698   -0.150919    0.662863
      8          6           0       -2.352595   -0.922173   -0.506517
      9          1           0       -2.476312    0.457848    1.173603
     10          1           0       -1.342795   -0.848207    1.420843
     11          1           0       -2.782483   -0.240817   -1.246268
     12          1           0       -3.154552   -1.580317   -0.160157
     13          1           0       -1.613721   -1.540394   -1.022593
     14          1           0       -0.777348    1.977697   -0.852100
     15          1           0        0.120255    1.762002    1.394272
 ---------------------------------------------------------------------

 SCF Done:  E(RHF) =  -806.014751435     A.U. after    2 cycles

 The electronic state is 1-A.
 Alpha  occ. eigenvalues --  -93.51566 -69.07941 -11.27093 -11.23238 -11.22870
 Alpha  occ. eigenvalues --   -8.81461  -6.83005  -6.15575  -6.15387  -6.15130
 Alpha  occ. eigenvalues --   -3.93816  -3.93752  -3.93707  -1.02254  -1.00999
 Alpha  occ. eigenvalues --   -0.85853  -0.83990  -0.66954  -0.61507  -0.59584
 Alpha  occ. eigenvalues --   -0.58915  -0.57567  -0.52941  -0.50158  -0.49632
 Alpha  occ. eigenvalues --   -0.46261  -0.44450  -0.40674  -0.34775
 Alpha virt. eigenvalues --    0.03252   0.04393   0.04841   0.04867   0.06298
 Alpha virt. eigenvalues --    0.06807   0.06887   0.07283   0.07889   0.09073
 Alpha virt. eigenvalues --    0.09520   0.10404   0.11652   0.12304   0.13503

 Mulliken charges:
               1
     1  S   -0.229386
     2  C    0.115937
     3  H   -0.109203
     4  H   -0.109008
     5  H   -0.132509
     6  Si   0.557429
     7  C    0.174286
     8  C    0.219816
     9  H   -0.182333
    10  H   -0.173964
    11  H   -0.105417
    12  H   -0.084928
    13  H   -0.115613
    14  H    0.077609
    15  H    0.097284
 Sum of Mulliken charges =   0.00000

 Dipole moment (field-independent basis, Debye):
    X=             -0.7208    Y=             -0.9246    Z=              1.6977  Tot=              2.0631

 Test job not archived.
 1\1\GINC-SE186\SP\RHF\Aug-CC-pVDZ\C3H10S1Si1\OHZDE\09-Apr-2025\0\\#t h
 f aug-cc-pvdz iop(5/13=1,5/36=2,99/5=2) pseudo=read geom=check guess=(
 read,tcheck) scf=(maxcycle=1)\\title\\0,1\S,0,1.383456,0.053189,-0.716
 355\C,0,2.042515,-0.902929,0.712878\H,0,2.26603,-0.244236,1.552191\H,0
 ,2.967386,-1.368225,0.372733\H,0,1.349212,-1.684468,1.022774\Si,0,-0.3
 22737,1.022444,0.185074\C,0,-1.718698,-0.150919,0.662863\C,0,-2.352595
 ,-0.922173,-0.506517\H,0,-2.476312,0.457848,1.173603\H,0,-1.342795,-0.
 848207,1.420843\H,0,-2.782483,-0.240817,-1.246268\H,0,-3.154552,-1.580

 Normal termination of Gaussian 16 at Wed Apr  9 00:14:29 2025.
