 Gaussian 16, Revision C.01,

 ----------------------------------------------------------------------
 #t hf aug-cc-pvdz symm=none int=(grid=ultrafine) guess=(read,tcheck) s
 table=(opt,rrhf)
 ----------------------------------------------------------------------
 -----
 title
 -----
 Symbolic Z-matrix:
 Charge =  0 Multiplicity = 1

 SCF Done:  E(RHF) =  -615.054107307     A.U. after   13 cycles

 1\1\GINC-SE339\Stability\RHF\Aug-CC-pVDZ\C4H7Cl1\OHZDE\08-Apr-2025\0\\
 #t hf aug-cc-pvdz symm=none int=(grid=ultrafine) guess=(read,tcheck) s
 table=(opt,rrhf)\\title\\0,1\C,0,-0.323255,-0.495251,0.727146\C,0,0.97
 8622,-0.103543,0.096456\C,0,1.811911,-1.04675,-0.345047\Cl,0,-1.768583
 ,0.053015,-0.267609\H,0,-0.425228,-1.573318,0.820383\H,0,-0.466258,-0.
 023072,1.699063\C,0,1.288996,1.367669,0.029275\H,0,1.560307,-2.100339,
 -0.29181\H,0,2.775192,-0.794755,-0.774454\H,0,0.533936,1.897118,-0.558
 872\H,0,2.265873,1.546132,-0.421994\H,0,1.284437,1.814235,1.030051\\Ve

 Normal termination of Gaussian 16 at Tue Apr  8 22:46:34 2025.
 Gaussian 16:  ES64L-G16RevC.01  3-Jul-2019

 ----------------------------------------------------------------------
 #t hf aug-cc-pvdz iop(5/13=1,5/36=2,99/5=2) pseudo=read geom=check gue
 ss=(read,tcheck) scf=(maxcycle=1)
 ----------------------------------------------------------------------
 -----
 title
 -----
 Structure from the checkpoint file:  "BDE49_expt_1643_mol1.chk"
 Charge =  0 Multiplicity = 1

                         Standard orientation:
 ---------------------------------------------------------------------
 Center     Atomic      Atomic             Coordinates (Angstroms)
 Number     Number       Type             X           Y           Z
 ---------------------------------------------------------------------
      1          6           0       -0.323255   -0.495251    0.727146
      2          6           0        0.978622   -0.103543    0.096456
      3          6           0        1.811911   -1.046750   -0.345047
      4         17           0       -1.768583    0.053015   -0.267609
      5          1           0       -0.425228   -1.573318    0.820383
      6          1           0       -0.466258   -0.023072    1.699063
      7          6           0        1.288996    1.367669    0.029275
      8          1           0        1.560307   -2.100339   -0.291810
      9          1           0        2.775192   -0.794755   -0.774454
     10          1           0        0.533936    1.897118   -0.558872
     11          1           0        2.265873    1.546132   -0.421994
     12          1           0        1.284437    1.814235    1.030051
 ---------------------------------------------------------------------

 SCF Done:  E(RHF) =  -615.121708665     A.U. after    2 cycles

 The electronic state is 1-A.
 Alpha  occ. eigenvalues -- -103.64609 -11.31160 -11.26688 -11.24446 -11.23983
 Alpha  occ. eigenvalues --  -10.67859  -8.33571  -8.33293  -8.33283  -1.16038
 Alpha  occ. eigenvalues --   -1.08102  -0.94794  -0.92223  -0.74393  -0.65650
 Alpha  occ. eigenvalues --   -0.64690  -0.59894  -0.56847  -0.54291  -0.53464
 Alpha  occ. eigenvalues --   -0.51748  -0.44573  -0.44403  -0.37206
 Alpha virt. eigenvalues --    0.03373   0.04434   0.04580   0.05937   0.06544
 Alpha virt. eigenvalues --    0.07070   0.08559   0.09279   0.10181   0.11437
 Alpha virt. eigenvalues --    0.14539   0.14995   0.15170   0.15935   0.16449

 Mulliken charges:
               1
     1  C    0.167716
     2  C   -0.247718
     3  C    1.019993
     4  Cl  -0.169688
     5  H   -0.124624
     6  H   -0.013116
     7  C    0.157957
     8  H   -0.379919
     9  H   -0.358434
    10  H    0.051024
    11  H   -0.143502
    12  H    0.040310
 Sum of Mulliken charges =  -0.00000

 Dipole moment (field-independent basis, Debye):
    X=              2.0221    Y=             -0.3335    Z=              1.1525  Tot=              2.3513

 Test job not archived.
 1\1\GINC-SE339\SP\RHF\Aug-CC-pVDZ\C4H7Cl1\OHZDE\08-Apr-2025\0\\#t hf a
 ug-cc-pvdz iop(5/13=1,5/36=2,99/5=2) pseudo=read geom=check guess=(rea
 d,tcheck) scf=(maxcycle=1)\\title\\0,1\C,0,-0.323255,-0.495251,0.72714
 6\C,0,0.978622,-0.103543,0.096456\C,0,1.811911,-1.04675,-0.345047\Cl,0
 ,-1.768583,0.053015,-0.267609\H,0,-0.425228,-1.573318,0.820383\H,0,-0.
 466258,-0.023072,1.699063\C,0,1.288996,1.367669,0.029275\H,0,1.560307,
 -2.100339,-0.29181\H,0,2.775192,-0.794755,-0.774454\H,0,0.533936,1.897
 118,-0.558872\H,0,2.265873,1.546132,-0.421994\H,0,1.284437,1.814235,1.

 Normal termination of Gaussian 16 at Tue Apr  8 22:46:37 2025.
