 Gaussian 16, Revision C.01,

 ----------------------------------------------------------------------
 #t hf aug-cc-pvdz symm=none int=(grid=ultrafine) guess=(read,tcheck) s
 table=opt
 ----------------------------------------------------------------------
 -----
 title
 -----
 Symbolic Z-matrix:
 Charge =  0 Multiplicity = 2

 SCF Done:  E(UHF) =  -845.890515825     A.U. after   18 cycles
 Normal termination of Gaussian 16 at Tue Apr  8 22:50:35 2025.
 Gaussian 16:  ES64L-G16RevC.01  3-Jul-2019

 ----------------------------------------------------------------------
 #t hf aug-cc-pvdz iop(5/13=1,5/36=2,99/5=2) pseudo=read geom=check gue
 ss=(read,tcheck) scf=(maxcycle=1)
 ----------------------------------------------------------------------
 -----
 title
 -----
 Structure from the checkpoint file:  "BDE49_expt_1796_mol2.chk"
 Charge =  0 Multiplicity = 2

                         Standard orientation:
 ---------------------------------------------------------------------
 Center     Atomic      Atomic             Coordinates (Angstroms)
 Number     Number       Type             X           Y           Z
 ---------------------------------------------------------------------
      1          8           0        2.130676   -0.536566   -0.000009
      2          8           0        0.859941   -0.920418   -0.000010
      3          6           0       -0.003074    0.225251    0.000002
      4         17           0       -1.646668   -0.412599   -0.000000
      5          9           0        0.227046    0.962151   -1.079790
      6          9           0        0.227050    0.962133    1.079806
 ---------------------------------------------------------------------

 SCF Done:  E(UHF) =  -846.044934525     A.U. after    2 cycles

 The electronic state is 2-A.
 Alpha  occ. eigenvalues -- -103.71564 -26.20239 -26.20228 -20.74271 -20.73241
 Alpha  occ. eigenvalues --  -11.58281 -10.74937  -8.40658  -8.40309  -8.40307
 Alpha  occ. eigenvalues --   -1.78550  -1.73107  -1.57235  -1.28287  -1.19997
 Alpha  occ. eigenvalues --   -1.01315  -0.90947  -0.88726  -0.86122  -0.82364
 Alpha  occ. eigenvalues --   -0.77982  -0.77592  -0.75891  -0.73687  -0.63591
 Alpha  occ. eigenvalues --   -0.59252  -0.57815  -0.52542  -0.52533
 Alpha virt. eigenvalues --    0.06658   0.08746   0.09480   0.09723   0.10939
 Alpha virt. eigenvalues --    0.14443   0.14736   0.15959   0.19383   0.19906
 Alpha virt. eigenvalues --    0.21716   0.23587   0.24067   0.25654   0.29328

  Beta  occ. eigenvalues -- -103.71571 -26.20235 -26.20224 -20.72655 -20.70036
  Beta  occ. eigenvalues --  -11.58323 -10.74944  -8.40681  -8.40320  -8.40309
  Beta  occ. eigenvalues --   -1.78512  -1.73090  -1.51529  -1.24505  -1.14154
  Beta  occ. eigenvalues --   -1.00566  -0.90277  -0.87782  -0.85767  -0.79521
  Beta  occ. eigenvalues --   -0.76118  -0.76006  -0.71757  -0.63646  -0.63048
  Beta  occ. eigenvalues --   -0.54485  -0.52595  -0.52362
  Beta virt. eigenvalues --    0.05336   0.06687   0.08872   0.09503   0.10077
  Beta virt. eigenvalues --    0.10942   0.14517   0.14849   0.16388   0.19381
  Beta virt. eigenvalues --    0.20029   0.22678   0.23929   0.26962   0.27218

 Mulliken charges and spin densities:
               1          2
     1  O   -0.052604   0.984659
     2  O   -0.375540   0.032823
     3  C    0.963510  -0.016157
     4  Cl  -0.095830  -0.004687
     5  F   -0.219767   0.001682
     6  F   -0.219768   0.001682
 Sum of Mulliken charges =  -0.00000   1.00000

 Dipole moment (field-independent basis, Debye):
    X=             -0.8631    Y=             -0.2084    Z=             -0.0000  Tot=              0.8879
                          Isotropic Fermi Contact Couplings
        Atom                 a.u.       MegaHertz       Gauss      10(-4) cm-1
     1  O(17)              0.29649    -179.73010     -64.13217     -59.95151
     2  O(17)              0.06332     -38.38292     -13.69598     -12.80316
     3  C(13)             -0.00822      -9.23796      -3.29633      -3.08145
     4  Cl(35)            -0.00262      -1.14707      -0.40930      -0.38262
     5  F(19)             -0.00194      -8.18281      -2.91983      -2.72949
     6  F(19)             -0.00194      -8.18279      -2.91982      -2.72948
 --------------------------------------------------------
       Center         ----  Spin Dipole Couplings  ----

 Normal termination of Gaussian 16 at Tue Apr  8 22:50:37 2025.
