 Gaussian 16, Revision C.01,

 ----------------------------------------------------------------------
 #t hf aug-cc-pvdz symm=none int=(grid=ultrafine) guess=(read,tcheck) s
 table=opt
 ----------------------------------------------------------------------
 -----
 title
 -----
 Symbolic Z-matrix:
 Charge =  0 Multiplicity = 2

 SCF Done:  E(UHF) =  -129.270230724     A.U. after   19 cycles
 Normal termination of Gaussian 16 at Tue Apr  8 22:37:20 2025.
 Gaussian 16:  ES64L-G16RevC.01  3-Jul-2019

 ----------------------------------------------------------------------
 #t hf aug-cc-pvdz iop(5/13=1,5/36=2,99/5=2) pseudo=read geom=check gue
 ss=(read,tcheck) scf=(maxcycle=1)
 ----------------------------------------------------------------------
 -----
 title
 -----
 Structure from the checkpoint file:  "BDE49_expt_1227_mol3.chk"
 Charge =  0 Multiplicity = 2

                         Standard orientation:
 ---------------------------------------------------------------------
 Center     Atomic      Atomic             Coordinates (Angstroms)
 Number     Number       Type             X           Y           Z
 ---------------------------------------------------------------------
      1          7           0        0.000000    0.000000   -0.612432
      2          8           0        0.000000    0.000000    0.535878
 ---------------------------------------------------------------------

 SCF Done:  E(UHF) =  -129.310181880     A.U. after    2 cycles

 Unable to determine electronic state:  an orbital has unidentified symmetry.
 Alpha  occ. eigenvalues --  -20.71845 -15.80326  -1.57161  -0.95765  -0.80410
 Alpha  occ. eigenvalues --   -0.70432  -0.66131  -0.43221
 Alpha virt. eigenvalues --    0.06737   0.09995   0.14019   0.14443   0.15443
 Alpha virt. eigenvalues --    0.22480   0.23862   0.25348   0.39064   0.61920
 Alpha virt. eigenvalues --    0.62976   0.63046   0.81201   0.82344   0.88073

  Beta  occ. eigenvalues --  -20.70931 -15.76970  -1.53602  -0.88005  -0.67774
  Beta  occ. eigenvalues --   -0.65054  -0.63069
  Beta virt. eigenvalues --    0.08339   0.10057   0.10905   0.14492   0.17240
  Beta virt. eigenvalues --    0.19245   0.22622   0.25259   0.26844   0.39237
  Beta virt. eigenvalues --    0.64246   0.64682   0.65217   0.82522   0.84272

 Mulliken charges and spin densities:
               1          2
     1  N    0.276083   0.974572
     2  O   -0.276083   0.025428
 Sum of Mulliken charges =   0.00000   1.00000

 Dipole moment (field-independent basis, Debye):
    X=             -0.0000    Y=             -0.0000    Z=             -0.4943  Tot=              0.4943
                          Isotropic Fermi Contact Couplings
        Atom                 a.u.       MegaHertz       Gauss      10(-4) cm-1
     1  N(14)              0.20686      66.83815      23.84952      22.29481
     2  O(17)              0.07592     -46.02257     -16.42200     -15.35148
 --------------------------------------------------------
       Center         ----  Spin Dipole Couplings  ----
                      3XX-RR        3YY-RR        3ZZ-RR
 --------------------------------------------------------
     1   Atom       -0.585768      1.816848     -1.231080
     2   Atom       -1.288331      1.758630     -0.470298

 Normal termination of Gaussian 16 at Tue Apr  8 22:37:21 2025.
