 Gaussian 16, Revision C.01,

 ----------------------------------------------------------------------
 #t hf aug-cc-pvdz symm=none int=(grid=ultrafine) guess=(read,tcheck) s
 table=(opt,rrhf)
 ----------------------------------------------------------------------
 -----
 title
 -----
 Symbolic Z-matrix:
 Charge =  0 Multiplicity = 1

 SCF Done:  E(RHF) =  -158.340152531     A.U. after   14 cycles
 Normal termination of Gaussian 16 at Wed Apr  9 00:34:48 2025.
 Gaussian 16:  ES64L-G16RevC.01  3-Jul-2019

 ----------------------------------------------------------------------
 #t hf aug-cc-pvdz iop(5/13=1,5/36=2,99/5=2) pseudo=read geom=check gue
 ss=(read,tcheck) scf=(maxcycle=1)
 ----------------------------------------------------------------------
 -----
 title
 -----
 Structure from the checkpoint file:  "BDE49_nonexpt_505_mol1.chk"
 Charge =  0 Multiplicity = 1

                         Standard orientation:
 ---------------------------------------------------------------------
 Center     Atomic      Atomic             Coordinates (Angstroms)
 Number     Number       Type             X           Y           Z
 ---------------------------------------------------------------------
      1          1           0        2.197456   -0.788311    0.661717
      2          1           0        1.178099   -1.907439   -0.739046
      3          5           0        1.217486   -0.980933    0.011357
      4          6           0        0.053343    0.054934    0.050441
      5          6           0       -1.403405   -0.324217    0.032620
      6          7           0        0.366617    1.296832   -0.081571
      7          1           0       -1.617160   -0.992532   -0.807859
      8          1           0       -2.023306    0.570717   -0.043408
      9          1           0       -1.669784   -0.868890    0.945078
     10          1           0        1.381316    1.428991   -0.000635
 ---------------------------------------------------------------------

 SCF Done:  E(RHF) =  -158.389392521     A.U. after    2 cycles

 The electronic state is 1-A.
 Alpha  occ. eigenvalues --  -15.62816 -11.28010 -11.23759  -7.63429  -1.17943
 Alpha  occ. eigenvalues --   -0.98189  -0.78843  -0.71827  -0.60782  -0.58642
 Alpha  occ. eigenvalues --   -0.56740  -0.53610  -0.50676  -0.42304  -0.39933
 Alpha virt. eigenvalues --    0.02941   0.03621   0.04342   0.05182   0.06548
 Alpha virt. eigenvalues --    0.06983   0.07398   0.08238   0.08825   0.10704
 Alpha virt. eigenvalues --    0.11830   0.14086   0.15342   0.16012   0.16340

 Mulliken charges:
               1
     1  H    0.277635
     2  H    0.310832
     3  B   -0.583987
     4  C    0.267982
     5  C    0.201547
     6  N   -0.423048
     7  H   -0.002859
     8  H   -0.050317
     9  H   -0.000931
    10  H    0.003146
 Sum of Mulliken charges =  -0.00000

 Dipole moment (field-independent basis, Debye):
    X=              0.3554    Y=             -1.8722    Z=              0.3636  Tot=              1.9400

 Test job not archived.
 1\1\GINC-SE247\SP\RHF\Aug-CC-pVDZ\C2H6B1N1\OHZDE\09-Apr-2025\0\\#t hf
 aug-cc-pvdz iop(5/13=1,5/36=2,99/5=2) pseudo=read geom=check guess=(re
 ad,tcheck) scf=(maxcycle=1)\\title\\0,1\H,0,2.197456,-0.788312,0.66171
 7\H,0,1.178098,-1.90744,-0.739046\B,0,1.217486,-0.980934,0.011357\C,0,
 0.053343,0.054934,0.050441\C,0,-1.403405,-0.324216,0.03262\N,0,0.36661
 7,1.296832,-0.081571\H,0,-1.61716,-0.992531,-0.807859\H,0,-2.023306,0.
 570718,-0.043408\H,0,-1.669784,-0.868889,0.945078\H,0,1.381317,1.42899
 ,-0.000635\\Version=ES64L-G16RevC.01\State=1-A\HF=-158.3893925\RMSD=3.

 Normal termination of Gaussian 16 at Wed Apr  9 00:34:50 2025.
