 Gaussian 16, Revision C.01,

 ----------------------------------------------------------------------
 #t hf aug-cc-pvdz symm=none int=(grid=ultrafine) guess=(read,tcheck) s
 table=opt
 ----------------------------------------------------------------------
 -----
 title
 -----
 Symbolic Z-matrix:
 Charge =  0 Multiplicity = 2

 SCF Done:  E(UHF) =  -706.000709288     A.U. after   18 cycles
 Normal termination of Gaussian 16 at Tue Apr  8 23:05:40 2025.
 Gaussian 16:  ES64L-G16RevC.01  3-Jul-2019

 ----------------------------------------------------------------------
 #t hf aug-cc-pvdz iop(5/13=1,5/36=2,99/5=2) pseudo=read geom=check gue
 ss=(read,tcheck) scf=(maxcycle=1)
 ----------------------------------------------------------------------
 -----
 title
 -----
 Structure from the checkpoint file:  "BDE49_expt_388_mol2.chk"
 Charge =  0 Multiplicity = 2

                         Standard orientation:
 ---------------------------------------------------------------------
 Center     Atomic      Atomic             Coordinates (Angstroms)
 Number     Number       Type             X           Y           Z
 ---------------------------------------------------------------------
      1          8           0        0.668535   -1.262878   -0.439977
      2          6           0        2.046809   -0.891202   -0.456345
      3          6           0        2.206847    0.287501    0.503445
      4          1           0        2.336724   -0.601443   -1.472682
      5          1           0        2.616971   -1.767686   -0.146763
      6         16           0        0.691328    1.281941    0.215162
      7          1           0        3.089287    0.886024    0.279423
      8          1           0        2.236340   -0.039017    1.543996
      9          6           0       -0.134254   -0.146089   -0.506717
     10          6           0       -1.596758   -0.418165   -0.288998
     11          6           0       -1.890315   -0.943134    1.133104
     12          6           0       -2.452800    0.809404   -0.628400
     13          1           0       -1.849189   -1.218086   -0.996753
     14          1           0       -2.245762    1.637007    0.057457
     15          1           0       -3.515586    0.569310   -0.541533
     16          1           0       -2.261872    1.156705   -1.646500
     17          1           0       -1.673936   -0.174460    1.880358
     18          1           0       -1.277167   -1.819085    1.354142
     19          1           0       -2.942517   -1.227189    1.229549
 ---------------------------------------------------------------------

 SCF Done:  E(UHF) =  -706.116574998     A.U. after    2 cycles

 The electronic state is 2-A.
 Alpha  occ. eigenvalues --  -93.53416 -20.59977 -11.31254 -11.30728 -11.27830
 Alpha  occ. eigenvalues --  -11.24365 -11.22433 -11.22084  -8.83194  -6.17306
 Alpha  occ. eigenvalues --   -6.17142  -6.16887  -1.37681  -1.08488  -1.06001
 Alpha  occ. eigenvalues --   -0.98394  -0.92721  -0.84680  -0.83677  -0.75054
 Alpha  occ. eigenvalues --   -0.70033  -0.67543  -0.63562  -0.61875  -0.59701
 Alpha  occ. eigenvalues --   -0.57270  -0.54840  -0.53799  -0.52079  -0.51616
 Alpha  occ. eigenvalues --   -0.48984  -0.48121  -0.47100  -0.44699  -0.39826
 Alpha  occ. eigenvalues --   -0.29309
 Alpha virt. eigenvalues --    0.03453   0.04172   0.04711   0.04998   0.05939
 Alpha virt. eigenvalues --    0.06139   0.06259   0.07272   0.07694   0.08659
 Alpha virt. eigenvalues --    0.09047   0.10394   0.11682   0.12533   0.13332

  Beta  occ. eigenvalues --  -93.53366 -20.59553 -11.30740 -11.28617 -11.27830
  Beta  occ. eigenvalues --  -11.24533 -11.22403 -11.21906  -8.83131  -6.17327
  Beta  occ. eigenvalues --   -6.17163  -6.16600  -1.36180  -1.07094  -1.05717
  Beta  occ. eigenvalues --   -0.96773  -0.92367  -0.83687  -0.82807  -0.73383
  Beta  occ. eigenvalues --   -0.68333  -0.67149  -0.62534  -0.59654  -0.58584
  Beta  occ. eigenvalues --   -0.56066  -0.54316  -0.53626  -0.51180  -0.49610
  Beta  occ. eigenvalues --   -0.48234  -0.47338  -0.46605  -0.43810  -0.35507
  Beta virt. eigenvalues --    0.03452   0.04177   0.04705   0.05004   0.05918
  Beta virt. eigenvalues --    0.06131   0.06224   0.07285   0.07696   0.08661
  Beta virt. eigenvalues --    0.09053   0.10416   0.11368   0.12482   0.12822

 Mulliken charges and spin densities:
               1          2
     1  O   -0.681407   0.035712
     2  C    0.858235  -0.021217
     3  C   -0.194953   0.005784
     4  H   -0.126832  -0.006808
     5  H   -0.250987   0.000645
     6  S    0.383157  -0.009400
     7  H   -0.055597   0.002282
     8  H   -0.125275  -0.003390
     9  C   -0.112611   1.121629
    10  C   -0.725973  -0.178500
    11  C    0.684768   0.049577
    12  C    0.704855   0.019089
    13  H   -0.053886   0.002940
    14  H   -0.046076  -0.001829
    15  H   -0.052636  -0.001025
    16  H   -0.051760  -0.006189
    17  H   -0.011851  -0.007786
    18  H   -0.061041  -0.003510
    19  H   -0.080128   0.001996
 Sum of Mulliken charges =  -0.00000   1.00000

 Dipole moment (field-independent basis, Debye):
    X=              1.3905    Y=             -0.4947    Z=              0.2530  Tot=              1.4974
                          Isotropic Fermi Contact Couplings
        Atom                 a.u.       MegaHertz       Gauss      10(-4) cm-1
     1  O(17)              0.04199     -25.45262      -9.08213      -8.49008
     2  C(13)             -0.00213      -2.39947      -0.85619      -0.80038
     3  C(13)             -0.00097      -1.08886      -0.38853      -0.36320
     4  H(1)               0.00009       0.39588       0.14126       0.13205
     5  H(1)              -0.00067      -2.97619      -1.06198      -0.99275
     6  S(33)              0.06088      20.91204       7.46194       6.97551
     7  H(1)              -0.00072      -3.23063      -1.15277      -1.07762
     8  H(1)               0.00113       5.05520       1.80382       1.68623

 Normal termination of Gaussian 16 at Tue Apr  8 23:05:51 2025.
