 Gaussian 16, Revision C.01,

 ----------------------------------------------------------------------
 #t hf aug-cc-pvdz symm=none int=(grid=ultrafine) guess=(read,tcheck) s
 table=opt
 ----------------------------------------------------------------------
 -----
 title
 -----
 Symbolic Z-matrix:
 Charge =  0 Multiplicity = 2

 SCF Done:  E(UHF) =  -485.827807709     A.U. after   16 cycles
 Normal termination of Gaussian 16 at Wed Apr  9 00:06:36 2025.
 Gaussian 16:  ES64L-G16RevC.01  3-Jul-2019

 ----------------------------------------------------------------------
 #t hf aug-cc-pvdz iop(5/13=1,5/36=2,99/5=2) pseudo=read geom=check gue
 ss=(read,tcheck) scf=(maxcycle=1)
 ----------------------------------------------------------------------
 -----
 title
 -----
 Structure from the checkpoint file:  "BDE49_nonexpt_2251_mol2.chk"
 Charge =  0 Multiplicity = 2

                         Standard orientation:
 ---------------------------------------------------------------------
 Center     Atomic      Atomic             Coordinates (Angstroms)
 Number     Number       Type             X           Y           Z
 ---------------------------------------------------------------------
      1         14           0       -0.251645   -0.862430   -0.483177
      2          6           0        1.131571    0.174248    0.328363
      3          6           0        2.437837   -0.627718    0.460945
      4          6           0       -1.925415    0.031514   -0.550452
      5          1           0        2.288466   -1.565597    1.003145
      6          1           0        3.197028   -0.050074    1.000123
      7          1           0        2.851104   -0.875666   -0.522010
      8          6           0        1.367191    1.516026   -0.386089
      9          1           0        0.764578    0.389074    1.343616
     10          1           0        1.721419    1.361534   -1.410489
     11          1           0        2.126109    2.108167    0.137452
     12          1           0        0.458166    2.121980   -0.438622
     13          6           0       -2.515319    0.395662    0.827618
     14          1           0       -2.622333   -0.617513   -1.092386
     15          1           0       -1.819852    0.932566   -1.164537
     16          1           0       -2.652556   -0.492652    1.450386
     17          1           0       -3.491869    0.879944    0.724084
     18          1           0       -1.866015    1.084039    1.375658
     19          1           0       -0.406403   -2.140176    0.275752
 ---------------------------------------------------------------------

 SCF Done:  E(UHF) =  -485.912392618     A.U. after    2 cycles

 The electronic state is 2-A.
 Alpha  occ. eigenvalues --  -69.05215 -11.23200 -11.22841 -11.22770 -11.22634
 Alpha  occ. eigenvalues --  -11.22239  -6.80582  -3.91909  -3.91036  -3.91009
 Alpha  occ. eigenvalues --   -1.04619  -1.01126  -0.92581  -0.84493  -0.79857
 Alpha  occ. eigenvalues --   -0.66252  -0.61709  -0.61141  -0.58515  -0.56272
 Alpha  occ. eigenvalues --   -0.55094  -0.53747  -0.51809  -0.49749  -0.48377
 Alpha  occ. eigenvalues --   -0.48098  -0.43635  -0.40249  -0.30144
 Alpha virt. eigenvalues --    0.03284   0.04313   0.04675   0.04749   0.06140
 Alpha virt. eigenvalues --    0.06283   0.06488   0.06925   0.07335   0.08522
 Alpha virt. eigenvalues --    0.08593   0.09062   0.09749   0.10181   0.11354

  Beta  occ. eigenvalues --  -69.04680 -11.23108 -11.22837 -11.22708 -11.22631
  Beta  occ. eigenvalues --  -11.22186  -6.79782  -3.90672  -3.90651  -3.89817
  Beta  occ. eigenvalues --   -1.04373  -1.00771  -0.92575  -0.84018  -0.79434
  Beta  occ. eigenvalues --   -0.63775  -0.61482  -0.60914  -0.58342  -0.55987
  Beta  occ. eigenvalues --   -0.53910  -0.53573  -0.51300  -0.49634  -0.48308
  Beta  occ. eigenvalues --   -0.47827  -0.42748  -0.39452
  Beta virt. eigenvalues --    0.03152   0.04071   0.04350   0.04727   0.06022
  Beta virt. eigenvalues --    0.06307   0.06406   0.06608   0.07079   0.08406
  Beta virt. eigenvalues --    0.08552   0.08828   0.09151   0.10055   0.10544

 Mulliken charges and spin densities:
               1          2
     1  Si  -0.050571   1.072000
     2  C   -0.089405  -0.101629
     3  C    0.410342   0.016446
     4  C    0.186720  -0.017893
     5  H   -0.143398  -0.003298
     6  H   -0.069945  -0.001592
     7  H   -0.066673  -0.006085
     8  C    0.349889   0.045261
     9  H   -0.085042  -0.012375
    10  H   -0.065183   0.000308
    11  H   -0.071045  -0.000438
    12  H   -0.194278  -0.000290
    13  C    0.290845   0.011360
    14  H   -0.211676  -0.008148
    15  H   -0.115337  -0.002577
    16  H   -0.095382  -0.008578
    17  H   -0.107915   0.005948
    18  H   -0.148782  -0.005288
    19  H    0.276834   0.016867
 Sum of Mulliken charges =   0.00000   1.00000

 Dipole moment (field-independent basis, Debye):
    X=             -0.1893    Y=              0.7766    Z=              0.3290  Tot=              0.8644
                          Isotropic Fermi Contact Couplings
        Atom                 a.u.       MegaHertz       Gauss      10(-4) cm-1
     1  Si(29)             0.48276    -429.04301    -153.09322    -143.11334
     2  C(13)              0.01214      13.64247       4.86797       4.55064
     3  C(13)              0.00012       0.13457       0.04802       0.04489
     4  C(13)              0.01466      16.47613       5.87909       5.49585
     5  H(1)              -0.00007      -0.33512      -0.11958      -0.11178
     6  H(1)              -0.00049      -2.18943      -0.78124      -0.73032
     7  H(1)              -0.00027      -1.18900      -0.42427      -0.39661
     8  C(13)              0.00040       0.45148       0.16110       0.15060

 Normal termination of Gaussian 16 at Wed Apr  9 00:06:45 2025.
