 Gaussian 16, Revision C.01,

 ----------------------------------------------------------------------
 #t hf aug-cc-pvdz symm=none int=(grid=ultrafine) guess=(read,tcheck) s
 table=(opt,rrhf)
 ----------------------------------------------------------------------
 -----
 title
 -----
 Symbolic Z-matrix:
 Charge =  0 Multiplicity = 1

 SCF Done:  E(RHF) =  -776.819422554     A.U. after   13 cycles
 Normal termination of Gaussian 16 at Wed Apr  9 00:49:31 2025.
 Gaussian 16:  ES64L-G16RevC.01  3-Jul-2019

 ----------------------------------------------------------------------
 #t hf aug-cc-pvdz iop(5/13=1,5/36=2,99/5=2) pseudo=read geom=check gue
 ss=(read,tcheck) scf=(maxcycle=1)
 ----------------------------------------------------------------------
 -----
 title
 -----
 Structure from the checkpoint file:  "BDE49_nonexpt_918_mol1.chk"
 Charge =  0 Multiplicity = 1

                         Standard orientation:
 ---------------------------------------------------------------------
 Center     Atomic      Atomic             Coordinates (Angstroms)
 Number     Number       Type             X           Y           Z
 ---------------------------------------------------------------------
      1          5           0       -1.723294    0.183234   -0.111093
      2         16           0       -0.606503   -1.186370    0.237447
      3          9           0       -1.467439    1.436189    0.251160
      4          9           0       -2.867969   -0.059437   -0.735656
      5          6           0        0.827352   -0.291061    1.025024
      6          6           0        1.805944    0.266320    0.026338
      7          6           0        1.933425    1.584570   -0.131979
      8          6           0        2.624240   -0.733577   -0.747297
      9          1           0        2.644512    2.002356   -0.836188
     10          1           0        1.329930    2.286767    0.431667
     11          1           0        3.297261   -0.239221   -1.449087
     12          1           0        3.226693   -1.351231   -0.071213
     13          1           0        1.979957   -1.415066   -1.311906
     14          1           0        1.294924   -1.052392    1.653624
     15          1           0        0.420141    0.486259    1.667361
 ---------------------------------------------------------------------

 SCF Done:  E(RHF) =  -776.978279305     A.U. after    2 cycles

 The electronic state is 1-A.
 Alpha  occ. eigenvalues --  -93.54518 -26.14601 -26.14195 -11.29172 -11.26524
 Alpha  occ. eigenvalues --  -11.24132 -11.23917  -8.84478  -7.76659  -6.18645
 Alpha  occ. eigenvalues --   -6.18411  -6.18174  -1.69651  -1.67513  -1.11032
 Alpha  occ. eigenvalues --   -1.01495  -0.94496  -0.90468  -0.86789  -0.82665
 Alpha  occ. eigenvalues --   -0.77535  -0.77312  -0.73901  -0.72862  -0.72170
 Alpha  occ. eigenvalues --   -0.64923  -0.64151  -0.59118  -0.56693  -0.53855
 Alpha  occ. eigenvalues --   -0.53108  -0.50887  -0.46141  -0.38977  -0.36387
 Alpha virt. eigenvalues --    0.03260   0.04299   0.04585   0.05177   0.06205
 Alpha virt. eigenvalues --    0.06392   0.06795   0.07083   0.07956   0.09057
 Alpha virt. eigenvalues --    0.10005   0.10986   0.11861   0.12726   0.13418

 Mulliken charges:
               1
     1  B    1.080225
     2  S    0.035094
     3  F   -0.453124
     4  F   -0.464100
     5  C    0.199703
     6  C   -0.419647
     7  C    1.125956
     8  C    0.115319
     9  H   -0.385361
    10  H   -0.406157
    11  H   -0.146804
    12  H    0.041646
    13  H    0.037249
    14  H   -0.066176
    15  H   -0.293821
 Sum of Mulliken charges =   0.00000

 Dipole moment (field-independent basis, Debye):
    X=              2.4255    Y=             -0.2451    Z=              0.8192  Tot=              2.5718

 Test job not archived.
 1\1\GINC-SE338\SP\RHF\Aug-CC-pVDZ\C4H7B1F2S1\OHZDE\09-Apr-2025\0\\#t h
 f aug-cc-pvdz iop(5/13=1,5/36=2,99/5=2) pseudo=read geom=check guess=(
 read,tcheck) scf=(maxcycle=1)\\title\\0,1\B,0,-1.723294,0.183234,-0.11
 1093\S,0,-0.606503,-1.18637,0.237447\F,0,-1.467439,1.436189,0.25116\F,
 0,-2.867969,-0.059437,-0.735656\C,0,0.827352,-0.291061,1.025024\C,0,1.
 805944,0.26632,0.026338\C,0,1.933425,1.58457,-0.131979\C,0,2.62424,-0.
 733577,-0.747297\H,0,2.644512,2.002356,-0.836188\H,0,1.32993,2.286767,
 0.431667\H,0,3.297261,-0.239221,-1.449087\H,0,3.226693,-1.351231,-0.07

 Normal termination of Gaussian 16 at Wed Apr  9 00:49:37 2025.
