 Gaussian 16, Revision C.01,

 ----------------------------------------------------------------------
 #t hf aug-cc-pvdz symm=none int=(grid=ultrafine) guess=(read,tcheck) s
 table=(opt,rrhf)
 ----------------------------------------------------------------------
 -----
 title
 -----
 Symbolic Z-matrix:
 Charge =  0 Multiplicity = 1

 SCF Done:  E(RHF) =  -831.758763582     A.U. after   16 cycles
 Normal termination of Gaussian 16 at Tue Apr  8 23:38:01 2025.
 Gaussian 16:  ES64L-G16RevC.01  3-Jul-2019

 ----------------------------------------------------------------------
 #t hf aug-cc-pvdz iop(5/13=1,5/36=2,99/5=2) pseudo=read geom=check gue
 ss=(read,tcheck) scf=(maxcycle=1)
 ----------------------------------------------------------------------
 -----
 title
 -----
 Structure from the checkpoint file:  "BDE49_nonexpt_1557_mol1.chk"
 Charge =  0 Multiplicity = 1

                         Standard orientation:
 ---------------------------------------------------------------------
 Center     Atomic      Atomic             Coordinates (Angstroms)
 Number     Number       Type             X           Y           Z
 ---------------------------------------------------------------------
      1          6           0        2.128397   -1.140333    0.297680
      2          6           0        0.799091   -1.371988   -0.027223
      3          6           0        2.689052    0.135618    0.126581
      4          6           0        1.869969    1.164962   -0.375277
      5          6           0        0.543513    0.924905   -0.690584
      6          6           0       -0.026682   -0.351396   -0.526450
      7          1           0       -0.069755    1.738019   -1.057137
      8          1           0        2.744223   -1.950137    0.675758
      9          1           0        0.391528   -2.369454    0.102861
     10          7           0       -2.716844    0.140194    0.295436
     11          8           0       -2.414838   -0.361639    1.585848
     12          8           0       -2.363011    1.530494    0.283839
     13          7           0        4.028867    0.364925    0.388962
     14          1           0        4.488742   -0.287751    1.004532
     15          1           0        4.303438    1.322944    0.541209
     16          1           0        2.288953    2.156210   -0.518305
     17          1           0       -1.463068   -0.201557    1.716821
     18          1           0       -3.184898    1.955779    0.559252
     19         15           0       -1.765830   -0.773293   -0.911272
     20          1           0       -1.993121    0.178057   -1.932562
 ---------------------------------------------------------------------

 SCF Done:  E(RHF) =  -831.929124059     A.U. after    2 cycles

 The electronic state is 1-A.
 Alpha  occ. eigenvalues --  -81.28061 -20.61189 -20.60930 -15.72892 -15.64721
 Alpha  occ. eigenvalues --  -11.31057 -11.26376 -11.26173 -11.24513 -11.24415
 Alpha  occ. eigenvalues --  -11.24195  -7.78093  -4.92214  -4.92075  -4.91788
 Alpha  occ. eigenvalues --   -1.40748  -1.30358  -1.21445  -1.12894  -1.02147
 Alpha  occ. eigenvalues --   -1.01062  -0.98770  -0.84869  -0.84014  -0.78047
 Alpha  occ. eigenvalues --   -0.74063  -0.71758  -0.70693  -0.66294  -0.65515
 Alpha  occ. eigenvalues --   -0.64368  -0.62300  -0.61413  -0.59952  -0.59041
 Alpha  occ. eigenvalues --   -0.54769  -0.51410  -0.50702  -0.50397  -0.48901
 Alpha  occ. eigenvalues --   -0.45918  -0.40664  -0.35694  -0.35420  -0.30959
 Alpha virt. eigenvalues --    0.02574   0.03509   0.04063   0.05236   0.05839
 Alpha virt. eigenvalues --    0.06186   0.07060   0.07795   0.08612   0.08742
 Alpha virt. eigenvalues --    0.09620   0.10370   0.11221   0.12237   0.12430

 Mulliken charges:
               1
     1  C    0.948196
     2  C    0.109715
     3  C   -0.031334
     4  C    0.919634
     5  C    0.655627
     6  C    0.018980
     7  H   -0.612238
     8  H   -0.591324
     9  H   -0.538396
    10  N   -0.126030
    11  O   -0.450096
    12  O   -0.527965
    13  N   -0.249506
    14  H   -0.036286
    15  H   -0.038962
    16  H   -0.594207
    17  H    0.219944
    18  H    0.235752
    19  P    0.560181
    20  H    0.128312
 Sum of Mulliken charges =  -0.00000

 Dipole moment (field-independent basis, Debye):
    X=              3.8151    Y=              1.7497    Z=              0.6610  Tot=              4.2489

 Test job not archived.
 1\1\GINC-SE455\SP\RHF\Aug-CC-pVDZ\C6H9N2O2P1\OHZDE\08-Apr-2025\0\\#t h
 f aug-cc-pvdz iop(5/13=1,5/36=2,99/5=2) pseudo=read geom=check guess=(
 read,tcheck) scf=(maxcycle=1)\\title\\0,1\C,0,2.128397,-1.140333,0.297
 68\C,0,0.799091,-1.371988,-0.027223\C,0,2.689052,0.135618,0.126581\C,0
 ,1.869969,1.164962,-0.375277\C,0,0.543513,0.924905,-0.690584\C,0,-0.02
 6682,-0.351396,-0.52645\H,0,-0.069755,1.738019,-1.057137\H,0,2.744223,
 -1.950137,0.675758\H,0,0.391528,-2.369454,0.102861\N,0,-2.716844,0.140
 194,0.295436\O,0,-2.414838,-0.361639,1.585848\O,0,-2.363011,1.530494,0

 Normal termination of Gaussian 16 at Tue Apr  8 23:38:14 2025.
