 Gaussian 16, Revision C.01,

 ----------------------------------------------------------------------
 #t hf aug-cc-pvdz symm=none int=(grid=ultrafine) guess=(read,tcheck) s
 table=(opt,rrhf)
 ----------------------------------------------------------------------
 -----
 title
 -----
 Symbolic Z-matrix:
 Charge =  0 Multiplicity = 1

 SCF Done:  E(RHF) =  -1195.96405417     A.U. after   15 cycles
 Normal termination of Gaussian 16 at Tue Apr  8 23:16:57 2025.
 Gaussian 16:  ES64L-G16RevC.01  3-Jul-2019

 ----------------------------------------------------------------------
 #t hf aug-cc-pvdz iop(5/13=1,5/36=2,99/5=2) pseudo=read geom=check gue
 ss=(read,tcheck) scf=(maxcycle=1)
 ----------------------------------------------------------------------
 -----
 title
 -----
 Structure from the checkpoint file:  "BDE49_nonexpt_1063_mol1.chk"
 Charge =  0 Multiplicity = 1

                         Standard orientation:
 ---------------------------------------------------------------------
 Center     Atomic      Atomic             Coordinates (Angstroms)
 Number     Number       Type             X           Y           Z
 ---------------------------------------------------------------------
      1         17           0        2.159633    0.424893   -0.016325
      2          8           0        0.747873   -0.044057    0.886298
      3         16           0       -0.521822   -0.607368   -0.027572
      4          8           0       -1.454262   -0.933168    1.003577
      5          8           0       -0.968548    0.700720   -0.806675
      6          6           0       -1.559970    1.784304   -0.033178
      7          1           0       -1.851560    2.520469   -0.777708
      8          1           0       -0.816853    2.199766    0.647584
      9          1           0       -2.427132    1.418504    0.514169
     10          8           0       -0.063719   -1.517226   -1.016488
 ---------------------------------------------------------------------

 SCF Done:  E(RHF) =  -1196.18455782     A.U. after    2 cycles

 The electronic state is 1-A.
 Alpha  occ. eigenvalues -- -103.75569 -93.89122 -20.70837 -20.66831 -20.60822
 Alpha  occ. eigenvalues --  -20.60809 -11.33757 -10.78179  -9.14647  -8.43946
 Alpha  occ. eigenvalues --   -8.43487  -8.43465  -6.49334  -6.49233  -6.49194
 Alpha  occ. eigenvalues --   -1.53114  -1.40222  -1.38641  -1.36975  -1.14740
 Alpha  occ. eigenvalues --   -1.01559  -0.87810  -0.79830  -0.76697  -0.74037
 Alpha  occ. eigenvalues --   -0.70239  -0.68245  -0.65680  -0.65132  -0.60395
 Alpha  occ. eigenvalues --   -0.58770  -0.56847  -0.55451  -0.54531  -0.53911
 Alpha  occ. eigenvalues --   -0.50978  -0.50061
 Alpha virt. eigenvalues --    0.01702   0.03032   0.05223   0.05771   0.07589
 Alpha virt. eigenvalues --    0.10004   0.10824   0.11604   0.12356   0.13960
 Alpha virt. eigenvalues --    0.14665   0.15428   0.16030   0.16892   0.17974

 Mulliken charges:
               1
     1  Cl   0.334228
     2  O   -0.868347
     3  S    2.633310
     4  O   -0.810991
     5  O   -0.890649
     6  C    0.666412
     7  H   -0.188796
     8  H   -0.037703
     9  H   -0.027662
    10  O   -0.809802
 Sum of Mulliken charges =  -0.00000

 Dipole moment (field-independent basis, Debye):
    X=             -0.0035    Y=              4.3215    Z=             -0.0210  Tot=              4.3215

 Test job not archived.
 1\1\GINC-SE341\SP\RHF\Aug-CC-pVDZ\C1H3Cl1O4S1\OHZDE\08-Apr-2025\0\\#t
 hf aug-cc-pvdz iop(5/13=1,5/36=2,99/5=2) pseudo=read geom=check guess=
 (read,tcheck) scf=(maxcycle=1)\\title\\0,1\Cl,0,2.159633,0.424892,-0.0
 16325\O,0,0.747873,-0.044057,0.886298\S,0,-0.521822,-0.607368,-0.02757
 2\O,0,-1.454262,-0.933168,1.003577\O,0,-0.968548,0.70072,-0.806675\C,0
 ,-1.55997,1.784304,-0.033178\H,0,-1.851559,2.520469,-0.777708\H,0,-0.8
 16852,2.199766,0.647584\H,0,-2.427132,1.418505,0.514169\O,0,-0.063719,
 -1.517226,-1.016488\\Version=ES64L-G16RevC.01\State=1-A\HF=-1196.18455

 Normal termination of Gaussian 16 at Tue Apr  8 23:17:01 2025.
