 Gaussian 16, Revision C.01,

 ----------------------------------------------------------------------
 #t hf aug-cc-pvdz symm=none int=(grid=ultrafine) guess=(read,tcheck) s
 table=(opt,rrhf)
 ----------------------------------------------------------------------
 -----
 title
 -----
 Symbolic Z-matrix:
 Charge =  0 Multiplicity = 1

 SCF Done:  E(RHF) =  -168.963643886     A.U. after   12 cycles
 Normal termination of Gaussian 16 at Tue Apr  8 23:04:39 2025.
 Gaussian 16:  ES64L-G16RevC.01  3-Jul-2019

 ----------------------------------------------------------------------
 #t hf aug-cc-pvdz iop(5/13=1,5/36=2,99/5=2) pseudo=read geom=check gue
 ss=(read,tcheck) scf=(maxcycle=1)
 ----------------------------------------------------------------------
 -----
 title
 -----
 Structure from the checkpoint file:  "BDE49_expt_423_mol1.chk"
 Charge =  0 Multiplicity = 1

                         Standard orientation:
 ---------------------------------------------------------------------
 Center     Atomic      Atomic             Coordinates (Angstroms)
 Number     Number       Type             X           Y           Z
 ---------------------------------------------------------------------
      1          6           0       -0.163748    0.385428   -0.000013
      2          8           0       -1.195884   -0.245287    0.000005
      3          7           0        1.084335   -0.157259    0.000000
      4          1           0        1.183351   -1.161018    0.000013
      5          1           0        1.909315    0.418370    0.000017
      6          1           0       -0.133447    1.493193    0.000006
 ---------------------------------------------------------------------

 SCF Done:  E(RHF) =  -169.018925789     A.U. after    2 cycles

 The electronic state is 1-A.
 Alpha  occ. eigenvalues --  -20.54725 -15.66162 -11.37330  -1.35459  -1.18682
 Alpha  occ. eigenvalues --   -0.85005  -0.75361  -0.68109  -0.62248  -0.58186
 Alpha  occ. eigenvalues --   -0.45292  -0.42714
 Alpha virt. eigenvalues --    0.02704   0.04044   0.05715   0.09340   0.11745
 Alpha virt. eigenvalues --    0.12524   0.15560   0.15737   0.16806   0.19437
 Alpha virt. eigenvalues --    0.19562   0.23929   0.26750   0.27561   0.28173

 Mulliken charges:
               1
     1  C    0.747844
     2  O   -0.455323
     3  N   -0.128434
     4  H   -0.010496
     5  H   -0.000029
     6  H   -0.153562
 Sum of Mulliken charges =  -0.00000

 Dipole moment (field-independent basis, Debye):
    X=              4.2789    Y=              1.2725    Z=              0.0000  Tot=              4.4641

 Test job not archived.
 1\1\GINC-SE334\SP\RHF\Aug-CC-pVDZ\C1H3N1O1\OHZDE\08-Apr-2025\0\\#t hf
 aug-cc-pvdz iop(5/13=1,5/36=2,99/5=2) pseudo=read geom=check guess=(re
 ad,tcheck) scf=(maxcycle=1)\\title\\0,1\C,0,-0.163748,0.385428,-0.0000
 13\O,0,-1.195884,-0.245288,0.000005\N,0,1.084335,-0.157259,0.\H,0,1.18
 3352,-1.161018,0.000013\H,0,1.909315,0.418371,0.000017\H,0,-0.133447,1
 .493193,0.000006\\Version=ES64L-G16RevC.01\State=1-A\HF=-169.0189258\R
 MSD=2.478e-03\Dipole=1.6834437,0.500656,0.0000064\Quadrupole=-0.847466
 5,1.9352964,-1.0878299,-1.0455532,0.0000887,-0.0000077\PG=C01 [X(C1H3N

 Normal termination of Gaussian 16 at Tue Apr  8 23:04:41 2025.
