 Gaussian 16, Revision C.01,

 ----------------------------------------------------------------------
 #t hf aug-cc-pvdz symm=none int=(grid=ultrafine) guess=(read,tcheck) s
 table=(opt,rrhf)
 ----------------------------------------------------------------------
 -----
 title
 -----
 Symbolic Z-matrix:
 Charge =  0 Multiplicity = 1

 SCF Done:  E(RHF) =  -1559.97167520     A.U. after   14 cycles
 Normal termination of Gaussian 16 at Wed Apr  9 00:11:53 2025.
 Gaussian 16:  ES64L-G16RevC.01  3-Jul-2019

 ----------------------------------------------------------------------
 #t hf aug-cc-pvdz iop(5/13=1,5/36=2,99/5=2) pseudo=read geom=check gue
 ss=(read,tcheck) scf=(maxcycle=1)
 ----------------------------------------------------------------------
 -----
 title
 -----
 Structure from the checkpoint file:  "BDE49_nonexpt_2428_mol1.chk"
 Charge =  0 Multiplicity = 1

                         Standard orientation:
 ---------------------------------------------------------------------
 Center     Atomic      Atomic             Coordinates (Angstroms)
 Number     Number       Type             X           Y           Z
 ---------------------------------------------------------------------
      1         14           0        0.946115    1.762175   -0.710059
      2         14           0       -0.946103    1.762171    0.710062
      3          7           0       -1.947557    0.408921    0.355988
      4          1           0       -1.737054    2.993145    0.484727
      5          1           0       -0.543185    1.682600    2.130418
      6          6           0       -2.599886   -0.547143    0.066697
      7         16           0       -3.468952   -1.807851   -0.311659
      8          7           0        1.947572    0.408925   -0.355989
      9          1           0        1.737064    2.993150   -0.484720
     10          1           0        0.543197    1.682608   -2.130415
     11          6           0        2.599900   -0.547139   -0.066701
     12         16           0        3.468928   -1.807873    0.311657
 ---------------------------------------------------------------------

 SCF Done:  E(RHF) =  -1560.12118955     A.U. after    2 cycles

 The electronic state is 1-A.
 Alpha  occ. eigenvalues --  -93.54160 -93.54160 -69.12852 -69.12851 -15.67022
 Alpha  occ. eigenvalues --  -15.67021 -11.40313 -11.40313  -8.84098  -8.84098
 Alpha  occ. eigenvalues --   -6.87787  -6.87779  -6.18416  -6.18415  -6.17709
 Alpha  occ. eigenvalues --   -6.17708  -6.17706  -6.17706  -3.98729  -3.98720
 Alpha  occ. eigenvalues --   -3.98514  -3.98502  -3.98497  -3.98437  -1.24938
 Alpha  occ. eigenvalues --   -1.24833  -1.03347  -1.03236  -0.85306  -0.82687
 Alpha  occ. eigenvalues --   -0.66616  -0.62579  -0.59698  -0.59647  -0.59284
 Alpha  occ. eigenvalues --   -0.58980  -0.58680  -0.57192  -0.51187  -0.50575
 Alpha  occ. eigenvalues --   -0.44591  -0.37603  -0.37246  -0.37128  -0.35827
 Alpha virt. eigenvalues --    0.02918   0.03481   0.04429   0.04610   0.06325
 Alpha virt. eigenvalues --    0.06573   0.06701   0.07201   0.07706   0.07863
 Alpha virt. eigenvalues --    0.07895   0.08376   0.09713   0.10176   0.10773

 Mulliken charges:
               1
     1  Si   0.459274
     2  Si   0.459273
     3  N   -0.263954
     4  H    0.035059
     5  H    0.024932
     6  C   -0.452476
     7  S    0.197168
     8  N   -0.263953
     9  H    0.035058
    10  H    0.024932
    11  C   -0.452480
    12  S    0.197168
 Sum of Mulliken charges =  -0.00000

 Dipole moment (field-independent basis, Debye):
    X=              0.0000    Y=              3.7997    Z=             -0.0000  Tot=              3.7997

 Test job not archived.
 1\1\GINC-SE364\SP\RHF\Aug-CC-pVDZ\C2H4N2S2Si2\OHZDE\09-Apr-2025\0\\#t
 hf aug-cc-pvdz iop(5/13=1,5/36=2,99/5=2) pseudo=read geom=check guess=
 (read,tcheck) scf=(maxcycle=1)\\title\\0,1\Si,0,-0.946115,-1.762175,-0
 .710059\Si,0,0.946103,-1.762171,0.710062\N,0,1.947557,-0.408921,0.3559
 88\H,0,1.737054,-2.993145,0.484727\H,0,0.543185,-1.6826,2.130418\C,0,2
 .599886,0.547143,0.066697\S,0,3.468952,1.807851,-0.311659\N,0,-1.94757
 2,-0.408925,-0.355989\H,0,-1.737064,-2.99315,-0.48472\H,0,-0.543197,-1
 .682608,-2.130415\C,0,-2.5999,0.547139,-0.066701\S,0,-3.468928,1.80787

 Normal termination of Gaussian 16 at Wed Apr  9 00:12:00 2025.
