 Gaussian 16, Revision C.01,

 ----------------------------------------------------------------------
 #t hf aug-cc-pvdz symm=none int=(grid=ultrafine) guess=(read,tcheck) s
 table=(opt,rrhf)
 ----------------------------------------------------------------------
 -----
 title
 -----
 Symbolic Z-matrix:
 Charge =  0 Multiplicity = 1

 SCF Done:  E(RHF) =  -421.558913628     A.U. after   15 cycles

 1\1\GINC-SE250\Stability\RHF\Aug-CC-pVDZ\C9H10O1\OHZDE\08-Apr-2025\0\\
 #t hf aug-cc-pvdz symm=none int=(grid=ultrafine) guess=(read,tcheck) s
 table=(opt,rrhf)\\title\\0,1\C,0,-2.196928,-1.370482,0.000005\C,0,-0.8
 17096,-1.183006,-0.000032\C,0,-3.050613,-0.269711,0.000038\C,0,-2.5217
 33,1.021669,0.000033\C,0,-1.145716,1.208673,-0.000005\C,0,-0.27688,0.1
 09226,-0.00004\H,0,-0.167502,-2.049537,-0.000057\H,0,-2.605142,-2.3747
 53,0.00001\C,0,2.16523,-0.802657,-0.000018\C,0,3.632511,-0.382356,0.00
 0054\H,0,3.866443,0.221465,0.878586\H,0,3.866533,0.221446,-0.878468\H,

 Normal termination of Gaussian 16 at Tue Apr  8 23:01:08 2025.
 Gaussian 16:  ES64L-G16RevC.01  3-Jul-2019

 ----------------------------------------------------------------------
 #t hf aug-cc-pvdz iop(5/13=1,5/36=2,99/5=2) pseudo=read geom=check gue
 ss=(read,tcheck) scf=(maxcycle=1)
 ----------------------------------------------------------------------
 -----
 title
 -----
 Structure from the checkpoint file:  "BDE49_expt_234_mol1.chk"
 Charge =  0 Multiplicity = 1

                         Standard orientation:
 ---------------------------------------------------------------------
 Center     Atomic      Atomic             Coordinates (Angstroms)
 Number     Number       Type             X           Y           Z
 ---------------------------------------------------------------------
      1          6           0       -2.196928   -1.370482    0.000005
      2          6           0       -0.817096   -1.183006   -0.000032
      3          6           0       -3.050613   -0.269711    0.000038
      4          6           0       -2.521733    1.021669    0.000033
      5          6           0       -1.145716    1.208673   -0.000005
      6          6           0       -0.276880    0.109226   -0.000040
      7          1           0       -0.167502   -2.049537   -0.000057
      8          1           0       -2.605142   -2.374753    0.000010
      9          6           0        2.165230   -0.802657   -0.000018
     10          6           0        3.632511   -0.382356    0.000054
     11          1           0        3.866443    0.221465    0.878586
     12          1           0        3.866533    0.221446   -0.878468
     13          1           0        4.282375   -1.260779    0.000096
     14          1           0       -4.124889   -0.416948    0.000068
     15          6           0        1.202301    0.379454   -0.000084
     16          1           0       -0.712405    2.201149   -0.000011
     17          1           0       -3.184608    1.879551    0.000058
     18          1           0        1.940270   -1.427655    0.872715
     19          1           0        1.940359   -1.427671   -0.872761
     20          8           0        1.619014    1.521107    0.000008
 ---------------------------------------------------------------------

 SCF Done:  E(RHF) =  -421.685258456     A.U. after    2 cycles

 The electronic state is 1-A.
 Alpha  occ. eigenvalues --  -20.55894 -11.34451 -11.26387 -11.26176 -11.25780
 Alpha  occ. eigenvalues --  -11.25563 -11.25523 -11.25319 -11.25000 -11.22719
 Alpha  occ. eigenvalues --   -1.35166  -1.15671  -1.05581  -1.02651  -1.02109
 Alpha  occ. eigenvalues --   -0.90491  -0.85102  -0.83145  -0.75692  -0.71932
 Alpha  occ. eigenvalues --   -0.66873  -0.65524  -0.63531  -0.62830  -0.61597
 Alpha  occ. eigenvalues --   -0.60411  -0.54883  -0.53971  -0.52737  -0.51846
 Alpha  occ. eigenvalues --   -0.50623  -0.50475  -0.49456  -0.42805  -0.35394
 Alpha  occ. eigenvalues --   -0.34987
 Alpha virt. eigenvalues --    0.02938   0.03504   0.04165   0.05089   0.05249
 Alpha virt. eigenvalues --    0.05755   0.06668   0.06808   0.07617   0.08045
 Alpha virt. eigenvalues --    0.08842   0.10085   0.10286   0.11215   0.12750

 Mulliken charges:
               1
     1  C    0.485236
     2  C    0.323506
     3  C    0.590141
     4  C    0.564962
     5  C   -0.113092
     6  C    1.639940
     7  H   -0.696393
     8  H   -0.460278
     9  C    0.049992
    10  C    0.568894
    11  H   -0.025361
    12  H   -0.025365
    13  H   -0.009109
    14  H   -0.438010
    15  C   -1.010138
    16  H   -0.619727
    17  H   -0.420507
    18  H    0.041617
    19  H    0.041633
    20  O   -0.487940
 Sum of Mulliken charges =   0.00000

 Dipole moment (field-independent basis, Debye):
    X=             -1.6790    Y=             -3.0016    Z=             -0.0001  Tot=              3.4393

 Test job not archived.
 1\1\GINC-SE250\SP\RHF\Aug-CC-pVDZ\C9H10O1\OHZDE\08-Apr-2025\0\\#t hf a
 ug-cc-pvdz iop(5/13=1,5/36=2,99/5=2) pseudo=read geom=check guess=(rea
 d,tcheck) scf=(maxcycle=1)\\title\\0,1\C,0,-2.196928,-1.370482,0.00000
 5\C,0,-0.817096,-1.183006,-0.000032\C,0,-3.050613,-0.269711,0.000038\C
 ,0,-2.521733,1.021669,0.000033\C,0,-1.145716,1.208673,-0.000005\C,0,-0
 .27688,0.109226,-0.00004\H,0,-0.167502,-2.049537,-0.000057\H,0,-2.6051
 42,-2.374753,0.00001\C,0,2.16523,-0.802657,-0.000018\C,0,3.632511,-0.3
 82356,0.000054\H,0,3.866443,0.221465,0.878586\H,0,3.866533,0.221446,-0

 Normal termination of Gaussian 16 at Tue Apr  8 23:01:18 2025.
