 Gaussian 16, Revision C.01,

 ----------------------------------------------------------------------
 #t hf aug-cc-pvdz symm=none int=(grid=ultrafine) guess=(read,tcheck) s
 table=opt
 ----------------------------------------------------------------------
 -----
 title
 -----
 Symbolic Z-matrix:
 Charge =  0 Multiplicity = 2

 SCF Done:  E(UHF) =  -670.202650849     A.U. after   33 cycles

 1\1\GINC-SE249\Stability\UHF\Aug-CC-pVDZ\C7H13S1\OHZDE\09-Apr-2025\0\\
 #t hf aug-cc-pvdz symm=none int=(grid=ultrafine) guess=(read,tcheck) s
 table=opt\\title\\0,2\C,0,0.23261,-1.06143,0.343023\C,0,1.6245,-1.4616
 32,-0.164897\C,0,2.674896,-0.392205,0.165701\C,0,2.251312,0.986675,-0.
 358644\C,0,0.856164,1.381733,0.148207\C,0,-1.577269,0.728533,0.348185\
 C,0,-0.202767,0.314017,-0.188805\S,0,-2.989289,-0.276209,-0.181192\H,0
 ,0.242899,-1.029048,1.44177\H,0,-0.50744,-1.815809,0.057066\H,0,1.5834
 73,-1.604996,-1.252167\H,0,1.915841,-2.425561,0.264166\H,0,3.647094,-0

 Normal termination of Gaussian 16 at Wed Apr  9 00:21:42 2025.
 Gaussian 16:  ES64L-G16RevC.01  3-Jul-2019

 ----------------------------------------------------------------------
 #t hf aug-cc-pvdz iop(5/13=1,5/36=2,99/5=2) pseudo=read geom=check gue
 ss=(read,tcheck) scf=(maxcycle=1)
 ----------------------------------------------------------------------
 -----
 title
 -----
 Structure from the checkpoint file:  "BDE49_nonexpt_2609_mol2.chk"
 Charge =  0 Multiplicity = 2

                         Standard orientation:
 ---------------------------------------------------------------------
 Center     Atomic      Atomic             Coordinates (Angstroms)
 Number     Number       Type             X           Y           Z
 ---------------------------------------------------------------------
      1          6           0        0.232610   -1.061430    0.343023
      2          6           0        1.624500   -1.461632   -0.164897
      3          6           0        2.674896   -0.392205    0.165701
      4          6           0        2.251312    0.986675   -0.358644
      5          6           0        0.856164    1.381733    0.148207
      6          6           0       -1.577269    0.728533    0.348185
      7          6           0       -0.202767    0.314017   -0.188805
      8         16           0       -2.989289   -0.276209   -0.181192
      9          1           0        0.242899   -1.029048    1.441770
     10          1           0       -0.507440   -1.815809    0.057066
     11          1           0        1.583473   -1.604996   -1.252167
     12          1           0        1.915841   -2.425561    0.264166
     13          1           0        3.647094   -0.672858   -0.251894
     14          1           0        2.806316   -0.339685    1.254329
     15          1           0        2.242872    0.968737   -1.455939
     16          1           0        2.983281    1.746343   -0.066220
     17          1           0        0.561542    2.347557   -0.277560
     18          1           0        0.892436    1.518856    1.237659
     19          1           0       -1.829785    1.749131    0.028279
     20          1           0       -1.584721    0.757056    1.444793
     21          1           0       -0.281849    0.245476   -1.281837
 ---------------------------------------------------------------------

 SCF Done:  E(UHF) =  -670.301173717     A.U. after    2 cycles

 The electronic state is 2-A.
 Alpha  occ. eigenvalues --  -93.54613 -11.27088 -11.24113 -11.23236 -11.23006
 Alpha  occ. eigenvalues --  -11.22836 -11.22798 -11.22759  -8.84303  -6.19667
 Alpha  occ. eigenvalues --   -6.17992  -6.17551  -1.11914  -1.05357  -0.99968
 Alpha  occ. eigenvalues --   -0.97686  -0.86371  -0.83516  -0.79281  -0.75894
 Alpha  occ. eigenvalues --   -0.65347  -0.63072  -0.61240  -0.60264  -0.57623
 Alpha  occ. eigenvalues --   -0.54839  -0.53170  -0.52411  -0.49058  -0.48756
 Alpha  occ. eigenvalues --   -0.47492  -0.45848  -0.44063  -0.43211  -0.41644
 Alpha  occ. eigenvalues --   -0.36316
 Alpha virt. eigenvalues --    0.03418   0.04082   0.04275   0.04677   0.06077
 Alpha virt. eigenvalues --    0.06228   0.06552   0.06807   0.06854   0.08935
 Alpha virt. eigenvalues --    0.08963   0.09040   0.09287   0.09866   0.12867

  Beta  occ. eigenvalues --  -93.53716 -11.27216 -11.24107 -11.23241 -11.23008
  Beta  occ. eigenvalues --  -11.22835 -11.22794 -11.22757  -8.83304  -6.17456
  Beta  occ. eigenvalues --   -6.17001  -6.15732  -1.11764  -1.04339  -0.99948
  Beta  occ. eigenvalues --   -0.95416  -0.83879  -0.82823  -0.76295  -0.75732
  Beta  occ. eigenvalues --   -0.65266  -0.62099  -0.61209  -0.60128  -0.56616
  Beta  occ. eigenvalues --   -0.54534  -0.53136  -0.51860  -0.48941  -0.48435
  Beta  occ. eigenvalues --   -0.46863  -0.45836  -0.43822  -0.42616  -0.34151
  Beta virt. eigenvalues --    0.02334   0.03424   0.04124   0.04366   0.04705
  Beta virt. eigenvalues --    0.06097   0.06307   0.06613   0.06883   0.07021
  Beta virt. eigenvalues --    0.08956   0.08984   0.09213   0.09384   0.10036

 Mulliken charges and spin densities:
               1          2
     1  C    0.399647   0.017635
     2  C    0.309823  -0.004016
     3  C    0.240095   0.000201
     4  C    0.302854  -0.001652
     5  C    0.520034   0.005468
     6  C    0.443349  -0.128738
     7  C   -0.999617  -0.018233
     8  S    0.271287   1.097653
     9  H   -0.083762  -0.000633
    10  H   -0.160378  -0.000691
    11  H   -0.084033  -0.000268
    12  H   -0.102092  -0.000253
    13  H   -0.118543   0.000096
    14  H   -0.094783   0.000070
    15  H   -0.091006  -0.000174
    16  H   -0.105416  -0.000087
    17  H   -0.175958  -0.000645
    18  H   -0.073128   0.000483
    19  H   -0.069294   0.029549
    20  H   -0.088398   0.013423
    21  H   -0.240682  -0.009188
 Sum of Mulliken charges =  -0.00000   1.00000

 Dipole moment (field-independent basis, Debye):
    X=              1.7515    Y=              0.8475    Z=              0.3696  Tot=              1.9806
                          Isotropic Fermi Contact Couplings
        Atom                 a.u.       MegaHertz       Gauss      10(-4) cm-1
     1  C(13)             -0.00012      -0.13073      -0.04665      -0.04361
     2  C(13)             -0.00028      -0.31076      -0.11089      -0.10366
     3  C(13)              0.00033       0.37593       0.13414       0.12540
     4  C(13)             -0.00024      -0.27496      -0.09811      -0.09172
     5  C(13)             -0.00125      -1.40629      -0.50180      -0.46909
     6  C(13)             -0.02774     -31.18216     -11.12657     -10.40125
     7  C(13)              0.00024       0.27174       0.09696       0.09064
     8  S(33)              0.18583      63.82643      22.77486      21.29020

 Normal termination of Gaussian 16 at Wed Apr  9 00:21:54 2025.
