 Gaussian 16, Revision C.01,

 ----------------------------------------------------------------------
 #t hf aug-cc-pvdz symm=none int=(grid=ultrafine) guess=(read,tcheck) s
 table=opt
 ----------------------------------------------------------------------
 -----
 title
 -----
 Symbolic Z-matrix:
 Charge =  0 Multiplicity = 2

 SCF Done:  E(UHF) =  -553.507207232     A.U. after   18 cycles
 Normal termination of Gaussian 16 at Wed Apr  9 00:35:47 2025.
 Gaussian 16:  ES64L-G16RevC.01  3-Jul-2019

 ----------------------------------------------------------------------
 #t hf aug-cc-pvdz iop(5/13=1,5/36=2,99/5=2) pseudo=read geom=check gue
 ss=(read,tcheck) scf=(maxcycle=1)
 ----------------------------------------------------------------------
 -----
 title
 -----
 Structure from the checkpoint file:  "BDE49_nonexpt_555_mol2.chk"
 Charge =  0 Multiplicity = 2

                         Standard orientation:
 ---------------------------------------------------------------------
 Center     Atomic      Atomic             Coordinates (Angstroms)
 Number     Number       Type             X           Y           Z
 ---------------------------------------------------------------------
      1          7           0        0.463680    0.711950   -0.000007
      2          6           0        1.540933   -0.259049    0.000002
      3          1           0        2.473762    0.309298   -0.000012
      4          1           0        1.504311   -0.904469   -0.886466
      5         17           0       -1.057280   -0.113514    0.000002
      6          1           0        1.504320   -0.904439    0.886492
 ---------------------------------------------------------------------

 SCF Done:  E(UHF) =  -553.555120130     A.U. after    2 cycles

 The electronic state is 2-A.
 Alpha  occ. eigenvalues -- -103.68682 -15.73346 -11.28537 -10.71815  -8.37364
 Alpha  occ. eigenvalues --   -8.37329  -8.37177  -1.27063  -1.07714  -0.88349
 Alpha  occ. eigenvalues --   -0.67440  -0.64748  -0.61527  -0.53544  -0.50609
 Alpha  occ. eigenvalues --   -0.44515  -0.43496
 Alpha virt. eigenvalues --    0.03369   0.05471   0.05690   0.08258   0.08643
 Alpha virt. eigenvalues --    0.14341   0.14687   0.15670   0.16031   0.16655
 Alpha virt. eigenvalues --    0.18230   0.19977   0.22470   0.22850   0.26747

  Beta  occ. eigenvalues -- -103.68710 -15.69799 -11.28855 -10.71842  -8.37797
  Beta  occ. eigenvalues --   -8.37194  -8.37040  -1.21987  -1.05213  -0.82987
  Beta  occ. eigenvalues --   -0.63614  -0.60134  -0.59928  -0.49637  -0.48748
  Beta  occ. eigenvalues --   -0.42346
  Beta virt. eigenvalues --    0.03393   0.05491   0.05610   0.08330   0.08392
  Beta virt. eigenvalues --    0.09419   0.14833   0.14966   0.15740   0.16106
  Beta virt. eigenvalues --    0.16777   0.18867   0.21173   0.22913   0.25930

 Mulliken charges and spin densities:
               1          2
     1  N   -0.708260   1.141625
     2  C    0.729959  -0.173294
     3  H   -0.127494   0.008716
     4  H   -0.039025   0.044643
     5  Cl   0.183846  -0.066334
     6  H   -0.039025   0.044644
 Sum of Mulliken charges =  -0.00000   1.00000

 Dipole moment (field-independent basis, Debye):
    X=              1.9249    Y=             -1.1673    Z=              0.0000  Tot=              2.2512
                          Isotropic Fermi Contact Couplings
        Atom                 a.u.       MegaHertz       Gauss      10(-4) cm-1
     1  N(14)              0.29076      93.94746      33.52279      31.33750
     2  C(13)             -0.05465     -61.43970     -21.92321     -20.49408
     3  H(1)               0.00202       9.03841       3.22513       3.01489
     4  H(1)               0.01995      89.17333      31.81926      29.74502
     5  Cl(35)             0.02239       9.81523       3.50232       3.27401
     6  H(1)               0.01995      89.17492      31.81983      29.74555
 --------------------------------------------------------
       Center         ----  Spin Dipole Couplings  ----

 Normal termination of Gaussian 16 at Wed Apr  9 00:35:49 2025.
