 Gaussian 16, Revision C.01,

 ----------------------------------------------------------------------
 #t hf aug-cc-pvdz symm=none int=(grid=ultrafine) guess=(read,tcheck) s
 table=opt
 ----------------------------------------------------------------------
 -----
 title
 -----
 Symbolic Z-matrix:
 Charge =  0 Multiplicity = 2

 SCF Done:  E(UHF) =  -233.608605445     A.U. after   19 cycles
 Normal termination of Gaussian 16 at Wed Apr  9 00:32:44 2025.
 Gaussian 16:  ES64L-G16RevC.01  3-Jul-2019

 ----------------------------------------------------------------------
 #t hf aug-cc-pvdz iop(5/13=1,5/36=2,99/5=2) pseudo=read geom=check gue
 ss=(read,tcheck) scf=(maxcycle=1)
 ----------------------------------------------------------------------
 -----
 title
 -----
 Structure from the checkpoint file:  "BDE49_nonexpt_424_mol2.chk"
 Charge =  0 Multiplicity = 2

                         Standard orientation:
 ---------------------------------------------------------------------
 Center     Atomic      Atomic             Coordinates (Angstroms)
 Number     Number       Type             X           Y           Z
 ---------------------------------------------------------------------
      1          9           0        1.913617   -0.002003   -0.000002
      2          5           0        0.613101   -0.004470    0.000006
      3          7           0       -0.636896    0.052327   -0.000003
      4          7           0       -1.922816   -0.156819   -0.000000
      5          1           0       -2.370079    0.771812    0.000010
 ---------------------------------------------------------------------

 SCF Done:  E(UHF) =  -233.692233342     A.U. after    2 cycles

 The electronic state is 2-A.
 Alpha  occ. eigenvalues --  -26.18858 -15.69612 -15.65594  -7.72485  -1.72820
 Alpha  occ. eigenvalues --   -1.27841  -1.00527  -0.88110  -0.80268  -0.79882
 Alpha  occ. eigenvalues --   -0.72625  -0.60622  -0.59116  -0.38460  -0.36787
 Alpha virt. eigenvalues --    0.03473   0.04223   0.04883   0.05469   0.07687
 Alpha virt. eigenvalues --    0.13213   0.16845   0.17343   0.18691   0.19954
 Alpha virt. eigenvalues --    0.20563   0.21179   0.23778   0.23948   0.25163

  Beta  occ. eigenvalues --  -26.18748 -15.66556 -15.66197  -7.72020  -1.72557
  Beta  occ. eigenvalues --   -1.23601  -0.95598  -0.88044  -0.79638  -0.79006
  Beta  occ. eigenvalues --   -0.70778  -0.56858  -0.49517  -0.37118
  Beta virt. eigenvalues --    0.03572   0.04289   0.04881   0.05500   0.07744
  Beta virt. eigenvalues --    0.08559   0.13389   0.17204   0.18290   0.18973
  Beta virt. eigenvalues --    0.20039   0.21216   0.22585   0.23975   0.25234

 Mulliken charges and spin densities:
               1          2
     1  F   -0.313186   0.010160
     2  B    0.053079   0.271507
     3  N    0.045025  -0.208243
     4  N    0.119909   1.009522
     5  H    0.095173  -0.082945
 Sum of Mulliken charges =  -0.00000   1.00000

 Dipole moment (field-independent basis, Debye):
    X=              0.4187    Y=              1.3469    Z=              0.0000  Tot=              1.4105
                          Isotropic Fermi Contact Couplings
        Atom                 a.u.       MegaHertz       Gauss      10(-4) cm-1
     1  F(19)              0.01115      46.92073      16.74248      15.65107
     2  B(11)              0.02584      37.07020      13.22757      12.36529
     3  N(14)             -0.13196     -42.63614     -15.21363     -14.22188
     4  N(14)              0.26367      85.19424      30.39942      28.41774
     5  H(1)              -0.02401    -107.32822     -38.29738     -35.80084
 --------------------------------------------------------
       Center         ----  Spin Dipole Couplings  ----
                      3XX-RR        3YY-RR        3ZZ-RR

 Normal termination of Gaussian 16 at Wed Apr  9 00:32:53 2025.
