 Gaussian 16, Revision C.01,

 ----------------------------------------------------------------------
 #t hf aug-cc-pvdz symm=none int=(grid=ultrafine) guess=(read,tcheck) s
 table=(opt,rrhf)
 ----------------------------------------------------------------------
 -----
 title
 -----
 Symbolic Z-matrix:
 Charge =  0 Multiplicity = 1

 SCF Done:  E(RHF) =  -2234.20414457     A.U. after   13 cycles
 Normal termination of Gaussian 16 at Tue Apr  8 23:41:27 2025.
 Gaussian 16:  ES64L-G16RevC.01  3-Jul-2019

 ----------------------------------------------------------------------
 #t hf aug-cc-pvdz iop(5/13=1,5/36=2,99/5=2) pseudo=read geom=check gue
 ss=(read,tcheck) scf=(maxcycle=1)
 ----------------------------------------------------------------------
 -----
 title
 -----
 Structure from the checkpoint file:  "BDE49_nonexpt_1681_mol1.chk"
 Charge =  0 Multiplicity = 1

                         Standard orientation:
 ---------------------------------------------------------------------
 Center     Atomic      Atomic             Coordinates (Angstroms)
 Number     Number       Type             X           Y           Z
 ---------------------------------------------------------------------
      1         14           0       -0.670146   -0.002387   -0.005397
      2         15           0        1.599578   -0.015111   -0.141125
      3         17           0       -1.270269    1.943348   -0.293054
      4         17           0       -1.333264   -0.647794    1.824400
      5         17           0       -1.452057   -1.189695   -1.479714
      6          8           0        2.146961    0.339755   -1.456955
      7          8           0        2.092282    0.937161    1.063156
      8          1           0        2.340251    1.815446    0.745902
      9          8           0        1.909886   -1.472037    0.435228
     10          1           0        2.800134   -1.793986    0.237359
 ---------------------------------------------------------------------

 SCF Done:  E(RHF) =  -2234.42303082     A.U. after    2 cycles

 The electronic state is 1-A.
 Alpha  occ. eigenvalues -- -103.68911-103.68908-103.68820 -81.43778 -69.22742
 Alpha  occ. eigenvalues --  -20.63941 -20.63594 -20.54899 -10.72352 -10.72345
 Alpha  occ. eigenvalues --  -10.72260  -8.38047  -8.38041  -8.37956  -8.37801
 Alpha  occ. eigenvalues --   -8.37797  -8.37795  -8.37790  -8.37708  -8.37703
 Alpha  occ. eigenvalues --   -7.92210  -6.96625  -5.06851  -5.06731  -5.06323
 Alpha  occ. eigenvalues --   -4.07452  -4.07449  -4.07296  -1.40063  -1.36830
 Alpha  occ. eigenvalues --   -1.28051  -1.19577  -1.16305  -1.16271  -0.88074
 Alpha  occ. eigenvalues --   -0.78159  -0.74124  -0.70136  -0.67681  -0.65095
 Alpha  occ. eigenvalues --   -0.60810  -0.60204  -0.59404  -0.59262  -0.56487
 Alpha  occ. eigenvalues --   -0.52905  -0.52694  -0.52512  -0.50992  -0.50020
 Alpha  occ. eigenvalues --   -0.49920  -0.48688  -0.44865
 Alpha virt. eigenvalues --    0.03069   0.04280   0.05314   0.06418   0.06951
 Alpha virt. eigenvalues --    0.08177   0.09791   0.10051   0.10205   0.11279
 Alpha virt. eigenvalues --    0.11527   0.12838   0.13690   0.14564   0.14845

 Mulliken charges:
               1
     1  Si   1.388164
     2  P    1.994073
     3  Cl  -0.471111
     4  Cl  -0.465015
     5  Cl  -0.461570
     6  O   -0.918164
     7  O   -0.702975
     8  H    0.150195
     9  O   -0.680399
    10  H    0.166805
 Sum of Mulliken charges =  -0.00000

 Dipole moment (field-independent basis, Debye):
    X=              1.0501    Y=             -0.0753    Z=              1.7958  Tot=              2.0816

 Test job not archived.
 1\1\GINC-SE454\SP\RHF\Aug-CC-pVDZ\Cl3H2O3P1Si1\OHZDE\08-Apr-2025\0\\#t
  hf aug-cc-pvdz iop(5/13=1,5/36=2,99/5=2) pseudo=read geom=check guess
 =(read,tcheck) scf=(maxcycle=1)\\title\\0,1\Si,0,-0.670146,-0.002387,-
 0.005397\P,0,1.599578,-0.015111,-0.141125\Cl,0,-1.270269,1.943348,-0.2
 93054\Cl,0,-1.333264,-0.647794,1.8244\Cl,0,-1.452057,-1.189695,-1.4797
 14\O,0,2.146961,0.339755,-1.456955\O,0,2.092282,0.937161,1.063156\H,0,
 2.340251,1.815446,0.745902\O,0,1.909886,-1.472037,0.435228\H,0,2.80013
 4,-1.793986,0.237359\\Version=ES64L-G16RevC.01\State=1-A\HF=-2234.4230

 Normal termination of Gaussian 16 at Tue Apr  8 23:41:32 2025.
