 Gaussian 16, Revision C.01,

 ----------------------------------------------------------------------
 #t hf aug-cc-pvdz symm=none int=(grid=ultrafine) guess=(read,tcheck) s
 table=(opt,rrhf)
 ----------------------------------------------------------------------
 -----
 title
 -----
 Symbolic Z-matrix:
 Charge =  0 Multiplicity = 1

 SCF Done:  E(RHF) =  -1451.78050157     A.U. after   14 cycles
 Normal termination of Gaussian 16 at Tue Apr  8 23:58:32 2025.
 Gaussian 16:  ES64L-G16RevC.01  3-Jul-2019

 ----------------------------------------------------------------------
 #t hf aug-cc-pvdz iop(5/13=1,5/36=2,99/5=2) pseudo=read geom=check gue
 ss=(read,tcheck) scf=(maxcycle=1)
 ----------------------------------------------------------------------
 -----
 title
 -----
 Structure from the checkpoint file:  "BDE49_nonexpt_2110_mol1.chk"
 Charge =  0 Multiplicity = 1

                         Standard orientation:
 ---------------------------------------------------------------------
 Center     Atomic      Atomic             Coordinates (Angstroms)
 Number     Number       Type             X           Y           Z
 ---------------------------------------------------------------------
      1         14           0       -0.263211   -0.000055    0.323650
      2          7           0        1.521447   -0.001968   -0.250956
      3          8           0        1.754240   -0.000499   -1.450199
      4          8           0        2.368764   -0.002194    0.639707
      5          6           0       -0.307400   -0.000784    2.163399
      6          1           0        0.197733   -0.888911    2.548109
      7          1           0       -1.344399    0.000314    2.507452
      8          1           0        0.199861    0.885803    2.548860
      9         17           0       -1.090876    1.683123   -0.495623
     10         17           0       -1.094888   -1.680559   -0.497041
 ---------------------------------------------------------------------

 SCF Done:  E(RHF) =  -1451.92190029     A.U. after    2 cycles

 The electronic state is 1-A.
 Alpha  occ. eigenvalues -- -103.69571-103.69570 -69.22182 -20.63400 -20.63342
 Alpha  occ. eigenvalues --  -15.90051 -11.27002 -10.73011 -10.72992  -8.38702
 Alpha  occ. eigenvalues --   -8.38694  -8.38459  -8.38455  -8.38452  -8.38450
 Alpha  occ. eigenvalues --   -6.96278  -4.07109  -4.07104  -4.06948  -1.54895
 Alpha  occ. eigenvalues --   -1.37318  -1.19457  -1.17004  -0.99893  -0.94807
 Alpha  occ. eigenvalues --   -0.80450  -0.74471  -0.72488  -0.68646  -0.62383
 Alpha  occ. eigenvalues --   -0.61029  -0.57881  -0.57706  -0.54679  -0.52557
 Alpha  occ. eigenvalues --   -0.51722  -0.50374  -0.50243  -0.48164  -0.48137
 Alpha virt. eigenvalues --    0.02841   0.04582   0.04976   0.05000   0.05834
 Alpha virt. eigenvalues --    0.07563   0.07666   0.08681   0.11049   0.12833
 Alpha virt. eigenvalues --    0.13851   0.14067   0.14282   0.14729   0.15903

 Mulliken charges:
               1
     1  Si   1.831336
     2  N    0.330791
     3  O   -0.555662
     4  O   -0.528283
     5  C    0.236848
     6  H   -0.087102
     7  H   -0.158406
     8  H   -0.087072
     9  Cl  -0.491221
    10  Cl  -0.491228
 Sum of Mulliken charges =  -0.00000

 Dipole moment (field-independent basis, Debye):
    X=             -3.2306    Y=             -0.0005    Z=              3.0504  Tot=              4.4431

 Test job not archived.
 1\1\GINC-SE072\SP\RHF\Aug-CC-pVDZ\C1H3Cl2N1O2Si1\OHZDE\08-Apr-2025\0\\
 #t hf aug-cc-pvdz iop(5/13=1,5/36=2,99/5=2) pseudo=read geom=check gue
 ss=(read,tcheck) scf=(maxcycle=1)\\title\\0,1\Si,0,-0.263211,-0.000056
 ,0.32365\N,0,1.521447,-0.001967,-0.250956\O,0,1.75424,-0.000497,-1.450
 199\O,0,2.368764,-0.002192,0.639707\C,0,-0.3074,-0.000785,2.163399\H,0
 ,0.197734,-0.888911,2.548109\H,0,-1.344399,0.000312,2.507452\H,0,0.199
 86,0.885803,2.54886\Cl,0,-1.090878,1.683122,-0.495623\Cl,0,-1.094886,-
 1.68056,-0.497041\\Version=ES64L-G16RevC.01\State=1-A\HF=-1451.9219003

 Normal termination of Gaussian 16 at Tue Apr  8 23:58:36 2025.
