 Gaussian 16, Revision C.01,

 ----------------------------------------------------------------------
 #t hf aug-cc-pvdz symm=none int=(grid=ultrafine) guess=(read,tcheck) s
 table=(opt,rrhf)
 ----------------------------------------------------------------------
 -----
 title
 -----
 Symbolic Z-matrix:
 Charge =  0 Multiplicity = 1

 SCF Done:  E(RHF) =  -1707.24564694     A.U. after   11 cycles
 Normal termination of Gaussian 16 at Tue Apr  8 23:44:16 2025.
 Gaussian 16:  ES64L-G16RevC.01  3-Jul-2019

 ----------------------------------------------------------------------
 #t hf aug-cc-pvdz iop(5/13=1,5/36=2,99/5=2) pseudo=read geom=check gue
 ss=(read,tcheck) scf=(maxcycle=1)
 ----------------------------------------------------------------------
 -----
 title
 -----
 Structure from the checkpoint file:  "BDE49_nonexpt_1763_mol1.chk"
 Charge =  0 Multiplicity = 1

                         Standard orientation:
 ---------------------------------------------------------------------
 Center     Atomic      Atomic             Coordinates (Angstroms)
 Number     Number       Type             X           Y           Z
 ---------------------------------------------------------------------
      1          6           0       -0.000012   -0.000014    2.111072
      2         14           0       -0.000001   -0.000002    0.262740
      3          1           0       -0.889720    0.511822    2.485149
      4          1           0        0.888107    0.514572    2.485154
      5          1           0        0.001571   -1.026446    2.485140
      6         17           0        1.671735   -0.961774   -0.466653
      7         17           0       -0.002935    1.928645   -0.466678
      8         17           0       -1.668792   -0.966862   -0.466683
 ---------------------------------------------------------------------

 SCF Done:  E(RHF) =  -1707.34246533     A.U. after    2 cycles

 The electronic state is 1-A.
 Alpha  occ. eigenvalues -- -103.67264-103.67264-103.67264 -69.20378 -11.25498
 Alpha  occ. eigenvalues --  -10.70738 -10.70724 -10.70724  -8.36426  -8.36419
 Alpha  occ. eigenvalues --   -8.36419  -8.36185  -8.36185  -8.36185  -8.36181
 Alpha  occ. eigenvalues --   -8.36181  -8.36178  -6.94316  -4.05153  -4.05153
 Alpha  occ. eigenvalues --   -4.04991  -1.18096  -1.14730  -1.14730  -0.97851
 Alpha  occ. eigenvalues --   -0.70305  -0.61234  -0.61234  -0.56607  -0.56607
 Alpha  occ. eigenvalues --   -0.56424  -0.51169  -0.51169  -0.48460  -0.48459
 Alpha  occ. eigenvalues --   -0.47331  -0.47174
 Alpha virt. eigenvalues --    0.03275   0.05403   0.05403   0.05982   0.07797
 Alpha virt. eigenvalues --    0.07797   0.08696   0.11834   0.12879   0.12879
 Alpha virt. eigenvalues --    0.15083   0.15397   0.15397   0.16985   0.16985

 Mulliken charges:
               1
     1  C    0.255593
     2  Si   1.599308
     3  H   -0.132478
     4  H   -0.132472
     5  H   -0.132472
     6  Cl  -0.485824
     7  Cl  -0.485828
     8  Cl  -0.485827
 Sum of Mulliken charges =  -0.00000

 Dipole moment (field-independent basis, Debye):
    X=              0.0000    Y=             -0.0000    Z=              2.2953  Tot=              2.2953

 Test job not archived.
 1\1\GINC-SE080\SP\RHF\Aug-CC-pVDZ\C1H3Cl3Si1\OHZDE\08-Apr-2025\0\\#t h
 f aug-cc-pvdz iop(5/13=1,5/36=2,99/5=2) pseudo=read geom=check guess=(
 read,tcheck) scf=(maxcycle=1)\\title\\0,1\C,0,-0.000012,-0.000014,2.11
 1072\Si,0,-0.000001,-0.000002,0.26274\H,0,-0.894735,0.503004,2.485149\
 H,0,0.882978,0.523325,2.485154\H,0,0.011716,-1.02638,2.48514\Cl,0,1.68
 1159,-0.945204,-0.466653\Cl,0,-0.021997,1.928522,-0.466678\Cl,0,-1.659
 155,-0.983308,-0.466683\\Version=ES64L-G16RevC.01\State=1-A\HF=-1707.3
 424653\RMSD=4.128e-03\Dipole=0.0000027,-0.0000092,0.9030336\Quadrupole

 Normal termination of Gaussian 16 at Tue Apr  8 23:44:19 2025.
