 Gaussian 16, Revision C.01,

 ----------------------------------------------------------------------
 #t hf aug-cc-pvdz symm=none int=(grid=ultrafine) guess=(read,tcheck) s
 table=(opt,rrhf)
 ----------------------------------------------------------------------
 -----
 title
 -----
 Symbolic Z-matrix:
 Charge =  0 Multiplicity = 1

 SCF Done:  E(RHF) =  -1323.69403266     A.U. after   14 cycles
 Normal termination of Gaussian 16 at Wed Apr  9 00:49:41 2025.
 Gaussian 16:  ES64L-G16RevC.01  3-Jul-2019

 ----------------------------------------------------------------------
 #t hf aug-cc-pvdz iop(5/13=1,5/36=2,99/5=2) pseudo=read geom=check gue
 ss=(read,tcheck) scf=(maxcycle=1)
 ----------------------------------------------------------------------
 -----
 title
 -----
 Structure from the checkpoint file:  "BDE49_nonexpt_921_mol1.chk"
 Charge =  0 Multiplicity = 1

                         Standard orientation:
 ---------------------------------------------------------------------
 Center     Atomic      Atomic             Coordinates (Angstroms)
 Number     Number       Type             X           Y           Z
 ---------------------------------------------------------------------
      1         17           0        4.291812    0.165001   -0.000005
      2          7           0        0.452777    0.430916   -0.000019
      3          7           0        1.884988   -1.473726    0.000036
      4          1           0        2.794555   -1.901826    0.000049
      5          1           0        1.039604   -2.024499    0.000048
      6          7           0        2.660654    0.801147   -0.000021
      7          6           0        1.763876   -0.137982    0.000002
      8         17           0       -4.291812   -0.165001   -0.000009
      9          7           0       -0.452777   -0.430916   -0.000008
     10          7           0       -1.884988    1.473726    0.000032
     11          1           0       -2.794555    1.901826    0.000003
     12          1           0       -1.039604    2.024499    0.000008
     13          7           0       -2.660654   -0.801147   -0.000010
     14          6           0       -1.763876    0.137982    0.000006
 ---------------------------------------------------------------------

 SCF Done:  E(RHF) =  -1323.84759898     A.U. after    2 cycles

 The electronic state is 1-A.
 Alpha  occ. eigenvalues -- -103.68862-103.68862 -15.76165 -15.76045 -15.69709
 Alpha  occ. eigenvalues --  -15.69709 -15.68215 -15.68213 -11.40708 -11.40707
 Alpha  occ. eigenvalues --  -10.71887 -10.71887  -8.37631  -8.37631  -8.37281
 Alpha  occ. eigenvalues --   -8.37280  -8.37256  -8.37256  -1.41306  -1.31594
 Alpha  occ. eigenvalues --   -1.27172  -1.20841  -1.19654  -1.12021  -1.08690
 Alpha  occ. eigenvalues --   -0.98372  -0.82846  -0.81034  -0.78039  -0.77546
 Alpha  occ. eigenvalues --   -0.74106  -0.66215  -0.65946  -0.63729  -0.62702
 Alpha  occ. eigenvalues --   -0.60549  -0.53528  -0.53119  -0.52422  -0.49859
 Alpha  occ. eigenvalues --   -0.48211  -0.46255  -0.44278  -0.44198  -0.39281
 Alpha  occ. eigenvalues --   -0.37768
 Alpha virt. eigenvalues --    0.01695   0.02563   0.03339   0.05733   0.06182
 Alpha virt. eigenvalues --    0.06710   0.09042   0.09415   0.10608   0.10717
 Alpha virt. eigenvalues --    0.12131   0.12346   0.12996   0.15242   0.15555

 Mulliken charges:
               1
     1  Cl   0.120469
     2  N   -0.447730
     3  N   -0.062571
     4  H    0.021372
     5  H    0.065638
     6  N   -0.689180
     7  C    0.992002
     8  Cl   0.120469
     9  N   -0.447730
    10  N   -0.062571
    11  H    0.021372
    12  H    0.065638
    13  N   -0.689180
    14  C    0.992002
 Sum of Mulliken charges =  -0.00000

 Dipole moment (field-independent basis, Debye):
    X=             -0.0000    Y=             -0.0000    Z=              0.0001  Tot=              0.0001

 Test job not archived.
 1\1\GINC-SE362\SP\RHF\Aug-CC-pVDZ\C2H4Cl2N6\OHZDE\09-Apr-2025\0\\#t hf
  aug-cc-pvdz iop(5/13=1,5/36=2,99/5=2) pseudo=read geom=check guess=(r
 ead,tcheck) scf=(maxcycle=1)\\title\\0,1\Cl,0,4.291812,0.165001,-0.000
 005\N,0,0.452777,0.430916,-0.000019\N,0,1.884988,-1.473726,0.000036\H,
 0,2.794555,-1.901826,0.000049\H,0,1.039604,-2.024499,0.000048\N,0,2.66
 0654,0.801147,-0.000021\C,0,1.763876,-0.137982,0.000002\Cl,0,-4.291812
 ,-0.165001,-0.000009\N,0,-0.452777,-0.430916,-0.000008\N,0,-1.884988,1
 .473726,0.000032\H,0,-2.794555,1.901826,0.000003\H,0,-1.039604,2.02449

 Normal termination of Gaussian 16 at Wed Apr  9 00:49:47 2025.
