 Gaussian 16, Revision C.01,

 ----------------------------------------------------------------------
 #t hf aug-cc-pvdz symm=none int=(grid=ultrafine) guess=(read,tcheck) s
 table=(opt,rrhf)
 ----------------------------------------------------------------------
 -----
 title
 -----
 Symbolic Z-matrix:
 Charge =  0 Multiplicity = 1

 SCF Done:  E(RHF) =  -1107.67406666     A.U. after   14 cycles
 Normal termination of Gaussian 16 at Tue Apr  8 23:06:46 2025.
 Gaussian 16:  ES64L-G16RevC.01  3-Jul-2019

 ----------------------------------------------------------------------
 #t hf aug-cc-pvdz iop(5/13=1,5/36=2,99/5=2) pseudo=read geom=check gue
 ss=(read,tcheck) scf=(maxcycle=1)
 ----------------------------------------------------------------------
 -----
 title
 -----
 Structure from the checkpoint file:  "BDE49_expt_620_mol1.chk"
 Charge =  0 Multiplicity = 1

                         Standard orientation:
 ---------------------------------------------------------------------
 Center     Atomic      Atomic             Coordinates (Angstroms)
 Number     Number       Type             X           Y           Z
 ---------------------------------------------------------------------
      1          6           0        0.041054   -0.096510    0.630425
      2          8           0       -0.143207    1.256001    0.716002
      3          8           0       -0.186429    1.851292   -0.599366
      4          1           0       -1.145062    1.892264   -0.744687
      5         17           0        1.569338   -0.575766   -0.178676
      6          1           0        0.084760   -0.436963    1.660668
      7         17           0       -1.366333   -0.938033   -0.152596
 ---------------------------------------------------------------------

 SCF Done:  E(RHF) =  -1107.77188659     A.U. after    2 cycles

 The electronic state is 1-A.
 Alpha  occ. eigenvalues -- -103.68441-103.68113 -20.69521 -20.67965 -11.44908
 Alpha  occ. eigenvalues --  -10.71752 -10.71430  -8.37463  -8.37157  -8.37150
 Alpha  occ. eigenvalues --   -8.37144  -8.36822  -8.36817  -1.48754  -1.28107
 Alpha  occ. eigenvalues --   -1.19109  -1.15079  -0.90553  -0.77638  -0.75497
 Alpha  occ. eigenvalues --   -0.70920  -0.64427  -0.60306  -0.56078  -0.52586
 Alpha  occ. eigenvalues --   -0.50710  -0.48932  -0.47943  -0.46720
 Alpha virt. eigenvalues --    0.03680   0.04528   0.07367   0.08274   0.10730
 Alpha virt. eigenvalues --    0.12037   0.13083   0.14141   0.15140   0.15393
 Alpha virt. eigenvalues --    0.16661   0.17191   0.18285   0.20059   0.21143

 Mulliken charges:
               1
     1  C    0.285248
     2  O   -0.340278
     3  O   -0.212142
     4  H    0.235485
     5  Cl  -0.009232
     6  H    0.094419
     7  Cl  -0.053500
 Sum of Mulliken charges =  -0.00000

 Dipole moment (field-independent basis, Debye):
    X=             -1.4744    Y=              0.0734    Z=              0.7306  Tot=              1.6471

 Test job not archived.
 1\1\GINC-SE072\SP\RHF\Aug-CC-pVDZ\C1H2Cl2O2\OHZDE\08-Apr-2025\0\\#t hf
  aug-cc-pvdz iop(5/13=1,5/36=2,99/5=2) pseudo=read geom=check guess=(r
 ead,tcheck) scf=(maxcycle=1)\\title\\0,1\C,0,0.041054,-0.09651,0.63042
 5\O,0,-0.143208,1.256001,0.716002\O,0,-0.18643,1.851292,-0.599366\H,0,
 -1.145063,1.892263,-0.744687\Cl,0,1.569338,-0.575766,-0.178676\H,0,0.0
 8476,-0.436963,1.660668\Cl,0,-1.366333,-0.938034,-0.152596\\Version=ES
 64L-G16RevC.01\State=1-A\HF=-1107.7718866\RMSD=2.649e-03\Dipole=-0.580
 0705,0.0288626,0.2874254\Quadrupole=0.3331638,-1.5766552,1.2434915,-2.

 Normal termination of Gaussian 16 at Tue Apr  8 23:06:48 2025.
