 Gaussian 16, Revision C.01,

 ----------------------------------------------------------------------
 #t hf aug-cc-pvdz symm=none int=(grid=ultrafine) guess=(read,tcheck) s
 table=(opt,rrhf)
 ----------------------------------------------------------------------
 -----
 title
 -----
 Symbolic Z-matrix:
 Charge =  0 Multiplicity = 1

 SCF Done:  E(RHF) =  -345.990589594     A.U. after   14 cycles

 1\1\GINC-SE329\Stability\RHF\Aug-CC-pVDZ\C5H12O2\OHZDE\08-Apr-2025\0\\
 #t hf aug-cc-pvdz symm=none int=(grid=ultrafine) guess=(read,tcheck) s
 table=(opt,rrhf)\\title\\0,1\O,0,2.808763,0.246142,0.067075\O,0,1.5042
 27,-0.391446,0.059684\H,0,3.178253,-0.10803,-0.753395\C,0,0.535555,0.6
 43242,-0.095095\C,0,-0.865099,0.012499,-0.00361\C,0,-1.048419,-1.03361
 ,-1.118783\H,0,-0.91828,-0.581379,-2.107215\H,0,-2.052989,-1.464721,-1
 .077985\H,0,-0.324932,-1.845247,-1.0213\C,0,-1.888227,1.14835,-0.18588
 1\H,0,-1.776207,1.635702,-1.159298\H,0,-1.77941,1.912103,0.590095\H,0,

 Normal termination of Gaussian 16 at Tue Apr  8 22:53:33 2025.
 Gaussian 16:  ES64L-G16RevC.01  3-Jul-2019

 ----------------------------------------------------------------------
 #t hf aug-cc-pvdz iop(5/13=1,5/36=2,99/5=2) pseudo=read geom=check gue
 ss=(read,tcheck) scf=(maxcycle=1)
 ----------------------------------------------------------------------
 -----
 title
 -----
 Structure from the checkpoint file:  "BDE49_expt_1849_mol1.chk"
 Charge =  0 Multiplicity = 1

                         Standard orientation:
 ---------------------------------------------------------------------
 Center     Atomic      Atomic             Coordinates (Angstroms)
 Number     Number       Type             X           Y           Z
 ---------------------------------------------------------------------
      1          8           0        2.808763    0.246142    0.067075
      2          8           0        1.504227   -0.391446    0.059684
      3          1           0        3.178253   -0.108030   -0.753395
      4          6           0        0.535555    0.643242   -0.095095
      5          6           0       -0.865099    0.012499   -0.003610
      6          6           0       -1.048419   -1.033610   -1.118783
      7          1           0       -0.918280   -0.581379   -2.107215
      8          1           0       -2.052989   -1.464721   -1.077985
      9          1           0       -0.324932   -1.845247   -1.021300
     10          6           0       -1.888227    1.148350   -0.185881
     11          1           0       -1.776207    1.635702   -1.159298
     12          1           0       -1.779410    1.912103    0.590095
     13          1           0       -2.906720    0.754513   -0.125459
     14          6           0       -1.057888   -0.643910    1.375844
     15          1           0       -0.325216   -1.435604    1.541039
     16          1           0       -2.058974   -1.077796    1.456359
     17          1           0       -0.944851    0.091050    2.178748
     18          1           0        0.675001    1.134497   -1.067490
     19          1           0        0.674876    1.387916    0.696981
 ---------------------------------------------------------------------

 SCF Done:  E(RHF) =  -346.101141904     A.U. after    2 cycles

 The electronic state is 1-A.
 Alpha  occ. eigenvalues --  -20.63563 -20.63371 -11.28715 -11.25039 -11.22818
 Alpha  occ. eigenvalues --  -11.22237 -11.21994  -1.42066  -1.20696  -1.08642
 Alpha  occ. eigenvalues --   -0.93278  -0.92862  -0.90768  -0.75169  -0.73162
 Alpha  occ. eigenvalues --   -0.67155  -0.66202  -0.62839  -0.59624  -0.58793
 Alpha  occ. eigenvalues --   -0.57373  -0.54131  -0.53061  -0.51740  -0.51183
 Alpha  occ. eigenvalues --   -0.47604  -0.46580  -0.46250  -0.45405
 Alpha virt. eigenvalues --    0.03374   0.04225   0.04673   0.04885   0.06253
 Alpha virt. eigenvalues --    0.06700   0.06934   0.07209   0.07575   0.08914
 Alpha virt. eigenvalues --    0.09261   0.09547   0.12390   0.13603   0.14245

 Mulliken charges:
               1
     1  O   -0.317711
     2  O   -0.415545
     3  H    0.208814
     4  C    1.562011
     5  C   -4.426173
     6  C    1.211759
     7  H   -0.007096
     8  H   -0.017042
     9  H   -0.004214
    10  C    1.309630
    11  H   -0.028186
    12  H   -0.024778
    13  H   -0.013373
    14  C    1.243171
    15  H    0.017121
    16  H   -0.019873
    17  H   -0.016703
    18  H   -0.131407
    19  H   -0.130406
 Sum of Mulliken charges =  -0.00000

 Dipole moment (field-independent basis, Debye):
    X=             -0.8652    Y=              0.4952    Z=             -1.5659  Tot=              1.8563

 Test job not archived.
 1\1\GINC-SE329\SP\RHF\Aug-CC-pVDZ\C5H12O2\OHZDE\08-Apr-2025\0\\#t hf a
 ug-cc-pvdz iop(5/13=1,5/36=2,99/5=2) pseudo=read geom=check guess=(rea
 d,tcheck) scf=(maxcycle=1)\\title\\0,1\O,0,2.808763,0.246142,0.067075\
 O,0,1.504227,-0.391446,0.059684\H,0,3.178253,-0.10803,-0.753395\C,0,0.
 535555,0.643242,-0.095095\C,0,-0.865099,0.012499,-0.00361\C,0,-1.04841
 9,-1.03361,-1.118783\H,0,-0.91828,-0.581379,-2.107215\H,0,-2.052989,-1
 .464721,-1.077985\H,0,-0.324932,-1.845247,-1.0213\C,0,-1.888227,1.1483
 5,-0.185881\H,0,-1.776207,1.635702,-1.159298\H,0,-1.77941,1.912103,0.5

 Normal termination of Gaussian 16 at Tue Apr  8 22:53:40 2025.
