 Gaussian 16, Revision C.01,

 ----------------------------------------------------------------------
 #t hf aug-cc-pvdz symm=none int=(grid=ultrafine) guess=(read,tcheck) s
 table=(opt,rrhf)
 ----------------------------------------------------------------------
 -----
 title
 -----
 Symbolic Z-matrix:
 Charge =  0 Multiplicity = 1

 SCF Done:  E(RHF) =  -1084.17595571     A.U. after   15 cycles
 Normal termination of Gaussian 16 at Tue Apr  8 23:16:55 2025.
 Gaussian 16:  ES64L-G16RevC.01  3-Jul-2019

 ----------------------------------------------------------------------
 #t hf aug-cc-pvdz iop(5/13=1,5/36=2,99/5=2) pseudo=read geom=check gue
 ss=(read,tcheck) scf=(maxcycle=1)
 ----------------------------------------------------------------------
 -----
 title
 -----
 Structure from the checkpoint file:  "BDE49_nonexpt_1062_mol1.chk"
 Charge =  0 Multiplicity = 1

                         Standard orientation:
 ---------------------------------------------------------------------
 Center     Atomic      Atomic             Coordinates (Angstroms)
 Number     Number       Type             X           Y           Z
 ---------------------------------------------------------------------
      1         17           0       -2.329197    0.048334   -0.000003
      2          8           0       -0.774616   -0.897728    0.000000
      3          6           0        0.373661   -0.219774    0.000005
      4         16           0        1.721309   -1.159467   -0.000001
      5          8           0        0.255984    1.085601    0.000003
      6          6           0        1.459938    1.882885    0.000001
      7          1           0        1.110023    2.911804    0.000001
      8          1           0        2.046419    1.668163   -0.893069
      9          1           0        2.046421    1.668165    0.893071
 ---------------------------------------------------------------------

 SCF Done:  E(RHF) =  -1084.28655814     A.U. after    2 cycles

 The electronic state is 1-A.
 Alpha  occ. eigenvalues -- -103.74621 -93.51146 -20.70988 -20.66826 -11.46623
 Alpha  occ. eigenvalues --  -11.32828 -10.77169  -8.81129  -8.42913  -8.42477
 Alpha  occ. eigenvalues --   -8.42462  -6.15365  -6.14812  -6.14731  -1.48101
 Alpha  occ. eigenvalues --   -1.39860  -1.16109  -1.02672  -0.99628  -0.82104
 Alpha  occ. eigenvalues --   -0.77879  -0.73543  -0.69429  -0.65907  -0.62162
 Alpha  occ. eigenvalues --   -0.59274  -0.54872  -0.53015  -0.50887  -0.50386
 Alpha  occ. eigenvalues --   -0.37445  -0.35652
 Alpha virt. eigenvalues --   -0.00003   0.03133   0.05586   0.05921   0.07279
 Alpha virt. eigenvalues --    0.08964   0.09025   0.10227   0.11708   0.12213
 Alpha virt. eigenvalues --    0.13690   0.15144   0.15452   0.16001   0.16894

 Mulliken charges:
               1
     1  Cl   0.294773
     2  O   -0.535923
     3  C    0.229151
     4  S   -0.007521
     5  O   -0.488913
     6  C    0.807309
     7  H   -0.216016
     8  H   -0.041430
     9  H   -0.041429
 Sum of Mulliken charges =   0.00000

 Dipole moment (field-independent basis, Debye):
    X=             -0.1102    Y=              3.7099    Z=              0.0000  Tot=              3.7115

 Test job not archived.
 1\1\GINC-SE252\SP\RHF\Aug-CC-pVDZ\C2H3Cl1O2S1\OHZDE\08-Apr-2025\0\\#t
 hf aug-cc-pvdz iop(5/13=1,5/36=2,99/5=2) pseudo=read geom=check guess=
 (read,tcheck) scf=(maxcycle=1)\\title\\0,1\Cl,0,-2.329197,0.048334,-0.
 000003\O,0,-0.774616,-0.897728,0.\C,0,0.373661,-0.219774,0.000005\S,0,
 1.721309,-1.159467,-0.000001\O,0,0.255984,1.085601,0.000003\C,0,1.4599
 38,1.882885,0.000001\H,0,1.110023,2.911804,0.000001\H,0,2.046419,1.668
 163,-0.893069\H,0,2.046421,1.668165,0.893071\\Version=ES64L-G16RevC.01
 \State=1-A\HF=-1084.2865581\RMSD=3.707e-03\Dipole=-0.0433385,1.4595784

 Normal termination of Gaussian 16 at Tue Apr  8 23:16:58 2025.
