 Gaussian 16, Revision C.01,

 ----------------------------------------------------------------------
 #t hf aug-cc-pvdz symm=none int=(grid=ultrafine) guess=(read,tcheck) s
 table=(opt,rrhf)
 ----------------------------------------------------------------------
 -----
 title
 -----
 Symbolic Z-matrix:
 Charge =  0 Multiplicity = 1

 SCF Done:  E(RHF) =  -831.794438084     A.U. after   16 cycles
 Normal termination of Gaussian 16 at Wed Apr  9 00:53:03 2025.
 Gaussian 16:  ES64L-G16RevC.01  3-Jul-2019

 ----------------------------------------------------------------------
 #t hf aug-cc-pvdz iop(5/13=1,5/36=2,99/5=2) pseudo=read geom=check gue
 ss=(read,tcheck) scf=(maxcycle=1)
 ----------------------------------------------------------------------
 -----
 title
 -----
 Structure from the checkpoint file:  "BDE49_nonexpt_968_mol1.chk"
 Charge =  0 Multiplicity = 1

                         Standard orientation:
 ---------------------------------------------------------------------
 Center     Atomic      Atomic             Coordinates (Angstroms)
 Number     Number       Type             X           Y           Z
 ---------------------------------------------------------------------
      1          9           0       -2.448073   -1.860559   -0.558349
      2          7           0       -1.078881   -1.566297   -0.353528
      3          6           0       -0.995987   -0.348423    0.070022
      4          7           0       -2.017107    0.486372    0.362373
      5          1           0       -2.915304    0.101668    0.105854
      6          6           0       -1.939763    1.934473    0.537192
      7          1           0       -2.850996    2.262243    1.036336
      8          1           0       -1.844497    2.462257   -0.416262
      9          1           0       -1.101944    2.199422    1.181395
     10          6           0        0.425087    0.077812    0.352729
     11          9           0        0.582625    0.512527    1.604557
     12          7           0        1.443012   -1.094921    0.128427
     13          8           0        1.841364   -1.239180   -1.003612
     14          8           0        1.731822   -1.709963    1.123631
     15          7           0        0.907255    1.209867   -0.602346
     16          8           0        1.851403    1.852967   -0.204460
     17          8           0        0.298635    1.330972   -1.643976
 ---------------------------------------------------------------------

 SCF Done:  E(RHF) =  -832.054122359     A.U. after    2 cycles

 The electronic state is 1-A.
 Alpha  occ. eigenvalues --  -26.23467 -26.16127 -20.67982 -20.67972 -20.67113
 Alpha  occ. eigenvalues --  -20.66824 -15.97897 -15.97372 -15.75157 -15.70765
 Alpha  occ. eigenvalues --  -11.53672 -11.41738 -11.32195  -1.78373  -1.67869
 Alpha  occ. eigenvalues --   -1.61755  -1.60339  -1.43607  -1.43000  -1.31658
 Alpha  occ. eigenvalues --   -1.20679  -1.15716  -1.00557  -0.99620  -0.96278
 Alpha  occ. eigenvalues --   -0.91205  -0.87448  -0.86816  -0.82087  -0.80794
 Alpha  occ. eigenvalues --   -0.79731  -0.79383  -0.78523  -0.78116  -0.76835
 Alpha  occ. eigenvalues --   -0.76560  -0.75123  -0.69995  -0.67647  -0.66495
 Alpha  occ. eigenvalues --   -0.60476  -0.58672  -0.57659  -0.56521  -0.55390
 Alpha  occ. eigenvalues --   -0.53969  -0.53384  -0.52563  -0.51396  -0.41173
 Alpha virt. eigenvalues --    0.01798   0.02153   0.03504   0.04129   0.04790
 Alpha virt. eigenvalues --    0.05942   0.08847   0.09013   0.09705   0.09968
 Alpha virt. eigenvalues --    0.10512   0.11379   0.13296   0.13403   0.14012

 Mulliken charges:
               1
     1  F   -0.464555
     2  N   -0.271229
     3  C    0.608042
     4  N   -0.322529
     5  H   -0.047547
     6  C    0.873418
     7  H   -0.224731
     8  H   -0.065655
     9  H   -0.093932
    10  C    1.668293
    11  F   -0.213015
    12  N    0.279346
    13  O   -0.524064
    14  O   -0.506584
    15  N    0.392586
    16  O   -0.533967
    17  O   -0.553876
 Sum of Mulliken charges =  -0.00000

 Dipole moment (field-independent basis, Debye):
    X=             -3.8643    Y=              3.8735    Z=              1.8176  Tot=              5.7655

 Test job not archived.
 1\1\GINC-SE284\SP\RHF\Aug-CC-pVDZ\C3H4F2N4O4\OHZDE\09-Apr-2025\0\\#t h
 f aug-cc-pvdz iop(5/13=1,5/36=2,99/5=2) pseudo=read geom=check guess=(
 read,tcheck) scf=(maxcycle=1)\\title\\0,1\F,0,-2.448073,-1.860559,-0.5
 58349\N,0,-1.078881,-1.566297,-0.353528\C,0,-0.995987,-0.348423,0.0700
 22\N,0,-2.017107,0.486372,0.362373\H,0,-2.915304,0.101668,0.105854\C,0
 ,-1.939763,1.934473,0.537192\H,0,-2.850996,2.262243,1.036336\H,0,-1.84
 4497,2.462257,-0.416262\H,0,-1.101944,2.199422,1.181395\C,0,0.425087,0
 .077812,0.352729\F,0,0.582625,0.512527,1.604557\N,0,1.443012,-1.094921

 Normal termination of Gaussian 16 at Wed Apr  9 00:53:19 2025.
