 Gaussian 16, Revision C.01,

 ----------------------------------------------------------------------
 #t hf aug-cc-pvdz symm=none int=(grid=ultrafine) guess=(read,tcheck) s
 table=(opt,rrhf)
 ----------------------------------------------------------------------
 -----
 title
 -----
 Symbolic Z-matrix:
 Charge =  0 Multiplicity = 1

 SCF Done:  E(RHF) =  -433.640094894     A.U. after   12 cycles
 Normal termination of Gaussian 16 at Wed Apr  9 00:45:13 2025.
 Gaussian 16:  ES64L-G16RevC.01  3-Jul-2019

 ----------------------------------------------------------------------
 #t hf aug-cc-pvdz iop(5/13=1,5/36=2,99/5=2) pseudo=read geom=check gue
 ss=(read,tcheck) scf=(maxcycle=1)
 ----------------------------------------------------------------------
 -----
 title
 -----
 Structure from the checkpoint file:  "BDE49_nonexpt_816_mol1.chk"
 Charge =  0 Multiplicity = 1

                         Standard orientation:
 ---------------------------------------------------------------------
 Center     Atomic      Atomic             Coordinates (Angstroms)
 Number     Number       Type             X           Y           Z
 ---------------------------------------------------------------------
      1          5           0        0.971295    0.085808    0.002298
      2          6           0        1.215759    1.635453    0.054222
      3          1           0        1.199682    1.900979    1.125397
      4          1           0        0.433628    2.245221   -0.407054
      5          1           0        2.193927    1.952319   -0.323221
      6         14           0       -0.907915   -0.702249    0.103444
      7          6           0        2.192889   -0.894281   -0.101830
      8          1           0        3.122956   -0.490771    0.313809
      9          1           0        2.374512   -1.015909   -1.183585
     10          1           0        2.028062   -1.902439    0.287872
     11          6           0       -2.329369    0.516730   -0.154629
     12          1           0       -2.293804    1.324240    0.582290
     13          1           0       -3.298225    0.019469   -0.059297
     14          1           0       -2.283654    0.970473   -1.148932
     15          1           0       -1.057963   -1.334419    1.447770
     16          1           0       -1.040464   -1.814124   -0.881322
 ---------------------------------------------------------------------

 SCF Done:  E(RHF) =  -433.709722784     A.U. after    2 cycles

 The electronic state is 1-A.
 Alpha  occ. eigenvalues --  -69.03392 -11.21214 -11.20817 -11.20667  -7.60368
 Alpha  occ. eigenvalues --   -6.78847  -3.89624  -3.89607  -3.89545  -0.96493
 Alpha  occ. eigenvalues --   -0.93180  -0.92007  -0.68164  -0.59875  -0.57543
 Alpha  occ. eigenvalues --   -0.56164  -0.55450  -0.55070  -0.54113  -0.53064
 Alpha  occ. eigenvalues --   -0.46499  -0.45289  -0.43813  -0.37392
 Alpha virt. eigenvalues --    0.03209   0.04409   0.04794   0.04935   0.06268
 Alpha virt. eigenvalues --    0.06525   0.06619   0.07090   0.07730   0.08209
 Alpha virt. eigenvalues --    0.08763   0.09205   0.09661   0.10229   0.10534

 Mulliken charges:
               1
     1  B    0.521513
     2  C    0.533488
     3  H   -0.112040
     4  H   -0.300748
     5  H   -0.327108
     6  Si   0.053259
     7  C    0.496563
     8  H   -0.300436
     9  H   -0.096261
    10  H   -0.278032
    11  C    0.249101
    12  H   -0.199786
    13  H   -0.277599
    14  H   -0.203830
    15  H    0.144800
    16  H    0.097117
 Sum of Mulliken charges =  -0.00000

 Dipole moment (field-independent basis, Debye):
    X=              0.5254    Y=              0.9048    Z=             -0.1960  Tot=              1.0645

 Test job not archived.
 1\1\GINC-SE015\SP\RHF\Aug-CC-pVDZ\C3H11B1Si1\OHZDE\09-Apr-2025\0\\#t h
 f aug-cc-pvdz iop(5/13=1,5/36=2,99/5=2) pseudo=read geom=check guess=(
 read,tcheck) scf=(maxcycle=1)\\title\\0,1\B,0,0.971295,0.085808,0.0022
 98\C,0,1.215759,1.635453,0.054222\H,0,1.199682,1.900979,1.125397\H,0,0
 .433628,2.245221,-0.407054\H,0,2.193927,1.952319,-0.323221\Si,0,-0.907
 915,-0.702249,0.103444\C,0,2.192889,-0.894281,-0.10183\H,0,3.122956,-0
 .490771,0.313809\H,0,2.374512,-1.015909,-1.183585\H,0,2.028062,-1.9024
 39,0.287872\C,0,-2.329369,0.51673,-0.154629\H,0,-2.293804,1.32424,0.58

 Normal termination of Gaussian 16 at Wed Apr  9 00:45:18 2025.
