 Gaussian 16, Revision C.01,

 ----------------------------------------------------------------------
 #t hf aug-cc-pvdz symm=none int=(grid=ultrafine) guess=(read,tcheck) s
 table=(opt,rrhf)
 ----------------------------------------------------------------------
 -----
 title
 -----
 Symbolic Z-matrix:
 Charge =  0 Multiplicity = 1

 SCF Done:  E(RHF) =  -650.993760198     A.U. after   14 cycles
 Normal termination of Gaussian 16 at Wed Apr  9 00:02:30 2025.
 Gaussian 16:  ES64L-G16RevC.01  3-Jul-2019

 ----------------------------------------------------------------------
 #t hf aug-cc-pvdz iop(5/13=1,5/36=2,99/5=2) pseudo=read geom=check gue
 ss=(read,tcheck) scf=(maxcycle=1)
 ----------------------------------------------------------------------
 -----
 title
 -----
 Structure from the checkpoint file:  "BDE49_nonexpt_2172_mol1.chk"
 Charge =  0 Multiplicity = 1

                         Standard orientation:
 ---------------------------------------------------------------------
 Center     Atomic      Atomic             Coordinates (Angstroms)
 Number     Number       Type             X           Y           Z
 ---------------------------------------------------------------------
      1          6           0        1.905555   -0.351989   -0.671922
      2          8           0       -0.873739   -0.627583   -0.307538
      3          7           0       -2.188058   -0.269060    0.125414
      4          8           0       -2.965086   -1.102351   -0.132665
      5          6           0        2.243689   -1.709150   -0.028702
      6         14           0        0.380054    0.505572   -0.000405
      7          1           0        1.417990   -2.415321   -0.143635
      8          1           0        2.445928   -1.608624    1.041414
      9          1           0        3.130470   -2.155968   -0.486864
     10          6           0        0.478254    0.815914    1.842707
     11          1           0        1.301990    1.499308    2.073059
     12          1           0        0.646022   -0.110664    2.398227
     13          1           0       -0.444894    1.267898    2.215816
     14          6           0        0.016181    2.085816   -0.934138
     15          1           0        0.818316    2.815746   -0.784638
     16          1           0       -0.917390    2.542461   -0.593834
     17          1           0       -0.071346    1.900033   -2.008307
     18          1           0        1.768274   -0.475394   -1.752675
     19          1           0        2.748812    0.341854   -0.556837
 ---------------------------------------------------------------------

 SCF Done:  E(RHF) =  -651.140108222     A.U. after    2 cycles

 The electronic state is 1-A.
 Alpha  occ. eigenvalues --  -69.08673 -20.66673 -20.60772 -15.85017 -11.23179
 Alpha  occ. eigenvalues --  -11.22356 -11.22011 -11.21997  -6.83541  -3.94457
 Alpha  occ. eigenvalues --   -3.94289  -3.94269  -1.54148  -1.31753  -1.01849
 Alpha  occ. eigenvalues --   -0.95840  -0.93198  -0.91855  -0.84477  -0.76972
 Alpha  occ. eigenvalues --   -0.72646  -0.68089  -0.63190  -0.61028  -0.59037
 Alpha  occ. eigenvalues --   -0.57842  -0.57000  -0.56056  -0.55265  -0.53082
 Alpha  occ. eigenvalues --   -0.52558  -0.50987  -0.49657  -0.45941  -0.43880
 Alpha  occ. eigenvalues --   -0.42079
 Alpha virt. eigenvalues --    0.02787   0.04213   0.04459   0.05138   0.06189
 Alpha virt. eigenvalues --    0.06329   0.06782   0.06907   0.07939   0.08754
 Alpha virt. eigenvalues --    0.09074   0.09434   0.09921   0.10476   0.10816

 Mulliken charges:
               1
     1  C    0.241109
     2  O   -1.055158
     3  N    0.403508
     4  O   -0.312130
     5  C    0.244281
     6  Si   2.100355
     7  H   -0.113181
     8  H   -0.123844
     9  H   -0.083345
    10  C    0.418653
    11  H   -0.222310
    12  H   -0.309404
    13  H   -0.296995
    14  C    0.435716
    15  H   -0.214450
    16  H   -0.304258
    17  H   -0.304109
    18  H   -0.283764
    19  H   -0.220677
 Sum of Mulliken charges =  -0.00000

 Dipole moment (field-independent basis, Debye):
    X=              2.3223    Y=              1.9448    Z=              0.4878  Tot=              3.0681

 Test job not archived.
 1\1\GINC-SE105\SP\RHF\Aug-CC-pVDZ\C4H11N1O2Si1\OHZDE\09-Apr-2025\0\\#t
  hf aug-cc-pvdz iop(5/13=1,5/36=2,99/5=2) pseudo=read geom=check guess
 =(read,tcheck) scf=(maxcycle=1)\\title\\0,1\C,0,1.905555,-0.351989,-0.
 671922\O,0,-0.873739,-0.627583,-0.307538\N,0,-2.188058,-0.26906,0.1254
 14\O,0,-2.965086,-1.102351,-0.132665\C,0,2.243689,-1.70915,-0.028702\S
 i,0,0.380054,0.505572,-0.000405\H,0,1.41799,-2.415321,-0.143635\H,0,2.
 445928,-1.608624,1.041414\H,0,3.13047,-2.155968,-0.486864\C,0,0.478254
 ,0.815914,1.842707\H,0,1.30199,1.499308,2.073059\H,0,0.646022,-0.11066

 Normal termination of Gaussian 16 at Wed Apr  9 00:02:39 2025.
