 Gaussian 16, Revision C.01,

 ----------------------------------------------------------------------
 #t hf aug-cc-pvdz symm=none int=(grid=ultrafine) guess=(read,tcheck) s
 table=(opt,rrhf)
 ----------------------------------------------------------------------
 -----
 title
 -----
 Symbolic Z-matrix:
 Charge =  0 Multiplicity = 1

 SCF Done:  E(RHF) =  -575.388401809     A.U. after   16 cycles
 Normal termination of Gaussian 16 at Wed Apr  9 00:53:22 2025.
 Gaussian 16:  ES64L-G16RevC.01  3-Jul-2019

 ----------------------------------------------------------------------
 #t hf aug-cc-pvdz iop(5/13=1,5/36=2,99/5=2) pseudo=read geom=check gue
 ss=(read,tcheck) scf=(maxcycle=1)
 ----------------------------------------------------------------------
 -----
 title
 -----
 Structure from the checkpoint file:  "BDE49_nonexpt_950_mol1.chk"
 Charge =  0 Multiplicity = 1

                         Standard orientation:
 ---------------------------------------------------------------------
 Center     Atomic      Atomic             Coordinates (Angstroms)
 Number     Number       Type             X           Y           Z
 ---------------------------------------------------------------------
      1          6           0        0.474965    2.225120    0.699671
      2          1           0        1.229780    2.962420    0.977338
      3          1           0       -0.196886    2.077215    1.549313
      4          1           0       -0.125687    2.627873   -0.119859
      5          9           0       -1.432803   -1.399249    1.114950
      6          8           0       -1.689056    1.071551   -1.289238
      7          7           0       -1.017351   -0.233404    0.422320
      8          6           0       -3.391280   -0.279613   -0.234632
      9          1           0       -4.064645    0.285590   -0.875804
     10          1           0       -3.686815   -0.179284    0.811029
     11          1           0       -3.444639   -1.341427   -0.486359
     12          6           0        0.385166   -0.258893    0.160578
     13          6           0       -1.993326    0.243274   -0.459575
     14          6           0        1.121297    0.929015    0.291862
     15          6           0        0.995185   -1.462196   -0.201118
     16          1           0        0.395418   -2.360474   -0.270441
     17          6           0        3.110307   -0.328635   -0.344447
     18          1           0        4.176585   -0.345722   -0.539075
     19          6           0        2.491348    0.863524    0.015320
     20          1           0        3.081597    1.769389    0.102094
     21          6           0        2.361205   -1.499365   -0.445199
     22          1           0        2.835222   -2.434310   -0.719877
 ---------------------------------------------------------------------

 SCF Done:  E(RHF) =  -575.565730954     A.U. after    2 cycles

 The electronic state is 1-A.
 Alpha  occ. eigenvalues --  -26.16137 -20.56597 -15.74903 -11.39287 -11.29737
 Alpha  occ. eigenvalues --  -11.26507 -11.25874 -11.25719 -11.25324 -11.25030
 Alpha  occ. eigenvalues --  -11.24822 -11.23207  -1.67719  -1.37707  -1.21336
 Alpha  occ. eigenvalues --   -1.14024  -1.05009  -1.03793  -0.99226  -0.93831
 Alpha  occ. eigenvalues --   -0.86545  -0.83754  -0.80352  -0.76701  -0.76238
 Alpha  occ. eigenvalues --   -0.73209  -0.69199  -0.66680  -0.66069  -0.63602
 Alpha  occ. eigenvalues --   -0.62498  -0.61176  -0.58519  -0.58411  -0.57402
 Alpha  occ. eigenvalues --   -0.55494  -0.54882  -0.51401  -0.50754  -0.50340
 Alpha  occ. eigenvalues --   -0.46746  -0.44344  -0.34463  -0.33596
 Alpha virt. eigenvalues --    0.03323   0.03610   0.03830   0.05049   0.05391
 Alpha virt. eigenvalues --    0.05752   0.07027   0.07309   0.07636   0.08801
 Alpha virt. eigenvalues --    0.09177   0.10494   0.10674   0.10902   0.11782

 Mulliken charges:
               1
     1  C    0.469748
     2  H   -0.233830
     3  H    0.071683
     4  H    0.131410
     5  F   -0.528367
     6  O   -0.507001
     7  N   -0.421850
     8  C    0.345840
     9  H   -0.034267
    10  H    0.055695
    11  H    0.077254
    12  C    0.381332
    13  C    0.221251
    14  C   -0.533937
    15  C    0.776448
    16  H   -0.590429
    17  C    0.319131
    18  H   -0.458089
    19  C    1.077832
    20  H   -0.556300
    21  C    0.367900
    22  H   -0.431455
 Sum of Mulliken charges =  -0.00000

 Dipole moment (field-independent basis, Debye):
    X=              0.0923    Y=             -0.9032    Z=              0.8469  Tot=              1.2416

 Test job not archived.
 1\1\GINC-SE339\SP\RHF\Aug-CC-pVDZ\C9H10F1N1O1\OHZDE\09-Apr-2025\0\\#t
 hf aug-cc-pvdz iop(5/13=1,5/36=2,99/5=2) pseudo=read geom=check guess=
 (read,tcheck) scf=(maxcycle=1)\\title\\0,1\C,0,0.474965,2.22512,0.6996
 71\H,0,1.22978,2.96242,0.977338\H,0,-0.196886,2.077215,1.549313\H,0,-0
 .125687,2.627873,-0.119859\F,0,-1.432803,-1.399249,1.11495\O,0,-1.6890
 56,1.071551,-1.289238\N,0,-1.017351,-0.233404,0.42232\C,0,-3.39128,-0.
 279613,-0.234632\H,0,-4.064645,0.28559,-0.875804\H,0,-3.686815,-0.1792
 84,0.811029\H,0,-3.444639,-1.341427,-0.486359\C,0,0.385166,-0.258893,0

 Normal termination of Gaussian 16 at Wed Apr  9 00:53:37 2025.
