 Gaussian 16, Revision C.01,

 ----------------------------------------------------------------------
 #t hf aug-cc-pvdz symm=none int=(grid=ultrafine) guess=(read,tcheck) s
 table=(opt,rrhf)
 ----------------------------------------------------------------------
 -----
 title
 -----
 Symbolic Z-matrix:
 Charge =  0 Multiplicity = 1

 SCF Done:  E(RHF) =  -611.080566377     A.U. after   15 cycles
 Normal termination of Gaussian 16 at Tue Apr  8 23:25:50 2025.
 Gaussian 16:  ES64L-G16RevC.01  3-Jul-2019

 ----------------------------------------------------------------------
 #t hf aug-cc-pvdz iop(5/13=1,5/36=2,99/5=2) pseudo=read geom=check gue
 ss=(read,tcheck) scf=(maxcycle=1)
 ----------------------------------------------------------------------
 -----
 title
 -----
 Structure from the checkpoint file:  "BDE49_nonexpt_1294_mol1.chk"
 Charge =  0 Multiplicity = 1

                         Standard orientation:
 ---------------------------------------------------------------------
 Center     Atomic      Atomic             Coordinates (Angstroms)
 Number     Number       Type             X           Y           Z
 ---------------------------------------------------------------------
      1          6           0       -0.002402    0.057127    0.468092
      2          6           0        0.638202   -1.175143    0.290740
      3          6           0        1.966053   -1.236513   -0.122586
      4          6           0        2.678305   -0.064458   -0.369710
      5          6           0        2.051748    1.167897   -0.199969
      6          6           0        0.723006    1.226254    0.213668
      7         15           0       -2.614702   -0.152696   -0.562144
      8          1           0        2.445790   -2.200712   -0.249372
      9          1           0        3.713028   -0.111592   -0.689593
     10          1           0        2.598069    2.085922   -0.386336
     11          1           0        0.243538    2.190961    0.347047
     12          1           0        0.091319   -2.093208    0.480564
     13          6           0       -1.447047    0.126864    0.897182
     14          1           0       -1.660798    1.082093    1.377946
     15          1           0       -1.668461   -0.664771    1.618363
     16          1           0       -2.386057    1.091213   -1.206215
     17          1           0       -3.803092    0.298374    0.075254
 ---------------------------------------------------------------------

 SCF Done:  E(RHF) =  -611.180863891     A.U. after    2 cycles

 The electronic state is 1-A.
 Alpha  occ. eigenvalues --  -81.25612 -11.25746 -11.25288 -11.24704 -11.24678
 Alpha  occ. eigenvalues --  -11.24401 -11.24337 -11.24312  -7.75918  -4.89893
 Alpha  occ. eigenvalues --   -4.89847  -4.89532  -1.14792  -1.04592  -1.01091
 Alpha  occ. eigenvalues --   -0.94157  -0.83168  -0.81202  -0.75748  -0.69937
 Alpha  occ. eigenvalues --   -0.64770  -0.63972  -0.59267  -0.58658  -0.56388
 Alpha  occ. eigenvalues --   -0.53638  -0.50770  -0.49564  -0.48673  -0.47073
 Alpha  occ. eigenvalues --   -0.35705  -0.34014  -0.32598
 Alpha virt. eigenvalues --    0.03308   0.03891   0.04194   0.05417   0.05505
 Alpha virt. eigenvalues --    0.05862   0.07368   0.08192   0.08791   0.09390
 Alpha virt. eigenvalues --    0.10475   0.10694   0.10798   0.11281   0.12876

 Mulliken charges:
               1
     1  C    0.700265
     2  C    0.417083
     3  C    0.264599
     4  C    0.563548
     5  C    0.304303
     6  C    0.467639
     7  P    0.113788
     8  H   -0.446428
     9  H   -0.435630
    10  H   -0.440509
    11  H   -0.570550
    12  H   -0.568170
    13  C   -0.149718
    14  H   -0.261396
    15  H   -0.159763
    16  H    0.099331
    17  H    0.101606
 Sum of Mulliken charges =  -0.00000

 Dipole moment (field-independent basis, Debye):
    X=              0.1855    Y=              0.5722    Z=              0.7901  Tot=              0.9930

 Test job not archived.
 1\1\GINC-SE163\SP\RHF\Aug-CC-pVDZ\C7H9P1\OHZDE\08-Apr-2025\0\\#t hf au
 g-cc-pvdz iop(5/13=1,5/36=2,99/5=2) pseudo=read geom=check guess=(read
 ,tcheck) scf=(maxcycle=1)\\title\\0,1\C,0,-0.002402,0.057127,0.468092\
 C,0,0.638202,-1.175143,0.29074\C,0,1.966053,-1.236513,-0.122586\C,0,2.
 678305,-0.064458,-0.36971\C,0,2.051748,1.167897,-0.199969\C,0,0.723006
 ,1.226254,0.213668\P,0,-2.614702,-0.152696,-0.562144\H,0,2.44579,-2.20
 0712,-0.249372\H,0,3.713028,-0.111592,-0.689593\H,0,2.598069,2.085922,
 -0.386336\H,0,0.243538,2.190961,0.347047\H,0,0.091319,-2.093208,0.4805

 Normal termination of Gaussian 16 at Tue Apr  8 23:25:58 2025.
