 Gaussian 16, Revision C.01,

 ----------------------------------------------------------------------
 #t hf aug-cc-pvdz symm=none int=(grid=ultrafine) guess=(read,tcheck) s
 table=(opt,rrhf)
 ----------------------------------------------------------------------
 -----
 title
 -----
 Symbolic Z-matrix:
 Charge =  0 Multiplicity = 1

 SCF Done:  E(RHF) =  -594.499715643     A.U. after   13 cycles
 Normal termination of Gaussian 16 at Wed Apr  9 00:42:08 2025.
 Gaussian 16:  ES64L-G16RevC.01  3-Jul-2019

 ----------------------------------------------------------------------
 #t hf aug-cc-pvdz iop(5/13=1,5/36=2,99/5=2) pseudo=read geom=check gue
 ss=(read,tcheck) scf=(maxcycle=1)
 ----------------------------------------------------------------------
 -----
 title
 -----
 Structure from the checkpoint file:  "BDE49_nonexpt_749_mol1.chk"
 Charge =  0 Multiplicity = 1

                         Standard orientation:
 ---------------------------------------------------------------------
 Center     Atomic      Atomic             Coordinates (Angstroms)
 Number     Number       Type             X           Y           Z
 ---------------------------------------------------------------------
      1          6           0        1.665574   -0.204112    0.467121
      2          5           0       -1.166309    0.269877    0.002536
      3          8           0       -2.489542   -0.053522    0.012952
      4          8           0       -0.848169    1.585287    0.066164
      5          6           0        2.411131    0.630207   -0.262950
      6          1           0        3.247117    1.169949    0.169725
      7          1           0        2.228520    0.789217   -1.322169
      8          1           0        0.104492    1.727468    0.120321
      9          1           0       -2.666535   -0.993142   -0.068910
     10         15           0        0.224567   -1.109784   -0.215199
     11          1           0        1.908580   -0.355619    1.515511
     12          1           0       -0.117665   -1.851192    0.942874
 ---------------------------------------------------------------------

 SCF Done:  E(RHF) =  -594.606070134     A.U. after    2 cycles

 The electronic state is 1-A.
 Alpha  occ. eigenvalues --  -81.25165 -20.58853 -20.58323 -11.26956 -11.26120
 Alpha  occ. eigenvalues --   -7.75765  -7.67890  -4.89834  -4.89706  -4.89470
 Alpha  occ. eigenvalues --   -1.34780  -1.31728  -1.05464  -0.84557  -0.81133
 Alpha  occ. eigenvalues --   -0.75124  -0.70067  -0.65588  -0.63814  -0.61592
 Alpha  occ. eigenvalues --   -0.59488  -0.57763  -0.52590  -0.49993  -0.45668
 Alpha  occ. eigenvalues --   -0.41688  -0.33687
 Alpha virt. eigenvalues --    0.03018   0.04161   0.04670   0.05748   0.06153
 Alpha virt. eigenvalues --    0.07142   0.07580   0.08354   0.08888   0.09546
 Alpha virt. eigenvalues --    0.10252   0.10968   0.11739   0.13239   0.14132

 Mulliken charges:
               1
     1  C    0.232655
     2  B    0.872067
     3  O   -0.525482
     4  O   -0.470457
     5  C    0.471931
     6  H   -0.256642
     7  H   -0.310130
     8  H    0.267430
     9  H    0.191747
    10  P   -0.170675
    11  H   -0.414825
    12  H    0.112382
 Sum of Mulliken charges =  -0.00000

 Dipole moment (field-independent basis, Debye):
    X=              2.1026    Y=             -1.3703    Z=              0.6764  Tot=              2.5993

 Test job not archived.
 1\1\GINC-SE186\SP\RHF\Aug-CC-pVDZ\C2H6B1O2P1\OHZDE\09-Apr-2025\0\\#t h
 f aug-cc-pvdz iop(5/13=1,5/36=2,99/5=2) pseudo=read geom=check guess=(
 read,tcheck) scf=(maxcycle=1)\\title\\0,1\C,0,1.665574,-0.204112,0.467
 121\B,0,-1.166309,0.269877,0.002536\O,0,-2.489542,-0.053522,0.012952\O
 ,0,-0.848169,1.585287,0.066164\C,0,2.411131,0.630207,-0.26295\H,0,3.24
 7117,1.169949,0.169725\H,0,2.22852,0.789217,-1.322169\H,0,0.104492,1.7
 27468,0.120321\H,0,-2.666535,-0.993142,-0.06891\P,0,0.224567,-1.109784
 ,-0.215199\H,0,1.90858,-0.355619,1.515511\H,0,-0.117665,-1.851192,0.94

 Normal termination of Gaussian 16 at Wed Apr  9 00:42:13 2025.
