 Gaussian 16, Revision C.01,

 ----------------------------------------------------------------------
 #t hf aug-cc-pvdz symm=none int=(grid=ultrafine) guess=(read,tcheck) s
 table=(opt,rrhf)
 ----------------------------------------------------------------------
 -----
 title
 -----
 Symbolic Z-matrix:
 Charge =  0 Multiplicity = 1

 SCF Done:  E(RHF) =  -365.020963636     A.U. after   14 cycles
 Normal termination of Gaussian 16 at Wed Apr  9 00:38:57 2025.
 Gaussian 16:  ES64L-G16RevC.01  3-Jul-2019

 ----------------------------------------------------------------------
 #t hf aug-cc-pvdz iop(5/13=1,5/36=2,99/5=2) pseudo=read geom=check gue
 ss=(read,tcheck) scf=(maxcycle=1)
 ----------------------------------------------------------------------
 -----
 title
 -----
 Structure from the checkpoint file:  "BDE49_nonexpt_653_mol1.chk"
 Charge =  0 Multiplicity = 1

                         Standard orientation:
 ---------------------------------------------------------------------
 Center     Atomic      Atomic             Coordinates (Angstroms)
 Number     Number       Type             X           Y           Z
 ---------------------------------------------------------------------
      1          8           0       -0.204722   -0.662957   -0.208483
      2          5           0        1.020196   -0.026122   -0.008835
      3          8           0        1.151224    1.323142    0.093738
      4          8           0        2.082782   -0.869636    0.080612
      5          8           0       -1.248699    0.344122   -0.339281
      6          6           0       -2.403966   -0.217402    0.264049
      7          1           0       -3.180526    0.536224    0.117052
      8          1           0       -2.247827   -0.396117    1.332087
      9          1           0       -2.687193   -1.147133   -0.236022
     10          1           0        2.902203   -0.387519    0.222374
     11          1           0        0.291485    1.752203    0.011702
 ---------------------------------------------------------------------

 SCF Done:  E(RHF) =  -365.148105763     A.U. after    2 cycles

 The electronic state is 1-A.
 Alpha  occ. eigenvalues --  -20.65735 -20.63594 -20.58604 -20.58304 -11.30417
 Alpha  occ. eigenvalues --   -7.69418  -1.43824  -1.34791  -1.31730  -1.21702
 Alpha  occ. eigenvalues --   -0.93324  -0.79107  -0.76933  -0.72946  -0.69892
 Alpha  occ. eigenvalues --   -0.67358  -0.62079  -0.60532  -0.59003  -0.57394
 Alpha  occ. eigenvalues --   -0.55015  -0.53400  -0.52902  -0.47403
 Alpha virt. eigenvalues --    0.03255   0.04723   0.05216   0.05658   0.06646
 Alpha virt. eigenvalues --    0.07272   0.07444   0.09302   0.10440   0.13116
 Alpha virt. eigenvalues --    0.14083   0.15652   0.16992   0.17745   0.20209

 Mulliken charges:
               1
     1  O   -0.276086
     2  B    0.800960
     3  O   -0.360406
     4  O   -0.451479
     5  O   -0.537903
     6  C    0.841582
     7  H   -0.181095
     8  H   -0.108729
     9  H   -0.112191
    10  H    0.163821
    11  H    0.221525
 Sum of Mulliken charges =  -0.00000

 Dipole moment (field-independent basis, Debye):
    X=             -1.7165    Y=              1.2179    Z=              0.9656  Tot=              2.3156

 Test job not archived.
 1\1\GINC-SE127\SP\RHF\Aug-CC-pVDZ\C1H5B1O4\OHZDE\09-Apr-2025\0\\#t hf
 aug-cc-pvdz iop(5/13=1,5/36=2,99/5=2) pseudo=read geom=check guess=(re
 ad,tcheck) scf=(maxcycle=1)\\title\\0,1\O,0,-0.204722,-0.662957,-0.208
 483\B,0,1.020196,-0.026122,-0.008835\O,0,1.151224,1.323142,0.093738\O,
 0,2.082782,-0.869636,0.080612\O,0,-1.248699,0.344122,-0.339281\C,0,-2.
 403966,-0.217402,0.264049\H,0,-3.180526,0.536224,0.117052\H,0,-2.24782
 7,-0.396117,1.332087\H,0,-2.687193,-1.147133,-0.236022\H,0,2.902203,-0
 .387519,0.222374\H,0,0.291485,1.752203,0.011702\\Version=ES64L-G16RevC

 Normal termination of Gaussian 16 at Wed Apr  9 00:39:01 2025.
