 Gaussian 16, Revision C.01,

 ----------------------------------------------------------------------
 #t hf aug-cc-pvdz symm=none int=(grid=ultrafine) guess=(read,tcheck) s
 table=(opt,rrhf)
 ----------------------------------------------------------------------
 -----
 title
 -----
 Symbolic Z-matrix:
 Charge =  0 Multiplicity = 1

 SCF Done:  E(RHF) =  -235.392664730     A.U. after   11 cycles
 Normal termination of Gaussian 16 at Tue Apr  8 22:43:06 2025.
 Gaussian 16:  ES64L-G16RevC.01  3-Jul-2019

 ----------------------------------------------------------------------
 #t hf aug-cc-pvdz iop(5/13=1,5/36=2,99/5=2) pseudo=read geom=check gue
 ss=(read,tcheck) scf=(maxcycle=1)
 ----------------------------------------------------------------------
 -----
 title
 -----
 Structure from the checkpoint file:  "BDE49_expt_14_mol1.chk"
 Charge =  0 Multiplicity = 1

                         Standard orientation:
 ---------------------------------------------------------------------
 Center     Atomic      Atomic             Coordinates (Angstroms)
 Number     Number       Type             X           Y           Z
 ---------------------------------------------------------------------
      1          6           0        1.413141    2.903795    0.000000
      2          6           0        1.413141    1.372727    0.000000
      3          1           0        0.900930    3.299766    0.882749
      4          1           0        0.900930    3.299766   -0.882749
      5          1           0        2.430694    3.304226    0.000000
      6          6           0        0.005413    0.766131    0.000000
      7          1           0        1.963083    1.007350    0.876033
      8          1           0        1.963083    1.007350   -0.876033
      9          6           0       -0.005413   -0.766131    0.000000
     10          1           0       -0.545056    1.132613   -0.876653
     11          1           0       -0.545056    1.132613    0.876653
     12          6           0       -1.413141   -1.372727    0.000000
     13          1           0        0.545056   -1.132613    0.876653
     14          1           0        0.545056   -1.132613   -0.876653
     15          6           0       -1.413141   -2.903795    0.000000
     16          1           0       -1.963083   -1.007350   -0.876033
     17          1           0       -1.963083   -1.007350    0.876033
     18          1           0       -0.900930   -3.299766   -0.882749
     19          1           0       -2.430694   -3.304226    0.000000
     20          1           0       -0.900930   -3.299766    0.882749
 ---------------------------------------------------------------------

 SCF Done:  E(RHF) =  -235.469487913     A.U. after    2 cycles

 The electronic state is 1-AG.
 Alpha  occ. eigenvalues --  -11.22495 -11.22494 -11.22273 -11.22218 -11.22018
 Alpha  occ. eigenvalues --  -11.22018  -1.07312  -1.02709  -0.95543  -0.86889
 Alpha  occ. eigenvalues --   -0.79707  -0.78394  -0.65107  -0.61046  -0.59571
 Alpha  occ. eigenvalues --   -0.57903  -0.55442  -0.53010  -0.52744  -0.50102
 Alpha  occ. eigenvalues --   -0.48209  -0.46799  -0.46071  -0.45877  -0.44287
 Alpha virt. eigenvalues --    0.03686   0.04027   0.04533   0.04699   0.05851
 Alpha virt. eigenvalues --    0.06270   0.06525   0.06855   0.08110   0.08809
 Alpha virt. eigenvalues --    0.08837   0.09570   0.10912   0.11119   0.12234

 Mulliken charges:
               1
     1  C    0.529395
     2  C    0.322066
     3  H   -0.086645
     4  H   -0.086645
     5  H   -0.063709
     6  C    0.048313
     7  H   -0.148089
     8  H   -0.148089
     9  C    0.048313
    10  H   -0.183298
    11  H   -0.183298
    12  C    0.322066
    13  H   -0.183298
    14  H   -0.183298
    15  C    0.529395
    16  H   -0.148089
    17  H   -0.148089
    18  H   -0.086645
    19  H   -0.063709
    20  H   -0.086645
 Sum of Mulliken charges =   0.00000

 Dipole moment (field-independent basis, Debye):
    X=             -0.0000    Y=              0.0000    Z=              0.0000  Tot=              0.0000

 Test job not archived.
 1\1\GINC-SE460\SP\RHF\Aug-CC-pVDZ\C6H14\OHZDE\08-Apr-2025\0\\#t hf aug
 -cc-pvdz iop(5/13=1,5/36=2,99/5=2) pseudo=read geom=check guess=(read,
 tcheck) scf=(maxcycle=1)\\title\\0,1\C,0,1.413141,2.903795,0.\C,0,1.41
 3141,1.372727,0.\H,0,0.90093,3.299766,0.882749\H,0,0.90093,3.299766,-0
 .882749\H,0,2.430694,3.304226,0.\C,0,0.005413,0.766131,0.\H,0,1.963083
 ,1.00735,0.876033\H,0,1.963083,1.00735,-0.876033\C,0,-0.005413,-0.7661
 31,0.\H,0,-0.545056,1.132613,-0.876653\H,0,-0.545056,1.132613,0.876653
 \C,0,-1.413141,-1.372727,0.\H,0,0.545056,-1.132613,0.876653\H,0,0.5450

 Normal termination of Gaussian 16 at Tue Apr  8 22:43:11 2025.
