 Gaussian 16, Revision C.01,

 ----------------------------------------------------------------------
 #t hf aug-cc-pvdz symm=none int=(grid=ultrafine) guess=(read,tcheck) s
 table=(opt,rrhf)
 ----------------------------------------------------------------------
 -----
 title
 -----
 Symbolic Z-matrix:
 Charge =  0 Multiplicity = 1

 SCF Done:  E(RHF) =  -1114.53882075     A.U. after   18 cycles
 Normal termination of Gaussian 16 at Tue Apr  8 22:58:10 2025.
 Gaussian 16:  ES64L-G16RevC.01  3-Jul-2019

 ----------------------------------------------------------------------
 #t hf aug-cc-pvdz iop(5/13=1,5/36=2,99/5=2) pseudo=read geom=check gue
 ss=(read,tcheck) scf=(maxcycle=1)
 ----------------------------------------------------------------------
 -----
 title
 -----
 Structure from the checkpoint file:  "BDE49_expt_1755_mol1.chk"
 Charge =  0 Multiplicity = 1

                         Standard orientation:
 ---------------------------------------------------------------------
 Center     Atomic      Atomic             Coordinates (Angstroms)
 Number     Number       Type             X           Y           Z
 ---------------------------------------------------------------------
      1          6           0        2.835273   -0.107146   -0.272554
      2          6           0        2.198342    0.601922    0.755041
      3          6           0        0.849566    0.383251    1.011868
      4          6           0        2.110679   -1.037343   -1.034704
      5          6           0        0.768453   -1.252262   -0.781007
      6          6           0        0.139492   -0.534598    0.241971
      7          1           0        2.740105    1.315756    1.359493
      8          1           0        0.349507    0.920345    1.807070
      9          1           0        2.630041   -1.581425   -1.813404
     10          1           0        0.208449   -1.981433   -1.351679
     11         16           0       -1.575355   -0.808263    0.578038
     12          8           0       -1.989698   -2.028136   -0.065811
     13          8           0       -1.832806   -0.525494    1.960015
     14          7           0       -2.384804    0.433149   -0.328074
     15          7           0       -2.259047    1.683299    0.185603
     16          8           0       -2.751046    2.548697   -0.504312
     17          6           0       -2.987210    0.205759   -1.643439
     18          1           0       -3.032095   -0.865418   -1.813284
     19          1           0       -2.397022    0.700714   -2.418570
     20          1           0       -3.991277    0.631225   -1.645826
     21          8           0        4.139883    0.028396   -0.603038
     22          6           0        4.946183    0.949590    0.127672
     23          1           0        4.570588    1.972915    0.027974
     24          1           0        5.938530    0.884176   -0.313550
     25          1           0        5.000485    0.677479    1.186542
 ---------------------------------------------------------------------

 SCF Done:  E(RHF) =  -1114.83649153     A.U. after    2 cycles

 The electronic state is 1-A.
 Alpha  occ. eigenvalues --  -93.82883 -20.62952 -20.62911 -20.58355 -20.57980
 Alpha  occ. eigenvalues --  -15.81686 -15.71712 -11.35140 -11.31912 -11.29281
 Alpha  occ. eigenvalues --  -11.29274 -11.29164 -11.29026 -11.27141 -11.26730
 Alpha  occ. eigenvalues --   -9.09103  -6.43788  -6.43645  -6.43487  -1.49162
 Alpha  occ. eigenvalues --   -1.45402  -1.40068  -1.33741  -1.24579  -1.18050
 Alpha  occ. eigenvalues --   -1.06623  -1.05165  -1.01384  -0.98537  -0.93539
 Alpha  occ. eigenvalues --   -0.87614  -0.85706  -0.80270  -0.77347  -0.75757
 Alpha  occ. eigenvalues --   -0.72814  -0.72245  -0.71039  -0.69148  -0.67768
 Alpha  occ. eigenvalues --   -0.66832  -0.66102  -0.64638  -0.63213  -0.61829
 Alpha  occ. eigenvalues --   -0.60972  -0.59257  -0.58750  -0.56288  -0.55914
 Alpha  occ. eigenvalues --   -0.54576  -0.54227  -0.52255  -0.51946  -0.51403
 Alpha  occ. eigenvalues --   -0.49413  -0.44502  -0.43546  -0.37882  -0.35536
 Alpha virt. eigenvalues --    0.02440   0.03347   0.04055   0.04550   0.04819
 Alpha virt. eigenvalues --    0.05918   0.06003   0.06709   0.06990   0.07751
 Alpha virt. eigenvalues --    0.08290   0.08329   0.09198   0.10370   0.10475

 Mulliken charges:
               1
     1  C    0.384405
     2  C    0.812885
     3  C   -0.478959
     4  C    1.053794
     5  C    0.317157
     6  C    0.425486
     7  H   -0.713229
     8  H   -0.594714
     9  H   -0.589690
    10  H   -0.628940
    11  S    2.836661
    12  O   -0.969049
    13  O   -1.024155
    14  N   -0.499784
    15  N   -0.048136
    16  O   -0.479932
    17  C    0.882159
    18  H   -0.210961
    19  H   -0.070188
    20  H   -0.130287
    21  O   -0.675379
    22  C    0.873886
    23  H   -0.086244
    24  H   -0.302500
    25  H   -0.084287
 Sum of Mulliken charges =   0.00000

 Dipole moment (field-independent basis, Debye):
    X=              5.3088    Y=              0.7071    Z=             -2.1797  Tot=              5.7823

 Test job not archived.
 1\1\GINC-SE402\SP\RHF\Aug-CC-pVDZ\C8H10N2O4S1\OHZDE\08-Apr-2025\0\\#t
 hf aug-cc-pvdz iop(5/13=1,5/36=2,99/5=2) pseudo=read geom=check guess=
 (read,tcheck) scf=(maxcycle=1)\\title\\0,1\C,0,2.835273,-0.107146,-0.2
 72554\C,0,2.198342,0.601922,0.755041\C,0,0.849566,0.383251,1.011868\C,
 0,2.110679,-1.037343,-1.034704\C,0,0.768453,-1.252262,-0.781007\C,0,0.
 139492,-0.534598,0.241971\H,0,2.740105,1.315756,1.359493\H,0,0.349507,
 0.920345,1.80707\H,0,2.630041,-1.581425,-1.813404\H,0,0.208449,-1.9814
 33,-1.351679\S,0,-1.575355,-0.808263,0.578038\O,0,-1.989698,-2.028136,

 Normal termination of Gaussian 16 at Tue Apr  8 22:58:36 2025.
