 Gaussian 16, Revision C.01,

 ----------------------------------------------------------------------
 #t hf aug-cc-pvdz symm=none int=(grid=ultrafine) guess=(read,tcheck) s
 table=opt
 ----------------------------------------------------------------------
 -----
 title
 -----
 Symbolic Z-matrix:
 Charge =  0 Multiplicity = 2

 SCF Done:  E(UHF) =  -631.164385572     A.U. after   15 cycles

 1\1\GINC-SE092\Stability\UHF\Aug-CC-pVDZ\C6H11S1\OHZDE\08-Apr-2025\0\\
 #t hf aug-cc-pvdz symm=none int=(grid=ultrafine) guess=(read,tcheck) s
 table=opt\\title\\0,2\S,0,2.455327,-0.000001,-0.052446\C,0,0.672786,-0
 .000006,0.3173\C,0,-0.038556,-1.275023,-0.170336\C,0,-1.528917,-1.2663
 24,0.208231\H,0,0.461271,-2.154952,0.241564\H,0,0.061156,-1.337398,-1.
 260597\C,0,-2.236469,0.000005,-0.291871\H,0,-1.623807,-1.3265,1.300239
 \H,0,-2.014717,-2.160504,-0.194786\C,0,-1.528908,1.266329,0.20823\H,0,
 -3.283017,0.000009,0.028552\H,0,-2.245624,0.000004,-1.389392\C,0,-0.03

 Normal termination of Gaussian 16 at Tue Apr  8 22:52:47 2025.
 Gaussian 16:  ES64L-G16RevC.01  3-Jul-2019

 ----------------------------------------------------------------------
 #t hf aug-cc-pvdz iop(5/13=1,5/36=2,99/5=2) pseudo=read geom=check gue
 ss=(read,tcheck) scf=(maxcycle=1)
 ----------------------------------------------------------------------
 -----
 title
 -----
 Structure from the checkpoint file:  "BDE49_expt_1822_mol2.chk"
 Charge =  0 Multiplicity = 2

                         Standard orientation:
 ---------------------------------------------------------------------
 Center     Atomic      Atomic             Coordinates (Angstroms)
 Number     Number       Type             X           Y           Z
 ---------------------------------------------------------------------
      1         16           0        2.455327   -0.000001   -0.052446
      2          6           0        0.672786   -0.000006    0.317300
      3          6           0       -0.038556   -1.275023   -0.170336
      4          6           0       -1.528917   -1.266324    0.208231
      5          1           0        0.461271   -2.154952    0.241564
      6          1           0        0.061156   -1.337398   -1.260597
      7          6           0       -2.236469    0.000005   -0.291871
      8          1           0       -1.623807   -1.326500    1.300239
      9          1           0       -2.014717   -2.160504   -0.194786
     10          6           0       -1.528908    1.266329    0.208230
     11          1           0       -3.283017    0.000008    0.028552
     12          1           0       -2.245624    0.000004   -1.389392
     13          6           0       -0.038547    1.275019   -0.170334
     14          1           0       -1.623798    1.326507    1.300238
     15          1           0       -2.014702    2.160512   -0.194789
     16          1           0        0.061165    1.337396   -1.260596
     17          1           0        0.461286    2.154944    0.241569
     18          1           0        0.667222   -0.000001    1.419816
 ---------------------------------------------------------------------

 SCF Done:  E(UHF) =  -631.250815762     A.U. after    2 cycles

 The electronic state is 2-A.
 Alpha  occ. eigenvalues --  -93.54325 -11.27517 -11.23752 -11.23742 -11.23426
 Alpha  occ. eigenvalues --  -11.23426 -11.23242  -8.84023  -6.19381  -6.17725
 Alpha  occ. eigenvalues --   -6.17285  -1.12124  -1.03400  -1.00544  -0.92176
 Alpha  occ. eigenvalues --   -0.84210  -0.80535  -0.76270  -0.65336  -0.61796
 Alpha  occ. eigenvalues --   -0.61094  -0.60032  -0.54172  -0.53794  -0.51887
 Alpha  occ. eigenvalues --   -0.50405  -0.49510  -0.46578  -0.44777  -0.43180
 Alpha  occ. eigenvalues --   -0.41641  -0.36116
 Alpha virt. eigenvalues --    0.03402   0.04291   0.04302   0.04861   0.06370
 Alpha virt. eigenvalues --    0.06526   0.06885   0.07004   0.07142   0.09008
 Alpha virt. eigenvalues --    0.09054   0.09460   0.13043   0.13204   0.13873

  Beta  occ. eigenvalues --  -93.53432 -11.27645 -11.23718 -11.23709 -11.23429
  Beta  occ. eigenvalues --  -11.23429 -11.23241  -8.83029  -6.17188  -6.16742
  Beta  occ. eigenvalues --   -6.15460  -1.11779  -1.02116  -1.00520  -0.87838
  Beta  occ. eigenvalues --   -0.84162  -0.78092  -0.74932  -0.64907  -0.61446
  Beta  occ. eigenvalues --   -0.61099  -0.59343  -0.54034  -0.53774  -0.51061
  Beta  occ. eigenvalues --   -0.49504  -0.49327  -0.46301  -0.44687  -0.42356
  Beta  occ. eigenvalues --   -0.33967
  Beta virt. eigenvalues --    0.02179   0.03410   0.04293   0.04505   0.04925
  Beta virt. eigenvalues --    0.06387   0.06535   0.06898   0.07200   0.07517
  Beta virt. eigenvalues --    0.09034   0.09063   0.09591   0.13062   0.13254

 Mulliken charges and spin densities:
               1          2
     1  S    0.257023   1.077439
     2  C   -0.384714  -0.118559
     3  C    0.259709   0.013640
     4  C    0.209712   0.003886
     5  H   -0.121230  -0.011733
     6  H   -0.066067   0.005156
     7  C    0.270508  -0.002321
     8  H   -0.091481  -0.001202
     9  H   -0.109287  -0.000480
    10  C    0.209705   0.003887
    11  H   -0.100491   0.000064
    12  H   -0.097223  -0.000846
    13  C    0.259709   0.013641
    14  H   -0.091480  -0.001201
    15  H   -0.109284  -0.000480
    16  H   -0.066067   0.005156
    17  H   -0.121231  -0.011733
    18  H   -0.107811   0.025684
 Sum of Mulliken charges =  -0.00000   1.00000

 Dipole moment (field-independent basis, Debye):
    X=             -2.1214    Y=              0.0000    Z=              0.3371  Tot=              2.1480
                          Isotropic Fermi Contact Couplings
        Atom                 a.u.       MegaHertz       Gauss      10(-4) cm-1
     1  S(33)              0.17872      61.38554      21.90389      20.47601
     2  C(13)             -0.02772     -31.16618     -11.12087     -10.39592
     3  C(13)              0.00700       7.86426       2.80616       2.62324
     4  C(13)             -0.00105      -1.17982      -0.42099      -0.39355
     5  H(1)              -0.00035      -1.54335      -0.55071      -0.51481
     6  H(1)              -0.00045      -2.02737      -0.72342      -0.67626
     7  C(13)              0.00022       0.25008       0.08924       0.08342
     8  H(1)               0.00008       0.36954       0.13186       0.12327

 Normal termination of Gaussian 16 at Tue Apr  8 22:52:56 2025.
