 Gaussian 16, Revision C.01,

 ----------------------------------------------------------------------
 #t hf aug-cc-pvdz symm=none int=(grid=ultrafine) guess=(read,tcheck) s
 table=(opt,rrhf)
 ----------------------------------------------------------------------
 -----
 title
 -----
 Symbolic Z-matrix:
 Charge =  0 Multiplicity = 1

 SCF Done:  E(RHF) =  -267.658458690     A.U. after   14 cycles
 Normal termination of Gaussian 16 at Tue Apr  8 23:19:50 2025.
 Gaussian 16:  ES64L-G16RevC.01  3-Jul-2019

 ----------------------------------------------------------------------
 #t hf aug-cc-pvdz iop(5/13=1,5/36=2,99/5=2) pseudo=read geom=check gue
 ss=(read,tcheck) scf=(maxcycle=1)
 ----------------------------------------------------------------------
 -----
 title
 -----
 Structure from the checkpoint file:  "BDE49_nonexpt_1154_mol1.chk"
 Charge =  0 Multiplicity = 1

                         Standard orientation:
 ---------------------------------------------------------------------
 Center     Atomic      Atomic             Coordinates (Angstroms)
 Number     Number       Type             X           Y           Z
 ---------------------------------------------------------------------
      1          9           0       -0.251479   -1.375258    0.000000
      2          8           0       -0.934705   -0.114543    0.000000
      3          6           0        0.000000    0.903887    0.000000
      4          7           0        1.247245    0.875871    0.000000
      5          1           0        1.609089   -0.078046    0.000000
      6          1           0       -0.598853    1.817295    0.000000
 ---------------------------------------------------------------------

 SCF Done:  E(RHF) =  -267.747543073     A.U. after    2 cycles

 The electronic state is 1-A'.
 Alpha  occ. eigenvalues --  -26.19992 -20.74604 -15.64708 -11.39085  -1.70540
 Alpha  occ. eigenvalues --   -1.38220  -1.20278  -0.89875  -0.81987  -0.80679
 Alpha  occ. eigenvalues --   -0.75781  -0.68243  -0.64264  -0.64045  -0.47672
 Alpha  occ. eigenvalues --   -0.46236
 Alpha virt. eigenvalues --    0.03625   0.04586   0.08329   0.08758   0.09672
 Alpha virt. eigenvalues --    0.12129   0.13732   0.15737   0.18548   0.18845
 Alpha virt. eigenvalues --    0.21404   0.21911   0.24052   0.25474   0.28184

 Mulliken charges:
               1
     1  F   -0.336303
     2  O   -0.060071
     3  C    0.680857
     4  N   -0.185241
     5  H    0.045777
     6  H   -0.145019
 Sum of Mulliken charges =  -0.00000

 Dipole moment (field-independent basis, Debye):
    X=             -0.7881    Y=              0.7993    Z=              0.0000  Tot=              1.1225

 Test job not archived.
 1\1\GINC-SE250\SP\RHF\Aug-CC-pVDZ\C1H2F1N1O1\OHZDE\08-Apr-2025\0\\#t h
 f aug-cc-pvdz iop(5/13=1,5/36=2,99/5=2) pseudo=read geom=check guess=(
 read,tcheck) scf=(maxcycle=1)\\title\\0,1\F,0,-1.290885,-0.536836,0.\O
 ,0,-0.604427,0.722123,0.\C,0,0.75855,0.491543,0.\N,0,1.413302,-0.57039
 1,0.\H,0,0.809542,-1.392803,0.\H,0,1.199427,1.490825,0.\\Version=ES64L
 -G16RevC.01\State=1-A'\HF=-267.7475431\RMSD=3.898e-03\Dipole=0.0952985
 ,0.4312186,0.\Quadrupole=-3.5842917,3.3773009,0.2069909,1.9308676,0.,0
 .\PG=CS [SG(C1H2F1N1O1)]\\@

 Normal termination of Gaussian 16 at Tue Apr  8 23:19:52 2025.
