 Gaussian 16, Revision C.01,

 ----------------------------------------------------------------------
 #t hf aug-cc-pvdz symm=none int=(grid=ultrafine) guess=(read,tcheck) s
 table=(opt,rrhf)
 ----------------------------------------------------------------------
 -----
 title
 -----
 Symbolic Z-matrix:
 Charge =  0 Multiplicity = 1

 SCF Done:  E(RHF) =  -1135.67074204     A.U. after   16 cycles
 Normal termination of Gaussian 16 at Tue Apr  8 22:51:58 2025.
 Gaussian 16:  ES64L-G16RevC.01  3-Jul-2019

 ----------------------------------------------------------------------
 #t hf aug-cc-pvdz iop(5/13=1,5/36=2,99/5=2) pseudo=read geom=check gue
 ss=(read,tcheck) scf=(maxcycle=1)
 ----------------------------------------------------------------------
 -----
 title
 -----
 Structure from the checkpoint file:  "BDE49_expt_1220_mol1.chk"
 Charge =  0 Multiplicity = 1

                         Standard orientation:
 ---------------------------------------------------------------------
 Center     Atomic      Atomic             Coordinates (Angstroms)
 Number     Number       Type             X           Y           Z
 ---------------------------------------------------------------------
      1          6           0        0.614555   -0.065343   -0.015172
      2          7           0        0.736413   -0.067389    1.544001
      3          8           0        0.090707    0.796532    2.088539
      4          8           0        1.480776   -0.878116    2.030274
      5          6           0       -0.842814    0.047663   -0.524954
      6          7           0        1.318527   -1.349092   -0.537112
      7          6           0       -1.027852    0.068971   -2.034629
      8          1           0       -0.521364    0.931228   -2.457709
      9          1           0       -2.095575    0.123946   -2.239255
     10          1           0       -0.635537   -0.844160   -2.477289
     11          7           0       -1.710247   -1.106246    0.099495
     12          8           0       -2.669652   -1.453601   -0.543676
     13          8           0       -1.360521   -1.524293    1.182918
     14          7           0       -1.482194    1.375186    0.019868
     15          7           0        1.543976    1.106891   -0.512990
     16          8           0       -2.526954    1.287323    0.612936
     17          8           0       -0.876485    2.380011   -0.288781
     18          8           0        0.589923   -2.269537   -0.844523
     19          8           0        2.523177   -1.311291   -0.563195
     20          8           0        2.076572    1.774695    0.331918
     21          8           0        1.665434    1.169002   -1.715168
 ---------------------------------------------------------------------

 SCF Done:  E(RHF) =  -1136.00886584     A.U. after    2 cycles

 The electronic state is 1-A.
 Alpha  occ. eigenvalues --  -20.70636 -20.70541 -20.70267 -20.69584 -20.69561
 Alpha  occ. eigenvalues --  -20.69179 -20.69041 -20.68577 -20.68415 -20.68160
 Alpha  occ. eigenvalues --  -16.01113 -16.01090 -16.00412 -15.99270 -15.98768
 Alpha  occ. eigenvalues --  -11.53658 -11.48905 -11.31909  -1.65815  -1.63476
 Alpha  occ. eigenvalues --   -1.63332  -1.62755  -1.61594  -1.46512  -1.46177
 Alpha  occ. eigenvalues --   -1.45563  -1.44774  -1.44190  -1.27637  -1.17636
 Alpha  occ. eigenvalues --   -1.03961  -1.02665  -1.01179  -0.99628  -0.92605
 Alpha  occ. eigenvalues --   -0.89614  -0.88734  -0.87662  -0.85914  -0.85180
 Alpha  occ. eigenvalues --   -0.81781  -0.81330  -0.80989  -0.80881  -0.80581
 Alpha  occ. eigenvalues --   -0.80274  -0.79068  -0.78616  -0.77980  -0.76808
 Alpha  occ. eigenvalues --   -0.68681  -0.65688  -0.65235  -0.62083  -0.60510
 Alpha  occ. eigenvalues --   -0.60142  -0.59640  -0.59079  -0.57892  -0.57347
 Alpha  occ. eigenvalues --   -0.57059  -0.56047  -0.55599  -0.54692  -0.54161
 Alpha  occ. eigenvalues --   -0.53826  -0.53114  -0.52466
 Alpha virt. eigenvalues --   -0.00845  -0.00047   0.00924   0.02177   0.02537
 Alpha virt. eigenvalues --    0.02856   0.05217   0.05341   0.07870   0.09302
 Alpha virt. eigenvalues --    0.09924   0.10232   0.11160   0.11735   0.12945

 Mulliken charges:
               1
     1  C    3.097708
     2  N    0.120288
     3  O   -0.560239
     4  O   -0.502814
     5  C    0.289257
     6  N   -0.053978
     7  C    0.874595
     8  H    0.162551
     9  H    0.047788
    10  H    0.138888
    11  N    0.234894
    12  O   -0.524787
    13  O   -0.555316
    14  N    0.257343
    15  N    0.181423
    16  O   -0.542045
    17  O   -0.578425
    18  O   -0.492635
    19  O   -0.497455
    20  O   -0.514726
    21  O   -0.582317
 Sum of Mulliken charges =  -0.00000

 Dipole moment (field-independent basis, Debye):
    X=             -0.6193    Y=             -0.0502    Z=             -3.9476  Tot=              3.9962

 Test job not archived.
 1\1\GINC-SE179\SP\RHF\Aug-CC-pVDZ\C3H3N5O10\OHZDE\08-Apr-2025\0\\#t hf
  aug-cc-pvdz iop(5/13=1,5/36=2,99/5=2) pseudo=read geom=check guess=(r
 ead,tcheck) scf=(maxcycle=1)\\title\\0,1\C,0,0.614555,-0.065343,-0.015
 172\N,0,0.736413,-0.067389,1.544001\O,0,0.090707,0.796532,2.088539\O,0
 ,1.480776,-0.878116,2.030274\C,0,-0.842814,0.047663,-0.524954\N,0,1.31
 8527,-1.349092,-0.537112\C,0,-1.027852,0.068971,-2.034629\H,0,-0.52136
 4,0.931228,-2.457709\H,0,-2.095575,0.123946,-2.239255\H,0,-0.635537,-0
 .84416,-2.477289\N,0,-1.710247,-1.106246,0.099495\O,0,-2.669652,-1.453

 Normal termination of Gaussian 16 at Tue Apr  8 22:52:27 2025.
