 Gaussian 16, Revision C.01,

 ----------------------------------------------------------------------
 #t hf aug-cc-pvdz symm=none int=(grid=ultrafine) guess=(read,tcheck) s
 table=(opt,rrhf)
 ----------------------------------------------------------------------
 -----
 title
 -----
 Symbolic Z-matrix:
 Charge =  0 Multiplicity = 1

 SCF Done:  E(RHF) =  -675.032763692     A.U. after   16 cycles
 Normal termination of Gaussian 16 at Wed Apr  9 00:52:49 2025.
 Gaussian 16:  ES64L-G16RevC.01  3-Jul-2019

 ----------------------------------------------------------------------
 #t hf aug-cc-pvdz iop(5/13=1,5/36=2,99/5=2) pseudo=read geom=check gue
 ss=(read,tcheck) scf=(maxcycle=1)
 ----------------------------------------------------------------------
 -----
 title
 -----
 Structure from the checkpoint file:  "BDE49_nonexpt_965_mol1.chk"
 Charge =  0 Multiplicity = 1

                         Standard orientation:
 ---------------------------------------------------------------------
 Center     Atomic      Atomic             Coordinates (Angstroms)
 Number     Number       Type             X           Y           Z
 ---------------------------------------------------------------------
      1          6           0        0.972849    0.282347   -0.137414
      2          6           0       -0.483840    0.069104   -0.087556
      3          6           0       -1.315658    0.956517    0.609885
      4          1           0       -0.889981    1.814956    1.109081
      5          6           0       -2.684608    0.725853    0.660456
      6          1           0       -3.321935    1.411370    1.206375
      7          6           0       -3.237083   -0.378160    0.012760
      8          1           0       -4.306636   -0.549957    0.051389
      9          6           0       -2.414015   -1.260981   -0.682694
     10          1           0       -2.839474   -2.119585   -1.188518
     11          6           0       -1.041607   -1.045755   -0.730201
     12          1           0       -0.401417   -1.732889   -1.267785
     13          7           0        1.734758   -0.958561   -0.160607
     14          7           0        1.672895    1.344349   -0.251925
     15          9           0        1.538536   -1.528712    1.116588
     16          9           0        3.085536   -0.668261   -0.163155
     17          9           0        0.834777    2.461644   -0.386124
 ---------------------------------------------------------------------

 SCF Done:  E(RHF) =  -675.244502154     A.U. after    2 cycles

 The electronic state is 1-A.
 Alpha  occ. eigenvalues --  -26.18955 -26.18617 -26.15540 -15.86867 -15.75792
 Alpha  occ. eigenvalues --  -11.38749 -11.29481 -11.28272 -11.28068 -11.27837
 Alpha  occ. eigenvalues --  -11.27124 -11.27046  -1.73981  -1.67885  -1.67571
 Alpha  occ. eigenvalues --   -1.27395  -1.17485  -1.13526  -1.05657  -1.04232
 Alpha  occ. eigenvalues --   -0.91881  -0.86935  -0.86277  -0.83386  -0.82624
 Alpha  occ. eigenvalues --   -0.81000  -0.77110  -0.76059  -0.75537  -0.74974
 Alpha  occ. eigenvalues --   -0.72192  -0.71100  -0.68882  -0.65759  -0.63289
 Alpha  occ. eigenvalues --   -0.62282  -0.56484  -0.55730  -0.53524  -0.52625
 Alpha  occ. eigenvalues --   -0.51137  -0.47549  -0.36946  -0.36844
 Alpha virt. eigenvalues --    0.02604   0.03504   0.04508   0.04755   0.05625
 Alpha virt. eigenvalues --    0.06517   0.08225   0.08637   0.09544   0.10885
 Alpha virt. eigenvalues --    0.11794   0.11829   0.12484   0.12967   0.13477

 Mulliken charges:
               1
     1  C    0.757212
     2  C    1.515452
     3  C    0.014350
     4  H   -0.542882
     5  C    0.551458
     6  H   -0.419850
     7  C    0.453940
     8  H   -0.429515
     9  C    0.470482
    10  H   -0.432824
    11  C   -0.078997
    12  H   -0.558635
    13  N   -0.015637
    14  N   -0.193137
    15  F   -0.338715
    16  F   -0.323570
    17  F   -0.429133
 Sum of Mulliken charges =   0.00000

 Dipole moment (field-independent basis, Debye):
    X=             -4.2415    Y=             -1.3225    Z=             -0.2989  Tot=              4.4529

 Test job not archived.
 1\1\GINC-SE120\SP\RHF\Aug-CC-pVDZ\C7H5F3N2\OHZDE\09-Apr-2025\0\\#t hf
 aug-cc-pvdz iop(5/13=1,5/36=2,99/5=2) pseudo=read geom=check guess=(re
 ad,tcheck) scf=(maxcycle=1)\\title\\0,1\C,0,0.972849,0.282347,-0.13741
 4\C,0,-0.48384,0.069104,-0.087556\C,0,-1.315658,0.956517,0.609885\H,0,
 -0.889981,1.814956,1.109081\C,0,-2.684608,0.725853,0.660456\H,0,-3.321
 935,1.41137,1.206375\C,0,-3.237083,-0.37816,0.01276\H,0,-4.306636,-0.5
 49957,0.051389\C,0,-2.414015,-1.260981,-0.682694\H,0,-2.839474,-2.1195
 85,-1.188518\C,0,-1.041607,-1.045755,-0.730201\H,0,-0.401417,-1.732889

 Normal termination of Gaussian 16 at Wed Apr  9 00:53:00 2025.
