 Gaussian 16, Revision C.01,

 ----------------------------------------------------------------------
 #t hf aug-cc-pvdz symm=none int=(grid=ultrafine) guess=(read,tcheck) s
 table=opt
 ----------------------------------------------------------------------
 -----
 title
 -----
 Symbolic Z-matrix:
 Charge =  0 Multiplicity = 2

 SCF Done:  E(UHF) =  -321.284334297     A.U. after   22 cycles
 Normal termination of Gaussian 16 at Tue Apr  8 23:05:01 2025.
 Gaussian 16:  ES64L-G16RevC.01  3-Jul-2019

 ----------------------------------------------------------------------
 #t hf aug-cc-pvdz iop(5/13=1,5/36=2,99/5=2) pseudo=read geom=check gue
 ss=(read,tcheck) scf=(maxcycle=1)
 ----------------------------------------------------------------------
 -----
 title
 -----
 Structure from the checkpoint file:  "BDE49_expt_428_mol2.chk"
 Charge =  0 Multiplicity = 2

                         Standard orientation:
 ---------------------------------------------------------------------
 Center     Atomic      Atomic             Coordinates (Angstroms)
 Number     Number       Type             X           Y           Z
 ---------------------------------------------------------------------
      1          6           0       -0.012361    0.114204   -0.148212
      2          7           0       -1.184714   -0.580157   -0.417603
      3          8           0        1.022864   -0.731254   -0.033264
      4          8           0        0.073157    1.324305   -0.109734
      5          6           0        2.303542   -0.110773    0.181132
      6          1           0        2.284478    0.517311    1.073318
      7          1           0        2.578063    0.500681   -0.679817
      8          1           0        3.004282   -0.932930    0.305578
      9          6           0       -2.351894   -0.119292    0.285098
     10          1           0       -2.278711    0.937040    0.565158
     11          1           0       -2.455306   -0.707580    1.211271
     12          1           0       -3.243709   -0.302660   -0.316418
 ---------------------------------------------------------------------

 SCF Done:  E(UHF) =  -321.387459009     A.U. after    2 cycles

 The electronic state is 2-A.
 Alpha  occ. eigenvalues --  -20.62792 -20.57430 -15.68476 -11.42321 -11.30480
 Alpha  occ. eigenvalues --  -11.27893  -1.43964  -1.34224  -1.22533  -0.99929
 Alpha  occ. eigenvalues --   -0.92435  -0.79033  -0.72755  -0.71087  -0.70219
 Alpha  occ. eigenvalues --   -0.64239  -0.63039  -0.59972  -0.56328  -0.55301
 Alpha  occ. eigenvalues --   -0.51870  -0.49731  -0.46881  -0.45581
 Alpha virt. eigenvalues --    0.03387   0.04024   0.05308   0.05652   0.06643
 Alpha virt. eigenvalues --    0.07051   0.08584   0.11665   0.12925   0.13490
 Alpha virt. eigenvalues --    0.13932   0.14789   0.15435   0.15981   0.16593

  Beta  occ. eigenvalues --  -20.62768 -20.56763 -15.65302 -11.42733 -11.30473
  Beta  occ. eigenvalues --  -11.28175  -1.43334  -1.33071  -1.14462  -0.99706
  Beta  occ. eigenvalues --   -0.90814  -0.78413  -0.70303  -0.69572  -0.69275
  Beta  occ. eigenvalues --   -0.62539  -0.59890  -0.57989  -0.55537  -0.54723
  Beta  occ. eigenvalues --   -0.49941  -0.47626  -0.42957
  Beta virt. eigenvalues --    0.03399   0.04005   0.05316   0.05542   0.06242
  Beta virt. eigenvalues --    0.06714   0.07074   0.08678   0.11695   0.13159
  Beta virt. eigenvalues --    0.13587   0.14042   0.14943   0.15676   0.16123

 Mulliken charges and spin densities:
               1          2
     1  C    0.795465  -0.225074
     2  N   -0.605397   1.134624
     3  O   -0.577116   0.011666
     4  O   -0.412475   0.137426
     5  C    0.738136   0.001404
     6  H   -0.056672   0.000656
     7  H   -0.053975   0.000460
     8  H   -0.220760   0.000118
     9  C    0.654241  -0.166638
    10  H   -0.050675   0.026802
    11  H   -0.034772   0.062696
    12  H   -0.176000   0.015861
 Sum of Mulliken charges =  -0.00000   1.00000

 Dipole moment (field-independent basis, Debye):
    X=              0.1805    Y=             -0.8402    Z=              1.3651  Tot=              1.6131
                          Isotropic Fermi Contact Couplings
        Atom                 a.u.       MegaHertz       Gauss      10(-4) cm-1
     1  C(13)             -0.06382     -71.74251     -25.59951     -23.93073
     2  N(14)              0.29251      94.51155      33.72407      31.52566
     3  O(17)              0.00947      -5.73901      -2.04782      -1.91433
     4  O(17)              0.05983     -36.26870     -12.94157     -12.09793
     5  C(13)              0.00109       1.22548       0.43728       0.40878
     6  H(1)               0.00017       0.74729       0.26665       0.24927
     7  H(1)               0.00016       0.72437       0.25847       0.24162
     8  H(1)               0.00012       0.54449       0.19429       0.18162

 Normal termination of Gaussian 16 at Tue Apr  8 23:05:05 2025.
