 Gaussian 16, Revision C.01,

 ----------------------------------------------------------------------
 #t hf aug-cc-pvdz symm=none int=(grid=ultrafine) guess=(read,tcheck) s
 table=(opt,rrhf)
 ----------------------------------------------------------------------
 -----
 title
 -----
 Symbolic Z-matrix:
 Charge =  0 Multiplicity = 1

 SCF Done:  E(RHF) =  -1325.09363340     A.U. after   12 cycles
 Normal termination of Gaussian 16 at Wed Apr  9 00:06:29 2025.
 Gaussian 16:  ES64L-G16RevC.01  3-Jul-2019

 ----------------------------------------------------------------------
 #t hf aug-cc-pvdz iop(5/13=1,5/36=2,99/5=2) pseudo=read geom=check gue
 ss=(read,tcheck) scf=(maxcycle=1)
 ----------------------------------------------------------------------
 -----
 title
 -----
 Structure from the checkpoint file:  "BDE49_nonexpt_224_mol1.chk"
 Charge =  0 Multiplicity = 1

                         Standard orientation:
 ---------------------------------------------------------------------
 Center     Atomic      Atomic             Coordinates (Angstroms)
 Number     Number       Type             X           Y           Z
 ---------------------------------------------------------------------
      1         17           0        1.802022    1.761545   -0.134656
      2          5           0        1.018261    0.209870    0.057089
      3         17           0        2.018234   -1.236265    0.204821
      4          6           0       -0.578375    0.054581   -0.023741
      5          8           0       -1.140103   -1.023430    0.681829
      6          8           0       -0.771250   -0.196595   -1.414483
      7          8           0       -1.174495    1.265340    0.295888
      8          6           0       -1.033658   -0.933655    2.101286
      9          1           0        0.013318   -0.928551    2.426044
     10          1           0       -1.520965   -1.822745    2.498774
     11          1           0       -1.530538   -0.037494    2.481809
     12          6           0       -0.932861   -1.545616   -1.871357
     13          1           0       -1.023067   -1.466619   -2.954481
     14          1           0       -1.831742   -1.999757   -1.453628
     15          1           0       -0.068021   -2.166958   -1.624439
     16          6           0       -2.564005    1.386820   -0.041097
     17          1           0       -2.888010    2.332036    0.391325
     18          1           0       -3.149125    0.566647    0.383636
     19          1           0       -2.697340    1.409035   -1.123704
 ---------------------------------------------------------------------

 SCF Done:  E(RHF) =  -1325.25903019     A.U. after    2 cycles

 The electronic state is 1-A.
 Alpha  occ. eigenvalues -- -103.67183-103.66755 -20.59408 -20.58934 -20.58741
 Alpha  occ. eigenvalues --  -11.40269 -11.29784 -11.28814 -11.28580 -10.70647
 Alpha  occ. eigenvalues --  -10.70211  -8.36345  -8.36130  -8.36095  -8.35915
 Alpha  occ. eigenvalues --   -8.35693  -8.35650  -7.73427  -1.41819  -1.32306
 Alpha  occ. eigenvalues --   -1.31702  -1.18240  -1.14543  -1.00231  -0.94985
 Alpha  occ. eigenvalues --   -0.93454  -0.82771  -0.75501  -0.72742  -0.72180
 Alpha  occ. eigenvalues --   -0.66372  -0.65477  -0.63682  -0.61934  -0.60754
 Alpha  occ. eigenvalues --   -0.59557  -0.58113  -0.56561  -0.54978  -0.52390
 Alpha  occ. eigenvalues --   -0.51516  -0.51104  -0.49618  -0.48649  -0.47741
 Alpha  occ. eigenvalues --   -0.47364  -0.46147  -0.42846
 Alpha virt. eigenvalues --    0.03149   0.04473   0.04670   0.04770   0.06134
 Alpha virt. eigenvalues --    0.06189   0.06424   0.06581   0.06744   0.08117
 Alpha virt. eigenvalues --    0.08708   0.09351   0.09533   0.10600   0.12632

 Mulliken charges:
               1
     1  Cl  -0.364172
     2  B    0.605547
     3  Cl  -0.385247
     4  C    1.238798
     5  O   -0.774691
     6  O   -0.779271
     7  O   -0.726881
     8  C    0.785728
     9  H   -0.119106
    10  H   -0.248792
    11  H   -0.062103
    12  C    0.843952
    13  H   -0.254882
    14  H   -0.087536
    15  H   -0.144802
    16  C    0.844960
    17  H   -0.229777
    18  H   -0.061703
    19  H   -0.080022
 Sum of Mulliken charges =  -0.00000

 Dipole moment (field-independent basis, Debye):
    X=             -2.1000    Y=             -1.3239    Z=              1.0130  Tot=              2.6812

 Test job not archived.
 1\1\GINC-SE322\SP\RHF\Aug-CC-pVDZ\C4H9B1Cl2O3\OHZDE\09-Apr-2025\0\\#t
 hf aug-cc-pvdz iop(5/13=1,5/36=2,99/5=2) pseudo=read geom=check guess=
 (read,tcheck) scf=(maxcycle=1)\\title\\0,1\Cl,0,1.802022,1.761545,-0.1
 34656\B,0,1.018261,0.20987,0.057089\Cl,0,2.018234,-1.236265,0.204821\C
 ,0,-0.578375,0.054581,-0.023741\O,0,-1.140103,-1.02343,0.681829\O,0,-0
 .77125,-0.196595,-1.414483\O,0,-1.174495,1.26534,0.295888\C,0,-1.03365
 8,-0.933655,2.101286\H,0,0.013318,-0.928551,2.426044\H,0,-1.520965,-1.
 822745,2.498774\H,0,-1.530538,-0.037494,2.481809\C,0,-0.932861,-1.5456

 Normal termination of Gaussian 16 at Wed Apr  9 00:06:40 2025.
