 Gaussian 16, Revision C.01,

 ----------------------------------------------------------------------
 #t hf aug-cc-pvdz symm=none int=(grid=ultrafine) guess=(read,tcheck) s
 table=(opt,rrhf)
 ----------------------------------------------------------------------
 -----
 title
 -----
 Symbolic Z-matrix:
 Charge =  0 Multiplicity = 1

 SCF Done:  E(RHF) =  -1219.12797380     A.U. after   12 cycles
 Normal termination of Gaussian 16 at Wed Apr  9 00:47:56 2025.
 Gaussian 16:  ES64L-G16RevC.01  3-Jul-2019

 ----------------------------------------------------------------------
 #t hf aug-cc-pvdz iop(5/13=1,5/36=2,99/5=2) pseudo=read geom=check gue
 ss=(read,tcheck) scf=(maxcycle=1)
 ----------------------------------------------------------------------
 -----
 title
 -----
 Structure from the checkpoint file:  "BDE49_nonexpt_900_mol1.chk"
 Charge =  0 Multiplicity = 1

                         Standard orientation:
 ---------------------------------------------------------------------
 Center     Atomic      Atomic             Coordinates (Angstroms)
 Number     Number       Type             X           Y           Z
 ---------------------------------------------------------------------
      1         16           0       -1.177075   -1.388848   -0.000006
      2          5           0        0.009160   -0.010418   -0.000045
      3         16           0       -0.629001    1.695773    0.000010
      4         16           0        1.823968   -0.146940    0.000006
      5          1           0       -1.938375    1.390902    0.000026
      6          1           0       -0.305803   -2.411809    0.000015
      7          1           0        1.912123   -1.486777    0.000028
 ---------------------------------------------------------------------

 SCF Done:  E(RHF) =  -1219.19062229     A.U. after    2 cycles

 The electronic state is 1-A.
 Alpha  occ. eigenvalues --  -93.55555 -93.55291 -93.54895  -8.85515  -8.85251
 Alpha  occ. eigenvalues --   -8.84858  -7.70893  -6.19698  -6.19443  -6.19426
 Alpha  occ. eigenvalues --   -6.19180  -6.19176  -6.19037  -6.18916  -6.18793
 Alpha  occ. eigenvalues --   -6.18527  -1.02593  -0.96065  -0.95862  -0.66723
 Alpha  occ. eigenvalues --   -0.60766  -0.53896  -0.53473  -0.46705  -0.46041
 Alpha  occ. eigenvalues --   -0.44262  -0.38298  -0.37627
 Alpha virt. eigenvalues --    0.03317   0.05053   0.05808   0.06370   0.06968
 Alpha virt. eigenvalues --    0.08041   0.09514   0.09864   0.10217   0.11522
 Alpha virt. eigenvalues --    0.13381   0.13580   0.14629   0.15777   0.16346

 Mulliken charges:
               1
     1  S   -0.190157
     2  B    0.658688
     3  S   -0.233265
     4  S   -0.189719
     5  H    0.001585
     6  H   -0.019031
     7  H   -0.028100
 Sum of Mulliken charges =  -0.00000

 Dipole moment (field-independent basis, Debye):
    X=             -0.1880    Y=             -1.6666    Z=              0.0000  Tot=              1.6771

 Test job not archived.
 1\1\GINC-SE362\SP\RHF\Aug-CC-pVDZ\B1H3S3\OHZDE\09-Apr-2025\0\\#t hf au
 g-cc-pvdz iop(5/13=1,5/36=2,99/5=2) pseudo=read geom=check guess=(read
 ,tcheck) scf=(maxcycle=1)\\title\\0,1\S,0,1.177083,1.388841,-0.000006\
 B,0,-0.00916,0.010418,-0.000045\S,0,0.628992,-1.695777,0.00001\S,0,-1.
 823967,0.14695,0.000006\H,0,1.938367,-1.390913,0.000026\H,0,0.305816,2
 .411807,0.000015\H,0,-1.912115,1.486787,0.000028\\Version=ES64L-G16Rev
 C.01\State=1-A\HF=-1219.1906223\RMSD=7.547e-03\Dipole=0.0739831,0.6556
 775,0.0000035\Quadrupole=0.561117,2.3270842,-2.8882012,-3.2463292,0.00

 Normal termination of Gaussian 16 at Wed Apr  9 00:47:58 2025.
