 Gaussian 16, Revision C.01,

 ----------------------------------------------------------------------
 #t hf aug-cc-pvdz symm=none int=(grid=ultrafine) guess=(read,tcheck) s
 table=(opt,rrhf)
 ----------------------------------------------------------------------
 -----
 title
 -----
 Symbolic Z-matrix:
 Charge =  0 Multiplicity = 1

 SCF Done:  E(RHF) =  -799.227291882     A.U. after   16 cycles
 Normal termination of Gaussian 16 at Wed Apr  9 00:04:16 2025.
 Gaussian 16:  ES64L-G16RevC.01  3-Jul-2019

 ----------------------------------------------------------------------
 #t hf aug-cc-pvdz iop(5/13=1,5/36=2,99/5=2) pseudo=read geom=check gue
 ss=(read,tcheck) scf=(maxcycle=1)
 ----------------------------------------------------------------------
 -----
 title
 -----
 Structure from the checkpoint file:  "BDE49_nonexpt_2206_mol1.chk"
 Charge =  0 Multiplicity = 1

                         Standard orientation:
 ---------------------------------------------------------------------
 Center     Atomic      Atomic             Coordinates (Angstroms)
 Number     Number       Type             X           Y           Z
 ---------------------------------------------------------------------
      1          6           0        1.701700    1.399896    0.000103
      2          6           0        1.290270    0.074860    0.000145
      3          6           0       -0.049155   -0.300209    0.000103
      4          6           0        0.717340    2.386126    0.000024
      5          6           0       -0.630048    2.046566   -0.000015
      6          6           0       -1.018815    0.701548    0.000024
      7          1           0        1.005570    3.430392   -0.000008
      8          1           0       -1.402629    2.805258   -0.000077
      9          8           0       -2.353013    0.436807   -0.000018
     10         14           0       -3.181493   -1.013013    0.000011
     11          1           0       -0.300106   -1.352305    0.000137
     12          1           0        2.755865    1.635023    0.000135
     13          7           0        2.315579   -0.995971    0.000233
     14          8           0        3.489833   -0.655461   -0.000261
     15          8           0        1.924422   -2.155706   -0.000263
     16          1           0       -4.601653   -0.626783   -0.000059
     17          1           0       -2.841489   -1.797681    1.206834
     18          1           0       -2.841398   -1.797782   -1.206720
 ---------------------------------------------------------------------

 SCF Done:  E(RHF) =  -799.411476087     A.U. after    2 cycles

 The electronic state is 1-A.
 Alpha  occ. eigenvalues --  -69.11801 -20.62169 -20.62132 -20.60830 -15.92401
 Alpha  occ. eigenvalues --  -11.34805 -11.32788 -11.28255 -11.28056 -11.27903
 Alpha  occ. eigenvalues --  -11.27628  -6.86608  -3.97523  -3.97367  -3.97337
 Alpha  occ. eigenvalues --   -1.55373  -1.36965  -1.36912  -1.18762  -1.08419
 Alpha  occ. eigenvalues --   -1.04172  -0.96096  -0.88287  -0.83919  -0.80115
 Alpha  occ. eigenvalues --   -0.76099  -0.73658  -0.73025  -0.71402  -0.68953
 Alpha  occ. eigenvalues --   -0.66053  -0.64232  -0.64206  -0.58781  -0.56830
 Alpha  occ. eigenvalues --   -0.54629  -0.53183  -0.51867  -0.51444  -0.49260
 Alpha  occ. eigenvalues --   -0.49034  -0.47820  -0.38379  -0.35426
 Alpha virt. eigenvalues --    0.02705   0.02833   0.03365   0.04417   0.05279
 Alpha virt. eigenvalues --    0.05490   0.05871   0.06996   0.08828   0.08844
 Alpha virt. eigenvalues --    0.09316   0.10242   0.11531   0.12148   0.12611

 Mulliken charges:
               1
     1  C    0.382601
     2  C    1.153970
     3  C    0.320835
     4  C    0.691665
     5  C    0.625427
     6  C    0.161370
     7  H   -0.424402
     8  H   -0.535088
     9  O   -0.861717
    10  Si   0.248479
    11  H   -0.556161
    12  H   -0.442257
    13  N    0.118379
    14  O   -0.569303
    15  O   -0.569410
    16  H    0.041536
    17  H    0.107038
    18  H    0.107037
 Sum of Mulliken charges =  -0.00000

 Dipole moment (field-independent basis, Debye):
    X=             -3.5616    Y=              2.9730    Z=              0.0014  Tot=              4.6394

 Test job not archived.
 1\1\GINC-SE080\SP\RHF\Aug-CC-pVDZ\C6H7N1O3Si1\OHZDE\09-Apr-2025\0\\#t
 hf aug-cc-pvdz iop(5/13=1,5/36=2,99/5=2) pseudo=read geom=check guess=
 (read,tcheck) scf=(maxcycle=1)\\title\\0,1\C,0,-1.7017,1.399896,-0.000
 103\C,0,-1.29027,0.07486,-0.000145\C,0,0.049155,-0.300209,-0.000103\C,
 0,-0.71734,2.386126,-0.000024\C,0,0.630048,2.046566,0.000015\C,0,1.018
 815,0.701548,-0.000024\H,0,-1.00557,3.430392,0.000008\H,0,1.402629,2.8
 05258,0.000077\O,0,2.353013,0.436807,0.000018\Si,0,3.181493,-1.013013,
 -0.000011\H,0,0.300106,-1.352305,-0.000137\H,0,-2.755865,1.635023,-0.0

 Normal termination of Gaussian 16 at Wed Apr  9 00:04:27 2025.
