 Gaussian 16, Revision C.01,

 ----------------------------------------------------------------------
 #t hf aug-cc-pvdz symm=none int=(grid=ultrafine) guess=(read,tcheck) s
 table=(opt,rrhf)
 ----------------------------------------------------------------------
 -----
 title
 -----
 Symbolic Z-matrix:
 Charge =  0 Multiplicity = 1

 SCF Done:  E(RHF) =  -1205.05004472     A.U. after   17 cycles
 Normal termination of Gaussian 16 at Wed Apr  9 00:49:55 2025.
 Gaussian 16:  ES64L-G16RevC.01  3-Jul-2019

 ----------------------------------------------------------------------
 #t hf aug-cc-pvdz iop(5/13=1,5/36=2,99/5=2) pseudo=read geom=check gue
 ss=(read,tcheck) scf=(maxcycle=1)
 ----------------------------------------------------------------------
 -----
 title
 -----
 Structure from the checkpoint file:  "BDE49_nonexpt_906_mol1.chk"
 Charge =  0 Multiplicity = 1

                         Standard orientation:
 ---------------------------------------------------------------------
 Center     Atomic      Atomic             Coordinates (Angstroms)
 Number     Number       Type             X           Y           Z
 ---------------------------------------------------------------------
      1          9           0        2.784575    1.779818    0.448556
      2          7           0        3.919089   -0.603855   -0.173679
      3          1           0        4.314170   -1.523693   -0.060786
      4          1           0        4.445106    0.136927    0.263106
      5          5           0       -1.830224    0.023849   -0.015980
      6         16           0       -2.706711    1.589346   -0.340102
      7          6           0        1.947954    0.738820    0.176127
      8         16           0       -2.855357   -1.425182    0.414787
      9          6           0        2.546754   -0.498294   -0.107311
     10          6           0        1.677988   -1.570147   -0.362782
     11          1           0        2.097879   -2.543199   -0.595336
     12          6           0        0.302322   -1.395691   -0.326210
     13          1           0       -0.330211   -2.250200   -0.537596
     14          6           0       -0.291302   -0.147699   -0.052059
     15          6           0        0.587590    0.926528    0.201328
     16          1           0        0.220704    1.914747    0.452271
     17          1           0       -1.660981    2.307861   -0.783797
     18          1           0       -4.065093   -0.900799    0.151272
 ---------------------------------------------------------------------

 SCF Done:  E(RHF) =  -1205.21069715     A.U. after    2 cycles

 The electronic state is 1-A.
 Alpha  occ. eigenvalues --  -93.53886 -93.53613 -26.14172 -15.65290 -11.33652
 Alpha  occ. eigenvalues --  -11.31964 -11.26997 -11.26529 -11.25490 -11.23873
 Alpha  occ. eigenvalues --   -8.83846  -8.83568  -7.66974  -6.18044  -6.17782
 Alpha  occ. eigenvalues --   -6.17770  -6.17546  -6.17511  -6.17276  -1.67700
 Alpha  occ. eigenvalues --   -1.22358  -1.13987  -1.03398  -1.01806  -0.98040
 Alpha  occ. eigenvalues --   -0.94375  -0.87730  -0.86019  -0.78013  -0.75672
 Alpha  occ. eigenvalues --   -0.75532  -0.72104  -0.68805  -0.66903  -0.62566
 Alpha  occ. eigenvalues --   -0.61745  -0.60642  -0.56538  -0.55632  -0.53210
 Alpha  occ. eigenvalues --   -0.51854  -0.47611  -0.45815  -0.44403  -0.41861
 Alpha  occ. eigenvalues --   -0.36639  -0.36043  -0.31215
 Alpha virt. eigenvalues --    0.02747   0.03902   0.04124   0.05553   0.05655
 Alpha virt. eigenvalues --    0.06156   0.06856   0.07710   0.07876   0.08247
 Alpha virt. eigenvalues --    0.08359   0.09993   0.10574   0.11009   0.11827

 Mulliken charges:
               1
     1  F   -0.336357
     2  N   -0.317093
     3  H   -0.035176
     4  H   -0.018732
     5  B    0.496023
     6  S   -0.255081
     7  C    0.333946
     8  S   -0.242518
     9  C    0.105834
    10  C    1.117233
    11  H   -0.563163
    12  C    0.290322
    13  H   -0.645258
    14  C    0.160828
    15  C    0.593998
    16  H   -0.657979
    17  H   -0.004124
    18  H   -0.022703
 Sum of Mulliken charges =  -0.00000

 Dipole moment (field-independent basis, Debye):
    X=              2.2943    Y=             -1.4370    Z=             -0.0834  Tot=              2.7085

 Test job not archived.
 1\1\GINC-SE071\SP\RHF\Aug-CC-pVDZ\C6H7B1F1N1S2\OHZDE\09-Apr-2025\0\\#t
  hf aug-cc-pvdz iop(5/13=1,5/36=2,99/5=2) pseudo=read geom=check guess
 =(read,tcheck) scf=(maxcycle=1)\\title\\0,1\F,0,2.784575,1.779818,0.44
 8556\N,0,3.919089,-0.603855,-0.173679\H,0,4.31417,-1.523693,-0.060786\
 H,0,4.445106,0.136927,0.263106\B,0,-1.830224,0.023849,-0.01598\S,0,-2.
 706711,1.589346,-0.340102\C,0,1.947954,0.73882,0.176127\S,0,-2.855357,
 -1.425182,0.414787\C,0,2.546754,-0.498294,-0.107311\C,0,1.677988,-1.57
 0147,-0.362782\H,0,2.097879,-2.543199,-0.595336\C,0,0.302322,-1.395691

 Normal termination of Gaussian 16 at Wed Apr  9 00:50:06 2025.
