 Gaussian 16, Revision C.01,

 ----------------------------------------------------------------------
 #t hf aug-cc-pvdz symm=none int=(grid=ultrafine) guess=(read,tcheck) s
 table=(opt,rrhf)
 ----------------------------------------------------------------------
 -----
 title
 -----
 Symbolic Z-matrix:
 Charge =  0 Multiplicity = 1

 SCF Done:  E(RHF) =  -716.711881046     A.U. after   14 cycles
 Normal termination of Gaussian 16 at Tue Apr  8 23:59:55 2025.
 Gaussian 16:  ES64L-G16RevC.01  3-Jul-2019

 ----------------------------------------------------------------------
 #t hf aug-cc-pvdz iop(5/13=1,5/36=2,99/5=2) pseudo=read geom=check gue
 ss=(read,tcheck) scf=(maxcycle=1)
 ----------------------------------------------------------------------
 -----
 title
 -----
 Structure from the checkpoint file:  "BDE49_nonexpt_2147_mol1.chk"
 Charge =  0 Multiplicity = 1

                         Standard orientation:
 ---------------------------------------------------------------------
 Center     Atomic      Atomic             Coordinates (Angstroms)
 Number     Number       Type             X           Y           Z
 ---------------------------------------------------------------------
      1         14           0        0.343001   -0.000127    0.000000
      2          7           0       -1.353266   -0.717823   -0.000002
      3          9           0        1.071819   -0.547869    1.285635
      4          9           0        0.379777    1.574812    0.000000
      5          9           0        1.071822   -0.547870   -1.285633
      6          8           0       -2.254989    0.089358   -0.000001
 ---------------------------------------------------------------------

 SCF Done:  E(RHF) =  -716.914712779     A.U. after    2 cycles

 The electronic state is 1-A.
 Alpha  occ. eigenvalues --  -69.26466 -26.17355 -26.17354 -26.17326 -20.69943
 Alpha  occ. eigenvalues --  -15.78640  -6.99958  -4.11013  -4.11008  -4.10850
 Alpha  occ. eigenvalues --   -1.71670  -1.69894  -1.69848  -1.50090  -0.98757
 Alpha  occ. eigenvalues --   -0.89579  -0.83918  -0.83896  -0.81134  -0.78710
 Alpha  occ. eigenvalues --   -0.78704  -0.76645  -0.76589  -0.75066  -0.73889
 Alpha  occ. eigenvalues --   -0.69634  -0.62899  -0.42878
 Alpha virt. eigenvalues --    0.02539   0.05010   0.05527   0.05751   0.06032
 Alpha virt. eigenvalues --    0.13038   0.15634   0.16720   0.18644   0.18864
 Alpha virt. eigenvalues --    0.19588   0.21685   0.22629   0.22763   0.24655

 Mulliken charges:
               1
     1  Si   2.877893
     2  N   -0.208243
     3  F   -0.782504
     4  F   -0.806562
     5  F   -0.782504
     6  O   -0.298080
 Sum of Mulliken charges =  -0.00000

 Dipole moment (field-independent basis, Debye):
    X=              0.6463    Y=             -0.1747    Z=             -0.0000  Tot=              0.6695

 Test job not archived.
 1\1\GINC-SE095\SP\RHF\Aug-CC-pVDZ\F3N1O1Si1\OHZDE\08-Apr-2025\0\\#t hf
  aug-cc-pvdz iop(5/13=1,5/36=2,99/5=2) pseudo=read geom=check guess=(r
 ead,tcheck) scf=(maxcycle=1)\\title\\0,1\Si,0,0.343001,-0.000127,0.\N,
 0,-1.353266,-0.717823,-0.000002\F,0,1.071819,-0.547869,1.285635\F,0,0.
 379777,1.574812,0.\F,0,1.071822,-0.54787,-1.285633\O,0,-2.254989,0.089
 358,-0.000001\\Version=ES64L-G16RevC.01\State=1-A\HF=-716.9147128\RMSD
 =4.606e-03\Dipole=0.254267,-0.068743,-0.0000004\Quadrupole=-1.4869904,
 -0.0173567,1.5043471,0.2103843,-0.0000009,-0.0000036\PG=C01 [X(F3N1O1S

 Normal termination of Gaussian 16 at Tue Apr  8 23:59:57 2025.
