 Gaussian 16, Revision C.01,

 ----------------------------------------------------------------------
 #t hf aug-cc-pvdz symm=none int=(grid=ultrafine) guess=(read,tcheck) s
 table=(opt,rrhf)
 ----------------------------------------------------------------------
 -----
 title
 -----
 Symbolic Z-matrix:
 Charge =  0 Multiplicity = 1

 SCF Done:  E(RHF) =  -456.403327444     A.U. after   12 cycles
 Normal termination of Gaussian 16 at Tue Apr  8 23:38:05 2025.
 Gaussian 16:  ES64L-G16RevC.01  3-Jul-2019

 ----------------------------------------------------------------------
 #t hf aug-cc-pvdz iop(5/13=1,5/36=2,99/5=2) pseudo=read geom=check gue
 ss=(read,tcheck) scf=(maxcycle=1)
 ----------------------------------------------------------------------
 -----
 title
 -----
 Structure from the checkpoint file:  "BDE49_nonexpt_1600_mol1.chk"
 Charge =  0 Multiplicity = 1

                         Standard orientation:
 ---------------------------------------------------------------------
 Center     Atomic      Atomic             Coordinates (Angstroms)
 Number     Number       Type             X           Y           Z
 ---------------------------------------------------------------------
      1         15           0       -0.113527   -0.588361   -0.113026
      2          6           0        1.423074    0.425964    0.000443
      3          1           0        1.351815    1.162293    0.803576
      4          1           0        1.600645    0.940824   -0.945756
      5          1           0        2.270170   -0.238822    0.195872
      6          8           0       -1.254963    0.619504    0.116950
      7          1           0       -0.053825   -1.065643    1.226062
      8          1           0       -1.964633    0.514947   -0.522617
 ---------------------------------------------------------------------

 SCF Done:  E(RHF) =  -456.471650912     A.U. after    2 cycles

 The electronic state is 1-A.
 Alpha  occ. eigenvalues --  -81.29379 -20.58398 -11.23624  -7.79108  -4.93249
 Alpha  occ. eigenvalues --   -4.92943  -4.92694  -1.31114  -0.96527  -0.77953
 Alpha  occ. eigenvalues --   -0.66203  -0.60783  -0.57025  -0.56746  -0.54896
 Alpha  occ. eigenvalues --   -0.45749  -0.34735
 Alpha virt. eigenvalues --    0.03627   0.04638   0.05401   0.06340   0.07573
 Alpha virt. eigenvalues --    0.09535   0.10156   0.11329   0.14300   0.15435
 Alpha virt. eigenvalues --    0.16759   0.17018   0.19467   0.21418   0.22153

 Mulliken charges:
               1
     1  P    0.792121
     2  C    0.103779
     3  H   -0.134655
     4  H   -0.122044
     5  H   -0.129930
     6  O   -0.700004
     7  H    0.032361
     8  H    0.158371
 Sum of Mulliken charges =  -0.00000

 Dipole moment (field-independent basis, Debye):
    X=              0.3275    Y=             -0.1411    Z=             -0.5374  Tot=              0.6450

 Test job not archived.
 1\1\GINC-SE095\SP\RHF\Aug-CC-pVDZ\C1H5O1P1\OHZDE\08-Apr-2025\0\\#t hf
 aug-cc-pvdz iop(5/13=1,5/36=2,99/5=2) pseudo=read geom=check guess=(re
 ad,tcheck) scf=(maxcycle=1)\\title\\0,1\P,0,-0.113527,-0.588361,-0.113
 026\C,0,1.423074,0.425964,0.000443\H,0,1.351816,1.162293,0.803576\H,0,
 1.600646,0.940823,-0.945756\H,0,2.27017,-0.238823,0.195872\O,0,-1.2549
 63,0.619504,0.11695\H,0,-0.053825,-1.065643,1.226062\H,0,-1.964633,0.5
 14948,-0.522617\\Version=ES64L-G16RevC.01\State=1-A\HF=-456.4716509\RM
 SD=7.428e-03\Dipole=0.1288514,-0.0555251,-0.2114393\Quadrupole=2.40016

 Normal termination of Gaussian 16 at Tue Apr  8 23:38:07 2025.
