 Gaussian 16, Revision C.01,

 ----------------------------------------------------------------------
 #t hf aug-cc-pvdz symm=none int=(grid=ultrafine) guess=(read,tcheck) s
 table=opt
 ----------------------------------------------------------------------
 -----
 title
 -----
 Symbolic Z-matrix:
 Charge =  0 Multiplicity = 2

 SCF Done:  E(UHF) =  -423.536560139     A.U. after   16 cycles

 1\1\GINC-SE393\Stability\UHF\Aug-CC-pVDZ\C7H15O2\OHZDE\08-Apr-2025\0\\
 #t hf aug-cc-pvdz symm=none int=(grid=ultrafine) guess=(read,tcheck) s
 table=opt\\title\\0,2\C,0,0.016477,0.069303,1.053021\O,0,-1.269722,-0.
 336328,0.920424\O,0,0.862243,-0.439145,0.091295\H,0,0.364725,-0.03034,
 2.08415\C,0,-1.932142,-0.040762,-0.338252\C,0,2.238949,-0.037006,0.215
 117\C,0,-2.431134,1.400463,-0.325569\C,0,3.056212,-1.06565,-0.553051\H
 ,0,-3.157964,1.544335,0.478576\H,0,-2.910039,1.6505,-1.276653\H,0,-1.6
 00214,2.091349,-0.166441\C,0,-3.048256,-1.064465,-0.47521\H,0,-1.20489

 Normal termination of Gaussian 16 at Tue Apr  8 22:58:36 2025.
 Gaussian 16:  ES64L-G16RevC.01  3-Jul-2019

 ----------------------------------------------------------------------
 #t hf aug-cc-pvdz iop(5/13=1,5/36=2,99/5=2) pseudo=read geom=check gue
 ss=(read,tcheck) scf=(maxcycle=1)
 ----------------------------------------------------------------------
 -----
 title
 -----
 Structure from the checkpoint file:  "BDE49_expt_191_mol2.chk"
 Charge =  0 Multiplicity = 2

                         Standard orientation:
 ---------------------------------------------------------------------
 Center     Atomic      Atomic             Coordinates (Angstroms)
 Number     Number       Type             X           Y           Z
 ---------------------------------------------------------------------
      1          6           0        0.016477    0.069303    1.053021
      2          8           0       -1.269722   -0.336328    0.920424
      3          8           0        0.862243   -0.439145    0.091295
      4          1           0        0.364725   -0.030340    2.084150
      5          6           0       -1.932142   -0.040762   -0.338252
      6          6           0        2.238949   -0.037006    0.215117
      7          6           0       -2.431134    1.400463   -0.325569
      8          6           0        3.056212   -1.065650   -0.553051
      9          1           0       -3.157964    1.544335    0.478576
     10          1           0       -2.910039    1.650500   -1.276653
     11          1           0       -1.600214    2.091349   -0.166441
     12          6           0       -3.048256   -1.064465   -0.475210
     13          1           0       -1.204898   -0.177724   -1.142407
     14          1           0       -3.751485   -0.974304    0.357158
     15          1           0       -2.639705   -2.076875   -0.471503
     16          1           0       -3.595203   -0.911400   -1.409215
     17          1           0        2.881829   -2.067507   -0.156042
     18          1           0        4.123244   -0.840524   -0.479335
     19          1           0        2.773892   -1.060954   -1.609188
     20          6           0        2.435405    1.388689   -0.294601
     21          1           0        2.509728   -0.080906    1.279910
     22          1           0        2.172189    1.451728   -1.354124
     23          1           0        3.477681    1.698526   -0.177656
     24          1           0        1.802981    2.084452    0.260295
 ---------------------------------------------------------------------

 SCF Done:  E(UHF) =  -423.674363787     A.U. after    2 cycles

 The electronic state is 2-A.
 Alpha  occ. eigenvalues --  -20.58257 -20.57802 -11.33068 -11.29869 -11.28861
 Alpha  occ. eigenvalues --  -11.22831 -11.22769 -11.22193 -11.22075  -1.38451
 Alpha  occ. eigenvalues --   -1.31929  -1.06061  -1.03832  -0.94105  -0.93337
 Alpha  occ. eigenvalues --   -0.89153  -0.82070  -0.78009  -0.70670  -0.68935
 Alpha  occ. eigenvalues --   -0.68047  -0.63002  -0.61899  -0.60208  -0.56857
 Alpha  occ. eigenvalues --   -0.55624  -0.54911  -0.54244  -0.53841  -0.52954
 Alpha  occ. eigenvalues --   -0.51919  -0.51468  -0.49007  -0.48078  -0.47583
 Alpha  occ. eigenvalues --   -0.45013  -0.32912
 Alpha virt. eigenvalues --    0.03474   0.04188   0.04622   0.04644   0.05630
 Alpha virt. eigenvalues --    0.05821   0.05921   0.06605   0.07061   0.08053
 Alpha virt. eigenvalues --    0.08286   0.08393   0.08802   0.09444   0.10776

  Beta  occ. eigenvalues --  -20.57711 -20.57405 -11.30583 -11.29892 -11.28831
  Beta  occ. eigenvalues --  -11.22817 -11.22771 -11.22179 -11.22080  -1.36562
  Beta  occ. eigenvalues --   -1.30721  -1.05545  -1.03707  -0.93918  -0.93213
  Beta  occ. eigenvalues --   -0.86174  -0.81772  -0.76703  -0.70163  -0.67635
  Beta  occ. eigenvalues --   -0.63450  -0.61612  -0.61314  -0.59445  -0.56636
  Beta  occ. eigenvalues --   -0.55286  -0.54569  -0.54032  -0.52733  -0.52338
  Beta  occ. eigenvalues --   -0.51094  -0.50870  -0.48395  -0.47188  -0.46684
  Beta  occ. eigenvalues --   -0.43649
  Beta virt. eigenvalues --    0.03477   0.04189   0.04633   0.04662   0.05638
  Beta virt. eigenvalues --    0.05825   0.05904   0.06597   0.07028   0.08030
  Beta virt. eigenvalues --    0.08288   0.08401   0.08802   0.09421   0.10748

 Mulliken charges and spin densities:
               1          2
     1  C    0.703440   1.025949
     2  O   -0.621388   0.019876
     3  O   -0.540842   0.033801
     4  H   -0.379652  -0.060482
     5  C   -0.302453   0.007293
     6  C   -0.224159  -0.011919
     7  C    0.478701   0.001451
     8  C    0.608435   0.003875
     9  H    0.035900  -0.001735
    10  H   -0.000194  -0.001254
    11  H   -0.129736  -0.008048
    12  C    0.591001   0.001666
    13  H   -0.162961  -0.004392
    14  H   -0.014315   0.000690
    15  H   -0.046756   0.001635
    16  H    0.003360  -0.000778
    17  H   -0.093205   0.001829
    18  H   -0.029911  -0.000541
    19  H   -0.014011  -0.000458
    20  C    0.431451   0.006534
    21  H   -0.134168   0.002281
    22  H    0.008550  -0.000038
    23  H   -0.075161  -0.001447
    24  H   -0.091926  -0.015787
 Sum of Mulliken charges =  -0.00000   1.00000

 Dipole moment (field-independent basis, Debye):
    X=              1.2607    Y=              0.9148    Z=             -0.6012  Tot=              1.6696
                          Isotropic Fermi Contact Couplings
        Atom                 a.u.       MegaHertz       Gauss      10(-4) cm-1
     1  C(13)              0.34900     392.34252     139.99757     130.87138
     2  O(17)              0.02936     -17.79881      -6.35106      -5.93704
     3  O(17)              0.05804     -35.18260     -12.55403     -11.73565
     4  H(1)              -0.00233     -10.43078      -3.72196      -3.47933
     5  C(13)              0.00810       9.10648       3.24942       3.03760
     6  C(13)             -0.00283      -3.18115      -1.13511      -1.06112
     7  C(13)             -0.00090      -1.01252      -0.36129      -0.33774
     8  C(13)             -0.00008      -0.08913      -0.03180      -0.02973

 Normal termination of Gaussian 16 at Tue Apr  8 22:58:51 2025.
