 Gaussian 16, Revision C.01,

 ----------------------------------------------------------------------
 #t hf aug-cc-pvdz symm=none int=(grid=ultrafine) guess=(read,tcheck) s
 table=(opt,rrhf)
 ----------------------------------------------------------------------
 -----
 title
 -----
 Symbolic Z-matrix:
 Charge =  0 Multiplicity = 1

 SCF Done:  E(RHF) =  -699.452523189     A.U. after   12 cycles
 Normal termination of Gaussian 16 at Wed Apr  9 00:49:21 2025.
 Gaussian 16:  ES64L-G16RevC.01  3-Jul-2019

 ----------------------------------------------------------------------
 #t hf aug-cc-pvdz iop(5/13=1,5/36=2,99/5=2) pseudo=read geom=check gue
 ss=(read,tcheck) scf=(maxcycle=1)
 ----------------------------------------------------------------------
 -----
 title
 -----
 Structure from the checkpoint file:  "BDE49_nonexpt_845_mol1.chk"
 Charge =  0 Multiplicity = 1

                         Standard orientation:
 ---------------------------------------------------------------------
 Center     Atomic      Atomic             Coordinates (Angstroms)
 Number     Number       Type             X           Y           Z
 ---------------------------------------------------------------------
      1          6           0       -2.604532    0.453806   -1.079373
      2          6           0       -1.094184    0.221718   -1.247217
      3          6           0       -2.967675    0.799234    0.371388
      4          1           0       -3.144046   -0.453892   -1.380172
      5          1           0       -2.936530    1.251390   -1.752679
      6          6           0       -2.453549   -0.268185    1.347093
      7          1           0       -4.051693    0.915534    0.473854
      8          1           0       -2.523655    1.768710    0.632317
      9          6           0       -0.942830   -0.501003    1.184800
     10          1           0       -2.984101   -1.211713    1.164211
     11          1           0       -2.678646    0.021267    2.379270
     12          6           0       -0.565113   -0.854496   -0.271369
     13          1           0       -0.614350   -1.292866    1.867152
     14          1           0       -0.409650    0.411246    1.482817
     15          1           0       -0.561482    1.163436   -1.068057
     16          1           0       -0.876891   -0.066856   -2.281232
     17          5           0        2.452379    0.437133    0.075572
     18          8           0        3.716482    0.335059    0.596954
     19          8           0        1.942467    1.692293   -0.083125
     20          1           0        2.564995    2.375413    0.200169
     21          1           0        4.015843   -0.570413    0.711283
     22         14           0        1.299449   -1.154812   -0.476039
     23          1           0       -1.054128   -1.807581   -0.523125
     24          1           0        1.589206   -1.505537   -1.895047
     25          1           0        1.706664   -2.341688    0.333359
 ---------------------------------------------------------------------

 SCF Done:  E(RHF) =  -699.604913068     A.U. after    2 cycles

 The electronic state is 1-A.
 Alpha  occ. eigenvalues --  -69.03886 -20.59023 -20.58324 -11.22683 -11.22248
 Alpha  occ. eigenvalues --  -11.22234 -11.22100 -11.22041 -11.21831  -7.66044
 Alpha  occ. eigenvalues --   -6.79398  -3.90162  -3.90137  -3.90090  -1.34930
 Alpha  occ. eigenvalues --   -1.31070  -1.09640  -0.99077  -0.98835  -0.82622
 Alpha  occ. eigenvalues --   -0.82309  -0.78838  -0.75564  -0.74884  -0.68527
 Alpha  occ. eigenvalues --   -0.63957  -0.61544  -0.59988  -0.59719  -0.59383
 Alpha  occ. eigenvalues --   -0.58861  -0.57737  -0.52610  -0.52511  -0.52001
 Alpha  occ. eigenvalues --   -0.49247  -0.48133  -0.48081  -0.46060  -0.44879
 Alpha  occ. eigenvalues --   -0.42607  -0.41341  -0.38578
 Alpha virt. eigenvalues --    0.03099   0.03985   0.04199   0.04463   0.05406
 Alpha virt. eigenvalues --    0.05672   0.06090   0.06375   0.06633   0.07719
 Alpha virt. eigenvalues --    0.07985   0.08227   0.08341   0.08596   0.09824

 Mulliken charges:
               1
     1  C    0.309823
     2  C    0.248868
     3  C    0.258772
     4  H   -0.104327
     5  H   -0.108160
     6  C    0.398742
     7  H   -0.125512
     8  H   -0.084246
     9  C    0.197609
    10  H   -0.090057
    11  H   -0.105605
    12  C    0.300355
    13  H   -0.200714
    14  H   -0.216915
    15  H   -0.201557
    16  H   -0.197599
    17  B    1.031176
    18  O   -0.457485
    19  O   -0.602159
    20  H    0.165154
    21  H    0.180560
    22  Si  -0.962050
    23  H   -0.144483
    24  H    0.242475
    25  H    0.267337
 Sum of Mulliken charges =  -0.00000

 Dipole moment (field-independent basis, Debye):
    X=              0.4633    Y=             -0.2683    Z=              0.6209  Tot=              0.8199

 Test job not archived.
 1\1\GINC-SE092\SP\RHF\Aug-CC-pVDZ\C6H15B1O2Si1\OHZDE\09-Apr-2025\0\\#t
  hf aug-cc-pvdz iop(5/13=1,5/36=2,99/5=2) pseudo=read geom=check guess
 =(read,tcheck) scf=(maxcycle=1)\\title\\0,1\C,0,-2.604532,0.453806,-1.
 079373\C,0,-1.094184,0.221718,-1.247217\C,0,-2.967675,0.799234,0.37138
 8\H,0,-3.144046,-0.453892,-1.380172\H,0,-2.93653,1.25139,-1.752679\C,0
 ,-2.453549,-0.268185,1.347093\H,0,-4.051693,0.915534,0.473854\H,0,-2.5
 23655,1.76871,0.632317\C,0,-0.94283,-0.501003,1.1848\H,0,-2.984101,-1.
 211713,1.164211\H,0,-2.678646,0.021267,2.37927\C,0,-0.565113,-0.854496

 Normal termination of Gaussian 16 at Wed Apr  9 00:49:39 2025.
