 Gaussian 16, Revision C.01,

 ----------------------------------------------------------------------
 #t hf aug-cc-pvdz symm=none int=(grid=ultrafine) guess=(read,tcheck) s
 table=(opt,rrhf)
 ----------------------------------------------------------------------
 -----
 title
 -----
 Symbolic Z-matrix:
 Charge =  0 Multiplicity = 1

 SCF Done:  E(RHF) =  -1325.09037177     A.U. after   13 cycles
 Normal termination of Gaussian 16 at Tue Apr  8 23:44:23 2025.
 Gaussian 16:  ES64L-G16RevC.01  3-Jul-2019

 ----------------------------------------------------------------------
 #t hf aug-cc-pvdz iop(5/13=1,5/36=2,99/5=2) pseudo=read geom=check gue
 ss=(read,tcheck) scf=(maxcycle=1)
 ----------------------------------------------------------------------
 -----
 title
 -----
 Structure from the checkpoint file:  "BDE49_nonexpt_1760_mol1.chk"
 Charge =  0 Multiplicity = 1

                         Standard orientation:
 ---------------------------------------------------------------------
 Center     Atomic      Atomic             Coordinates (Angstroms)
 Number     Number       Type             X           Y           Z
 ---------------------------------------------------------------------
      1         14           0        1.706037    1.003653    0.000003
      2          6           0       -0.099023    0.581978   -0.000001
      3          6           0       -0.600983   -0.652742    0.000004
      4         17           0        2.855685   -0.739567    0.000003
      5          6           0       -2.043059   -1.060533    0.000002
      6          1           0       -2.269779   -1.660714   -0.883152
      7         17           0       -3.227280    0.305048   -0.000008
      8          1           0       -2.269783   -1.660706    0.883160
      9          1           0       -0.796356    1.419613   -0.000007
     10          1           0        0.068828   -1.512520    0.000010
     11          1           0        2.079039    1.768887    1.206261
     12          1           0        2.079042    1.768889   -1.206253
 ---------------------------------------------------------------------

 SCF Done:  E(RHF) =  -1325.18736920     A.U. after    2 cycles

 The electronic state is 1-A.
 Alpha  occ. eigenvalues -- -103.65982-103.65260 -69.11708 -11.32420 -11.28313
 Alpha  occ. eigenvalues --  -11.24600 -10.69256 -10.68708  -8.34975  -8.34694
 Alpha  occ. eigenvalues --   -8.34676  -8.34398  -8.34183  -8.34171  -6.86557
 Alpha  occ. eigenvalues --   -3.97437  -3.97271  -3.97243  -1.17611  -1.13663
 Alpha  occ. eigenvalues --   -1.06549  -0.94370  -0.78279  -0.71268  -0.64651
 Alpha  occ. eigenvalues --   -0.64562  -0.61416  -0.54467  -0.53386  -0.52977
 Alpha  occ. eigenvalues --   -0.49863  -0.46110  -0.46082  -0.45966  -0.45836
 Alpha  occ. eigenvalues --   -0.39280
 Alpha virt. eigenvalues --    0.03269   0.04006   0.05058   0.05166   0.06378
 Alpha virt. eigenvalues --    0.06802   0.07056   0.07932   0.09831   0.10036
 Alpha virt. eigenvalues --    0.10704   0.11863   0.12900   0.13321   0.14750

 Mulliken charges:
               1
     1  Si   0.686973
     2  C   -0.056819
     3  C    0.596022
     4  Cl  -0.538198
     5  C   -0.208698
     6  H    0.163984
     7  Cl  -0.108789
     8  H    0.163984
     9  H   -0.320029
    10  H   -0.444108
    11  H    0.032840
    12  H    0.032840
 Sum of Mulliken charges =  -0.00000

 Dipole moment (field-independent basis, Debye):
    X=             -0.4617    Y=             -0.6328    Z=              0.0000  Tot=              0.7833

 Test job not archived.
 1\1\GINC-SE333\SP\RHF\Aug-CC-pVDZ\C3H6Cl2Si1\OHZDE\08-Apr-2025\0\\#t h
 f aug-cc-pvdz iop(5/13=1,5/36=2,99/5=2) pseudo=read geom=check guess=(
 read,tcheck) scf=(maxcycle=1)\\title\\0,1\Si,0,1.706037,1.003653,0.000
 003\C,0,-0.099023,0.581978,-0.000001\C,0,-0.600983,-0.652742,0.000004\
 Cl,0,2.855685,-0.739567,0.000003\C,0,-2.043059,-1.060533,0.000002\H,0,
 -2.269779,-1.660714,-0.883152\Cl,0,-3.22728,0.305048,-0.000008\H,0,-2.
 269783,-1.660706,0.88316\H,0,-0.796356,1.419613,-0.000007\H,0,0.068828
 ,-1.51252,0.00001\H,0,2.079039,1.768887,1.206261\H,0,2.079042,1.768889

 Normal termination of Gaussian 16 at Tue Apr  8 23:44:28 2025.
