 Gaussian 16, Revision C.01,

 ----------------------------------------------------------------------
 #t hf aug-cc-pvdz symm=none int=(grid=ultrafine) guess=(read,tcheck) s
 table=(opt,rrhf)
 ----------------------------------------------------------------------
 -----
 title
 -----
 Symbolic Z-matrix:
 Charge =  0 Multiplicity = 1

 SCF Done:  E(RHF) =  -1770.01414192     A.U. after   15 cycles
 Normal termination of Gaussian 16 at Tue Apr  8 22:50:52 2025.
 Gaussian 16:  ES64L-G16RevC.01  3-Jul-2019

 ----------------------------------------------------------------------
 #t hf aug-cc-pvdz iop(5/13=1,5/36=2,99/5=2) pseudo=read geom=check gue
 ss=(read,tcheck) scf=(maxcycle=1)
 ----------------------------------------------------------------------
 -----
 title
 -----
 Structure from the checkpoint file:  "BDE49_expt_1798_mol1.chk"
 Charge =  0 Multiplicity = 1

                         Standard orientation:
 ---------------------------------------------------------------------
 Center     Atomic      Atomic             Coordinates (Angstroms)
 Number     Number       Type             X           Y           Z
 ---------------------------------------------------------------------
      1          8           0        1.216408    0.767585   -0.636549
      2          7           0        2.440981   -0.086979   -0.208049
      3          8           0        2.298506   -1.259297   -0.230843
      4          8           0        3.334061    0.647901    0.047190
      5          8           0        0.154264   -0.102332   -0.981322
      6          6           0       -0.879593   -0.007077   -0.041969
      7         17           0       -2.073876   -1.163560   -0.664057
      8         17           0       -1.566230    1.646514    0.004264
      9         17           0       -0.350202   -0.469986    1.608049
 ---------------------------------------------------------------------

 SCF Done:  E(RHF) =  -1770.19218877     A.U. after    2 cycles

 The electronic state is 1-A.
 Alpha  occ. eigenvalues -- -103.71405-103.71028-103.70727 -20.76158 -20.73657
 Alpha  occ. eigenvalues --  -20.69977 -20.69534 -16.02876 -11.52653 -10.74721
 Alpha  occ. eigenvalues --  -10.74342 -10.74049  -8.40446  -8.40087  -8.40079
 Alpha  occ. eigenvalues --   -8.40061  -8.39768  -8.39721  -8.39708  -8.39418
 Alpha  occ. eigenvalues --   -8.39415  -1.65515  -1.52827  -1.48001  -1.32559
 Alpha  occ. eigenvalues --   -1.23026  -1.18307  -1.17884  -0.95762  -0.89589
 Alpha  occ. eigenvalues --   -0.86267  -0.82521  -0.81619  -0.75813  -0.74939
 Alpha  occ. eigenvalues --   -0.71233  -0.63957  -0.61457  -0.60021  -0.58472
 Alpha  occ. eigenvalues --   -0.55195  -0.54317  -0.53345  -0.52936  -0.52421
 Alpha  occ. eigenvalues --   -0.49780  -0.49482  -0.48278
 Alpha virt. eigenvalues --    0.05202   0.05691   0.06972   0.07918   0.08009
 Alpha virt. eigenvalues --    0.09279   0.10695   0.11512   0.12036   0.12993
 Alpha virt. eigenvalues --    0.13166   0.13948   0.14828   0.16906   0.17600

 Mulliken charges:
               1
     1  O   -0.334874
     2  N    0.998421
     3  O   -0.347858
     4  O   -0.371007
     5  O   -0.203623
     6  C   -0.125508
     7  Cl   0.129268
     8  Cl   0.156052
     9  Cl   0.099130
 Sum of Mulliken charges =  -0.00000

 Dipole moment (field-independent basis, Debye):
    X=             -0.9032    Y=             -0.0969    Z=              0.2112  Tot=              0.9326

 Test job not archived.
 1\1\GINC-SE082\SP\RHF\Aug-CC-pVDZ\C1Cl3N1O4\OHZDE\08-Apr-2025\0\\#t hf
  aug-cc-pvdz iop(5/13=1,5/36=2,99/5=2) pseudo=read geom=check guess=(r
 ead,tcheck) scf=(maxcycle=1)\\title\\0,1\O,0,1.216408,0.767585,-0.6365
 49\N,0,2.440981,-0.086979,-0.208049\O,0,2.298506,-1.259297,-0.230843\O
 ,0,3.334061,0.647901,0.04719\O,0,0.154264,-0.102332,-0.981322\C,0,-0.8
 79593,-0.007077,-0.041969\Cl,0,-2.073876,-1.163559,-0.664057\Cl,0,-1.5
 6623,1.646514,0.004264\Cl,0,-0.350202,-0.469986,1.608049\\Version=ES64
 L-G16RevC.01\State=1-A\HF=-1770.1921888\RMSD=2.935e-03\Dipole=-0.35536

 Normal termination of Gaussian 16 at Tue Apr  8 22:50:57 2025.
