 Gaussian 16, Revision C.01,

 ----------------------------------------------------------------------
 #t hf aug-cc-pvdz symm=none int=(grid=ultrafine) guess=(read,tcheck) s
 table=(opt,rrhf)
 ----------------------------------------------------------------------
 -----
 title
 -----
 Symbolic Z-matrix:
 Charge =  0 Multiplicity = 1

 SCF Done:  E(RHF) =  -460.950112727     A.U. after   14 cycles
 Normal termination of Gaussian 16 at Wed Apr  9 00:37:53 2025.
 Gaussian 16:  ES64L-G16RevC.01  3-Jul-2019

 ----------------------------------------------------------------------
 #t hf aug-cc-pvdz iop(5/13=1,5/36=2,99/5=2) pseudo=read geom=check gue
 ss=(read,tcheck) scf=(maxcycle=1)
 ----------------------------------------------------------------------
 -----
 title
 -----
 Structure from the checkpoint file:  "BDE49_nonexpt_595_mol1.chk"
 Charge =  0 Multiplicity = 1

                         Standard orientation:
 ---------------------------------------------------------------------
 Center     Atomic      Atomic             Coordinates (Angstroms)
 Number     Number       Type             X           Y           Z
 ---------------------------------------------------------------------
      1          6           0        2.055442    1.303861   -0.250968
      2          6           0        0.713485    0.951998   -0.376916
      3          6           0        3.014982    0.349848    0.075445
      4          6           0        2.614279   -0.971403    0.271697
      5          6           0        1.275388   -1.328138    0.167693
      6          6           0        0.298854   -0.371036   -0.150626
      7          1           0        0.971436   -2.355248    0.342803
      8          1           0        4.058540    0.626971    0.164338
      9          1           0        3.348739   -1.730639    0.517147
     10          1           0        2.351377    2.331140   -0.433548
     11          1           0       -0.005299    1.693377   -0.705958
     12          5           0       -2.230854    0.003366    0.040079
     13          8           0       -2.239201    1.269264    0.572715
     14          8           0       -3.428402   -0.611309   -0.221222
     15          1           0       -4.169432   -0.065144    0.055288
     16          1           0       -1.372757    1.576402    0.854423
     17          7           0       -1.046935   -0.748560   -0.253473
     18          1           0       -1.193544   -1.728194   -0.450467
 ---------------------------------------------------------------------

 SCF Done:  E(RHF) =  -461.096082043     A.U. after    2 cycles

 The electronic state is 1-A.
 Alpha  occ. eigenvalues --  -20.58110 -20.57413 -15.62536 -11.30021 -11.25466
 Alpha  occ. eigenvalues --  -11.25417 -11.24517 -11.24446 -11.24089  -7.67241
 Alpha  occ. eigenvalues --   -1.34373  -1.30588  -1.19853  -1.12250  -1.01710
 Alpha  occ. eigenvalues --   -0.99113  -0.84326  -0.83309  -0.78012  -0.75183
 Alpha  occ. eigenvalues --   -0.71006  -0.69839  -0.66075  -0.62866  -0.61054
 Alpha  occ. eigenvalues --   -0.60108  -0.59414  -0.57812  -0.57040  -0.53037
 Alpha  occ. eigenvalues --   -0.52528  -0.51811  -0.50120  -0.44535  -0.34979
 Alpha  occ. eigenvalues --   -0.31031
 Alpha virt. eigenvalues --    0.03116   0.03776   0.03850   0.05298   0.05606
 Alpha virt. eigenvalues --    0.05739   0.06991   0.07803   0.07995   0.08668
 Alpha virt. eigenvalues --    0.09242   0.10107   0.10943   0.11410   0.12890

 Mulliken charges:
               1
     1  C    0.382090
     2  C    0.698453
     3  C    0.568378
     4  C    0.407325
     5  C    0.626935
     6  C    0.339506
     7  H   -0.585505
     8  H   -0.445639
     9  H   -0.431874
    10  H   -0.441611
    11  H   -0.652614
    12  B    0.679955
    13  O   -0.511474
    14  O   -0.508768
    15  H    0.196882
    16  H    0.217903
    17  N   -0.450085
    18  H   -0.089857
 Sum of Mulliken charges =  -0.00000

 Dipole moment (field-independent basis, Debye):
    X=              1.0919    Y=              0.0715    Z=              0.5279  Tot=              1.2149

 Test job not archived.
 1\1\GINC-SE365\SP\RHF\Aug-CC-pVDZ\C6H8B1N1O2\OHZDE\09-Apr-2025\0\\#t h
 f aug-cc-pvdz iop(5/13=1,5/36=2,99/5=2) pseudo=read geom=check guess=(
 read,tcheck) scf=(maxcycle=1)\\title\\0,1\C,0,2.055442,1.303861,-0.250
 968\C,0,0.713485,0.951998,-0.376916\C,0,3.014982,0.349848,0.075445\C,0
 ,2.614279,-0.971403,0.271697\C,0,1.275388,-1.328138,0.167693\C,0,0.298
 854,-0.371036,-0.150626\H,0,0.971436,-2.355248,0.342803\H,0,4.05854,0.
 626971,0.164338\H,0,3.348739,-1.730639,0.517147\H,0,2.351377,2.33114,-
 0.433548\H,0,-0.005299,1.693377,-0.705958\B,0,-2.230854,0.003366,0.040

 Normal termination of Gaussian 16 at Wed Apr  9 00:38:01 2025.
