 Gaussian 16, Revision C.01,

 ----------------------------------------------------------------------
 #t hf aug-cc-pvdz symm=none int=(grid=ultrafine) guess=(read,tcheck) s
 table=(opt,rrhf)
 ----------------------------------------------------------------------
 -----
 title
 -----
 Symbolic Z-matrix:
 Charge =  0 Multiplicity = 1

 SCF Done:  E(RHF) =  -682.729857754     A.U. after   15 cycles
 Normal termination of Gaussian 16 at Tue Apr  8 23:17:51 2025.
 Gaussian 16:  ES64L-G16RevC.01  3-Jul-2019

 ----------------------------------------------------------------------
 #t hf aug-cc-pvdz iop(5/13=1,5/36=2,99/5=2) pseudo=read geom=check gue
 ss=(read,tcheck) scf=(maxcycle=1)
 ----------------------------------------------------------------------
 -----
 title
 -----
 Structure from the checkpoint file:  "BDE49_nonexpt_1082_mol1.chk"
 Charge =  0 Multiplicity = 1

                         Standard orientation:
 ---------------------------------------------------------------------
 Center     Atomic      Atomic             Coordinates (Angstroms)
 Number     Number       Type             X           Y           Z
 ---------------------------------------------------------------------
      1         17           0        1.810855   -0.464322   -0.000062
      2          8           0        0.631767    1.048232    0.000028
      3          7           0       -0.621757    0.802719   -0.000070
      4          7           0       -1.077838   -0.327297    0.000495
      5          6           0       -2.540525   -0.407857   -0.000192
      6          1           0       -2.842374   -0.973723    0.882982
      7          1           0       -2.841506   -0.975057   -0.882809
      8          1           0       -3.014468    0.575577   -0.001168
 ---------------------------------------------------------------------

 SCF Done:  E(RHF) =  -682.812730849     A.U. after    2 cycles

 The electronic state is 1-A.
 Alpha  occ. eigenvalues -- -103.71067 -20.72521 -15.79790 -15.71305 -11.29403
 Alpha  occ. eigenvalues --  -10.73674  -8.39388  -8.39000  -8.38992  -1.50287
 Alpha  occ. eigenvalues --   -1.29903  -1.13122  -1.01245  -0.84282  -0.72932
 Alpha  occ. eigenvalues --   -0.71849  -0.71472  -0.61971  -0.59271  -0.53372
 Alpha  occ. eigenvalues --   -0.49684  -0.48767  -0.45468  -0.41849
 Alpha virt. eigenvalues --   -0.00324   0.03195   0.05164   0.05286   0.08565
 Alpha virt. eigenvalues --    0.11617   0.11682   0.12824   0.14042   0.14250
 Alpha virt. eigenvalues --    0.15416   0.16008   0.16077   0.17001   0.21176

 Mulliken charges:
               1
     1  Cl   0.143587
     2  O   -0.437839
     3  N    0.084138
     4  N   -0.321321
     5  C    0.792806
     6  H   -0.081824
     7  H   -0.081766
     8  H   -0.097781
 Sum of Mulliken charges =  -0.00000

 Dipole moment (field-independent basis, Debye):
    X=             -2.8533    Y=             -0.8333    Z=             -0.0006  Tot=              2.9725

 Test job not archived.
 1\1\GINC-SE048\SP\RHF\Aug-CC-pVDZ\C1H3Cl1N2O1\OHZDE\08-Apr-2025\0\\#t
 hf aug-cc-pvdz iop(5/13=1,5/36=2,99/5=2) pseudo=read geom=check guess=
 (read,tcheck) scf=(maxcycle=1)\\title\\0,1\Cl,0,1.810855,-0.464322,-0.
 000062\O,0,0.631767,1.048232,0.000028\N,0,-0.621757,0.802719,-0.00007\
 N,0,-1.077838,-0.327297,0.000495\C,0,-2.540525,-0.407857,-0.000192\H,0
 ,-2.842374,-0.973723,0.882982\H,0,-2.841506,-0.975057,-0.882809\H,0,-3
 .014468,0.575577,-0.001168\\Version=ES64L-G16RevC.01\State=1-A\HF=-682
 .8127308\RMSD=3.143e-03\Dipole=-1.1225738,-0.3278391,-0.0002191\Quadru

 Normal termination of Gaussian 16 at Tue Apr  8 23:17:53 2025.
