 Gaussian 16, Revision C.01,

 ----------------------------------------------------------------------
 #t hf aug-cc-pvdz symm=none int=(grid=ultrafine) guess=(read,tcheck) s
 table=(opt,rrhf)
 ----------------------------------------------------------------------
 -----
 title
 -----
 Symbolic Z-matrix:
 Charge =  0 Multiplicity = 1

 SCF Done:  E(RHF) =  -702.469755154     A.U. after   15 cycles
 Normal termination of Gaussian 16 at Wed Apr  9 00:39:13 2025.
 Gaussian 16:  ES64L-G16RevC.01  3-Jul-2019

 ----------------------------------------------------------------------
 #t hf aug-cc-pvdz iop(5/13=1,5/36=2,99/5=2) pseudo=read geom=check gue
 ss=(read,tcheck) scf=(maxcycle=1)
 ----------------------------------------------------------------------
 -----
 title
 -----
 Structure from the checkpoint file:  "BDE49_nonexpt_633_mol1.chk"
 Charge =  0 Multiplicity = 1

                         Standard orientation:
 ---------------------------------------------------------------------
 Center     Atomic      Atomic             Coordinates (Angstroms)
 Number     Number       Type             X           Y           Z
 ---------------------------------------------------------------------
      1          9           0        0.431874   -2.354205    0.000004
      2          9           0        0.378614    2.382859   -0.000008
      3          9           0       -3.621410   -0.020881    0.000012
      4          8           0        2.793662    1.199366   -0.000010
      5          8           0        2.865501   -1.132857   -0.000003
      6          6           0        0.543719    0.019134   -0.000003
      7          6           0       -0.217842   -1.153894    0.000003
      8          6           0       -2.278006   -0.008498    0.000007
      9          6           0       -0.230623    1.189808   -0.000003
     10          6           0       -1.599631   -1.217407    0.000008
     11          1           0       -2.121142   -2.163949    0.000012
     12          6           0       -1.618680    1.208789    0.000002
     13          1           0       -2.160295    2.144326    0.000001
     14          5           0        2.125852    0.014888   -0.000009
     15          1           0        2.337547   -1.936242    0.000002
     16          1           0        3.746012    1.051805   -0.000010
 ---------------------------------------------------------------------

 SCF Done:  E(RHF) =  -702.703440300     A.U. after    2 cycles

 The electronic state is 1-A.
 Alpha  occ. eigenvalues --  -26.17274 -26.16534 -26.15221 -20.58650 -20.58234
 Alpha  occ. eigenvalues --  -11.38483 -11.38330 -11.38113 -11.27641 -11.27339
 Alpha  occ. eigenvalues --  -11.26106  -7.67717  -1.70952  -1.70520  -1.69475
 Alpha  occ. eigenvalues --   -1.35187  -1.31304  -1.19562  -1.06631  -1.06413
 Alpha  occ. eigenvalues --   -0.92522  -0.92081  -0.86056  -0.82770  -0.79510
 Alpha  occ. eigenvalues --   -0.78648  -0.78123  -0.77809  -0.77185  -0.76621
 Alpha  occ. eigenvalues --   -0.75511  -0.71281  -0.70632  -0.69473  -0.63134
 Alpha  occ. eigenvalues --   -0.62356  -0.59844  -0.58731  -0.58477  -0.53917
 Alpha  occ. eigenvalues --   -0.52772  -0.52539  -0.38159  -0.37716
 Alpha virt. eigenvalues --    0.03296   0.04245   0.04552   0.05534   0.05836
 Alpha virt. eigenvalues --    0.06511   0.07487   0.07905   0.09141   0.09380
 Alpha virt. eigenvalues --    0.09465   0.11699   0.12128   0.13383   0.13399

 Mulliken charges:
               1
     1  F   -0.371068
     2  F   -0.305044
     3  F   -0.308300
     4  O   -0.495302
     5  O   -0.521452
     6  C   -0.170910
     7  C   -0.137344
     8  C    0.425574
     9  C    0.121526
    10  C    0.703318
    11  H   -0.423930
    12  C    0.762793
    13  H   -0.408206
    14  B    0.673854
    15  H    0.240665
    16  H    0.213825
 Sum of Mulliken charges =  -0.00000

 Dipole moment (field-independent basis, Debye):
    X=             -0.6031    Y=             -1.2607    Z=             -0.0000  Tot=              1.3975

 Test job not archived.
 1\1\GINC-SE462\SP\RHF\Aug-CC-pVDZ\C6H4B1F3O2\OHZDE\09-Apr-2025\0\\#t h
 f aug-cc-pvdz iop(5/13=1,5/36=2,99/5=2) pseudo=read geom=check guess=(
 read,tcheck) scf=(maxcycle=1)\\title\\0,1\F,0,-0.431874,-2.354205,-0.0
 00004\F,0,-0.378614,2.382859,0.000008\F,0,3.62141,-0.020881,-0.000012\
 O,0,-2.793662,1.199366,0.00001\O,0,-2.865501,-1.132857,0.000003\C,0,-0
 .543719,0.019134,0.000003\C,0,0.217842,-1.153894,-0.000003\C,0,2.27800
 6,-0.008498,-0.000007\C,0,0.230623,1.189808,0.000003\C,0,1.599631,-1.2
 17407,-0.000008\H,0,2.121142,-2.163949,-0.000012\C,0,1.61868,1.208789,

 Normal termination of Gaussian 16 at Wed Apr  9 00:39:22 2025.
