 Gaussian 16, Revision C.01,

 ----------------------------------------------------------------------
 #t hf aug-cc-pvdz symm=none int=(grid=ultrafine) guess=(read,tcheck) s
 table=(opt,rrhf)
 ----------------------------------------------------------------------
 -----
 title
 -----
 Symbolic Z-matrix:
 Charge =  0 Multiplicity = 1

 SCF Done:  E(RHF) =  -385.319576148     A.U. after   11 cycles
 Normal termination of Gaussian 16 at Tue Apr  8 23:50:17 2025.
 Gaussian 16:  ES64L-G16RevC.01  3-Jul-2019

 ----------------------------------------------------------------------
 #t hf aug-cc-pvdz iop(5/13=1,5/36=2,99/5=2) pseudo=read geom=check gue
 ss=(read,tcheck) scf=(maxcycle=1)
 ----------------------------------------------------------------------
 -----
 title
 -----
 Structure from the checkpoint file:  "BDE49_nonexpt_1897_mol1.chk"
 Charge =  0 Multiplicity = 1

                         Standard orientation:
 ---------------------------------------------------------------------
 Center     Atomic      Atomic             Coordinates (Angstroms)
 Number     Number       Type             X           Y           Z
 ---------------------------------------------------------------------
      1         14           0        1.124403   -0.112120    0.013570
      2          6           0       -0.606801    0.647737   -0.055258
      3          1           0        1.409198   -0.652323    1.361716
      4          1           0        2.147395    0.907434   -0.329880
      5          1           0        1.217840   -1.217256   -0.973706
      6          7           0       -1.613134   -0.415953    0.109797
      7          1           0       -1.625663   -1.018553   -0.706720
      8          1           0       -2.545141   -0.022520    0.195908
      9          1           0       -0.721578    1.259672   -0.965051
     10          1           0       -0.690950    1.338467    0.790718
 ---------------------------------------------------------------------

 SCF Done:  E(RHF) =  -385.373760251     A.U. after    2 cycles

 The electronic state is 1-A.
 Alpha  occ. eigenvalues --  -69.05564 -15.61509 -11.25289  -6.80910  -3.91692
 Alpha  occ. eigenvalues --   -3.91679  -3.91665  -1.14238  -0.89076  -0.69730
 Alpha  occ. eigenvalues --   -0.64932  -0.61344  -0.55320  -0.47230  -0.47098
 Alpha  occ. eigenvalues --   -0.45295  -0.38465
 Alpha virt. eigenvalues --    0.03297   0.04601   0.04784   0.05153   0.06930
 Alpha virt. eigenvalues --    0.07886   0.08300   0.09143   0.09797   0.10806
 Alpha virt. eigenvalues --    0.13344   0.15564   0.16408   0.16755   0.17269

 Mulliken charges:
               1
     1  Si   0.505473
     2  C    0.443484
     3  H   -0.038468
     4  H   -0.050618
     5  H   -0.082487
     6  N   -0.365919
     7  H    0.005913
     8  H   -0.009617
     9  H   -0.181609
    10  H   -0.226150
 Sum of Mulliken charges =   0.00000

 Dipole moment (field-independent basis, Debye):
    X=             -1.0238    Y=              0.9151    Z=             -0.9844  Tot=              1.6895

 Test job not archived.
 1\1\GINC-SE362\SP\RHF\Aug-CC-pVDZ\C1H7N1Si1\OHZDE\08-Apr-2025\0\\#t hf
  aug-cc-pvdz iop(5/13=1,5/36=2,99/5=2) pseudo=read geom=check guess=(r
 ead,tcheck) scf=(maxcycle=1)\\title\\0,1\Si,0,1.124403,-0.11212,0.0135
 7\C,0,-0.606801,0.647737,-0.055258\H,0,1.409198,-0.652323,1.361716\H,0
 ,2.147395,0.907433,-0.32988\H,0,1.21784,-1.217256,-0.973706\N,0,-1.613
 134,-0.415953,0.109797\H,0,-1.625663,-1.018553,-0.70672\H,0,-2.545141,
 -0.02252,0.195908\H,0,-0.721578,1.259672,-0.965051\H,0,-0.69095,1.3384
 67,0.790718\\Version=ES64L-G16RevC.01\State=1-A\HF=-385.3737603\RMSD=4

 Normal termination of Gaussian 16 at Tue Apr  8 23:50:19 2025.
