 Gaussian 16, Revision C.01,

 ----------------------------------------------------------------------
 #t hf aug-cc-pvdz symm=none int=(grid=ultrafine) guess=(read,tcheck) s
 table=(opt,rrhf)
 ----------------------------------------------------------------------
 -----
 title
 -----
 Symbolic Z-matrix:
 Charge =  0 Multiplicity = 1

 SCF Done:  E(RHF) =  -1078.67038769     A.U. after   15 cycles
 Normal termination of Gaussian 16 at Tue Apr  8 23:46:09 2025.
 Gaussian 16:  ES64L-G16RevC.01  3-Jul-2019

 ----------------------------------------------------------------------
 #t hf aug-cc-pvdz iop(5/13=1,5/36=2,99/5=2) pseudo=read geom=check gue
 ss=(read,tcheck) scf=(maxcycle=1)
 ----------------------------------------------------------------------
 -----
 title
 -----
 Structure from the checkpoint file:  "BDE49_nonexpt_1771_mol1.chk"
 Charge =  0 Multiplicity = 1

                         Standard orientation:
 ---------------------------------------------------------------------
 Center     Atomic      Atomic             Coordinates (Angstroms)
 Number     Number       Type             X           Y           Z
 ---------------------------------------------------------------------
      1          6           0        0.570469   -1.205053    0.275029
      2          6           0        1.928588   -1.214703   -0.025901
      3          6           0        2.582488   -0.000007   -0.171803
      4          6           0        1.928596    1.214700   -0.025946
      5          6           0        0.570477    1.205070    0.274984
      6          6           0       -0.134678    0.000014    0.429572
      7          1           0        0.057484   -2.153921    0.391755
      8          1           0        2.481706   -2.137824   -0.146053
      9         14           0       -1.951573    0.000028    0.825612
     10          1           0        2.481720    2.137812   -0.146133
     11          9           0        3.899388   -0.000017   -0.461386
     12          1           0        0.057499    2.153946    0.391674
     13         17           0       -3.110904   -0.000029   -0.915815
     14          1           0       -2.320576    1.220491    1.567914
     15          1           0       -2.320580   -1.220384    1.567995
 ---------------------------------------------------------------------

 SCF Done:  E(RHF) =  -1078.81547540     A.U. after    2 cycles

 The electronic state is 1-A.
 Alpha  occ. eigenvalues -- -103.64811 -69.11815 -26.14795 -11.35887 -11.27913
 Alpha  occ. eigenvalues --  -11.27911 -11.26654 -11.26654 -11.25337 -10.68243
 Alpha  occ. eigenvalues --   -8.33934  -8.33712  -8.33711  -6.86709  -3.97507
 Alpha  occ. eigenvalues --   -3.97400  -3.97397  -1.68704  -1.17078  -1.13084
 Alpha  occ. eigenvalues --   -1.04234  -1.03631  -0.87723  -0.87684  -0.78276
 Alpha  occ. eigenvalues --   -0.76199  -0.75472  -0.73353  -0.65726  -0.63656
 Alpha  occ. eigenvalues --   -0.63230  -0.62086  -0.54448  -0.53074  -0.52294
 Alpha  occ. eigenvalues --   -0.51764  -0.50819  -0.45635  -0.45465  -0.36845
 Alpha  occ. eigenvalues --   -0.36140
 Alpha virt. eigenvalues --    0.03070   0.03820   0.04356   0.05313   0.05813
 Alpha virt. eigenvalues --    0.06101   0.07702   0.08059   0.08429   0.08602
 Alpha virt. eigenvalues --    0.09770   0.10403   0.11235   0.12318   0.13306

 Mulliken charges:
               1
     1  C    0.720899
     2  C    0.635639
     3  C    0.382731
     4  C    0.635639
     5  C    0.720890
     6  C   -0.922277
     7  H   -0.591405
     8  H   -0.411122
     9  Si   0.775926
    10  H   -0.411124
    11  F   -0.338931
    12  H   -0.591403
    13  Cl  -0.574239
    14  H   -0.015612
    15  H   -0.015610
 Sum of Mulliken charges =  -0.00000

 Dipole moment (field-independent basis, Debye):
    X=              0.2926    Y=              0.0001    Z=              1.6131  Tot=              1.6394

 Test job not archived.
 1\1\GINC-SE059\SP\RHF\Aug-CC-pVDZ\C6H6Cl1F1Si1\OHZDE\08-Apr-2025\0\\#t
  hf aug-cc-pvdz iop(5/13=1,5/36=2,99/5=2) pseudo=read geom=check guess
 =(read,tcheck) scf=(maxcycle=1)\\title\\0,1\C,0,0.570469,-1.205053,0.2
 75029\C,0,1.928588,-1.214703,-0.025901\C,0,2.582488,-0.000007,-0.17180
 3\C,0,1.928596,1.2147,-0.025946\C,0,0.570477,1.20507,0.274984\C,0,-0.1
 34678,0.000014,0.429572\H,0,0.057484,-2.153921,0.391755\H,0,2.481706,-
 2.137824,-0.146053\Si,0,-1.951573,0.000028,0.825612\H,0,2.48172,2.1378
 12,-0.146133\F,0,3.899388,-0.000017,-0.461386\H,0,0.057499,2.153946,0.

 Normal termination of Gaussian 16 at Tue Apr  8 23:46:17 2025.
