 Gaussian 16, Revision C.01,

 ----------------------------------------------------------------------
 #t hf aug-cc-pvdz symm=none int=(grid=ultrafine) guess=(read,tcheck) s
 table=(opt,rrhf)
 ----------------------------------------------------------------------
 -----
 title
 -----
 Symbolic Z-matrix:
 Charge =  0 Multiplicity = 1

 SCF Done:  E(RHF) =  -1019.30239946     A.U. after   11 cycles
 Normal termination of Gaussian 16 at Tue Apr  8 23:39:08 2025.
 Gaussian 16:  ES64L-G16RevC.01  3-Jul-2019

 ----------------------------------------------------------------------
 #t hf aug-cc-pvdz iop(5/13=1,5/36=2,99/5=2) pseudo=read geom=check gue
 ss=(read,tcheck) scf=(maxcycle=1)
 ----------------------------------------------------------------------
 -----
 title
 -----
 Structure from the checkpoint file:  "BDE49_nonexpt_162_mol1.chk"
 Charge =  0 Multiplicity = 1

                         Standard orientation:
 ---------------------------------------------------------------------
 Center     Atomic      Atomic             Coordinates (Angstroms)
 Number     Number       Type             X           Y           Z
 ---------------------------------------------------------------------
      1         17           0        1.507849   -0.558514   -0.000001
      2         17           0       -1.551858   -0.478929   -0.000005
      3          8           0       -0.009628    1.710491    0.000005
      4          5           0       -0.009381    0.370633    0.000010
      5          1           0        0.872070    2.099432    0.000004
 ---------------------------------------------------------------------

 SCF Done:  E(RHF) =  -1019.37354444     A.U. after    2 cycles

 The electronic state is 1-A.
 Alpha  occ. eigenvalues -- -103.67726-103.67070 -20.62983 -10.71205 -10.70561
 Alpha  occ. eigenvalues --   -8.36897  -8.36668  -8.36652  -8.36262  -8.36026
 Alpha  occ. eigenvalues --   -8.36001  -7.76757  -1.38231  -1.18077  -1.15177
 Alpha  occ. eigenvalues --   -0.81984  -0.69320  -0.64714  -0.61897  -0.55688
 Alpha  occ. eigenvalues --   -0.51104  -0.50890  -0.48725  -0.47388
 Alpha virt. eigenvalues --    0.03397   0.05614   0.05702   0.06051   0.08317
 Alpha virt. eigenvalues --    0.11919   0.12813   0.13274   0.15164   0.17223
 Alpha virt. eigenvalues --    0.17264   0.18457   0.18861   0.21345   0.22340

 Mulliken charges:
               1
     1  Cl  -0.318743
     2  Cl  -0.292335
     3  O   -0.335105
     4  B    0.716429
     5  H    0.229754
 Sum of Mulliken charges =  -0.00000

 Dipole moment (field-independent basis, Debye):
    X=              1.4984    Y=              1.2696    Z=              0.0000  Tot=              1.9639

 Test job not archived.
 1\1\GINC-SE103\SP\RHF\Aug-CC-pVDZ\B1Cl2H1O1\OHZDE\08-Apr-2025\0\\#t hf
  aug-cc-pvdz iop(5/13=1,5/36=2,99/5=2) pseudo=read geom=check guess=(r
 ead,tcheck) scf=(maxcycle=1)\\title\\0,1\Cl,0,1.507849,-0.558514,-0.00
 0001\Cl,0,-1.551858,-0.478929,-0.000005\O,0,-0.009628,1.710491,0.00000
 5\B,0,-0.009381,0.370633,0.00001\H,0,0.87207,2.099432,0.000004\\Versio
 n=ES64L-G16RevC.01\State=1-A\HF=-1019.3735444\RMSD=2.500e-03\Dipole=0.
 5895102,0.4994895,0.0000105\Quadrupole=-0.6686278,0.5788728,0.089755,2
 .9002157,0.0000021,0.0000126\PG=C01 [X(B1Cl2H1O1)]\\@

 Normal termination of Gaussian 16 at Tue Apr  8 23:39:10 2025.
