 Gaussian 16, Revision C.01,

 ----------------------------------------------------------------------
 #t hf aug-cc-pvdz symm=none int=(grid=ultrafine) guess=(read,tcheck) s
 table=opt
 ----------------------------------------------------------------------
 -----
 title
 -----
 Symbolic Z-matrix:
 Charge =  0 Multiplicity = 2

 SCF Done:  E(UHF) =  -369.655977040     A.U. after   17 cycles
 Normal termination of Gaussian 16 at Wed Apr  9 00:40:12 2025.
 Gaussian 16:  ES64L-G16RevC.01  3-Jul-2019

 ----------------------------------------------------------------------
 #t hf aug-cc-pvdz iop(5/13=1,5/36=2,99/5=2) pseudo=read geom=check gue
 ss=(read,tcheck) scf=(maxcycle=1)
 ----------------------------------------------------------------------
 -----
 title
 -----
 Structure from the checkpoint file:  "BDE49_nonexpt_667_mol2.chk"
 Charge =  0 Multiplicity = 2

                         Standard orientation:
 ---------------------------------------------------------------------
 Center     Atomic      Atomic             Coordinates (Angstroms)
 Number     Number       Type             X           Y           Z
 ---------------------------------------------------------------------
      1          8           0        2.058508    0.406900   -0.000380
      2          8           0       -0.180493    1.288387    0.049610
      3          6           0        1.569116   -0.954232   -0.040833
      4          6           0        0.177338   -1.022322   -0.659873
      5          6           0       -0.810485   -0.038496   -0.005332
      6          6           0       -2.063238    0.131841   -0.859474
      7          6           0       -1.173112   -0.432101    1.428217
      8          5           0        1.162036    1.415645    0.047255
      9          1           0        1.579782   -1.348226    0.979550
     10          1           0        2.285655   -1.528571   -0.630055
     11          1           0       -0.210623   -2.043502   -0.582057
     12          1           0        0.251410   -0.784312   -1.726109
     13          1           0       -2.605494   -0.814097   -0.945787
     14          1           0       -1.797161    0.474538   -1.861628
     15          1           0       -2.725941    0.873986   -0.409555
     16          1           0       -0.284891   -0.535069    2.055278
     17          1           0       -1.807351    0.337522    1.872244
     18          1           0       -1.717385   -1.380940    1.441776
 ---------------------------------------------------------------------

 SCF Done:  E(UHF) =  -369.777202346     A.U. after    2 cycles

 The electronic state is 2-A.
 Alpha  occ. eigenvalues --  -20.57926 -20.57528 -11.31755 -11.30554 -11.25087
 Alpha  occ. eigenvalues --  -11.23705 -11.23395  -7.66709  -1.35421  -1.31194
 Alpha  occ. eigenvalues --   -1.08878  -1.00596  -0.94894  -0.88778  -0.81056
 Alpha  occ. eigenvalues --   -0.71311  -0.69371  -0.68028  -0.64267  -0.62866
 Alpha  occ. eigenvalues --   -0.60375  -0.58606  -0.55727  -0.55134  -0.53939
 Alpha  occ. eigenvalues --   -0.53571  -0.52410  -0.47628  -0.46372  -0.46108
 Alpha  occ. eigenvalues --   -0.33182
 Alpha virt. eigenvalues --    0.02970   0.04181   0.04299   0.04880   0.06043
 Alpha virt. eigenvalues --    0.06197   0.06520   0.06644   0.06747   0.08848
 Alpha virt. eigenvalues --    0.09090   0.09232   0.09480   0.11236   0.13350

  Beta  occ. eigenvalues --  -20.57813 -20.57427 -11.31609 -11.30412 -11.25110
  Beta  occ. eigenvalues --  -11.23716 -11.23405  -7.64576  -1.34913  -1.30824
  Beta  occ. eigenvalues --   -1.08506  -1.00300  -0.94897  -0.88240  -0.79816
  Beta  occ. eigenvalues --   -0.71125  -0.68680  -0.67409  -0.63924  -0.62682
  Beta  occ. eigenvalues --   -0.60278  -0.58506  -0.55465  -0.54627  -0.53833
  Beta  occ. eigenvalues --   -0.53290  -0.52115  -0.47703  -0.46597  -0.45989
  Beta virt. eigenvalues --    0.02887   0.04167   0.04313   0.04693   0.05984
  Beta virt. eigenvalues --    0.06095   0.06402   0.06675   0.06699   0.08898
  Beta virt. eigenvalues --    0.09200   0.09246   0.09484   0.10071   0.12585

 Mulliken charges and spin densities:
               1          2
     1  O   -0.533448  -0.083197
     2  O   -0.327519  -0.179778
     3  C    0.959290   0.068556
     4  C    0.629115  -0.061892
     5  C   -2.139029   0.119281
     6  C    1.000195  -0.006972
     7  C    0.897748  -0.013706
     8  B   -0.063581   1.156826
     9  H   -0.156196   0.000035
    10  H   -0.148515  -0.001703
    11  H   -0.056457   0.004121
    12  H   -0.088508  -0.006294
    13  H    0.082107   0.000993
    14  H   -0.017277   0.003166
    15  H    0.006582   0.000126
    16  H   -0.100080  -0.002144
    17  H    0.020231   0.000620
    18  H    0.035342   0.001960
 Sum of Mulliken charges =  -0.00000   1.00000

 Dipole moment (field-independent basis, Debye):
    X=             -1.7932    Y=             -3.5562    Z=             -0.1658  Tot=              3.9861
                          Isotropic Fermi Contact Couplings
        Atom                 a.u.       MegaHertz       Gauss      10(-4) cm-1
     1  O(17)              0.14994     -90.88998     -32.43180     -30.31763
     2  O(17)              0.14220     -86.20132     -30.75877     -28.75366
     3  C(13)              0.02227      25.03749       8.93400       8.35161
     4  C(13)             -0.00444      -4.99654      -1.78289      -1.66667
     5  C(13)              0.02165      24.34193       8.68580       8.11959
     6  C(13)             -0.00184      -2.07396      -0.74004      -0.69180
     7  C(13)             -0.00168      -1.88703      -0.67334      -0.62945
     8  B(11)              0.44423     637.19341     227.36645     212.54484

 Normal termination of Gaussian 16 at Wed Apr  9 00:40:20 2025.
