 Gaussian 16, Revision C.01,

 ----------------------------------------------------------------------
 #t hf aug-cc-pvdz symm=none int=(grid=ultrafine) guess=(read,tcheck) s
 table=(opt,rrhf)
 ----------------------------------------------------------------------
 -----
 title
 -----
 Symbolic Z-matrix:
 Charge =  0 Multiplicity = 1

 SCF Done:  E(RHF) =  -455.203023441     A.U. after   14 cycles
 Normal termination of Gaussian 16 at Tue Apr  8 23:31:59 2025.
 Gaussian 16:  ES64L-G16RevC.01  3-Jul-2019

 ----------------------------------------------------------------------
 #t hf aug-cc-pvdz iop(5/13=1,5/36=2,99/5=2) pseudo=read geom=check gue
 ss=(read,tcheck) scf=(maxcycle=1)
 ----------------------------------------------------------------------
 -----
 title
 -----
 Structure from the checkpoint file:  "BDE49_nonexpt_1454_mol1.chk"
 Charge =  0 Multiplicity = 1

                         Standard orientation:
 ---------------------------------------------------------------------
 Center     Atomic      Atomic             Coordinates (Angstroms)
 Number     Number       Type             X           Y           Z
 ---------------------------------------------------------------------
      1          6           0       -0.731303    0.439033    0.013918
      2          8           0       -1.652083   -0.332789    0.007505
      3         15           0        1.066124   -0.076178   -0.117374
      4          1           0       -0.893307    1.541068    0.011924
      5          1           0        0.962675   -1.195973    0.739253
      6          1           0        1.543252    0.825688    0.865882
 ---------------------------------------------------------------------

 SCF Done:  E(RHF) =  -455.260529902     A.U. after    2 cycles

 The electronic state is 1-A.
 Alpha  occ. eigenvalues --  -81.28108 -20.59298 -11.36411  -7.78630  -4.92551
 Alpha  occ. eigenvalues --   -4.92542  -4.92231  -1.37829  -0.89834  -0.77848
 Alpha  occ. eigenvalues --   -0.68541  -0.62436  -0.56697  -0.53811  -0.43814
 Alpha  occ. eigenvalues --   -0.37825
 Alpha virt. eigenvalues --    0.03249   0.04693   0.06716   0.07763   0.07991
 Alpha virt. eigenvalues --    0.09732   0.10164   0.11196   0.14427   0.15469
 Alpha virt. eigenvalues --    0.16944   0.18591   0.19258   0.20059   0.22682

 Mulliken charges:
               1
     1  C    0.219210
     2  O   -0.420985
     3  P    0.029108
     4  H   -0.127389
     5  H    0.165277
     6  H    0.134779
 Sum of Mulliken charges =   0.00000

 Dipole moment (field-independent basis, Debye):
    X=              2.3123    Y=              1.6819    Z=              0.6175  Tot=              2.9251

 Test job not archived.
 1\1\GINC-SE253\SP\RHF\Aug-CC-pVDZ\C1H3O1P1\OHZDE\08-Apr-2025\0\\#t hf
 aug-cc-pvdz iop(5/13=1,5/36=2,99/5=2) pseudo=read geom=check guess=(re
 ad,tcheck) scf=(maxcycle=1)\\title\\0,1\C,0,-0.731303,0.439033,0.01391
 8\O,0,-1.652083,-0.332789,0.007505\P,0,1.066124,-0.076178,-0.117374\H,
 0,-0.893307,1.541068,0.011924\H,0,0.962675,-1.195973,0.739253\H,0,1.54
 3252,0.825688,0.865882\\Version=ES64L-G16RevC.01\State=1-A\HF=-455.260
 5299\RMSD=1.136e-02\Dipole=0.9097138,0.6616967,0.2429329\Quadrupole=-2
 .8197368,2.2975272,0.5222096,-1.807021,1.1645546,-0.1177307\PG=C01 [X(

 Normal termination of Gaussian 16 at Tue Apr  8 23:32:01 2025.
