 Gaussian 16, Revision C.01,

 ----------------------------------------------------------------------
 #t hf aug-cc-pvdz symm=none int=(grid=ultrafine) guess=(read,tcheck) s
 table=opt
 ----------------------------------------------------------------------
 -----
 title
 -----
 Symbolic Z-matrix:
 Charge =  0 Multiplicity = 2

 SCF Done:  E(UHF) =  -446.806979883     A.U. after   15 cycles
 Normal termination of Gaussian 16 at Tue Apr  8 23:44:47 2025.
 Gaussian 16:  ES64L-G16RevC.01  3-Jul-2019

 ----------------------------------------------------------------------
 #t hf aug-cc-pvdz iop(5/13=1,5/36=2,99/5=2) pseudo=read geom=check gue
 ss=(read,tcheck) scf=(maxcycle=1)
 ----------------------------------------------------------------------
 -----
 title
 -----
 Structure from the checkpoint file:  "BDE49_nonexpt_1748_mol2.chk"
 Charge =  0 Multiplicity = 2

                         Standard orientation:
 ---------------------------------------------------------------------
 Center     Atomic      Atomic             Coordinates (Angstroms)
 Number     Number       Type             X           Y           Z
 ---------------------------------------------------------------------
      1         14           0        0.475116   -0.001757   -0.403419
      2          6           0       -1.114974   -0.764397    0.302972
      3          6           0       -2.423703   -0.051165   -0.074803
      4          1           0       -1.004707   -0.787640    1.397327
      5          1           0       -1.155515   -1.812930   -0.013568
      6          1           0       -2.428837    0.988353    0.265466
      7          1           0       -3.292276   -0.543639    0.372660
      8          1           0       -2.572654   -0.040596   -1.158300
      9          6           0        1.968785   -1.042556    0.109791
     10          1           0        2.070652   -1.060683    1.202293
     11          1           0        2.895690   -0.637061   -0.304554
     12          1           0        1.871824   -2.075684   -0.234341
     13          6           0        0.692998    1.781638    0.189882
     14          1           0        0.752971    1.818295    1.285173
     15          1           0       -0.139829    2.416933   -0.121867
     16          1           0        1.612427    2.218140   -0.209480
 ---------------------------------------------------------------------

 SCF Done:  E(UHF) =  -446.882351348     A.U. after    2 cycles

 The electronic state is 2-A.
 Alpha  occ. eigenvalues --  -69.05046 -11.22685 -11.21749 -11.21275 -11.21264
 Alpha  occ. eigenvalues --   -6.80323  -3.91649  -3.90797  -3.90787  -1.01024
 Alpha  occ. eigenvalues --   -0.94590  -0.91939  -0.83655  -0.63087  -0.60543
 Alpha  occ. eigenvalues --   -0.57312  -0.56414  -0.55622  -0.54565  -0.53975
 Alpha  occ. eigenvalues --   -0.50960  -0.49254  -0.43389  -0.41472  -0.29311
 Alpha virt. eigenvalues --    0.03367   0.04410   0.04682   0.04889   0.06472
 Alpha virt. eigenvalues --    0.06569   0.06926   0.07048   0.07318   0.08841
 Alpha virt. eigenvalues --    0.09270   0.09764   0.10217   0.10804   0.14471

  Beta  occ. eigenvalues --  -69.04522 -11.22687 -11.21666 -11.21207 -11.21187
  Beta  occ. eigenvalues --   -6.79535  -3.90446  -3.90439  -3.89600  -1.00737
  Beta  occ. eigenvalues --   -0.93973  -0.91610  -0.83344  -0.60776  -0.59866
  Beta  occ. eigenvalues --   -0.56840  -0.55686  -0.54849  -0.54020  -0.53676
  Beta  occ. eigenvalues --   -0.50760  -0.48991  -0.42577  -0.40627
  Beta virt. eigenvalues --    0.02804   0.04440   0.04727   0.04905   0.06357
  Beta virt. eigenvalues --    0.06569   0.06844   0.06955   0.07183   0.08855
  Beta virt. eigenvalues --    0.09056   0.09483   0.09842   0.10418   0.11047

 Mulliken charges and spin densities:
               1          2
     1  Si   1.115043   1.048469
     2  C    0.187378  -0.066591
     3  C    0.187933   0.042486
     4  H   -0.127737   0.007362
     5  H   -0.249244  -0.013554
     6  H   -0.115792   0.000564
     7  H   -0.074139  -0.002190
     8  H   -0.107546  -0.000468
     9  C    0.295985  -0.006536
    10  H   -0.163398   0.013332
    11  H   -0.257058  -0.012033
    12  H   -0.266789  -0.007490
    13  C    0.279230   0.005512
    14  H   -0.164579   0.014870
    15  H   -0.266014  -0.015205
    16  H   -0.273274  -0.008527
 Sum of Mulliken charges =   0.00000   1.00000

 Dipole moment (field-independent basis, Debye):
    X=              0.0063    Y=             -0.0617    Z=              0.5953  Tot=              0.5985
                          Isotropic Fermi Contact Couplings
        Atom                 a.u.       MegaHertz       Gauss      10(-4) cm-1
     1  Si(29)             0.49120    -436.54177    -155.76896    -145.61466
     2  C(13)              0.01870      21.02306       7.50155       7.01254
     3  C(13)              0.00076       0.85238       0.30415       0.28432
     4  H(1)               0.00697      31.16231      11.11949      10.39463
     5  H(1)              -0.00016      -0.71488      -0.25509      -0.23846
     6  H(1)              -0.00007      -0.30309      -0.10815      -0.10110
     7  H(1)              -0.00047      -2.10571      -0.75137      -0.70239
     8  H(1)              -0.00025      -1.10276      -0.39349      -0.36784

 Normal termination of Gaussian 16 at Tue Apr  8 23:44:52 2025.
