 Gaussian 16, Revision C.01,

 ----------------------------------------------------------------------
 #t hf aug-cc-pvdz symm=none int=(grid=ultrafine) guess=(read,tcheck) s
 table=opt
 ----------------------------------------------------------------------
 -----
 title
 -----
 Symbolic Z-matrix:
 Charge =  0 Multiplicity = 2

 SCF Done:  E(UHF) =  -730.612252355     A.U. after   22 cycles
 Normal termination of Gaussian 16 at Tue Apr  8 23:56:02 2025.
 Gaussian 16:  ES64L-G16RevC.01  3-Jul-2019

 ----------------------------------------------------------------------
 #t hf aug-cc-pvdz iop(5/13=1,5/36=2,99/5=2) pseudo=read geom=check gue
 ss=(read,tcheck) scf=(maxcycle=1)
 ----------------------------------------------------------------------
 -----
 title
 -----
 Structure from the checkpoint file:  "BDE49_nonexpt_200_mol2.chk"
 Charge =  0 Multiplicity = 2

                         Standard orientation:
 ---------------------------------------------------------------------
 Center     Atomic      Atomic             Coordinates (Angstroms)
 Number     Number       Type             X           Y           Z
 ---------------------------------------------------------------------
      1         17           0       -2.574144    0.215345    0.234219
      2          5           0       -1.130817   -0.012038   -0.691921
      3          6           0        0.255105   -0.513975   -0.223526
      4          8           0        0.195388   -1.748852   -0.140910
      5          7           0        1.370376    0.227042   -0.019104
      6          6           0        1.355814    1.673244   -0.124679
      7          1           0        0.373918    2.008982   -0.465113
      8          1           0        2.102338    2.015142   -0.849162
      9          1           0        1.567283    2.144180    0.841636
     10          6           0        2.622467   -0.423629    0.336840
     11          1           0        2.452617   -1.498685    0.357453
     12          1           0        2.964452   -0.091756    1.322708
     13          1           0        3.397887   -0.190855   -0.400430
 ---------------------------------------------------------------------

 SCF Done:  E(UHF) =  -730.714649511     A.U. after    2 cycles

 The electronic state is 2-A.
 Alpha  occ. eigenvalues -- -103.68148 -20.55047 -15.66874 -11.35814 -11.29708
 Alpha  occ. eigenvalues --  -11.27833 -10.71597  -8.37328  -8.37090  -8.37020
 Alpha  occ. eigenvalues --   -7.71050  -1.35207  -1.22996  -1.17687  -0.99162
 Alpha  occ. eigenvalues --   -0.95298  -0.80852  -0.73132  -0.67435  -0.67065
 Alpha  occ. eigenvalues --   -0.64532  -0.58726  -0.58010  -0.57919  -0.57087
 Alpha  occ. eigenvalues --   -0.55125  -0.52105  -0.51110  -0.44722  -0.39631
 Alpha  occ. eigenvalues --   -0.35157
 Alpha virt. eigenvalues --    0.02737   0.04034   0.04230   0.05206   0.06430
 Alpha virt. eigenvalues --    0.06717   0.07058   0.07685   0.07921   0.08607
 Alpha virt. eigenvalues --    0.09295   0.12674   0.12944   0.13456   0.14051

  Beta  occ. eigenvalues -- -103.68079 -20.54699 -15.66880 -11.35791 -11.29702
  Beta  occ. eigenvalues --  -11.27830 -10.71518  -8.37243  -8.37040  -8.36821
  Beta  occ. eigenvalues --   -7.69053  -1.34589  -1.22837  -1.16922  -0.99108
  Beta  occ. eigenvalues --   -0.95045  -0.79067  -0.72575  -0.67132  -0.66917
  Beta  occ. eigenvalues --   -0.62845  -0.58210  -0.57878  -0.57717  -0.55093
  Beta  occ. eigenvalues --   -0.54606  -0.51244  -0.49614  -0.43523  -0.38423
  Beta virt. eigenvalues --    0.02590   0.03737   0.04210   0.04839   0.06539
  Beta virt. eigenvalues --    0.06852   0.07042   0.07367   0.07735   0.09277
  Beta virt. eigenvalues --    0.09432   0.10376   0.12961   0.13030   0.13648

 Mulliken charges and spin densities:
               1          2
     1  Cl  -0.269391   0.019216
     2  B    0.139235   0.988829
     3  C    0.372702  -0.082507
     4  O   -0.579082   0.081923
     5  N   -0.282444  -0.006053
     6  C    0.733244   0.017517
     7  H   -0.282818  -0.011854
     8  H   -0.106640   0.001811
     9  H   -0.096042  -0.001313
    10  C    0.783870  -0.005830
    11  H   -0.214871  -0.001833
    12  H   -0.095977  -0.000394
    13  H   -0.101786   0.000488
 Sum of Mulliken charges =  -0.00000   1.00000

 Dipole moment (field-independent basis, Debye):
    X=              2.5470    Y=              3.9466    Z=              0.1577  Tot=              4.6997
                          Isotropic Fermi Contact Couplings
        Atom                 a.u.       MegaHertz       Gauss      10(-4) cm-1
     1  Cl(35)             0.06529      28.62726      10.21492       9.54902
     2  B(11)              0.33441     479.66258     171.15554     159.99821
     3  C(13)              0.02041      22.94188       8.18623       7.65259
     4  O(17)              0.02923     -17.71799      -6.32222      -5.91008
     5  N(14)             -0.00246      -0.79626      -0.28412      -0.26560
     6  C(13)              0.00047       0.52570       0.18758       0.17535
     7  H(1)              -0.00008      -0.36329      -0.12963      -0.12118
     8  H(1)              -0.00018      -0.80736      -0.28808      -0.26930

 Normal termination of Gaussian 16 at Tue Apr  8 23:56:07 2025.
