 Gaussian 16, Revision C.01,

 ----------------------------------------------------------------------
 #t hf aug-cc-pvdz symm=none int=(grid=ultrafine) guess=(read,tcheck) s
 table=(opt,rrhf)
 ----------------------------------------------------------------------
 -----
 title
 -----
 Symbolic Z-matrix:
 Charge =  0 Multiplicity = 1

 SCF Done:  E(RHF) =  -842.588298183     A.U. after   16 cycles
 Normal termination of Gaussian 16 at Tue Apr  8 22:48:58 2025.
 Gaussian 16:  ES64L-G16RevC.01  3-Jul-2019

 ----------------------------------------------------------------------
 #t hf aug-cc-pvdz iop(5/13=1,5/36=2,99/5=2) pseudo=read geom=check gue
 ss=(read,tcheck) scf=(maxcycle=1)
 ----------------------------------------------------------------------
 -----
 title
 -----
 Structure from the checkpoint file:  "BDE49_expt_1693_mol1.chk"
 Charge =  0 Multiplicity = 1

                         Standard orientation:
 ---------------------------------------------------------------------
 Center     Atomic      Atomic             Coordinates (Angstroms)
 Number     Number       Type             X           Y           Z
 ---------------------------------------------------------------------
      1          6           0        0.598745    1.789345    0.169737
      2          6           0       -0.641097    2.306442   -0.209868
      3          6           0       -1.747207    1.478985   -0.318299
      4          6           0       -1.625974    0.109101   -0.045592
      5          6           0       -0.390781   -0.412685    0.338380
      6          6           0        0.724641    0.429505    0.444968
      7          1           0        1.461953    2.440393    0.247847
      8          1           0       -0.743145    3.364588   -0.422175
      9          6           0        2.045170   -0.138058    0.862424
     10          1           0       -0.274041   -1.467868    0.548350
     11          1           0        2.708955    0.624772    1.261536
     12         17           0        2.964209   -0.881836   -0.548740
     13          1           0        1.940267   -0.946920    1.582206
     14          1           0       -2.717129    1.861513   -0.611532
     15          8           0       -2.767250   -0.621895   -0.178709
     16          6           0       -2.709820   -2.021978    0.059067
     17          1           0       -2.014784   -2.517511   -0.627548
     18          1           0       -3.717413   -2.394042   -0.118002
     19          1           0       -2.420270   -2.242490    1.092664
 ---------------------------------------------------------------------

 SCF Done:  E(RHF) =  -842.722857794     A.U. after    2 cycles

 The electronic state is 1-A.
 Alpha  occ. eigenvalues -- -103.64611 -20.60551 -11.31968 -11.31438 -11.30200
 Alpha  occ. eigenvalues --  -11.26792 -11.25610 -11.24923 -11.24575 -11.24522
 Alpha  occ. eigenvalues --  -10.67845  -8.33557  -8.33274  -8.33269  -1.37549
 Alpha  occ. eigenvalues --   -1.16901  -1.13643  -1.04268  -1.02081  -0.95782
 Alpha  occ. eigenvalues --   -0.92139  -0.83035  -0.81359  -0.72693  -0.69141
 Alpha  occ. eigenvalues --   -0.68038  -0.67130  -0.63634  -0.61902  -0.60162
 Alpha  occ. eigenvalues --   -0.58206  -0.56707  -0.54029  -0.53240  -0.52595
 Alpha  occ. eigenvalues --   -0.50179  -0.47786  -0.44638  -0.44477  -0.34908
 Alpha  occ. eigenvalues --   -0.32494
 Alpha virt. eigenvalues --    0.03137   0.03785   0.03960   0.05244   0.05491
 Alpha virt. eigenvalues --    0.05967   0.07014   0.07985   0.08097   0.09386
 Alpha virt. eigenvalues --    0.09616   0.10490   0.11432   0.11969   0.12591

 Mulliken charges:
               1
     1  C    0.456716
     2  C    0.451456
     3  C    0.382869
     4  C    0.489558
     5  C    0.127659
     6  C    0.875339
     7  H   -0.568230
     8  H   -0.432147
     9  C    0.350614
    10  H   -0.771797
    11  H   -0.210776
    12  Cl  -0.158358
    13  H   -0.101840
    14  H   -0.539817
    15  O   -0.702289
    16  C    0.811346
    17  H   -0.068892
    18  H   -0.318513
    19  H   -0.072898
 Sum of Mulliken charges =  -0.00000

 Dipole moment (field-independent basis, Debye):
    X=             -1.1630    Y=             -0.1898    Z=              1.8587  Tot=              2.2008

 Test job not archived.
 1\1\GINC-SE454\SP\RHF\Aug-CC-pVDZ\C8H9Cl1O1\OHZDE\08-Apr-2025\0\\#t hf
  aug-cc-pvdz iop(5/13=1,5/36=2,99/5=2) pseudo=read geom=check guess=(r
 ead,tcheck) scf=(maxcycle=1)\\title\\0,1\C,0,0.598745,1.789345,0.16973
 7\C,0,-0.641097,2.306442,-0.209868\C,0,-1.747207,1.478985,-0.318299\C,
 0,-1.625974,0.109101,-0.045592\C,0,-0.390781,-0.412685,0.33838\C,0,0.7
 24641,0.429505,0.444968\H,0,1.461953,2.440393,0.247847\H,0,-0.743145,3
 .364588,-0.422175\C,0,2.04517,-0.138058,0.862424\H,0,-0.274041,-1.4678
 68,0.54835\H,0,2.708955,0.624772,1.261536\Cl,0,2.964209,-0.881836,-0.5

 Normal termination of Gaussian 16 at Tue Apr  8 22:49:08 2025.
