 Gaussian 16, Revision C.01,

 ----------------------------------------------------------------------
 #t hf aug-cc-pvdz symm=none int=(grid=ultrafine) guess=(read,tcheck) s
 table=(opt,rrhf)
 ----------------------------------------------------------------------
 -----
 title
 -----
 Symbolic Z-matrix:
 Charge =  0 Multiplicity = 1

 SCF Done:  E(RHF) =  -853.654955316     A.U. after   16 cycles
 Normal termination of Gaussian 16 at Tue Apr  8 22:38:35 2025.
 Gaussian 16:  ES64L-G16RevC.01  3-Jul-2019

 ----------------------------------------------------------------------
 #t hf aug-cc-pvdz iop(5/13=1,5/36=2,99/5=2) pseudo=read geom=check gue
 ss=(read,tcheck) scf=(maxcycle=1)
 ----------------------------------------------------------------------
 -----
 title
 -----
 Structure from the checkpoint file:  "BDE49_expt_1237_mol1.chk"
 Charge =  0 Multiplicity = 1

                         Standard orientation:
 ---------------------------------------------------------------------
 Center     Atomic      Atomic             Coordinates (Angstroms)
 Number     Number       Type             X           Y           Z
 ---------------------------------------------------------------------
      1          6           0        1.587329    0.336184    0.000000
      2          6           0        1.217745   -1.004485    0.000000
      3          6           0       -0.128851   -1.338246    0.000000
      4          6           0        0.618135    1.337523    0.000000
      5          6           0       -0.726660    0.999112    0.000000
      6          6           0       -1.124394   -0.349489    0.000000
      7          9           0        2.872824    0.666790    0.000000
      8          9           0        2.155592   -1.952089    0.000000
      9          9           0       -0.458940   -2.624915    0.000000
     10          9           0        0.996160    2.616543    0.000000
     11          9           0       -1.613582    1.986507    0.000000
     12          7           0       -2.484009   -0.854546    0.000000
     13          8           0       -3.355029   -0.017161   -0.000001
 ---------------------------------------------------------------------

 SCF Done:  E(RHF) =  -853.939324714     A.U. after    2 cycles

 The electronic state is 1-A.
 Alpha  occ. eigenvalues --  -26.20313 -26.19514 -26.19278 -26.19273 -26.19218
 Alpha  occ. eigenvalues --  -20.67431 -15.80727 -11.42344 -11.42051 -11.41917
 Alpha  occ. eigenvalues --  -11.40460 -11.40431 -11.34665  -1.74888  -1.74067
 Alpha  occ. eigenvalues --   -1.73865  -1.72961  -1.72756  -1.49938  -1.24543
 Alpha  occ. eigenvalues --   -1.13747  -1.11146  -1.02420  -0.97588  -0.93780
 Alpha  occ. eigenvalues --   -0.89859  -0.89435  -0.86300  -0.83732  -0.83212
 Alpha  occ. eigenvalues --   -0.83197  -0.82018  -0.81479  -0.80942  -0.79507
 Alpha  occ. eigenvalues --   -0.79251  -0.77710  -0.77559  -0.76526  -0.71512
 Alpha  occ. eigenvalues --   -0.68649  -0.67198  -0.64527  -0.64177  -0.56520
 Alpha  occ. eigenvalues --   -0.44897  -0.41576  -0.40858
 Alpha virt. eigenvalues --    0.00362   0.04621   0.06469   0.07014   0.07981
 Alpha virt. eigenvalues --    0.08914   0.08916   0.09198   0.11231   0.11730
 Alpha virt. eigenvalues --    0.11913   0.12217   0.13026   0.14128   0.14345

 Mulliken charges:
               1
     1  C    0.485423
     2  C    0.284860
     3  C    0.153015
     4  C    0.202622
     5  C    0.471137
     6  C    0.249200
     7  F   -0.248933
     8  F   -0.199191
     9  F   -0.228481
    10  F   -0.212717
    11  F   -0.209279
    12  N   -0.369373
    13  O   -0.378283
 Sum of Mulliken charges =  -0.00000

 Dipole moment (field-independent basis, Debye):
    X=              1.3319    Y=             -0.1591    Z=              0.0000  Tot=              1.3414

 Test job not archived.
 1\1\GINC-SE453\SP\RHF\Aug-CC-pVDZ\C6F5N1O1\OHZDE\08-Apr-2025\0\\#t hf
 aug-cc-pvdz iop(5/13=1,5/36=2,99/5=2) pseudo=read geom=check guess=(re
 ad,tcheck) scf=(maxcycle=1)\\title\\0,1\C,0,-1.587329,0.336184,0.\C,0,
 -1.217745,-1.004485,0.\C,0,0.128851,-1.338246,0.\C,0,-0.618135,1.33752
 3,0.\C,0,0.72666,0.999112,0.\C,0,1.124394,-0.349489,0.\F,0,-2.872824,0
 .66679,0.\F,0,-2.155592,-1.952089,0.\F,0,0.45894,-2.624915,0.\F,0,-0.9
 9616,2.616543,0.\F,0,1.613582,1.986507,0.\N,0,2.484009,-0.854546,0.\O,
 0,3.355029,-0.017161,0.000001\\Version=ES64L-G16RevC.01\State=1-A\HF=-

 Normal termination of Gaussian 16 at Tue Apr  8 22:38:43 2025.
