 Gaussian 16, Revision C.01,

 ----------------------------------------------------------------------
 #t hf aug-cc-pvdz symm=none int=(grid=ultrafine) guess=(read,tcheck) s
 table=(opt,rrhf)
 ----------------------------------------------------------------------
 -----
 title
 -----
 Symbolic Z-matrix:
 Charge =  0 Multiplicity = 1

 SCF Done:  E(RHF) =  -1090.00005599     A.U. after   14 cycles
 Normal termination of Gaussian 16 at Wed Apr  9 00:07:05 2025.
 Gaussian 16:  ES64L-G16RevC.01  3-Jul-2019

 ----------------------------------------------------------------------
 #t hf aug-cc-pvdz iop(5/13=1,5/36=2,99/5=2) pseudo=read geom=check gue
 ss=(read,tcheck) scf=(maxcycle=1)
 ----------------------------------------------------------------------
 -----
 title
 -----
 Structure from the checkpoint file:  "BDE49_nonexpt_2270_mol1.chk"
 Charge =  0 Multiplicity = 1

                         Standard orientation:
 ---------------------------------------------------------------------
 Center     Atomic      Atomic             Coordinates (Angstroms)
 Number     Number       Type             X           Y           Z
 ---------------------------------------------------------------------
      1          6           0        2.006211   -0.000000    0.109177
      2          6           0        1.316640    1.202408    0.004426
      3          6           0       -0.056674    1.198465   -0.205634
      4          6           0        1.316641   -1.202408    0.004426
      5          6           0       -0.056673   -1.198465   -0.205634
      6          6           0       -0.765401   -0.000000   -0.318250
      7          9           0        3.326266    0.000001    0.313015
      8          9           0        1.976366    2.359640    0.108358
      9          9           0       -0.710852    2.362183   -0.300748
     10          9           0        1.976367   -2.359639    0.108358
     11          9           0       -0.710851   -2.362183   -0.300747
     12          8           0       -2.090975   -0.000001   -0.588227
     13         14           0       -3.380307   -0.000000    0.481273
     14          1           0       -4.571542   -0.000003   -0.381985
     15          1           0       -3.328249    1.206850    1.332395
     16          1           0       -3.328246   -1.206846    1.332400
 ---------------------------------------------------------------------

 SCF Done:  E(RHF) =  -1090.30179669     A.U. after    2 cycles

 The electronic state is 1-A.
 Alpha  occ. eigenvalues --  -69.12371 -26.17864 -26.17861 -26.17835 -26.17651
 Alpha  occ. eigenvalues --  -26.17649 -20.62221 -11.39161 -11.39124 -11.38964
 Alpha  occ. eigenvalues --  -11.38636 -11.38632 -11.37144  -6.87157  -3.98079
 Alpha  occ. eigenvalues --   -3.97903  -3.97876  -1.72601  -1.72166  -1.71657
 Alpha  occ. eigenvalues --   -1.71206  -1.70976  -1.38631  -1.21537  -1.09096
 Alpha  occ. eigenvalues --   -1.07918  -0.95921  -0.95351  -0.87766  -0.87552
 Alpha  occ. eigenvalues --   -0.86392  -0.81816  -0.81398  -0.81320  -0.80250
 Alpha  occ. eigenvalues --   -0.80076  -0.79838  -0.78896  -0.77965  -0.77591
 Alpha  occ. eigenvalues --   -0.76048  -0.75723  -0.70024  -0.69646  -0.65298
 Alpha  occ. eigenvalues --   -0.64357  -0.64087  -0.57959  -0.54434  -0.50333
 Alpha  occ. eigenvalues --   -0.48935  -0.39250  -0.38019
 Alpha virt. eigenvalues --    0.03296   0.04186   0.05181   0.05780   0.07247
 Alpha virt. eigenvalues --    0.07600   0.08211   0.08656   0.09293   0.09429
 Alpha virt. eigenvalues --    0.09869   0.10363   0.10672   0.11772   0.12566

 Mulliken charges:
               1
     1  C    0.470638
     2  C    0.178976
     3  C    0.435933
     4  C    0.178977
     5  C    0.435931
     6  C    0.154393
     7  F   -0.256474
     8  F   -0.232095
     9  F   -0.263313
    10  F   -0.232093
    11  F   -0.263314
    12  O   -1.110285
    13  Si   0.326275
    14  H    0.097678
    15  H    0.039386
    16  H    0.039386
 Sum of Mulliken charges =  -0.00000

 Dipole moment (field-independent basis, Debye):
    X=             -2.4513    Y=             -0.0000    Z=              0.7122  Tot=              2.5526

 Test job not archived.
 1\1\GINC-SE069\SP\RHF\Aug-CC-pVDZ\C6H3F5O1Si1\OHZDE\09-Apr-2025\0\\#t
 hf aug-cc-pvdz iop(5/13=1,5/36=2,99/5=2) pseudo=read geom=check guess=
 (read,tcheck) scf=(maxcycle=1)\\title\\0,1\C,0,2.006211,0.,0.109177\C,
 0,1.31664,1.202408,0.004426\C,0,-0.056674,1.198465,-0.205634\C,0,1.316
 641,-1.202408,0.004426\C,0,-0.056673,-1.198465,-0.205634\C,0,-0.765401
 ,0.,-0.31825\F,0,3.326266,0.000001,0.313015\F,0,1.976366,2.35964,0.108
 358\F,0,-0.710852,2.362183,-0.300748\F,0,1.976367,-2.359639,0.108358\F
 ,0,-0.710851,-2.362183,-0.300747\O,0,-2.090975,-0.000001,-0.588227\Si,

 Normal termination of Gaussian 16 at Wed Apr  9 00:07:15 2025.
