 Gaussian 16, Revision C.01,

 ----------------------------------------------------------------------
 #t hf aug-cc-pvdz symm=none int=(grid=ultrafine) guess=(read,tcheck) s
 table=(opt,rrhf)
 ----------------------------------------------------------------------
 -----
 title
 -----
 Symbolic Z-matrix:
 Charge =  0 Multiplicity = 1

 SCF Done:  E(RHF) =  -1914.90825605     A.U. after   13 cycles

 1\1\GINC-SE073\Stability\RHF\Aug-CC-pVDZ\C2H2Cl4\OHZDE\08-Apr-2025\0\\
 #t hf aug-cc-pvdz symm=none int=(grid=ultrafine) guess=(read,tcheck) s
 table=(opt,rrhf)\\title\\0,1\C,0,0.384828,0.,0.050867\C,0,-0.746769,0.
 ,1.08224\Cl,0,0.333729,-1.464008,-0.977773\Cl,0,1.924182,0.,0.997168\C
 l,0,0.333729,1.464008,-0.977773\Cl,0,-2.386506,0.,0.358893\H,0,-0.6578
 23,0.893206,1.696307\H,0,-0.657823,-0.893206,1.696307\\Version=ES64L-G
 16RevC.01\HF=-1914.908256\RMSD=3.593e-09\Dipole=0.1081339,0.,0.613001\
 Quadrupole=-2.6787233,0.5480165,2.1307068,0.,-0.0953152,0.\PG=Unknown\

 Normal termination of Gaussian 16 at Tue Apr  8 22:27:21 2025.
 Gaussian 16:  ES64L-G16RevC.01  3-Jul-2019

 ----------------------------------------------------------------------
 #t hf aug-cc-pvdz iop(5/13=1,5/36=2,99/5=2) pseudo=read geom=check gue
 ss=(read,tcheck) scf=(maxcycle=1)
 ----------------------------------------------------------------------
 -----
 title
 -----
 Structure from the checkpoint file:  "BDE49_expt_1013_mol1.chk"
 Charge =  0 Multiplicity = 1

                         Standard orientation:
 ---------------------------------------------------------------------
 Center     Atomic      Atomic             Coordinates (Angstroms)
 Number     Number       Type             X           Y           Z
 ---------------------------------------------------------------------
      1          6           0        0.267817    0.280988    0.000000
      2          6           0       -1.260416    0.374511   -0.000000
      3         17           0        0.873199   -0.552213    1.464008
      4         17           0        0.873199    1.983518    0.000000
      5         17           0        0.873199   -0.552213   -1.464008
      6         17           0       -2.083821   -1.217335   -0.000000
      7          1           0       -1.576294    0.908562   -0.893206
      8          1           0       -1.576294    0.908562    0.893206
 ---------------------------------------------------------------------

 SCF Done:  E(RHF) =  -1915.00452575     A.U. after    2 cycles

 The electronic state is 1-A'.
 Alpha  occ. eigenvalues -- -103.69901-103.69527-103.69526-103.67590 -11.46529
 Alpha  occ. eigenvalues --  -11.35022 -10.73180 -10.72835 -10.72814 -10.70865
 Alpha  occ. eigenvalues --   -8.38894  -8.38565  -8.38558  -8.38547  -8.38541
 Alpha  occ. eigenvalues --   -8.38206  -8.38203  -8.38200  -8.38200  -8.36590
 Alpha  occ. eigenvalues --   -8.36282  -8.36268  -1.27817  -1.18440  -1.16432
 Alpha  occ. eigenvalues --   -1.16424  -1.00287  -0.82969  -0.69910  -0.67490
 Alpha  occ. eigenvalues --   -0.65469  -0.60758  -0.57812  -0.52098  -0.51775
 Alpha  occ. eigenvalues --   -0.49964  -0.48296  -0.48244  -0.47362  -0.46976
 Alpha  occ. eigenvalues --   -0.46692
 Alpha virt. eigenvalues --    0.03903   0.05495   0.06593   0.07118   0.08820
 Alpha virt. eigenvalues --    0.09167   0.09566   0.12583   0.13284   0.13978
 Alpha virt. eigenvalues --    0.14177   0.16436   0.16576   0.16677   0.17115

 Mulliken charges:
               1
     1  C   -0.593617
     2  C    0.395192
     3  Cl   0.028699
     4  Cl   0.033646
     5  Cl   0.028699
     6  Cl  -0.069948
     7  H    0.088663
     8  H    0.088663
 Sum of Mulliken charges =  -0.00000

 Dipole moment (field-independent basis, Debye):
    X=             -0.7993    Y=              1.4351    Z=              0.0000  Tot=              1.6427

 Test job not archived.
 1\1\GINC-SE073\SP\RHF\Aug-CC-pVDZ\C2H2Cl4\OHZDE\08-Apr-2025\0\\#t hf a
 ug-cc-pvdz iop(5/13=1,5/36=2,99/5=2) pseudo=read geom=check guess=(rea
 d,tcheck) scf=(maxcycle=1)\\title\\0,1\C,0,0.384828,0.,0.050867\C,0,-0
 .746769,0.,1.08224\Cl,0,0.333729,-1.464008,-0.977773\Cl,0,1.924182,0.,
 0.997168\Cl,0,0.333729,1.464008,-0.977773\Cl,0,-2.386506,0.,0.358893\H
 ,0,-0.657823,0.893206,1.696307\H,0,-0.657823,-0.893206,1.696307\\Versi
 on=ES64L-G16RevC.01\State=1-A'\HF=-1915.0045257\RMSD=4.903e-03\Dipole=
 0.1092146,0.,0.6370048\Quadrupole=-2.7385327,0.5668367,2.171696,0.,-0.

 Normal termination of Gaussian 16 at Tue Apr  8 22:27:24 2025.
