 Gaussian 16, Revision C.01,

 ----------------------------------------------------------------------
 #t hf aug-cc-pvdz symm=none int=(grid=ultrafine) guess=(read,tcheck) s
 table=(opt,rrhf)
 ----------------------------------------------------------------------
 -----
 title
 -----
 Symbolic Z-matrix:
 Charge =  0 Multiplicity = 1

 SCF Done:  E(RHF) =  -640.450825826     A.U. after   13 cycles
 Normal termination of Gaussian 16 at Wed Apr  9 00:42:21 2025.
 Gaussian 16:  ES64L-G16RevC.01  3-Jul-2019

 ----------------------------------------------------------------------
 #t hf aug-cc-pvdz iop(5/13=1,5/36=2,99/5=2) pseudo=read geom=check gue
 ss=(read,tcheck) scf=(maxcycle=1)
 ----------------------------------------------------------------------
 -----
 title
 -----
 Structure from the checkpoint file:  "BDE49_nonexpt_756_mol1.chk"
 Charge =  0 Multiplicity = 1

                         Standard orientation:
 ---------------------------------------------------------------------
 Center     Atomic      Atomic             Coordinates (Angstroms)
 Number     Number       Type             X           Y           Z
 ---------------------------------------------------------------------
      1         15           0       -0.591606    0.021477    0.548449
      2          5           0        1.147068   -0.724167   -0.019914
      3          9           0       -1.512880   -0.897357   -0.438139
      4          9           0       -0.553639    1.389230   -0.333959
      5          8           0        2.181184    0.130943   -0.082390
      6          1           0        3.023298   -0.276110   -0.315171
      7          1           0        1.264652   -1.899613   -0.203992
 ---------------------------------------------------------------------

 SCF Done:  E(RHF) =  -640.591191676     A.U. after    2 cycles

 The electronic state is 1-A.
 Alpha  occ. eigenvalues --  -81.37448 -26.12795 -26.12709 -20.62668  -7.86366
 Alpha  occ. eigenvalues --   -7.67701  -5.00509  -5.00207  -4.99729  -1.65601
 Alpha  occ. eigenvalues --   -1.64363  -1.36924  -0.88553  -0.81610  -0.77725
 Alpha  occ. eigenvalues --   -0.75510  -0.75341  -0.72767  -0.70022  -0.68587
 Alpha  occ. eigenvalues --   -0.61537  -0.59200  -0.52086  -0.37315
 Alpha virt. eigenvalues --    0.02840   0.03887   0.05233   0.05582   0.07761
 Alpha virt. eigenvalues --    0.07906   0.09465   0.10713   0.11263   0.11783
 Alpha virt. eigenvalues --    0.16405   0.18198   0.20277   0.20654   0.20952

 Mulliken charges:
               1
     1  P    1.015394
     2  B    0.308302
     3  F   -0.633525
     4  F   -0.639025
     5  O   -0.386305
     6  H    0.201119
     7  H    0.134039
 Sum of Mulliken charges =  -0.00000

 Dipole moment (field-independent basis, Debye):
    X=              3.3950    Y=             -1.9350    Z=              0.7209  Tot=              3.9736

 Test job not archived.
 1\1\GINC-SE174\SP\RHF\Aug-CC-pVDZ\B1F2H2O1P1\OHZDE\09-Apr-2025\0\\#t h
 f aug-cc-pvdz iop(5/13=1,5/36=2,99/5=2) pseudo=read geom=check guess=(
 read,tcheck) scf=(maxcycle=1)\\title\\0,1\P,0,-0.591606,0.021477,0.548
 449\B,0,1.147068,-0.724167,-0.019914\F,0,-1.512879,-0.897358,-0.438139
 \F,0,-0.553639,1.38923,-0.333959\O,0,2.181184,0.130944,-0.08239\H,0,3.
 023298,-0.276109,-0.315171\H,0,1.264653,-1.899613,-0.203992\\Version=E
 S64L-G16RevC.01\State=1-A\HF=-640.5911917\RMSD=5.478e-03\Dipole=1.3356
 781,-0.7612934,0.2836087\Quadrupole=3.394365,-2.6628823,-0.7314827,-3.

 Normal termination of Gaussian 16 at Wed Apr  9 00:42:23 2025.
