 Gaussian 16, Revision C.01,

 ----------------------------------------------------------------------
 #t hf aug-cc-pvdz symm=none int=(grid=ultrafine) guess=(read,tcheck) s
 table=(opt,rrhf)
 ----------------------------------------------------------------------
 -----
 title
 -----
 Symbolic Z-matrix:
 Charge =  0 Multiplicity = 1

 SCF Done:  E(RHF) =  -731.178948598     A.U. after   12 cycles

 1\1\GINC-SE366\Stability\RHF\Aug-CC-pVDZ\H6O2Si2\OHZDE\09-Apr-2025\0\\
 #t hf aug-cc-pvdz symm=none int=(grid=ultrafine) guess=(read,tcheck) s
 table=(opt,rrhf)\\title\\0,1\Si,0,-1.20311,-0.529256,-0.000019\O,0,-1.
 55243,1.091741,0.000019\H,0,-0.773448,1.660735,-0.000001\Si,0,1.162656
 ,-0.583045,0.000019\O,0,1.429722,1.071057,-0.00002\H,0,2.327935,1.4106
 77,0.000002\H,0,1.779669,-1.217712,-1.194344\H,0,1.77963,-1.217647,1.1
 94436\H,0,-1.78286,-1.183086,-1.197911\H,0,-1.782909,-1.18314,1.197819
 \\Version=ES64L-G16RevC.01\HF=-731.1789486\RMSD=2.338e-09\Dipole=1.081

 Normal termination of Gaussian 16 at Wed Apr  9 00:06:00 2025.
 Gaussian 16:  ES64L-G16RevC.01  3-Jul-2019

 ----------------------------------------------------------------------
 #t hf aug-cc-pvdz iop(5/13=1,5/36=2,99/5=2) pseudo=read geom=check gue
 ss=(read,tcheck) scf=(maxcycle=1)
 ----------------------------------------------------------------------
 -----
 title
 -----
 Structure from the checkpoint file:  "BDE49_nonexpt_2274_mol1.chk"
 Charge =  0 Multiplicity = 1

                         Standard orientation:
 ---------------------------------------------------------------------
 Center     Atomic      Atomic             Coordinates (Angstroms)
 Number     Number       Type             X           Y           Z
 ---------------------------------------------------------------------
      1         14           0       -1.203110   -0.529256   -0.000019
      2          8           0       -1.552430    1.091741    0.000019
      3          1           0       -0.773448    1.660735   -0.000001
      4         14           0        1.162656   -0.583045    0.000019
      5          8           0        1.429722    1.071057   -0.000020
      6          1           0        2.327935    1.410677    0.000002
      7          1           0        1.779669   -1.217712   -1.194344
      8          1           0        1.779630   -1.217647    1.194436
      9          1           0       -1.782860   -1.183086   -1.197911
     10          1           0       -1.782909   -1.183140    1.197819
 ---------------------------------------------------------------------

 SCF Done:  E(RHF) =  -731.287755163     A.U. after    2 cycles

 The electronic state is 1-A.
 Alpha  occ. eigenvalues --  -69.09647 -69.08892 -20.58567 -20.56213  -6.84523
 Alpha  occ. eigenvalues --   -6.83759  -3.95421  -3.95248  -3.95239  -3.94652
 Alpha  occ. eigenvalues --   -3.94515  -3.94497  -1.31249  -1.29046  -0.77689
 Alpha  occ. eigenvalues --   -0.74230  -0.65674  -0.63680  -0.57802  -0.56002
 Alpha  occ. eigenvalues --   -0.55465  -0.55408  -0.47294  -0.45170  -0.39589
 Alpha virt. eigenvalues --    0.02926   0.04376   0.04677   0.06574   0.06655
 Alpha virt. eigenvalues --    0.07385   0.07718   0.07983   0.08831   0.09608
 Alpha virt. eigenvalues --    0.10446   0.11470   0.13649   0.14455   0.14837

 Mulliken charges:
               1
     1  Si   0.518452
     2  O   -0.888603
     3  H    0.228973
     4  Si   0.678966
     5  O   -0.769522
     6  H    0.106305
     7  H    0.008132
     8  H    0.008135
     9  H    0.054584
    10  H    0.054579
 Sum of Mulliken charges =  -0.00000

 Dipole moment (field-independent basis, Debye):
    X=              2.8688    Y=             -0.4778    Z=              0.0000  Tot=              2.9084

 Test job not archived.
 1\1\GINC-SE366\SP\RHF\Aug-CC-pVDZ\H6O2Si2\OHZDE\09-Apr-2025\0\\#t hf a
 ug-cc-pvdz iop(5/13=1,5/36=2,99/5=2) pseudo=read geom=check guess=(rea
 d,tcheck) scf=(maxcycle=1)\\title\\0,1\Si,0,-1.20311,-0.529256,-0.0000
 19\O,0,-1.55243,1.091741,0.000019\H,0,-0.773448,1.660735,-0.000001\Si,
 0,1.162656,-0.583045,0.000019\O,0,1.429722,1.071057,-0.00002\H,0,2.327
 935,1.410677,0.000002\H,0,1.779669,-1.217712,-1.194344\H,0,1.77963,-1.
 217647,1.194436\H,0,-1.78286,-1.183086,-1.197911\H,0,-1.782909,-1.1831
 4,1.197819\\Version=ES64L-G16RevC.01\State=1-A\HF=-731.2877552\RMSD=4.

 Normal termination of Gaussian 16 at Wed Apr  9 00:06:02 2025.
