 Gaussian 16, Revision C.01,

 ----------------------------------------------------------------------
 #t hf aug-cc-pvdz symm=none int=(grid=ultrafine) guess=(read,tcheck) s
 table=(opt,rrhf)
 ----------------------------------------------------------------------
 -----
 title
 -----
 Symbolic Z-matrix:
 Charge =  0 Multiplicity = 1

 SCF Done:  E(RHF) =  -1163.47799287     A.U. after   15 cycles
 Normal termination of Gaussian 16 at Wed Apr  9 00:18:05 2025.
 Gaussian 16:  ES64L-G16RevC.01  3-Jul-2019

 ----------------------------------------------------------------------
 #t hf aug-cc-pvdz iop(5/13=1,5/36=2,99/5=2) pseudo=read geom=check gue
 ss=(read,tcheck) scf=(maxcycle=1)
 ----------------------------------------------------------------------
 -----
 title
 -----
 Structure from the checkpoint file:  "BDE49_nonexpt_2585_mol1.chk"
 Charge =  0 Multiplicity = 1

                         Standard orientation:
 ---------------------------------------------------------------------
 Center     Atomic      Atomic             Coordinates (Angstroms)
 Number     Number       Type             X           Y           Z
 ---------------------------------------------------------------------
      1         17           0        2.515344   -0.062236    0.220071
      2         16           0        0.879340   -0.490939   -0.990081
      3          6           0       -0.549156   -0.201058    0.216640
      4          8           0       -1.570756   -0.334631   -0.745436
      5          8           0       -0.537088    1.037049    0.831984
      6          6           0       -2.907585   -0.459298   -0.249769
      7          1           0       -3.556350   -0.356633   -1.118246
      8          1           0       -3.133921    0.331965    0.470511
      9          1           0       -3.076046   -1.436950    0.211032
     10          6           0       -0.494791    2.197206   -0.008482
     11          1           0       -0.719861    3.039346    0.643998
     12          1           0       -1.235909    2.133248   -0.807255
     13          1           0        0.499574    2.322078   -0.442710
     14          6           0       -0.560429   -1.245918    1.319424
     15          1           0       -0.675875   -2.242068    0.892606
     16          1           0       -1.374496   -1.041578    2.018222
     17          1           0        0.377120   -1.201302    1.872685
 ---------------------------------------------------------------------

 SCF Done:  E(RHF) =  -1163.61582775     A.U. after    2 cycles

 The electronic state is 1-A.
 Alpha  occ. eigenvalues -- -103.66870 -93.58484 -20.60252 -20.59816 -11.40523
 Alpha  occ. eigenvalues --  -11.30342 -11.28978 -11.24342 -10.70014  -8.87813
 Alpha  occ. eigenvalues --   -8.35746  -8.35418  -8.35389  -6.21930  -6.21621
 Alpha  occ. eigenvalues --   -6.21250  -1.40252  -1.33000  -1.15648  -1.05107
 Alpha  occ. eigenvalues --   -0.97532  -0.93811  -0.90258  -0.79331  -0.72491
 Alpha  occ. eigenvalues --   -0.69853  -0.68528  -0.64080  -0.62666  -0.61297
 Alpha  occ. eigenvalues --   -0.57294  -0.55464  -0.54712  -0.53639  -0.51418
 Alpha  occ. eigenvalues --   -0.50450  -0.49685  -0.48103  -0.47957  -0.41994
 Alpha  occ. eigenvalues --   -0.36338
 Alpha virt. eigenvalues --    0.03170   0.04407   0.04575   0.05434   0.06039
 Alpha virt. eigenvalues --    0.06351   0.06798   0.07284   0.08053   0.09112
 Alpha virt. eigenvalues --    0.10031   0.11049   0.13060   0.13217   0.13718

 Mulliken charges:
               1
     1  Cl  -0.366888
     2  S    0.319595
     3  C    0.136184
     4  O   -0.672128
     5  O   -0.665594
     6  C    0.847795
     7  H   -0.247572
     8  H   -0.056994
     9  H   -0.115323
    10  C    0.774313
    11  H   -0.229391
    12  H   -0.068781
    13  H   -0.082582
    14  C    0.506760
    15  H    0.000598
    16  H   -0.013801
    17  H   -0.066193
 Sum of Mulliken charges =  -0.00000

 Dipole moment (field-independent basis, Debye):
    X=             -3.3879    Y=              0.2143    Z=              0.5385  Tot=              3.4371

 Test job not archived.
 1\1\GINC-SE159\SP\RHF\Aug-CC-pVDZ\C4H9Cl1O2S1\OHZDE\09-Apr-2025\0\\#t
 hf aug-cc-pvdz iop(5/13=1,5/36=2,99/5=2) pseudo=read geom=check guess=
 (read,tcheck) scf=(maxcycle=1)\\title\\0,1\Cl,0,2.515344,-0.062236,0.2
 20071\S,0,0.87934,-0.490939,-0.990081\C,0,-0.549156,-0.201058,0.21664\
 O,0,-1.570756,-0.334631,-0.745436\O,0,-0.537088,1.037049,0.831984\C,0,
 -2.907585,-0.459298,-0.249769\H,0,-3.55635,-0.356633,-1.118246\H,0,-3.
 133921,0.331965,0.470511\H,0,-3.076046,-1.43695,0.211032\C,0,-0.494791
 ,2.197206,-0.008482\H,0,-0.719861,3.039346,0.643998\H,0,-1.235909,2.13

 Normal termination of Gaussian 16 at Wed Apr  9 00:18:14 2025.
