 Gaussian 16, Revision C.01,

 ----------------------------------------------------------------------
 #t hf aug-cc-pvdz symm=none int=(grid=ultrafine) guess=(read,tcheck) s
 table=(opt,rrhf)
 ----------------------------------------------------------------------
 -----
 title
 -----
 Symbolic Z-matrix:
 Charge =  0 Multiplicity = 1

 SCF Done:  E(RHF) =  -634.732362930     A.U. after   13 cycles
 Normal termination of Gaussian 16 at Wed Apr  9 00:40:21 2025.
 Gaussian 16:  ES64L-G16RevC.01  3-Jul-2019

 ----------------------------------------------------------------------
 #t hf aug-cc-pvdz iop(5/13=1,5/36=2,99/5=2) pseudo=read geom=check gue
 ss=(read,tcheck) scf=(maxcycle=1)
 ----------------------------------------------------------------------
 -----
 title
 -----
 Structure from the checkpoint file:  "BDE49_nonexpt_684_mol1.chk"
 Charge =  0 Multiplicity = 1

                         Standard orientation:
 ---------------------------------------------------------------------
 Center     Atomic      Atomic             Coordinates (Angstroms)
 Number     Number       Type             X           Y           Z
 ---------------------------------------------------------------------
      1         15           0       -0.570472    1.313413   -0.218215
      2          5           0       -1.589084   -0.331762   -0.032391
      3          8           0       -1.231092   -1.398966   -0.800640
      4          8           0       -2.712210   -0.445233    0.744169
      5          6           0        1.167855    0.680766   -0.502864
      6          6           0        1.763636   -0.254914    0.555052
      7          1           0        1.804316    1.562545   -0.631903
      8          1           0        1.136532    0.178711   -1.475576
      9          6           0        3.197878   -0.684945    0.225879
     10          1           0        1.128534   -1.140962    0.645474
     11          1           0        1.746066    0.244355    1.530321
     12          1           0        3.240660   -1.217653   -0.728976
     13          1           0        3.597572   -1.350558    0.996125
     14          1           0        3.865625    0.179285    0.154044
     15          1           0       -1.849016   -2.134244   -0.705024
     16          1           0       -2.911633    0.336956    1.264735
     17          1           0       -0.485948    1.607321    1.169327
 ---------------------------------------------------------------------

 SCF Done:  E(RHF) =  -634.851952998     A.U. after    2 cycles

 The electronic state is 1-A.
 Alpha  occ. eigenvalues --  -81.23309 -20.59258 -20.58573 -11.23933 -11.23280
 Alpha  occ. eigenvalues --  -11.22399  -7.73879  -7.67370  -4.87924  -4.87862
 Alpha  occ. eigenvalues --   -4.87598  -1.35256  -1.31492  -1.05074  -0.93327
 Alpha  occ. eigenvalues --   -0.81533  -0.79600  -0.76834  -0.72988  -0.63863
 Alpha  occ. eigenvalues --   -0.62662  -0.59899  -0.59055  -0.58028  -0.54800
 Alpha  occ. eigenvalues --   -0.53682  -0.52895  -0.49043  -0.47883  -0.46405
 Alpha  occ. eigenvalues --   -0.43158  -0.33167
 Alpha virt. eigenvalues --    0.03105   0.04152   0.04707   0.05042   0.05889
 Alpha virt. eigenvalues --    0.06589   0.06736   0.07335   0.07703   0.08719
 Alpha virt. eigenvalues --    0.09087   0.09455   0.10198   0.11622   0.11991

 Mulliken charges:
               1
     1  P   -0.069043
     2  B    0.923499
     3  O   -0.548416
     4  O   -0.526620
     5  C   -0.016942
     6  C    0.045851
     7  H   -0.172773
     8  H   -0.111588
     9  C    0.480234
    10  H   -0.169619
    11  H   -0.119230
    12  H   -0.071719
    13  H   -0.073666
    14  H   -0.075908
    15  H    0.201230
    16  H    0.190472
    17  H    0.114239
 Sum of Mulliken charges =  -0.00000

 Dipole moment (field-independent basis, Debye):
    X=             -0.0105    Y=             -0.3706    Z=              1.2570  Tot=              1.3105

 Test job not archived.
 1\1\GINC-SE362\SP\RHF\Aug-CC-pVDZ\C3H10B1O2P1\OHZDE\09-Apr-2025\0\\#t
 hf aug-cc-pvdz iop(5/13=1,5/36=2,99/5=2) pseudo=read geom=check guess=
 (read,tcheck) scf=(maxcycle=1)\\title\\0,1\P,0,-0.570472,1.313413,-0.2
 18215\B,0,-1.589084,-0.331762,-0.032391\O,0,-1.231092,-1.398966,-0.800
 64\O,0,-2.71221,-0.445233,0.744169\C,0,1.167855,0.680766,-0.502864\C,0
 ,1.763636,-0.254914,0.555052\H,0,1.804316,1.562545,-0.631903\H,0,1.136
 532,0.178711,-1.475576\C,0,3.197878,-0.684945,0.225879\H,0,1.128534,-1
 .140962,0.645474\H,0,1.746066,0.244355,1.530321\H,0,3.24066,-1.217653,

 Normal termination of Gaussian 16 at Wed Apr  9 00:40:27 2025.
