 Gaussian 16, Revision C.01,

 ----------------------------------------------------------------------
 #t hf aug-cc-pvdz symm=none int=(grid=ultrafine) guess=(read,tcheck) s
 table=(opt,rrhf)
 ----------------------------------------------------------------------
 -----
 title
 -----
 Symbolic Z-matrix:
 Charge =  0 Multiplicity = 1

 SCF Done:  E(RHF) =  -1767.12079076     A.U. after   10 cycles
 Normal termination of Gaussian 16 at Tue Apr  8 23:47:15 2025.
 Gaussian 16:  ES64L-G16RevC.01  3-Jul-2019

 ----------------------------------------------------------------------
 #t hf aug-cc-pvdz iop(5/13=1,5/36=2,99/5=2) pseudo=read geom=check gue
 ss=(read,tcheck) scf=(maxcycle=1)
 ----------------------------------------------------------------------
 -----
 title
 -----
 Structure from the checkpoint file:  "BDE49_nonexpt_1823_mol1.chk"
 Charge =  0 Multiplicity = 1

                         Standard orientation:
 ---------------------------------------------------------------------
 Center     Atomic      Atomic             Coordinates (Angstroms)
 Number     Number       Type             X           Y           Z
 ---------------------------------------------------------------------
      1         14           0        0.000002   -0.000004    0.245957
      2         17           0       -1.645822   -1.011053   -0.390625
      3         17           0        1.698525   -0.919771   -0.390625
      4          9           0       -0.000001    0.000070    1.831190
      5         17           0       -0.052704    1.930790   -0.390757
 ---------------------------------------------------------------------

 SCF Done:  E(RHF) =  -1767.25245061     A.U. after    2 cycles

 The electronic state is 1-A.
 Alpha  occ. eigenvalues -- -103.69334-103.69334-103.69334 -69.26232 -26.15562
 Alpha  occ. eigenvalues --  -10.72852 -10.72834 -10.72834  -8.38541  -8.38533
 Alpha  occ. eigenvalues --   -8.38533  -8.38282  -8.38282  -8.38279  -8.38277
 Alpha  occ. eigenvalues --   -8.38277  -8.38276  -6.99573  -4.10523  -4.10467
 Alpha  occ. eigenvalues --   -4.10467  -1.68651  -1.20303  -1.17073  -1.17073
 Alpha  occ. eigenvalues --   -0.84531  -0.76936  -0.76936  -0.68929  -0.59944
 Alpha  occ. eigenvalues --   -0.59944  -0.54103  -0.53116  -0.53116  -0.50596
 Alpha  occ. eigenvalues --   -0.50596  -0.49296
 Alpha virt. eigenvalues --    0.04668   0.05948   0.05948   0.06339   0.10748
 Alpha virt. eigenvalues --    0.12280   0.12280   0.13589   0.13589   0.15232
 Alpha virt. eigenvalues --    0.15977   0.17464   0.17465   0.17870   0.18145

 Mulliken charges:
               1
     1  Si   1.933747
     2  Cl  -0.394810
     3  Cl  -0.394809
     4  F   -0.749326
     5  Cl  -0.394802
 Sum of Mulliken charges =  -0.00000

 Dipole moment (field-independent basis, Debye):
    X=              0.0000    Y=             -0.0001    Z=             -0.7350  Tot=              0.7350

 Test job not archived.
 1\1\GINC-SE082\SP\RHF\Aug-CC-pVDZ\Cl3F1Si1\OHZDE\08-Apr-2025\0\\#t hf
 aug-cc-pvdz iop(5/13=1,5/36=2,99/5=2) pseudo=read geom=check guess=(re
 ad,tcheck) scf=(maxcycle=1)\\title\\0,1\Si,0,-0.000002,0.000004,0.2459
 57\Cl,0,1.651987,1.000948,-0.390625\Cl,0,-1.692856,0.930163,-0.390625\
 F,0,0.000001,-0.00007,1.83119\Cl,0,0.04087,-1.931077,-0.390757\\Versio
 n=ES64L-G16RevC.01\State=1-A\HF=-1767.2524506\RMSD=4.224e-03\Dipole=-0
 .0000087,0.0000415,-0.2891762\Quadrupole=0.7296627,0.729604,-1.4592667
 ,-0.0000108,-0.000001,0.0001039\PG=C01 [X(Cl3F1Si1)]\\@

 Normal termination of Gaussian 16 at Tue Apr  8 23:47:17 2025.
