 Gaussian 16, Revision C.01,

 ----------------------------------------------------------------------
 #t hf aug-cc-pvdz symm=none int=(grid=ultrafine) guess=(read,tcheck) s
 table=(opt,rrhf)
 ----------------------------------------------------------------------
 -----
 title
 -----
 Symbolic Z-matrix:
 Charge =  0 Multiplicity = 1

 SCF Done:  E(RHF) =  -253.783494555     A.U. after   12 cycles
 Normal termination of Gaussian 16 at Tue Apr  8 22:51:30 2025.
 Gaussian 16:  ES64L-G16RevC.01  3-Jul-2019

 ----------------------------------------------------------------------
 #t hf aug-cc-pvdz iop(5/13=1,5/36=2,99/5=2) pseudo=read geom=check gue
 ss=(read,tcheck) scf=(maxcycle=1)
 ----------------------------------------------------------------------
 -----
 title
 -----
 Structure from the checkpoint file:  "BDE49_expt_1813_mol1.chk"
 Charge =  0 Multiplicity = 1

                         Standard orientation:
 ---------------------------------------------------------------------
 Center     Atomic      Atomic             Coordinates (Angstroms)
 Number     Number       Type             X           Y           Z
 ---------------------------------------------------------------------
      1          7           0       -0.000032    0.564353   -0.166313
      2          9           0       -1.101991   -0.278753    0.024130
      3          1           0       -0.000379    1.066447    0.729648
      4          9           0        1.102059   -0.278682    0.024153
 ---------------------------------------------------------------------

 SCF Done:  E(RHF) =  -253.871052033     A.U. after    2 cycles

 The electronic state is 1-A.
 Alpha  occ. eigenvalues --  -26.17590 -26.17585 -15.85166  -1.72578  -1.66839
 Alpha  occ. eigenvalues --   -1.14245  -0.85033  -0.81785  -0.81172  -0.75418
 Alpha  occ. eigenvalues --   -0.71204  -0.68497  -0.52768
 Alpha virt. eigenvalues --    0.03401   0.10406   0.10782   0.13134   0.18431
 Alpha virt. eigenvalues --    0.23755   0.24863   0.25015   0.25220   0.28284
 Alpha virt. eigenvalues --    0.28374   0.29120   0.35822   0.37607   0.44514

 Mulliken charges:
               1
     1  N    0.482565
     2  F   -0.338194
     3  H    0.193816
     4  F   -0.338187
 Sum of Mulliken charges =  -0.00000

 Dipole moment (field-independent basis, Debye):
    X=             -0.0007    Y=              2.0130    Z=              1.3337  Tot=              2.4147

 Test job not archived.
 1\1\GINC-SE329\SP\RHF\Aug-CC-pVDZ\F2H1N1\OHZDE\08-Apr-2025\0\\#t hf au
 g-cc-pvdz iop(5/13=1,5/36=2,99/5=2) pseudo=read geom=check guess=(read
 ,tcheck) scf=(maxcycle=1)\\title\\0,1\N,0,-0.000032,0.564353,-0.166313
 \F,0,-1.101991,-0.278753,0.02413\H,0,-0.000379,1.066447,0.729648\F,0,1
 .102059,-0.278682,0.024153\\Version=ES64L-G16RevC.01\State=1-A\HF=-253
 .871052\RMSD=6.506e-03\Dipole=-0.0002577,0.7919684,0.5247297\Quadrupol
 e=-1.5871027,1.1233678,0.463735,-0.0005729,-0.0004058,1.3966811\PG=C01
  [X(F2H1N1)]\\@

 Normal termination of Gaussian 16 at Tue Apr  8 22:51:31 2025.
