 Gaussian 16, Revision C.01,

 ----------------------------------------------------------------------
 #t hf aug-cc-pvdz symm=none int=(grid=ultrafine) guess=(read,tcheck) s
 table=(opt,rrhf)
 ----------------------------------------------------------------------
 -----
 title
 -----
 Symbolic Z-matrix:
 Charge =  0 Multiplicity = 1

 SCF Done:  E(RHF) =  -1510.54153833     A.U. after   18 cycles
 Normal termination of Gaussian 16 at Tue Apr  8 23:48:58 2025.
 Gaussian 16:  ES64L-G16RevC.01  3-Jul-2019

 ----------------------------------------------------------------------
 #t hf aug-cc-pvdz iop(5/13=1,5/36=2,99/5=2) pseudo=read geom=check gue
 ss=(read,tcheck) scf=(maxcycle=1)
 ----------------------------------------------------------------------
 -----
 title
 -----
 Structure from the checkpoint file:  "BDE49_nonexpt_1718_mol1.chk"
 Charge =  0 Multiplicity = 1

                         Standard orientation:
 ---------------------------------------------------------------------
 Center     Atomic      Atomic             Coordinates (Angstroms)
 Number     Number       Type             X           Y           Z
 ---------------------------------------------------------------------
      1          6           0       -3.446194   -0.041211    0.017322
      2          6           0       -2.918368    1.243307   -0.053063
      3          6           0       -1.539840    1.392189   -0.084590
      4          6           0       -2.643748   -1.174456    0.058416
      5          6           0       -1.264466   -1.014908    0.024122
      6          6           0       -0.704527    0.266261   -0.051350
      7          1           0       -3.585011    2.093586   -0.081619
      8          1           0       -1.091513    2.375455   -0.135815
      9          1           0       -3.102408   -2.151052    0.119817
     10          1           0       -0.629759   -1.890215    0.069943
     11          6           0        0.769351    0.509133   -0.088130
     12         16           0        1.795979   -0.938420   -0.396180
     13         15           0        3.782881   -0.170810   -0.000720
     14          8           0        4.744607   -1.129961   -0.530273
     15          8           0        1.224829    1.631891    0.044760
     16          7           0       -4.922044   -0.208633    0.053822
     17          8           0       -5.602317    0.805154    0.012771
     18          8           0       -5.355897   -1.348659    0.122390
     19          8           0        3.818926    0.064857    1.581813
     20          1           0        4.075988   -0.731981    2.063248
     21          8           0        3.778480    1.291234   -0.562527
     22          1           0        2.925852    1.743495   -0.350500
 ---------------------------------------------------------------------

 SCF Done:  E(RHF) =  -1510.86125040     A.U. after    2 cycles

 The electronic state is 1-A.
 Alpha  occ. eigenvalues --  -93.59042 -81.46107 -20.64153 -20.64117 -20.64096
 Alpha  occ. eigenvalues --  -20.62959 -20.62822 -20.55263 -15.94330 -11.43815
 Alpha  occ. eigenvalues --  -11.35473 -11.32016 -11.31215 -11.30979 -11.30878
 Alpha  occ. eigenvalues --  -11.30696  -8.89036  -7.94240  -6.23165  -6.22931
 Alpha  occ. eigenvalues --   -6.22626  -5.08900  -5.08774  -5.08469  -1.57386
 Alpha  occ. eigenvalues --   -1.42770  -1.40282  -1.39027  -1.36831  -1.28880
 Alpha  occ. eigenvalues --   -1.22161  -1.12710  -1.07881  -1.04881  -0.98985
 Alpha  occ. eigenvalues --   -0.90051  -0.88582  -0.85893  -0.82637  -0.81402
 Alpha  occ. eigenvalues --   -0.78775  -0.76344  -0.74979  -0.74287  -0.72280
 Alpha  occ. eigenvalues --   -0.69777  -0.68814  -0.67607  -0.66829  -0.65823
 Alpha  occ. eigenvalues --   -0.63962  -0.62645  -0.62307  -0.61490  -0.58862
 Alpha  occ. eigenvalues --   -0.56377  -0.56305  -0.54062  -0.53819  -0.53378
 Alpha  occ. eigenvalues --   -0.51867  -0.49574  -0.48138  -0.47280  -0.43352
 Alpha  occ. eigenvalues --   -0.40913  -0.39863
 Alpha virt. eigenvalues --   -0.01524   0.02302   0.03152   0.03645   0.05103
 Alpha virt. eigenvalues --    0.05981   0.06171   0.06615   0.06975   0.07678
 Alpha virt. eigenvalues --    0.08126   0.09181   0.09754   0.10094   0.10748

 Mulliken charges:
               1
     1  C    0.871766
     2  C    0.622898
     3  C    0.189645
     4  C    0.229128
     5  C    0.512897
     6  C    1.581786
     7  H   -0.444572
     8  H   -0.647187
     9  H   -0.454187
    10  H   -0.555238
    11  C   -0.593148
    12  S   -0.120400
    13  P    2.129024
    14  O   -0.833793
    15  O   -0.590189
    16  N    0.128401
    17  O   -0.542961
    18  O   -0.542483
    19  O   -0.681236
    20  H    0.163980
    21  O   -0.730801
    22  H    0.306672
 Sum of Mulliken charges =  -0.00000

 Dipole moment (field-independent basis, Debye):
    X=             -0.9516    Y=             -0.1150    Z=              2.0706  Tot=              2.2817

 Test job not archived.
 1\1\GINC-SE100\SP\RHF\Aug-CC-pVDZ\C7H6N1O6P1S1\OHZDE\08-Apr-2025\0\\#t
  hf aug-cc-pvdz iop(5/13=1,5/36=2,99/5=2) pseudo=read geom=check guess
 =(read,tcheck) scf=(maxcycle=1)\\title\\0,1\C,0,-3.446194,-0.041211,0.
 017322\C,0,-2.918368,1.243307,-0.053063\C,0,-1.53984,1.392189,-0.08459
 \C,0,-2.643748,-1.174456,0.058416\C,0,-1.264466,-1.014908,0.024122\C,0
 ,-0.704527,0.266261,-0.05135\H,0,-3.585011,2.093586,-0.081619\H,0,-1.0
 91513,2.375455,-0.135815\H,0,-3.102408,-2.151052,0.119817\H,0,-0.62975
 9,-1.890215,0.069943\C,0,0.769351,0.509133,-0.08813\S,0,1.795979,-0.93

 Normal termination of Gaussian 16 at Tue Apr  8 23:49:20 2025.
