 Gaussian 16, Revision C.01,

 ----------------------------------------------------------------------
 #t hf aug-cc-pvdz symm=none int=(grid=ultrafine) guess=(read,tcheck) s
 table=(opt,rrhf)
 ----------------------------------------------------------------------
 -----
 title
 -----
 Symbolic Z-matrix:
 Charge =  0 Multiplicity = 1

 SCF Done:  E(RHF) =  -561.750293025     A.U. after   14 cycles
 Normal termination of Gaussian 16 at Wed Apr  9 00:41:46 2025.
 Gaussian 16:  ES64L-G16RevC.01  3-Jul-2019

 ----------------------------------------------------------------------
 #t hf aug-cc-pvdz iop(5/13=1,5/36=2,99/5=2) pseudo=read geom=check gue
 ss=(read,tcheck) scf=(maxcycle=1)
 ----------------------------------------------------------------------
 -----
 title
 -----
 Structure from the checkpoint file:  "BDE49_nonexpt_716_mol1.chk"
 Charge =  0 Multiplicity = 1

                         Standard orientation:
 ---------------------------------------------------------------------
 Center     Atomic      Atomic             Coordinates (Angstroms)
 Number     Number       Type             X           Y           Z
 ---------------------------------------------------------------------
      1          5           0        3.001813    0.685959    0.425037
      2          6           0        0.021362   -0.106503    0.305891
      3          6           0       -1.010812   -1.211480    0.007836
      4          6           0       -0.616820    1.142810   -0.333973
      5          6           0       -2.136262    0.990328   -0.071670
      6          1           0       -0.416260    1.138942   -1.410313
      7          1           0       -0.200494    2.069863    0.065776
      8          6           0       -2.370128   -0.519388    0.238628
      9          1           0       -2.719979    1.323578   -0.932536
     10          1           0       -2.446341    1.606739    0.775520
     11          1           0       -2.677828   -0.645861    1.280273
     12          1           0       -3.159562   -0.953361   -0.378617
     13          1           0       -0.869876   -2.100705    0.625865
     14          1           0       -0.917965   -1.525011   -1.038464
     15         15           0        1.758024   -0.514531   -0.207125
     16          1           0        0.083603    0.034713    1.392149
     17          1           0        4.014611    0.837256   -0.180071
     18          1           0        2.869896    1.146582    1.515061
     19          1           0        1.736727   -0.419171   -1.613227
 ---------------------------------------------------------------------

 SCF Done:  E(RHF) =  -561.836872712     A.U. after    2 cycles

 The electronic state is 1-A.
 Alpha  occ. eigenvalues --  -81.23416 -11.25093 -11.23506 -11.23495 -11.23160
 Alpha  occ. eigenvalues --  -11.23114  -7.74210  -7.61742  -4.88313  -4.88305
 Alpha  occ. eigenvalues --   -4.87990  -1.11462  -0.96693  -0.96332  -0.81611
 Alpha  occ. eigenvalues --   -0.78128  -0.75922  -0.66876  -0.65654  -0.62105
 Alpha  occ. eigenvalues --   -0.58290  -0.56803  -0.51727  -0.49086  -0.48704
 Alpha  occ. eigenvalues --   -0.48087  -0.47927  -0.46330  -0.46197  -0.43099
 Alpha  occ. eigenvalues --   -0.31931
 Alpha virt. eigenvalues --    0.03308   0.04093   0.04339   0.04768   0.05316
 Alpha virt. eigenvalues --    0.05819   0.05977   0.06723   0.06827   0.07797
 Alpha virt. eigenvalues --    0.08028   0.08933   0.09110   0.09611   0.11103

 Mulliken charges:
               1
     1  B   -0.569833
     2  C   -0.297395
     3  C    0.382868
     4  C    0.255991
     5  C    0.326115
     6  H   -0.170883
     7  H   -0.208561
     8  C    0.312954
     9  H   -0.094027
    10  H   -0.100494
    11  H   -0.146477
    12  H   -0.106221
    13  H   -0.147734
    14  H   -0.152988
    15  P    0.267630
    16  H   -0.251424
    17  H    0.345204
    18  H    0.278234
    19  H    0.077042
 Sum of Mulliken charges =   0.00000

 Dipole moment (field-independent basis, Debye):
    X=             -1.6967    Y=              0.5530    Z=             -0.2061  Tot=              1.7964

 Test job not archived.
 1\1\GINC-SE459\SP\RHF\Aug-CC-pVDZ\C5H12B1P1\OHZDE\09-Apr-2025\0\\#t hf
  aug-cc-pvdz iop(5/13=1,5/36=2,99/5=2) pseudo=read geom=check guess=(r
 ead,tcheck) scf=(maxcycle=1)\\title\\0,1\B,0,3.001813,0.685959,0.42503
 7\C,0,0.021362,-0.106503,0.305891\C,0,-1.010812,-1.21148,0.007836\C,0,
 -0.61682,1.14281,-0.333973\C,0,-2.136262,0.990328,-0.07167\H,0,-0.4162
 6,1.138942,-1.410313\H,0,-0.200494,2.069863,0.065776\C,0,-2.370128,-0.
 519388,0.238628\H,0,-2.719979,1.323578,-0.932536\H,0,-2.446341,1.60673
 9,0.77552\H,0,-2.677828,-0.645861,1.280273\H,0,-3.159562,-0.953361,-0.

 Normal termination of Gaussian 16 at Wed Apr  9 00:41:55 2025.
