 Gaussian 16, Revision C.01,

 ----------------------------------------------------------------------
 #t hf aug-cc-pvdz symm=none int=(grid=ultrafine) guess=(read,tcheck) s
 table=opt
 ----------------------------------------------------------------------
 -----
 title
 -----
 Symbolic Z-matrix:
 Charge =  0 Multiplicity = 2

 SCF Done:  E(UHF) =  -622.428401068     A.U. after   23 cycles
 Normal termination of Gaussian 16 at Tue Apr  8 23:37:21 2025.
 Gaussian 16:  ES64L-G16RevC.01  3-Jul-2019

 ----------------------------------------------------------------------
 #t hf aug-cc-pvdz iop(5/13=1,5/36=2,99/5=2) pseudo=read geom=check gue
 ss=(read,tcheck) scf=(maxcycle=1)
 ----------------------------------------------------------------------
 -----
 title
 -----
 Structure from the checkpoint file:  "BDE49_nonexpt_1572_mol2.chk"
 Charge =  0 Multiplicity = 2

                         Standard orientation:
 ---------------------------------------------------------------------
 Center     Atomic      Atomic             Coordinates (Angstroms)
 Number     Number       Type             X           Y           Z
 ---------------------------------------------------------------------
      1          6           0        1.925076    0.154347    0.000013
      2          7           0        0.633556   -0.373323    0.000034
      3          6           0       -0.531927    0.397981    0.000040
      4          8           0        2.907831   -0.541419   -0.000060
      5          1           0        1.928004    1.252262   -0.000052
      6          8           0       -0.512528    1.607886    0.000002
      7          1           0        0.573014   -1.384396    0.000037
      8         15           0       -2.102244   -0.640908   -0.000005
      9          1           0       -2.923570    0.513310   -0.000005
 ---------------------------------------------------------------------

 SCF Done:  E(UHF) =  -622.533678439     A.U. after    2 cycles

 The electronic state is 2-A.
 Alpha  occ. eigenvalues --  -81.30939 -20.59458 -20.58074 -15.69768 -11.40912
 Alpha  occ. eigenvalues --  -11.39390  -7.81444  -4.96093  -4.95088  -4.94768
 Alpha  occ. eigenvalues --   -1.40522  -1.38298  -1.23013  -0.94295  -0.85074
 Alpha  occ. eigenvalues --   -0.82667  -0.72567  -0.70036  -0.65723  -0.64780
 Alpha  occ. eigenvalues --   -0.61098  -0.58097  -0.52275  -0.47467  -0.45947
 Alpha  occ. eigenvalues --   -0.42032  -0.39650
 Alpha virt. eigenvalues --    0.03340   0.04778   0.05022   0.06780   0.06983
 Alpha virt. eigenvalues --    0.09655   0.09671   0.10300   0.11122   0.12311
 Alpha virt. eigenvalues --    0.13711   0.14399   0.14999   0.16493   0.16650

  Beta  occ. eigenvalues --  -81.30244 -20.58820 -20.58071 -15.69780 -11.41312
  Beta  occ. eigenvalues --  -11.39401  -7.80613  -4.94578  -4.94381  -4.92954
  Beta  occ. eigenvalues --   -1.39758  -1.37987  -1.22851  -0.93351  -0.84440
  Beta  occ. eigenvalues --   -0.79492  -0.72306  -0.68952  -0.65578  -0.63718
  Beta  occ. eigenvalues --   -0.60200  -0.56445  -0.51450  -0.46568  -0.44093
  Beta  occ. eigenvalues --   -0.40666
  Beta virt. eigenvalues --   -0.01034   0.03485   0.04792   0.05060   0.06949
  Beta virt. eigenvalues --    0.07351   0.09711   0.10476   0.11443   0.12639
  Beta virt. eigenvalues --    0.13434   0.13786   0.14751   0.15312   0.16698

 Mulliken charges and spin densities:
               1          2
     1  C    0.810229   0.003889
     2  N   -0.320954   0.000355
     3  C    0.286615  -0.198388
     4  O   -0.426315   0.000881
     5  H   -0.133654   0.000040
     6  O   -0.457920   0.150511
     7  H   -0.064938  -0.005581
     8  P    0.257372   1.202635
     9  H    0.049564  -0.154343
 Sum of Mulliken charges =  -0.00000   1.00000

 Dipole moment (field-independent basis, Debye):
    X=             -3.2746    Y=             -1.3479    Z=              0.0002  Tot=              3.5411
                          Isotropic Fermi Contact Couplings
        Atom                 a.u.       MegaHertz       Gauss      10(-4) cm-1
     1  C(13)             -0.00181      -2.03033      -0.72447      -0.67725
     2  N(14)             -0.00523      -1.69114      -0.60344      -0.56410
     3  C(13)             -0.06178     -69.44834     -24.78089     -23.16547
     4  O(17)              0.00021      -0.12993      -0.04636      -0.04334
     5  H(1)               0.00005       0.23065       0.08230       0.07694
     6  O(17)              0.05337     -32.35122     -11.54372     -10.79121
     7  H(1)               0.00016       0.73721       0.26305       0.24591
     8  P(31)              0.22178     401.66822     143.32521     133.98210

 Normal termination of Gaussian 16 at Tue Apr  8 23:37:24 2025.
