 Gaussian 16, Revision C.01,

 ----------------------------------------------------------------------
 #t hf aug-cc-pvdz symm=none int=(grid=ultrafine) guess=(read,tcheck) s
 table=opt
 ----------------------------------------------------------------------
 -----
 title
 -----
 Symbolic Z-matrix:
 Charge =  0 Multiplicity = 2

 SCF Done:  E(UHF) =  -641.423333552     a.u. after    7 cycles
 Normal termination of Gaussian 16 at Tue Apr  8 23:38:27 2025.
 Gaussian 16:  ES64L-G16RevC.01  3-Jul-2019

 ----------------------------------------------------------------------
 #t hf aug-cc-pvdz iop(5/13=1,5/36=2,99/5=2) pseudo=read geom=check gue
 ss=(read,tcheck) scf=(maxcycle=1)
 ----------------------------------------------------------------------
 -----
 title
 -----
 Structure from the checkpoint file:  "BDE49_nonexpt_1591_mol2.chk"
 Charge =  0 Multiplicity = 2

                         Standard orientation:
 ---------------------------------------------------------------------
 Center     Atomic      Atomic             Coordinates (Angstroms)
 Number     Number       Type             X           Y           Z
 ---------------------------------------------------------------------
      1         15           0       -0.081665   -0.030395    0.000649
      2          8           0       -1.006439   -0.048653    1.193150
      3          8           0       -1.014440   -0.146417   -1.180005
      4          8           0        0.864294    1.256530   -0.047942
      5          1           0        0.379537    2.091263   -0.044585
      6          8           0        1.021314   -1.161587    0.030931
      7          1           0        1.927601   -0.834327    0.065775
 ---------------------------------------------------------------------

 SCF Done:  E(UHF) =  -641.599593949     A.U. after    2 cycles

 The electronic state is 2-A.
 Alpha  occ. eigenvalues --  -81.46985 -20.70280 -20.65052 -20.64459 -20.55391
 Alpha  occ. eigenvalues --   -7.95114  -5.09863  -5.09710  -5.09621  -1.45784
 Alpha  occ. eigenvalues --   -1.40769  -1.37807  -1.27409  -0.87777  -0.82140
 Alpha  occ. eigenvalues --   -0.78498  -0.74932  -0.70516  -0.66266  -0.64725
 Alpha  occ. eigenvalues --   -0.63373  -0.60515  -0.58609  -0.52049  -0.50578
 Alpha virt. eigenvalues --    0.02320   0.04257   0.07738   0.08898   0.10287
 Alpha virt. eigenvalues --    0.11697   0.16644   0.17756   0.18336   0.19009
 Alpha virt. eigenvalues --    0.19945   0.22875   0.24963   0.26494   0.26947

  Beta  occ. eigenvalues --  -81.47088 -20.66510 -20.65046 -20.64436 -20.54221
  Beta  occ. eigenvalues --   -7.95261  -5.10068  -5.09814  -5.09806  -1.42236
  Beta  occ. eigenvalues --   -1.37786  -1.31379  -1.23071  -0.87072  -0.82008
  Beta  occ. eigenvalues --   -0.73421  -0.69249  -0.65643  -0.64007  -0.62692
  Beta  occ. eigenvalues --   -0.59011  -0.56534  -0.49106  -0.46307
  Beta virt. eigenvalues --   -0.02481   0.02388   0.04267   0.08078   0.09165
  Beta virt. eigenvalues --    0.10364   0.11814   0.16660   0.17998   0.18354
  Beta virt. eigenvalues --    0.19077   0.20004   0.23052   0.25159   0.26546

 Mulliken charges and spin densities:
               1          2
     1  P    2.258290  -0.219762
     2  O   -0.800285   0.236805
     3  O   -0.449128   0.976140
     4  O   -0.686689   0.001196
     5  H    0.162994  -0.000150
     6  O   -0.695227   0.008397
     7  H    0.210046  -0.002626
 Sum of Mulliken charges =  -0.00000   1.00000

 Dipole moment (field-independent basis, Debye):
    X=              3.5089    Y=              2.1546    Z=             -2.3785  Tot=              4.7552
                          Isotropic Fermi Contact Couplings
        Atom                 a.u.       MegaHertz       Gauss      10(-4) cm-1
     1  P(31)             -0.14094    -255.24700     -91.07848     -85.14124
     2  O(17)              0.07775     -47.13360     -16.81844     -15.72208
     3  O(17)              0.22632    -137.19259     -48.95373     -45.76252
     4  O(17)             -0.00248       1.50500       0.53702       0.50201
     5  H(1)              -0.00011      -0.48745      -0.17393      -0.16259
     6  O(17)             -0.00322       1.95077       0.69608       0.65071
     7  H(1)              -0.00051      -2.25807      -0.80573      -0.75321
 --------------------------------------------------------

 Normal termination of Gaussian 16 at Tue Apr  8 23:38:29 2025.
