 Gaussian 16, Revision C.01,

 ----------------------------------------------------------------------
 #t hf aug-cc-pvdz symm=none int=(grid=ultrafine) guess=(read,tcheck) s
 table=(opt,rrhf)
 ----------------------------------------------------------------------
 -----
 title
 -----
 Symbolic Z-matrix:
 Charge =  0 Multiplicity = 1

 SCF Done:  E(RHF) =  -1443.83049187     A.U. after   14 cycles
 Normal termination of Gaussian 16 at Wed Apr  9 00:16:40 2025.
 Gaussian 16:  ES64L-G16RevC.01  3-Jul-2019

 ----------------------------------------------------------------------
 #t hf aug-cc-pvdz iop(5/13=1,5/36=2,99/5=2) pseudo=read geom=check gue
 ss=(read,tcheck) scf=(maxcycle=1)
 ----------------------------------------------------------------------
 -----
 title
 -----
 Structure from the checkpoint file:  "BDE49_nonexpt_2579_mol1.chk"
 Charge =  0 Multiplicity = 1

                         Standard orientation:
 ---------------------------------------------------------------------
 Center     Atomic      Atomic             Coordinates (Angstroms)
 Number     Number       Type             X           Y           Z
 ---------------------------------------------------------------------
      1         17           0       -2.236818   -0.420666   -0.077460
      2         16           0       -0.800159    1.023130    0.268376
      3         16           0        1.032017   -0.021719   -0.183569
      4          8           0        1.980116    1.064188   -0.075120
      5          6           0        1.247206   -1.138779    1.204355
      6          8           0        0.887289   -0.812533   -1.377209
      7          1           0        1.322983   -0.547427    2.113972
      8          1           0        2.171837   -1.683748    1.006963
      9          1           0        0.398886   -1.820637    1.231474
 ---------------------------------------------------------------------

 SCF Done:  E(RHF) =  -1444.00403304     A.U. after    2 cycles

 The electronic state is 1-A.
 Alpha  occ. eigenvalues -- -103.70883 -93.82416 -93.63627 -20.59507 -20.59498
 Alpha  occ. eigenvalues --  -11.31385 -10.74017  -9.08998  -8.92999  -8.39752
 Alpha  occ. eigenvalues --   -8.39391  -8.39354  -6.43610  -6.43398  -6.43260
 Alpha  occ. eigenvalues --   -6.27001  -6.26766  -6.26333  -1.45422  -1.34342
 Alpha  occ. eigenvalues --   -1.19683  -1.06679  -0.97402  -0.83056  -0.71571
 Alpha  occ. eigenvalues --   -0.70789  -0.69719  -0.63667  -0.62895  -0.57848
 Alpha  occ. eigenvalues --   -0.55026  -0.54436  -0.53955  -0.52438  -0.52086
 Alpha  occ. eigenvalues --   -0.44586  -0.41052
 Alpha virt. eigenvalues --    0.02628   0.02864   0.05223   0.05661   0.06008
 Alpha virt. eigenvalues --    0.08181   0.10104   0.11517   0.11960   0.12337
 Alpha virt. eigenvalues --    0.13089   0.14379   0.15061   0.15408   0.15987

 Mulliken charges:
               1
     1  Cl  -0.269176
     2  S    0.267074
     3  S    2.148813
     4  O   -1.040342
     5  C   -0.108589
     6  O   -1.053026
     7  H    0.006369
     8  H    0.041844
     9  H    0.007032
 Sum of Mulliken charges =  -0.00000

 Dipole moment (field-independent basis, Debye):
    X=             -0.7293    Y=             -1.6273    Z=              3.8260  Tot=              4.2211

 Test job not archived.
 1\1\GINC-SE082\SP\RHF\Aug-CC-pVDZ\C1H3Cl1O2S2\OHZDE\09-Apr-2025\0\\#t
 hf aug-cc-pvdz iop(5/13=1,5/36=2,99/5=2) pseudo=read geom=check guess=
 (read,tcheck) scf=(maxcycle=1)\\title\\0,1\Cl,0,-2.236818,0.420666,0.0
 7746\S,0,-0.800159,-1.02313,-0.268376\S,0,1.032017,0.021719,0.183569\O
 ,0,1.980116,-1.064188,0.07512\C,0,1.247206,1.138779,-1.204355\O,0,0.88
 7289,0.812533,1.377209\H,0,1.322983,0.547427,-2.113972\H,0,2.171837,1.
 683748,-1.006963\H,0,0.398886,1.820637,-1.231474\\Version=ES64L-G16Rev
 C.01\State=1-A\HF=-1444.004033\RMSD=5.302e-03\Dipole=-0.2869292,0.6402

 Normal termination of Gaussian 16 at Wed Apr  9 00:16:44 2025.
