 Gaussian 16, Revision C.01,

 ----------------------------------------------------------------------
 #t hf aug-cc-pvdz symm=none int=(grid=ultrafine) guess=(read,tcheck) s
 table=opt
 ----------------------------------------------------------------------
 -----
 title
 -----
 Symbolic Z-matrix:
 Charge =  0 Multiplicity = 2

 SCF Done:  E(UHF) =  -1107.06756276     A.U. after   22 cycles
 Normal termination of Gaussian 16 at Tue Apr  8 23:07:48 2025.
 Gaussian 16:  ES64L-G16RevC.01  3-Jul-2019

 ----------------------------------------------------------------------
 #t hf aug-cc-pvdz iop(5/13=1,5/36=2,99/5=2) pseudo=read geom=check gue
 ss=(read,tcheck) scf=(maxcycle=1)
 ----------------------------------------------------------------------
 -----
 title
 -----
 Structure from the checkpoint file:  "BDE49_expt_620_mol2.chk"
 Charge =  0 Multiplicity = 2

                         Standard orientation:
 ---------------------------------------------------------------------
 Center     Atomic      Atomic             Coordinates (Angstroms)
 Number     Number       Type             X           Y           Z
 ---------------------------------------------------------------------
      1          6           0        0.006565   -0.091561    0.336115
      2          8           0        0.884644   -0.903472   -0.466269
      3          8           0        2.017565   -1.126577    0.174820
      4         17           0       -1.642860   -0.624536   -0.012455
      5          1           0        0.245823   -0.254883    1.380957
      6         17           0        0.260337    1.627162   -0.050254
 ---------------------------------------------------------------------

 SCF Done:  E(UHF) =  -1107.16557365     A.U. after    2 cycles

 The electronic state is 2-A.
 Alpha  occ. eigenvalues -- -103.69985-103.69436 -20.73045 -20.72130 -11.45675
 Alpha  occ. eigenvalues --  -10.73314 -10.72775  -8.39037  -8.38699  -8.38693
 Alpha  occ. eigenvalues --   -8.38509  -8.38159  -8.38158  -1.56606  -1.28404
 Alpha  occ. eigenvalues --   -1.18710  -1.16836  -0.92740  -0.82080  -0.77339
 Alpha  occ. eigenvalues --   -0.74680  -0.66451  -0.63468  -0.57367  -0.55411
 Alpha  occ. eigenvalues --   -0.51613  -0.49875  -0.49272  -0.48141
 Alpha virt. eigenvalues --    0.03991   0.06900   0.07715   0.09779   0.11367
 Alpha virt. eigenvalues --    0.12680   0.14000   0.15311   0.15488   0.16061
 Alpha virt. eigenvalues --    0.16594   0.18077   0.19712   0.20105   0.23082

  Beta  occ. eigenvalues -- -103.69988-103.69429 -20.71352 -20.68892 -11.45741
  Beta  occ. eigenvalues --  -10.73317 -10.72769  -8.39046  -8.38703  -8.38696
  Beta  occ. eigenvalues --   -8.38478  -8.38162  -8.38149  -1.50742  -1.25367
  Beta  occ. eigenvalues --   -1.16839  -1.11668  -0.91639  -0.75396  -0.73138
  Beta  occ. eigenvalues --   -0.69414  -0.63382  -0.57134  -0.54392  -0.50966
  Beta  occ. eigenvalues --   -0.49955  -0.49173  -0.48095
  Beta virt. eigenvalues --    0.03890   0.05718   0.06980   0.07815   0.09860
  Beta virt. eigenvalues --    0.11476   0.13268   0.14357   0.15401   0.15684
  Beta virt. eigenvalues --    0.16109   0.17060   0.18134   0.19953   0.20134

 Mulliken charges and spin densities:
               1          2
     1  C    0.253202  -0.019976
     2  O   -0.319758   0.063449
     3  O   -0.104133   0.957324
     4  Cl   0.016392  -0.001779
     5  H    0.141721  -0.003736
     6  Cl   0.012576   0.004719
 Sum of Mulliken charges =  -0.00000   1.00000

 Dipole moment (field-independent basis, Debye):
    X=             -0.3650    Y=              0.0985    Z=              1.4684  Tot=              1.5163
                          Isotropic Fermi Contact Couplings
        Atom                 a.u.       MegaHertz       Gauss      10(-4) cm-1
     1  C(13)             -0.01359     -15.27584      -5.45080      -5.09547
     2  O(17)              0.08262     -50.08611     -17.87197     -16.70693
     3  O(17)              0.29592    -179.38300     -64.00832     -59.83573
     4  Cl(35)            -0.00045      -0.19646      -0.07010      -0.06553
     5  H(1)               0.00017       0.76254       0.27209       0.25436
     6  Cl(35)            -0.00274      -1.20303      -0.42927      -0.40129
 --------------------------------------------------------
       Center         ----  Spin Dipole Couplings  ----

 Normal termination of Gaussian 16 at Tue Apr  8 23:07:50 2025.
