 Gaussian 16, Revision C.01,

 ----------------------------------------------------------------------
 #t hf aug-cc-pvdz symm=none int=(grid=ultrafine) guess=(read,tcheck) s
 table=(opt,rrhf)
 ----------------------------------------------------------------------
 -----
 title
 -----
 Symbolic Z-matrix:
 Charge =  0 Multiplicity = 1

 SCF Done:  E(RHF) =  -643.692542577     A.U. after   16 cycles
 Normal termination of Gaussian 16 at Tue Apr  8 23:17:49 2025.
 Gaussian 16:  ES64L-G16RevC.01  3-Jul-2019

 ----------------------------------------------------------------------
 #t hf aug-cc-pvdz iop(5/13=1,5/36=2,99/5=2) pseudo=read geom=check gue
 ss=(read,tcheck) scf=(maxcycle=1)
 ----------------------------------------------------------------------
 -----
 title
 -----
 Structure from the checkpoint file:  "BDE49_nonexpt_1081_mol1.chk"
 Charge =  0 Multiplicity = 1

                         Standard orientation:
 ---------------------------------------------------------------------
 Center     Atomic      Atomic             Coordinates (Angstroms)
 Number     Number       Type             X           Y           Z
 ---------------------------------------------------------------------
      1         17           0        1.361158   -0.240362    0.000023
      2          8           0       -0.150493    0.951522   -0.000011
      3          7           0       -1.298839    0.421379    0.000016
      4          7           0       -1.479002   -0.789405   -0.000066
      5          1           0       -2.490849   -0.949834    0.000046
 ---------------------------------------------------------------------

 SCF Done:  E(RHF) =  -643.762760097     A.U. after    2 cycles

 The electronic state is 1-A.
 Alpha  occ. eigenvalues -- -103.71923 -20.73855 -15.81767 -15.71595 -10.74529
 Alpha  occ. eigenvalues --   -8.40241  -8.39844  -8.39838  -1.52185  -1.29918
 Alpha  occ. eigenvalues --   -1.13904  -0.90064  -0.77540  -0.72654  -0.72072
 Alpha  occ. eigenvalues --   -0.56561  -0.51549  -0.49650  -0.47578  -0.43453
 Alpha virt. eigenvalues --   -0.01314   0.03565   0.09696   0.10435   0.10471
 Alpha virt. eigenvalues --    0.13299   0.14035   0.15330   0.17110   0.17995
 Alpha virt. eigenvalues --    0.19524   0.21237   0.21845   0.25770   0.27983

 Mulliken charges:
               1
     1  Cl   0.162090
     2  O   -0.417778
     3  N    0.146697
     4  N    0.016651
     5  H    0.092340
 Sum of Mulliken charges =  -0.00000

 Dipole moment (field-independent basis, Debye):
    X=             -1.9279    Y=             -0.8408    Z=              0.0001  Tot=              2.1032

 Test job not archived.
 1\1\GINC-SE039\SP\RHF\Aug-CC-pVDZ\Cl1H1N2O1\OHZDE\08-Apr-2025\0\\#t hf
  aug-cc-pvdz iop(5/13=1,5/36=2,99/5=2) pseudo=read geom=check guess=(r
 ead,tcheck) scf=(maxcycle=1)\\title\\0,1\Cl,0,1.361158,-0.240362,0.000
 023\O,0,-0.150493,0.951522,-0.000011\N,0,-1.298839,0.421379,0.000016\N
 ,0,-1.479002,-0.789405,-0.000066\H,0,-2.490849,-0.949834,0.000046\\Ver
 sion=ES64L-G16RevC.01\State=1-A\HF=-643.7627601\RMSD=3.510e-03\Dipole=
 -0.758486,-0.3307767,0.0000541\Quadrupole=3.9278428,-2.3367907,-1.5910
 521,1.0923546,-0.0001376,-0.0002271\PG=C01 [X(Cl1H1N2O1)]\\@

 Normal termination of Gaussian 16 at Tue Apr  8 23:17:53 2025.
