 Gaussian 16, Revision C.01,

 ----------------------------------------------------------------------
 #t hf aug-cc-pvdz symm=none int=(grid=ultrafine) guess=(read,tcheck) s
 table=(opt,rrhf)
 ----------------------------------------------------------------------
 -----
 title
 -----
 Symbolic Z-matrix:
 Charge =  0 Multiplicity = 1

 SCF Done:  E(RHF) =  -437.005938888     A.U. after   12 cycles
 Normal termination of Gaussian 16 at Wed Apr  9 00:27:43 2025.
 Gaussian 16:  ES64L-G16RevC.01  3-Jul-2019

 ----------------------------------------------------------------------
 #t hf aug-cc-pvdz iop(5/13=1,5/36=2,99/5=2) pseudo=read geom=check gue
 ss=(read,tcheck) scf=(maxcycle=1)
 ----------------------------------------------------------------------
 -----
 title
 -----
 Structure from the checkpoint file:  "BDE49_nonexpt_332_mol1.chk"
 Charge =  0 Multiplicity = 1

                         Standard orientation:
 ---------------------------------------------------------------------
 Center     Atomic      Atomic             Coordinates (Angstroms)
 Number     Number       Type             X           Y           Z
 ---------------------------------------------------------------------
      1          6           0        0.406893   -0.020846    0.000000
      2          5           0       -1.061761   -0.663419   -0.000006
      3          9           0        1.104588   -0.434509    1.093268
      4          9           0        0.437406    1.327925   -0.000001
      5          9           0        1.104594   -0.434510   -1.093264
      6          8           0       -2.102873    0.177429   -0.000002
      7          1           0       -2.961083   -0.258978    0.000004
      8          1           0       -1.167776   -1.848442    0.000009
 ---------------------------------------------------------------------

 SCF Done:  E(RHF) =  -437.163794918     A.U. after    2 cycles

 The electronic state is 1-A.
 Alpha  occ. eigenvalues --  -26.15584 -26.15574 -26.15355 -20.63261 -11.49608
 Alpha  occ. eigenvalues --   -7.68535  -1.74460  -1.67657  -1.67638  -1.37714
 Alpha  occ. eigenvalues --   -1.02065  -0.87955  -0.86277  -0.86182  -0.79913
 Alpha  occ. eigenvalues --   -0.76045  -0.75959  -0.71858  -0.71691  -0.70587
 Alpha  occ. eigenvalues --   -0.69081  -0.61458  -0.59976  -0.52116
 Alpha virt. eigenvalues --    0.02651   0.04361   0.05012   0.05763   0.08321
 Alpha virt. eigenvalues --    0.09456   0.09714   0.11868   0.13913   0.14762
 Alpha virt. eigenvalues --    0.17481   0.20293   0.20340   0.21899   0.24034

 Mulliken charges:
               1
     1  C    0.840656
     2  B    0.289089
     3  F   -0.364611
     4  F   -0.355685
     5  F   -0.364611
     6  O   -0.363144
     7  H    0.210926
     8  H    0.107381
 Sum of Mulliken charges =  -0.00000

 Dipole moment (field-independent basis, Debye):
    X=             -3.6935    Y=             -1.9643    Z=             -0.0000  Tot=              4.1834

 Test job not archived.
 1\1\GINC-SE044\SP\RHF\Aug-CC-pVDZ\C1H2B1F3O1\OHZDE\09-Apr-2025\0\\#t h
 f aug-cc-pvdz iop(5/13=1,5/36=2,99/5=2) pseudo=read geom=check guess=(
 read,tcheck) scf=(maxcycle=1)\\title\\0,1\C,0,0.406893,-0.020846,0.\B,
 0,-1.061761,-0.663419,-0.000006\F,0,1.104588,-0.434509,1.093268\F,0,0.
 437406,1.327925,-0.000001\F,0,1.104594,-0.43451,-1.093264\O,0,-2.10287
 3,0.177429,-0.000002\H,0,-2.961083,-0.258977,0.000004\H,0,-1.167776,-1
 .848442,0.000009\\Version=ES64L-G16RevC.01\State=1-A\HF=-437.1637949\R
 MSD=5.118e-03\Dipole=-1.4531482,-0.7727974,-0.000005\Quadrupole=3.7376

 Normal termination of Gaussian 16 at Wed Apr  9 00:27:46 2025.
