 Gaussian 16, Revision C.01,

 ----------------------------------------------------------------------
 #t hf aug-cc-pvdz symm=none int=(grid=ultrafine) guess=(read,tcheck) s
 table=(opt,rrhf)
 ----------------------------------------------------------------------
 -----
 title
 -----
 Symbolic Z-matrix:
 Charge =  0 Multiplicity = 1

 SCF Done:  E(RHF) =  -650.115702252     A.U. after   15 cycles

 1\1\GINC-SE097\Stability\RHF\Aug-CC-pVDZ\C8H11P1\OHZDE\08-Apr-2025\0\\
 #t hf aug-cc-pvdz symm=none int=(grid=ultrafine) guess=(read,tcheck) s
 table=(opt,rrhf)\\title\\0,1\C,0,0.170271,-0.034685,0.296621\C,0,1.026
 027,-1.062894,0.707844\C,0,2.387409,-1.025957,0.417116\C,0,2.921472,0.
 044893,-0.295228\C,0,2.081823,1.07464,-0.713963\C,0,0.720773,1.033941,
 -0.422414\P,0,-2.24368,-0.702401,-0.924813\H,0,3.030456,-1.833378,0.74
 9552\H,0,3.981125,0.077275,-0.521708\H,0,2.486569,1.913115,-1.270021\H
 ,0,0.084282,1.844778,-0.759001\H,0,0.61963,-1.901917,1.263699\C,0,-1.3

 Normal termination of Gaussian 16 at Tue Apr  8 23:29:23 2025.
 Gaussian 16:  ES64L-G16RevC.01  3-Jul-2019

 ----------------------------------------------------------------------
 #t hf aug-cc-pvdz iop(5/13=1,5/36=2,99/5=2) pseudo=read geom=check gue
 ss=(read,tcheck) scf=(maxcycle=1)
 ----------------------------------------------------------------------
 -----
 title
 -----
 Structure from the checkpoint file:  "BDE49_nonexpt_1349_mol1.chk"
 Charge =  0 Multiplicity = 1

                         Standard orientation:
 ---------------------------------------------------------------------
 Center     Atomic      Atomic             Coordinates (Angstroms)
 Number     Number       Type             X           Y           Z
 ---------------------------------------------------------------------
      1          6           0        0.170271   -0.034685    0.296621
      2          6           0        1.026027   -1.062894    0.707844
      3          6           0        2.387409   -1.025957    0.417116
      4          6           0        2.921472    0.044893   -0.295228
      5          6           0        2.081823    1.074640   -0.713963
      6          6           0        0.720773    1.033941   -0.422414
      7         15           0       -2.243680   -0.702401   -0.924813
      8          1           0        3.030456   -1.833378    0.749552
      9          1           0        3.981125    0.077275   -0.521708
     10          1           0        2.486569    1.913115   -1.270021
     11          1           0        0.084282    1.844778   -0.759001
     12          1           0        0.619630   -1.901917    1.263699
     13          6           0       -1.314504   -0.099790    0.612894
     14          6           0       -1.874532    1.190548    1.230229
     15          1           0       -1.456198   -0.912824    1.332988
     16          1           0       -1.834037    2.026989    0.528733
     17          1           0       -1.303049    1.470797    2.120921
     18          1           0       -2.918761    1.058065    1.522239
     19          1           0       -2.188717    0.518257   -1.649037
     20          1           0       -3.558522   -0.449324   -0.444770
 ---------------------------------------------------------------------

 SCF Done:  E(RHF) =  -650.227362516     A.U. after    2 cycles

 The electronic state is 1-A.
 Alpha  occ. eigenvalues --  -81.25281 -11.25864 -11.25567 -11.24683 -11.24637
 Alpha  occ. eigenvalues --  -11.24329 -11.24316 -11.24287 -11.23595  -7.75602
 Alpha  occ. eigenvalues --   -4.89595  -4.89539  -4.89249  -1.14862  -1.06302
 Alpha  occ. eigenvalues --   -1.01074  -0.98459  -0.87761  -0.83050  -0.80810
 Alpha  occ. eigenvalues --   -0.75224  -0.69984  -0.65031  -0.63092  -0.60382
 Alpha  occ. eigenvalues --   -0.58969  -0.57860  -0.55405  -0.52977  -0.52210
 Alpha  occ. eigenvalues --   -0.50095  -0.49157  -0.48082  -0.45194  -0.35116
 Alpha  occ. eigenvalues --   -0.34120  -0.32717
 Alpha virt. eigenvalues --    0.03261   0.03895   0.04118   0.05331   0.05440
 Alpha virt. eigenvalues --    0.05664   0.06961   0.07329   0.07872   0.08436
 Alpha virt. eigenvalues --    0.09818   0.09874   0.10353   0.10631   0.11238

 Mulliken charges:
               1
     1  C    0.867420
     2  C    0.390423
     3  C    0.420807
     4  C    0.653070
     5  C    0.248718
     6  C    0.474153
     7  P    0.086122
     8  H   -0.442661
     9  H   -0.444474
    10  H   -0.459445
    11  H   -0.645397
    12  H   -0.582130
    13  C   -0.786029
    14  C    0.548313
    15  H   -0.259332
    16  H   -0.113048
    17  H   -0.061574
    18  H   -0.152894
    19  H    0.137310
    20  H    0.120647
 Sum of Mulliken charges =   0.00000

 Dipole moment (field-independent basis, Debye):
    X=              0.0195    Y=              0.7111    Z=              0.8738  Tot=              1.1267

 Test job not archived.
 1\1\GINC-SE097\SP\RHF\Aug-CC-pVDZ\C8H11P1\OHZDE\08-Apr-2025\0\\#t hf a
 ug-cc-pvdz iop(5/13=1,5/36=2,99/5=2) pseudo=read geom=check guess=(rea
 d,tcheck) scf=(maxcycle=1)\\title\\0,1\C,0,0.170271,-0.034685,0.296621
 \C,0,1.026027,-1.062894,0.707844\C,0,2.387409,-1.025957,0.417116\C,0,2
 .921472,0.044893,-0.295228\C,0,2.081823,1.07464,-0.713963\C,0,0.720773
 ,1.033941,-0.422414\P,0,-2.24368,-0.702401,-0.924813\H,0,3.030456,-1.8
 33378,0.749552\H,0,3.981125,0.077275,-0.521708\H,0,2.486569,1.913115,-
 1.270021\H,0,0.084282,1.844778,-0.759001\H,0,0.61963,-1.901917,1.26369

 Normal termination of Gaussian 16 at Tue Apr  8 23:29:34 2025.
