 Gaussian 16, Revision C.01,

 ----------------------------------------------------------------------
 #t hf aug-cc-pvdz symm=none int=(grid=ultrafine) guess=(read,tcheck) s
 table=(opt,rrhf)
 ----------------------------------------------------------------------
 -----
 title
 -----
 Symbolic Z-matrix:
 Charge =  0 Multiplicity = 1

 SCF Done:  E(RHF) =  -369.965994281     A.U. after   15 cycles
 Normal termination of Gaussian 16 at Wed Apr  9 00:28:19 2025.
 Gaussian 16:  ES64L-G16RevC.01  3-Jul-2019

 ----------------------------------------------------------------------
 #t hf aug-cc-pvdz iop(5/13=1,5/36=2,99/5=2) pseudo=read geom=check gue
 ss=(read,tcheck) scf=(maxcycle=1)
 ----------------------------------------------------------------------
 -----
 title
 -----
 Structure from the checkpoint file:  "BDE49_nonexpt_329_mol1.chk"
 Charge =  0 Multiplicity = 1

                         Standard orientation:
 ---------------------------------------------------------------------
 Center     Atomic      Atomic             Coordinates (Angstroms)
 Number     Number       Type             X           Y           Z
 ---------------------------------------------------------------------
      1          6           0       -2.625697    0.323252   -0.374933
      2          6           0       -1.774160    1.357915    0.006322
      3          6           0       -0.469549    1.081043    0.407560
      4          6           0       -2.159584   -0.989386   -0.350232
      5          6           0       -0.855004   -1.263325    0.053257
      6          6           0        0.010255   -0.234286    0.443325
      7          1           0       -3.642172    0.537187   -0.685286
      8          1           0       -2.126234    2.383748   -0.005846
      9          1           0        0.186034    1.893627    0.704058
     10          1           0       -2.814140   -1.803735   -0.641489
     11          1           0       -0.504026   -2.290177    0.073483
     12          6           0        1.444433   -0.520879    0.850662
     13          5           0        2.380247   -0.416887   -0.414056
     14          1           0        1.766939    0.180699    1.625600
     15          1           0        1.506808   -1.532074    1.268636
     16          8           0        3.277631    0.598352   -0.483183
     17          1           0        3.784273    0.602688   -1.300957
     18          1           0        2.296074   -1.200352   -1.318227
 ---------------------------------------------------------------------

 SCF Done:  E(RHF) =  -370.080641395     A.U. after    2 cycles

 The electronic state is 1-A.
 Alpha  occ. eigenvalues --  -20.59156 -11.25302 -11.24240 -11.24217 -11.23751
 Alpha  occ. eigenvalues --  -11.23715 -11.23662 -11.21310  -7.63507  -1.33354
 Alpha  occ. eigenvalues --   -1.14135  -1.03559  -1.00499  -0.92848  -0.82551
 Alpha  occ. eigenvalues --   -0.80268  -0.76446  -0.69377  -0.66327  -0.63536
 Alpha  occ. eigenvalues --   -0.63080  -0.58669  -0.58564  -0.57262  -0.55406
 Alpha  occ. eigenvalues --   -0.53293  -0.50094  -0.48784  -0.48628  -0.45601
 Alpha  occ. eigenvalues --   -0.33704  -0.32223
 Alpha virt. eigenvalues --    0.02984   0.03888   0.04255   0.04769   0.05561
 Alpha virt. eigenvalues --    0.05695   0.06737   0.07281   0.07825   0.08466
 Alpha virt. eigenvalues --    0.09486   0.10014   0.10947   0.11304   0.11580

 Mulliken charges:
               1
     1  C    0.582762
     2  C    0.253465
     3  C    0.495151
     4  C    0.254443
     5  C    0.458122
     6  C    0.410233
     7  H   -0.434006
     8  H   -0.452650
     9  H   -0.595734
    10  H   -0.452540
    11  H   -0.583315
    12  C    0.356252
    13  B    0.415485
    14  H   -0.337862
    15  H   -0.249269
    16  O   -0.516229
    17  H    0.207191
    18  H    0.188503
 Sum of Mulliken charges =  -0.00000

 Dipole moment (field-independent basis, Debye):
    X=              0.7583    Y=             -0.5006    Z=             -1.0144  Tot=              1.3618

 Test job not archived.
 1\1\GINC-SE105\SP\RHF\Aug-CC-pVDZ\C7H9B1O1\OHZDE\09-Apr-2025\0\\#t hf
 aug-cc-pvdz iop(5/13=1,5/36=2,99/5=2) pseudo=read geom=check guess=(re
 ad,tcheck) scf=(maxcycle=1)\\title\\0,1\C,0,-2.625697,0.323252,-0.3749
 33\C,0,-1.77416,1.357915,0.006322\C,0,-0.469549,1.081043,0.40756\C,0,-
 2.159584,-0.989386,-0.350232\C,0,-0.855004,-1.263325,0.053257\C,0,0.01
 0255,-0.234286,0.443325\H,0,-3.642172,0.537187,-0.685286\H,0,-2.126234
 ,2.383748,-0.005846\H,0,0.186034,1.893627,0.704058\H,0,-2.81414,-1.803
 735,-0.641489\H,0,-0.504026,-2.290177,0.073483\C,0,1.444433,-0.520879,

 Normal termination of Gaussian 16 at Wed Apr  9 00:28:27 2025.
