 Gaussian 16, Revision C.01,

 ----------------------------------------------------------------------
 #t hf aug-cc-pvdz symm=none int=(grid=ultrafine) guess=(read,tcheck) s
 table=opt
 ----------------------------------------------------------------------
 -----
 title
 -----
 Symbolic Z-matrix:
 Charge =  0 Multiplicity = 2

 SCF Done:  E(UHF) =  -974.038555915     A.U. after   22 cycles
 Normal termination of Gaussian 16 at Tue Apr  8 23:54:21 2025.
 Gaussian 16:  ES64L-G16RevC.01  3-Jul-2019

 ----------------------------------------------------------------------
 #t hf aug-cc-pvdz iop(5/13=1,5/36=2,99/5=2) pseudo=read geom=check gue
 ss=(read,tcheck) scf=(maxcycle=1)
 ----------------------------------------------------------------------
 -----
 title
 -----
 Structure from the checkpoint file:  "BDE49_nonexpt_199_mol2.chk"
 Charge =  0 Multiplicity = 2

                         Standard orientation:
 ---------------------------------------------------------------------
 Center     Atomic      Atomic             Coordinates (Angstroms)
 Number     Number       Type             X           Y           Z
 ---------------------------------------------------------------------
      1         17           0        1.902412    0.443832   -0.000001
      2          5           0        0.869060   -0.923497    0.000005
      3          6           0       -1.485398    0.531599   -0.000004
      4          7           0       -1.894244    1.614019    0.000003
      5         16           0       -0.907138   -1.088461   -0.000000
 ---------------------------------------------------------------------

 SCF Done:  E(UHF) =  -974.109942604     A.U. after    2 cycles

 The electronic state is 2-A.
 Alpha  occ. eigenvalues -- -103.70587 -93.62409 -15.66907 -11.32941 -10.74075
 Alpha  occ. eigenvalues --   -8.92238  -8.39806  -8.39547  -8.39479  -7.75830
 Alpha  occ. eigenvalues --   -6.26375  -6.26096  -6.25789  -1.21913  -1.20416
 Alpha  occ. eigenvalues --   -1.06610  -0.76470  -0.67193  -0.59383  -0.57188
 Alpha  occ. eigenvalues --   -0.55661  -0.53102  -0.52670  -0.47998  -0.42307
 Alpha  occ. eigenvalues --   -0.38883
 Alpha virt. eigenvalues --    0.03039   0.04176   0.04955   0.05511   0.06092
 Alpha virt. eigenvalues --    0.09692   0.09897   0.10470   0.12435   0.12772
 Alpha virt. eigenvalues --    0.13020   0.14662   0.15392   0.16223   0.16921

  Beta  occ. eigenvalues -- -103.70519 -93.62389 -15.67030 -11.32635 -10.73998
  Beta  occ. eigenvalues --   -8.92170  -8.39715  -8.39495  -8.39294  -7.73677
  Beta  occ. eigenvalues --   -6.26456  -6.26016  -6.25833  -1.21783  -1.19698
  Beta  occ. eigenvalues --   -1.05681  -0.73059  -0.65975  -0.58261  -0.56277
  Beta  occ. eigenvalues --   -0.55381  -0.52752  -0.51343  -0.47305  -0.42517
  Beta virt. eigenvalues --    0.01719   0.04667   0.04987   0.05575   0.07045
  Beta virt. eigenvalues --    0.07786   0.09721   0.10379   0.10624   0.12473
  Beta virt. eigenvalues --    0.12808   0.13218   0.15223   0.16378   0.17047

 Mulliken charges and spin densities:
               1          2
     1  Cl  -0.120601  -0.003938
     2  B    0.302877   1.026419
     3  C   -0.545023   0.128738
     4  N   -0.123990  -0.048873
     5  S    0.486737  -0.102347
 Sum of Mulliken charges =  -0.00000   1.00000

 Dipole moment (field-independent basis, Debye):
    X=              1.3578    Y=             -2.6848    Z=             -0.0000  Tot=              3.0086
                          Isotropic Fermi Contact Couplings
        Atom                 a.u.       MegaHertz       Gauss      10(-4) cm-1
     1  Cl(35)             0.06148      26.95626       9.61866       8.99164
     2  B(11)              0.37679     540.45888     192.84917     180.27768
     3  C(13)              0.06903      77.60789      27.69243      25.88721
     4  N(14)             -0.00626      -2.02276      -0.72177      -0.67472
     5  S(33)              0.21964      75.44162      26.91944      25.16461
 --------------------------------------------------------
       Center         ----  Spin Dipole Couplings  ----
                      3XX-RR        3YY-RR        3ZZ-RR

 1\1\GINC-SE457\SP\UHF\Aug-CC-pVDZ\C1B1Cl1N1S1(2)\OHZDE\08-Apr-2025\0\\
 #t hf aug-cc-pvdz iop(5/13=1,5/36=2,99/5=2) pseudo=read geom=check gue
 ss=(read,tcheck) scf=(maxcycle=1)\\title\\0,2\Cl,0,-1.902412,0.443831,
 0.000001\B,0,-0.86906,-0.923497,-0.000005\C,0,1.485398,0.531599,0.0000
 04\N,0,1.894244,1.614019,-0.000003\S,0,0.907138,-1.088461,0.\\Version=
 ES64L-G16RevC.01\State=2-A\HF=-974.1099426\S2=0.758699\S2-1=0.\S2A=0.7
 50062\RMSD=4.841e-03\Dipole=-0.5342006,-1.0562919,0.0000019\Quadrupole
 =-0.6802074,-1.2588192,1.9390266,-3.7116474,0.0000101,0.0000046\PG=C01

 Normal termination of Gaussian 16 at Tue Apr  8 23:54:23 2025.
