 Gaussian 16, Revision C.01,

 ----------------------------------------------------------------------
 #t hf aug-cc-pvdz symm=none int=(grid=ultrafine) guess=(read,tcheck) s
 table=(opt,rrhf)
 ----------------------------------------------------------------------
 -----
 title
 -----
 Symbolic Z-matrix:
 Charge =  0 Multiplicity = 1

 SCF Done:  E(RHF) =  -1196.17964603     A.U. after   15 cycles
 Normal termination of Gaussian 16 at Tue Apr  8 23:39:31 2025.
 Gaussian 16:  ES64L-G16RevC.01  3-Jul-2019

 ----------------------------------------------------------------------
 #t hf aug-cc-pvdz iop(5/13=1,5/36=2,99/5=2) pseudo=read geom=check gue
 ss=(read,tcheck) scf=(maxcycle=1)
 ----------------------------------------------------------------------
 -----
 title
 -----
 Structure from the checkpoint file:  "BDE49_nonexpt_1567_mol1.chk"
 Charge =  0 Multiplicity = 1

                         Standard orientation:
 ---------------------------------------------------------------------
 Center     Atomic      Atomic             Coordinates (Angstroms)
 Number     Number       Type             X           Y           Z
 ---------------------------------------------------------------------
      1          6           0       -2.158948   -0.083848    0.149278
      2          6           0       -1.550318    1.163827    0.070214
      3          6           0       -0.196073    1.239407   -0.223989
      4          6           0       -1.412051   -1.235762   -0.064221
      5          6           0       -0.055185   -1.131383   -0.349874
      6          6           0        0.586533    0.104413   -0.441684
      7          9           0       -3.459227   -0.174232    0.427667
      8          9           0       -2.271174    2.270323    0.274928
      9          9           0        0.358045    2.458076   -0.295692
     10          9           0       -2.002413   -2.432533    0.015279
     11          9           0        0.615511   -2.274139   -0.544592
     12          7           0        3.029138    0.441580    0.733317
     13          8           0        2.960400   -0.761349    1.518678
     14          1           0        2.441062   -0.488305    2.283945
     15         15           0        2.374279    0.323162   -0.856744
     16          1           0        2.599594   -1.041995   -1.157250
     17          1           0        4.007563    0.715211    0.705168
 ---------------------------------------------------------------------

 SCF Done:  E(RHF) =  -1196.49067003     A.U. after    2 cycles

 The electronic state is 1-A.
 Alpha  occ. eigenvalues --  -81.31015 -26.18459 -26.17707 -26.17660 -26.17505
 Alpha  occ. eigenvalues --  -26.17466 -20.62919 -15.69579 -11.39992 -11.39494
 Alpha  occ. eigenvalues --  -11.39342 -11.38675 -11.38660 -11.30139  -7.81044
 Alpha  occ. eigenvalues --   -4.95185  -4.95052  -4.94746  -1.72925  -1.72060
 Alpha  occ. eigenvalues --   -1.71862  -1.71069  -1.70968  -1.37523  -1.22130
 Alpha  occ. eigenvalues --   -1.09905  -1.08945  -1.07946  -0.96186  -0.95541
 Alpha  occ. eigenvalues --   -0.87774  -0.87390  -0.86502  -0.81836  -0.81416
 Alpha  occ. eigenvalues --   -0.81340  -0.80034  -0.79727  -0.79504  -0.79077
 Alpha  occ. eigenvalues --   -0.77796  -0.77610  -0.76017  -0.75851  -0.72387
 Alpha  occ. eigenvalues --   -0.69393  -0.67996  -0.67462  -0.63441  -0.62411
 Alpha  occ. eigenvalues --   -0.55730  -0.55295  -0.51667  -0.43076  -0.41404
 Alpha  occ. eigenvalues --   -0.38976  -0.37188
 Alpha virt. eigenvalues --    0.03125   0.04121   0.04775   0.06126   0.06651
 Alpha virt. eigenvalues --    0.07645   0.08315   0.08919   0.09298   0.09594
 Alpha virt. eigenvalues --    0.10507   0.11394   0.11439   0.12485   0.12550

 Mulliken charges:
               1
     1  C    0.439338
     2  C    0.319013
     3  C    0.017533
     4  C    0.202936
     5  C    0.094823
     6  C    0.072785
     7  F   -0.264250
     8  F   -0.227085
     9  F   -0.298437
    10  F   -0.236489
    11  F   -0.296583
    12  N   -0.293605
    13  O   -0.510112
    14  H    0.199353
    15  P    0.665507
    16  H    0.069707
    17  H    0.045566
 Sum of Mulliken charges =  -0.00000

 Dipole moment (field-independent basis, Debye):
    X=              2.0862    Y=              0.4062    Z=              0.3297  Tot=              2.1508

 Test job not archived.
 1\1\GINC-SE118\SP\RHF\Aug-CC-pVDZ\C6H3F5N1O1P1\OHZDE\08-Apr-2025\0\\#t
  hf aug-cc-pvdz iop(5/13=1,5/36=2,99/5=2) pseudo=read geom=check guess
 =(read,tcheck) scf=(maxcycle=1)\\title\\0,1\C,0,-2.158948,-0.083848,0.
 149278\C,0,-1.550318,1.163827,0.070214\C,0,-0.196073,1.239407,-0.22398
 9\C,0,-1.412051,-1.235762,-0.064221\C,0,-0.055185,-1.131383,-0.349874\
 C,0,0.586533,0.104413,-0.441684\F,0,-3.459227,-0.174232,0.427667\F,0,-
 2.271174,2.270323,0.274928\F,0,0.358045,2.458076,-0.295692\F,0,-2.0024
 13,-2.432533,0.015279\F,0,0.615511,-2.274139,-0.544592\N,0,3.029138,0.

 Normal termination of Gaussian 16 at Tue Apr  8 23:39:45 2025.
