 Gaussian 16, Revision C.01,

 ----------------------------------------------------------------------
 #t hf aug-cc-pvdz symm=none int=(grid=ultrafine) guess=(read,tcheck) s
 table=(opt,rrhf)
 ----------------------------------------------------------------------
 -----
 title
 -----
 Symbolic Z-matrix:
 Charge =  0 Multiplicity = 1

 SCF Done:  E(RHF) =  -419.357446417     A.U. after   12 cycles
 Normal termination of Gaussian 16 at Tue Apr  8 23:23:53 2025.
 Gaussian 16:  ES64L-G16RevC.01  3-Jul-2019

 ----------------------------------------------------------------------
 #t hf aug-cc-pvdz iop(5/13=1,5/36=2,99/5=2) pseudo=read geom=check gue
 ss=(read,tcheck) scf=(maxcycle=1)
 ----------------------------------------------------------------------
 -----
 title
 -----
 Structure from the checkpoint file:  "BDE49_nonexpt_1289_mol1.chk"
 Charge =  0 Multiplicity = 1

                         Standard orientation:
 ---------------------------------------------------------------------
 Center     Atomic      Atomic             Coordinates (Angstroms)
 Number     Number       Type             X           Y           Z
 ---------------------------------------------------------------------
      1         15           0       -1.111296    0.053035   -0.110733
      2          6           0        0.628321   -0.504376    0.011226
      3          6           0        1.710022    0.272150    0.017160
      4          1           0        0.752102   -1.585035   -0.031442
      5          1           0        1.643331    1.355058    0.048589
      6          1           0        2.709130   -0.151091   -0.009574
      7          1           0       -0.912935    1.387974    0.324770
      8          1           0       -1.552239   -0.409082    1.158330
 ---------------------------------------------------------------------

 SCF Done:  E(RHF) =  -419.404498649     A.U. after    2 cycles

 The electronic state is 1-A.
 Alpha  occ. eigenvalues --  -81.26046 -11.25584 -11.24916  -7.76445  -4.90439
 Alpha  occ. eigenvalues --   -4.90377  -4.90057  -1.04180  -0.83572  -0.74442
 Alpha  occ. eigenvalues --   -0.63603  -0.58360  -0.51374  -0.48164  -0.41585
 Alpha  occ. eigenvalues --   -0.33650
 Alpha virt. eigenvalues --    0.03530   0.04938   0.05026   0.06699   0.07941
 Alpha virt. eigenvalues --    0.08802   0.09869   0.11460   0.11846   0.14062
 Alpha virt. eigenvalues --    0.14903   0.15457   0.16898   0.17871   0.18967

 Mulliken charges:
               1
     1  P    0.072709
     2  C    0.125497
     3  C    0.486335
     4  H   -0.387366
     5  H   -0.285767
     6  H   -0.247901
     7  H    0.089017
     8  H    0.147476
 Sum of Mulliken charges =   0.00000

 Dipole moment (field-independent basis, Debye):
    X=              0.7204    Y=              0.0348    Z=              0.5432  Tot=              0.9029

 Test job not archived.
 1\1\GINC-SE461\SP\RHF\Aug-CC-pVDZ\C2H5P1\OHZDE\08-Apr-2025\0\\#t hf au
 g-cc-pvdz iop(5/13=1,5/36=2,99/5=2) pseudo=read geom=check guess=(read
 ,tcheck) scf=(maxcycle=1)\\title\\0,1\P,0,-1.111296,0.053035,-0.110733
 \C,0,0.628321,-0.504376,0.011226\C,0,1.710022,0.27215,0.01716\H,0,0.75
 2103,-1.585035,-0.031442\H,0,1.643331,1.355058,0.048589\H,0,2.70913,-0
 .151091,-0.009574\H,0,-0.912935,1.387974,0.32477\H,0,-1.552239,-0.4090
 83,1.15833\\Version=ES64L-G16RevC.01\State=1-A\HF=-419.4044986\RMSD=1.
 361e-02\Dipole=0.2834084,0.0136741,0.2137219\Quadrupole=0.2777424,1.79

 Normal termination of Gaussian 16 at Tue Apr  8 23:23:55 2025.
