 Gaussian 16, Revision C.01,

 ----------------------------------------------------------------------
 #t hf aug-cc-pvdz symm=none int=(grid=ultrafine) guess=(read,tcheck) s
 table=(opt,rrhf)
 ----------------------------------------------------------------------
 -----
 title
 -----
 Symbolic Z-matrix:
 Charge =  0 Multiplicity = 1

 SCF Done:  E(RHF) =  -491.120254999     A.U. after   12 cycles
 Normal termination of Gaussian 16 at Wed Apr  9 00:32:42 2025.
 Gaussian 16:  ES64L-G16RevC.01  3-Jul-2019

 ----------------------------------------------------------------------
 #t hf aug-cc-pvdz iop(5/13=1,5/36=2,99/5=2) pseudo=read geom=check gue
 ss=(read,tcheck) scf=(maxcycle=1)
 ----------------------------------------------------------------------
 -----
 title
 -----
 Structure from the checkpoint file:  "BDE49_nonexpt_417_mol1.chk"
 Charge =  0 Multiplicity = 1

                         Standard orientation:
 ---------------------------------------------------------------------
 Center     Atomic      Atomic             Coordinates (Angstroms)
 Number     Number       Type             X           Y           Z
 ---------------------------------------------------------------------
      1          9           0       -2.228922    0.480892    0.300038
      2          5           0       -1.275861   -0.412045    0.081522
      3          9           0       -1.647716   -1.579966   -0.407515
      4          6           0        0.233706   -0.115022    0.487217
      5          8           0        0.563310    1.257725    0.577589
      6          8           0        1.077290   -0.839434   -0.375458
      7          6           0        0.408320    1.982285   -0.641042
      8          1           0        0.752069    2.996847   -0.443172
      9          1           0       -0.643044    2.020221   -0.952106
     10          1           0        1.007778    1.544219   -1.444608
     11          6           0        2.418227   -0.951586    0.093919
     12          1           0        2.967922   -1.516693   -0.657948
     13          1           0        2.450820   -1.493366    1.048610
     14          1           0        2.879751    0.031286    0.226646
     15          1           0        0.367436   -0.471016    1.524646
 ---------------------------------------------------------------------

 SCF Done:  E(RHF) =  -491.298447854     A.U. after    2 cycles

 The electronic state is 1-A.
 Alpha  occ. eigenvalues --  -26.14390 -26.14235 -20.58989 -20.58772 -11.34508
 Alpha  occ. eigenvalues --  -11.29159 -11.28987  -7.74417  -1.69706  -1.67423
 Alpha  occ. eigenvalues --   -1.38099  -1.31542  -0.99738  -0.94360  -0.88801
 Alpha  occ. eigenvalues --   -0.85320  -0.82583  -0.78373  -0.77467  -0.72592
 Alpha  occ. eigenvalues --   -0.72204  -0.71035  -0.69484  -0.68424  -0.62775
 Alpha  occ. eigenvalues --   -0.61555  -0.59410  -0.53942  -0.53814  -0.48137
 Alpha  occ. eigenvalues --   -0.46940  -0.45935
 Alpha virt. eigenvalues --    0.03215   0.04405   0.04614   0.04931   0.06364
 Alpha virt. eigenvalues --    0.06609   0.06752   0.06965   0.08013   0.09477
 Alpha virt. eigenvalues --    0.11040   0.12521   0.12677   0.13976   0.14735

 Mulliken charges:
               1
     1  F   -0.365002
     2  B    0.950842
     3  F   -0.473096
     4  C    0.880015
     5  O   -0.746313
     6  O   -0.687636
     7  C    0.779439
     8  H   -0.247699
     9  H   -0.110022
    10  H   -0.052958
    11  C    0.722636
    12  H   -0.237788
    13  H   -0.068566
    14  H   -0.050050
    15  H   -0.293802
 Sum of Mulliken charges =  -0.00000

 Dipole moment (field-independent basis, Debye):
    X=              1.9730    Y=              0.4164    Z=              0.1838  Tot=              2.0248

 Test job not archived.
 1\1\GINC-SE366\SP\RHF\Aug-CC-pVDZ\C3H7B1F2O2\OHZDE\09-Apr-2025\0\\#t h
 f aug-cc-pvdz iop(5/13=1,5/36=2,99/5=2) pseudo=read geom=check guess=(
 read,tcheck) scf=(maxcycle=1)\\title\\0,1\F,0,-2.228922,0.480892,0.300
 038\B,0,-1.275861,-0.412045,0.081522\F,0,-1.647716,-1.579966,-0.407515
 \C,0,0.233706,-0.115022,0.487217\O,0,0.56331,1.257725,0.577589\O,0,1.0
 7729,-0.839434,-0.375458\C,0,0.40832,1.982285,-0.641042\H,0,0.75207,2.
 996847,-0.443172\H,0,-0.643044,2.020221,-0.952106\H,0,1.007778,1.54421
 9,-1.444608\C,0,2.418227,-0.951586,0.093919\H,0,2.967922,-1.516694,-0.

 Normal termination of Gaussian 16 at Wed Apr  9 00:32:56 2025.
