 Gaussian 16, Revision C.01,

 ----------------------------------------------------------------------
 #t hf aug-cc-pvdz symm=none int=(grid=ultrafine) guess=(read,tcheck) s
 table=(opt,rrhf)
 ----------------------------------------------------------------------
 -----
 title
 -----
 Symbolic Z-matrix:
 Charge =  0 Multiplicity = 1

 SCF Done:  E(RHF) =  -491.594742890     A.U. after   12 cycles
 Normal termination of Gaussian 16 at Tue Apr  8 23:35:53 2025.
 Gaussian 16:  ES64L-G16RevC.01  3-Jul-2019

 ----------------------------------------------------------------------
 #t hf aug-cc-pvdz iop(5/13=1,5/36=2,99/5=2) pseudo=read geom=check gue
 ss=(read,tcheck) scf=(maxcycle=1)
 ----------------------------------------------------------------------
 -----
 title
 -----
 Structure from the checkpoint file:  "BDE49_nonexpt_1538_mol1.chk"
 Charge =  0 Multiplicity = 1

                         Standard orientation:
 ---------------------------------------------------------------------
 Center     Atomic      Atomic             Coordinates (Angstroms)
 Number     Number       Type             X           Y           Z
 ---------------------------------------------------------------------
      1         15           0       -0.820915   -0.631994    0.092859
      2          6           0        0.993126   -0.566435   -0.369071
      3          7           0       -1.295992    1.004391   -0.065940
      4          7           0        1.647233    0.627253    0.179740
      5          1           0        1.043047   -0.515641   -1.460875
      6          1           0        1.447231   -1.524767   -0.070414
      7          1           0        2.561935    0.770080   -0.237045
      8          1           0        1.784798    0.525887    1.180664
      9          1           0       -0.566842   -0.642855    1.493759
     10          1           0       -1.851391    1.183709   -0.890945
     11          1           0       -0.522495    1.660608    0.009792
 ---------------------------------------------------------------------

 SCF Done:  E(RHF) =  -491.669203516     A.U. after    2 cycles

 The electronic state is 1-A.
 Alpha  occ. eigenvalues --  -81.26469 -15.62070 -15.60423 -11.26750  -7.76495
 Alpha  occ. eigenvalues --   -4.90585  -4.90376  -4.90158  -1.15495  -1.10531
 Alpha  occ. eigenvalues --   -0.90640  -0.74329  -0.66760  -0.65545  -0.61447
 Alpha  occ. eigenvalues --   -0.56883  -0.54154  -0.49108  -0.41136  -0.38071
 Alpha  occ. eigenvalues --   -0.33809
 Alpha virt. eigenvalues --    0.03245   0.04283   0.04822   0.05086   0.07454
 Alpha virt. eigenvalues --    0.07719   0.08032   0.10532   0.11316   0.12951
 Alpha virt. eigenvalues --    0.13063   0.14843   0.16833   0.17608   0.18534

 Mulliken charges:
               1
     1  P    0.728464
     2  C    0.428365
     3  N   -0.499069
     4  N   -0.468681
     5  H   -0.207033
     6  H   -0.134035
     7  H    0.006730
     8  H    0.040344
     9  H    0.018351
    10  H    0.027425
    11  H    0.059138
 Sum of Mulliken charges =   0.00000

 Dipole moment (field-independent basis, Debye):
    X=              2.3676    Y=              0.2391    Z=             -0.5947  Tot=              2.4529

 Test job not archived.
 1\1\GINC-SE132\SP\RHF\Aug-CC-pVDZ\C1H7N2P1\OHZDE\08-Apr-2025\0\\#t hf
 aug-cc-pvdz iop(5/13=1,5/36=2,99/5=2) pseudo=read geom=check guess=(re
 ad,tcheck) scf=(maxcycle=1)\\title\\0,1\P,0,-0.820915,-0.631994,0.0928
 59\C,0,0.993126,-0.566435,-0.369071\N,0,-1.295991,1.004391,-0.06594\N,
 0,1.647233,0.627252,0.17974\H,0,1.043047,-0.515641,-1.460875\H,0,1.447
 231,-1.524767,-0.070414\H,0,2.561935,0.770079,-0.237045\H,0,1.784798,0
 .525886,1.180664\H,0,-0.566842,-0.642855,1.493759\H,0,-1.85139,1.18371
 ,-0.890945\H,0,-0.522494,1.660608,0.009792\\Version=ES64L-G16RevC.01\S

 Normal termination of Gaussian 16 at Tue Apr  8 23:35:56 2025.
