 Gaussian 16, Revision C.01,

 ----------------------------------------------------------------------
 #t hf aug-cc-pvdz symm=none int=(grid=ultrafine) guess=(read,tcheck) s
 table=(opt,rrhf)
 ----------------------------------------------------------------------
 -----
 title
 -----
 Symbolic Z-matrix:
 Charge =  0 Multiplicity = 1

 SCF Done:  E(RHF) =  -1036.13132700     A.U. after   13 cycles

 1\1\GINC-SE328\Stability\RHF\Aug-CC-pVDZ\C3H6Cl2\OHZDE\08-Apr-2025\0\\
 #t hf aug-cc-pvdz symm=none int=(grid=ultrafine) guess=(read,tcheck) s
 table=(opt,rrhf)\\title\\0,1\C,0,0.448731,1.685719,0.145654\H,0,0.6345
 78,1.736385,1.220884\H,0,-0.522757,2.139942,-0.063523\H,0,1.219059,2.2
 62314,-0.367319\C,0,0.450463,0.245938,-0.336134\C,0,-0.560691,-0.66444
 7,0.347411\Cl,0,2.096477,-0.507364,-0.020336\H,0,-0.480993,-0.606164,1
 .431432\Cl,0,-2.258782,-0.176792,-0.08362\H,0,0.327043,0.189633,-1.416
 777\H,0,-0.448774,-1.694711,0.020963\\Version=ES64L-G16RevC.01\HF=-103

 Normal termination of Gaussian 16 at Tue Apr  8 22:29:22 2025.
 Gaussian 16:  ES64L-G16RevC.01  3-Jul-2019

 ----------------------------------------------------------------------
 #t hf aug-cc-pvdz iop(5/13=1,5/36=2,99/5=2) pseudo=read geom=check gue
 ss=(read,tcheck) scf=(maxcycle=1)
 ----------------------------------------------------------------------
 -----
 title
 -----
 Structure from the checkpoint file:  "BDE49_expt_1028_mol1.chk"
 Charge =  0 Multiplicity = 1

                         Standard orientation:
 ---------------------------------------------------------------------
 Center     Atomic      Atomic             Coordinates (Angstroms)
 Number     Number       Type             X           Y           Z
 ---------------------------------------------------------------------
      1          6           0        0.448731    1.685719    0.145654
      2          1           0        0.634578    1.736385    1.220884
      3          1           0       -0.522757    2.139942   -0.063523
      4          1           0        1.219059    2.262314   -0.367319
      5          6           0        0.450463    0.245938   -0.336134
      6          6           0       -0.560691   -0.664447    0.347411
      7         17           0        2.096477   -0.507364   -0.020336
      8          1           0       -0.480993   -0.606164    1.431432
      9         17           0       -2.258782   -0.176792   -0.083620
     10          1           0        0.327043    0.189633   -1.416777
     11          1           0       -0.448774   -1.694711    0.020963
 ---------------------------------------------------------------------

 SCF Done:  E(RHF) =  -1036.20432058     A.U. after    2 cycles

 The electronic state is 1-A.
 Alpha  occ. eigenvalues -- -103.66200-103.65777 -11.33188 -11.32377 -11.25170
 Alpha  occ. eigenvalues --  -10.69466 -10.69046  -8.35182  -8.34901  -8.34888
 Alpha  occ. eigenvalues --   -8.34753  -8.34481  -8.34470  -1.19367  -1.15419
 Alpha  occ. eigenvalues --   -1.03111  -0.94946  -0.82089  -0.68113  -0.63763
 Alpha  occ. eigenvalues --   -0.62332  -0.57692  -0.55213  -0.54422  -0.50975
 Alpha  occ. eigenvalues --   -0.47169  -0.45845  -0.45661  -0.45003
 Alpha virt. eigenvalues --    0.03726   0.04675   0.04763   0.06076   0.06892
 Alpha virt. eigenvalues --    0.07361   0.08665   0.10106   0.12987   0.13368
 Alpha virt. eigenvalues --    0.14075   0.14963   0.15165   0.16401   0.16921

 Mulliken charges:
               1
     1  C    0.557332
     2  H   -0.009570
     3  H   -0.003384
     4  H   -0.042087
     5  C   -0.448760
     6  C    0.264579
     7  Cl  -0.173620
     8  H    0.048174
     9  Cl  -0.140151
    10  H   -0.073055
    11  H    0.020542
 Sum of Mulliken charges =  -0.00000

 Dipole moment (field-independent basis, Debye):
    X=             -0.0063    Y=              0.6854    Z=              0.1355  Tot=              0.6987

 Test job not archived.
 1\1\GINC-SE328\SP\RHF\Aug-CC-pVDZ\C3H6Cl2\OHZDE\08-Apr-2025\0\\#t hf a
 ug-cc-pvdz iop(5/13=1,5/36=2,99/5=2) pseudo=read geom=check guess=(rea
 d,tcheck) scf=(maxcycle=1)\\title\\0,1\C,0,0.448731,1.685719,0.145654\
 H,0,0.634578,1.736385,1.220884\H,0,-0.522757,2.139942,-0.063523\H,0,1.
 219059,2.262314,-0.367319\C,0,0.450463,0.245938,-0.336134\C,0,-0.56069
 1,-0.664447,0.347411\Cl,0,2.096477,-0.507364,-0.020336\H,0,-0.480993,-
 0.606164,1.431432\Cl,0,-2.258782,-0.176792,-0.08362\H,0,0.327043,0.189
 633,-1.416777\H,0,-0.448774,-1.694711,0.020963\\Version=ES64L-G16RevC.

 Normal termination of Gaussian 16 at Tue Apr  8 22:29:26 2025.
