 Gaussian 16, Revision C.01,

 ----------------------------------------------------------------------
 #t hf aug-cc-pvdz symm=none int=(grid=ultrafine) guess=(read,tcheck) s
 table=opt
 ----------------------------------------------------------------------
 -----
 title
 -----
 Symbolic Z-matrix:
 Charge =  0 Multiplicity = 2

 SCF Done:  E(UHF) =  -983.805692233     A.U. after   23 cycles
 Normal termination of Gaussian 16 at Tue Apr  8 23:08:09 2025.
 Gaussian 16:  ES64L-G16RevC.01  3-Jul-2019

 ----------------------------------------------------------------------
 #t hf aug-cc-pvdz iop(5/13=1,5/36=2,99/5=2) pseudo=read geom=check gue
 ss=(read,tcheck) scf=(maxcycle=1)
 ----------------------------------------------------------------------
 -----
 title
 -----
 Structure from the checkpoint file:  "BDE49_expt_625_mol2.chk"
 Charge =  0 Multiplicity = 2

                         Standard orientation:
 ---------------------------------------------------------------------
 Center     Atomic      Atomic             Coordinates (Angstroms)
 Number     Number       Type             X           Y           Z
 ---------------------------------------------------------------------
      1          6           0        0.435477   -0.034324   -0.352092
      2          8           0        1.105693   -1.024400    0.436279
      3          8           0        2.119857   -1.557975   -0.222709
      4          6           0       -1.060872   -0.140802   -0.019770
      5         17           0        1.076927    1.586538    0.012591
      6          1           0        0.607206   -0.250489   -1.403479
      7          9           0       -1.755562    0.751907   -0.736933
      8          9           0       -1.490934   -1.369940   -0.348963
      9          9           0       -1.305391    0.061266    1.276122
 ---------------------------------------------------------------------

 SCF Done:  E(UHF) =  -984.005550325     A.U. after    2 cycles

 The electronic state is 2-A.
 Alpha  occ. eigenvalues -- -103.69944 -26.19429 -26.19275 -26.19260 -20.73636
 Alpha  occ. eigenvalues --  -20.72610 -11.56328 -11.42685 -10.73257  -8.38998
 Alpha  occ. eigenvalues --   -8.38652  -8.38646  -1.79127  -1.72089  -1.71902
 Alpha  occ. eigenvalues --   -1.57021  -1.27825  -1.18776  -1.08178  -0.97185
 Alpha  occ. eigenvalues --   -0.91128  -0.90919  -0.86997  -0.82575  -0.80261
 Alpha  occ. eigenvalues --   -0.79683  -0.77152  -0.75586  -0.75090  -0.74366
 Alpha  occ. eigenvalues --   -0.74178  -0.65216  -0.64345  -0.57414  -0.55187
 Alpha  occ. eigenvalues --   -0.50473  -0.49829
 Alpha virt. eigenvalues --    0.03868   0.06916   0.07734   0.09110   0.10871
 Alpha virt. eigenvalues --    0.11234   0.12424   0.12849   0.15027   0.15040
 Alpha virt. eigenvalues --    0.16619   0.17211   0.18087   0.19366   0.22331

  Beta  occ. eigenvalues -- -103.69935 -26.19432 -26.19275 -26.19259 -20.71872
  Beta  occ. eigenvalues --  -20.69472 -11.56330 -11.42748 -10.73249  -8.38959
  Beta  occ. eigenvalues --   -8.38653  -8.38636  -1.79129  -1.72093  -1.71902
  Beta  occ. eigenvalues --   -1.51195  -1.23604  -1.14123  -1.07020  -0.96372
  Beta  occ. eigenvalues --   -0.91054  -0.90872  -0.86480  -0.80184  -0.79966
  Beta  occ. eigenvalues --   -0.76136  -0.75653  -0.74358  -0.74138  -0.72828
  Beta  occ. eigenvalues --   -0.68667  -0.63781  -0.56800  -0.54111  -0.50190
  Beta  occ. eigenvalues --   -0.49817
  Beta virt. eigenvalues --    0.03753   0.05273   0.06982   0.07749   0.09166
  Beta virt. eigenvalues --    0.10950   0.11423   0.12464   0.14021   0.15051
  Beta virt. eigenvalues --    0.15158   0.16907   0.17406   0.18174   0.19492

 Mulliken charges and spin densities:
               1          2
     1  C    0.288739  -0.018113
     2  O   -0.397164   0.059968
     3  O   -0.115092   0.959432
     4  C    1.089074  -0.000575
     5  Cl  -0.064254   0.003971
     6  H    0.043027  -0.004712
     7  F   -0.281395  -0.000116
     8  F   -0.292749   0.000040
     9  F   -0.270185   0.000104
 Sum of Mulliken charges =   0.00000   1.00000

 Dipole moment (field-independent basis, Debye):
    X=              0.5194    Y=              0.2535    Z=             -1.5763  Tot=              1.6789
                          Isotropic Fermi Contact Couplings
        Atom                 a.u.       MegaHertz       Gauss      10(-4) cm-1
     1  C(13)             -0.01189     -13.36707      -4.76970      -4.45878
     2  O(17)              0.07765     -47.07382     -16.79711     -15.70214
     3  O(17)              0.29608    -179.48054     -64.04312     -59.86827
     4  C(13)             -0.00087      -0.97825      -0.34906      -0.32631
     5  Cl(35)            -0.00210      -0.92179      -0.32892      -0.30748
     6  H(1)               0.00000       0.00510       0.00182       0.00170
     7  F(19)             -0.00049      -2.06857      -0.73812      -0.69000
     8  F(19)             -0.00006      -0.25140      -0.08970      -0.08386

 1\1\GINC-SE253\SP\UHF\Aug-CC-pVDZ\C2H1Cl1F3O2(2)\OHZDE\08-Apr-2025\0\\
 #t hf aug-cc-pvdz iop(5/13=1,5/36=2,99/5=2) pseudo=read geom=check gue
 ss=(read,tcheck) scf=(maxcycle=1)\\title\\0,2\C,0,0.435477,-0.034324,-
 0.352092\O,0,1.105693,-1.024399,0.436279\O,0,2.119857,-1.557974,-0.222
 709\C,0,-1.060872,-0.140802,-0.01977\Cl,0,1.076926,1.586538,0.012591\H
 ,0,0.607206,-0.250489,-1.403479\F,0,-1.755562,0.751907,-0.736933\F,0,-
 1.490934,-1.36994,-0.348963\F,0,-1.305391,0.061266,1.276122\\Version=E
 S64L-G16RevC.01\State=2-A\HF=-984.0055503\S2=0.762429\S2-1=0.\S2A=0.75

 Normal termination of Gaussian 16 at Tue Apr  8 23:08:14 2025.
