 Gaussian 16, Revision C.01,

 ----------------------------------------------------------------------
 #t hf aug-cc-pvdz symm=none int=(grid=ultrafine) guess=(read,tcheck) s
 table=(opt,rrhf)
 ----------------------------------------------------------------------
 -----
 title
 -----
 Symbolic Z-matrix:
 Charge =  0 Multiplicity = 1

 SCF Done:  E(RHF) =  -930.495299430     A.U. after   15 cycles
 Normal termination of Gaussian 16 at Tue Apr  8 23:30:04 2025.
 Gaussian 16:  ES64L-G16RevC.01  3-Jul-2019

 ----------------------------------------------------------------------
 #t hf aug-cc-pvdz iop(5/13=1,5/36=2,99/5=2) pseudo=read geom=check gue
 ss=(read,tcheck) scf=(maxcycle=1)
 ----------------------------------------------------------------------
 -----
 title
 -----
 Structure from the checkpoint file:  "BDE49_nonexpt_1396_mol1.chk"
 Charge =  0 Multiplicity = 1

                         Standard orientation:
 ---------------------------------------------------------------------
 Center     Atomic      Atomic             Coordinates (Angstroms)
 Number     Number       Type             X           Y           Z
 ---------------------------------------------------------------------
      1          6           0       -0.091721   -1.102952    1.376665
      2          6           0       -0.091721    0.241243    1.257818
      3         15           0        0.199888   -2.219695   -0.000000
      4          6           0       -0.091721   -1.102952   -1.376665
      5          6           0       -0.091721    0.241243   -1.257818
      6          6           0       -0.030347    0.975423    0.000000
      7          1           0       -0.142915   -1.549499    2.365217
      8          1           0       -0.152971    0.858044    2.148256
      9         16           0        0.061494    2.633228    0.000000
     10          1           0       -1.007074   -2.965361    0.000000
     11          1           0       -0.152971    0.858044   -2.148256
     12          1           0       -0.142915   -1.549499   -2.365217
 ---------------------------------------------------------------------

 SCF Done:  E(RHF) =  -930.590241363     A.U. after    2 cycles

 The electronic state is 1-A'.
 Alpha  occ. eigenvalues --  -93.50841 -81.28986 -11.33388 -11.28784 -11.28781
 Alpha  occ. eigenvalues --  -11.27684 -11.27678  -8.80646  -7.79491  -6.14811
 Alpha  occ. eigenvalues --   -6.14438  -6.14239  -4.93587  -4.93540  -4.93165
 Alpha  occ. eigenvalues --   -1.14934  -1.05185  -1.02001  -0.87871  -0.83866
 Alpha  occ. eigenvalues --   -0.79847  -0.68212  -0.65449  -0.65369  -0.61721
 Alpha  occ. eigenvalues --   -0.55558  -0.50690  -0.50435  -0.48649  -0.40612
 Alpha  occ. eigenvalues --   -0.40225  -0.33728  -0.31349
 Alpha virt. eigenvalues --    0.00861   0.02817   0.03612   0.04907   0.06058
 Alpha virt. eigenvalues --    0.06384   0.07517   0.08158   0.09122   0.09765
 Alpha virt. eigenvalues --    0.10007   0.12005   0.12677   0.12925   0.13223

 Mulliken charges:
               1
     1  C    0.188827
     2  C    0.497313
     3  P    0.586329
     4  C    0.188827
     5  C    0.497313
     6  C   -0.374281
     7  H   -0.451881
     8  H   -0.433978
     9  S   -0.012342
    10  H    0.199733
    11  H   -0.433978
    12  H   -0.451881
 Sum of Mulliken charges =  -0.00000

 Dipole moment (field-independent basis, Debye):
    X=             -0.8186    Y=             -4.0376    Z=             -0.0000  Tot=              4.1197

 Test job not archived.
 1\1\GINC-SE041\SP\RHF\Aug-CC-pVDZ\C5H5P1S1\OHZDE\08-Apr-2025\0\\#t hf
 aug-cc-pvdz iop(5/13=1,5/36=2,99/5=2) pseudo=read geom=check guess=(re
 ad,tcheck) scf=(maxcycle=1)\\title\\0,1\C,0,-0.091721,-1.102952,1.3766
 65\C,0,-0.091721,0.241243,1.257818\P,0,0.199888,-2.219695,0.\C,0,-0.09
 1721,-1.102952,-1.376665\C,0,-0.091721,0.241243,-1.257818\C,0,-0.03034
 7,0.975423,0.\H,0,-0.142915,-1.549499,2.365217\H,0,-0.152971,0.858044,
 2.148256\S,0,0.061494,2.633228,0.\H,0,-1.007074,-2.965361,0.\H,0,-0.15
 2971,0.858044,-2.148256\H,0,-0.142915,-1.549499,-2.365217\\Version=ES6

 Normal termination of Gaussian 16 at Tue Apr  8 23:30:10 2025.
