 Gaussian 16, Revision C.01,

 ----------------------------------------------------------------------
 #t hf aug-cc-pvdz symm=none int=(grid=ultrafine) guess=(read,tcheck) s
 table=(opt,rrhf)
 ----------------------------------------------------------------------
 -----
 title
 -----
 Symbolic Z-matrix:
 Charge =  0 Multiplicity = 1

 SCF Done:  E(RHF) =  -1253.31559313     A.U. after   14 cycles
 Normal termination of Gaussian 16 at Wed Apr  9 00:49:04 2025.
 Gaussian 16:  ES64L-G16RevC.01  3-Jul-2019

 ----------------------------------------------------------------------
 #t hf aug-cc-pvdz iop(5/13=1,5/36=2,99/5=2) pseudo=read geom=check gue
 ss=(read,tcheck) scf=(maxcycle=1)
 ----------------------------------------------------------------------
 -----
 title
 -----
 Structure from the checkpoint file:  "BDE49_nonexpt_929_mol1.chk"
 Charge =  0 Multiplicity = 1

                         Standard orientation:
 ---------------------------------------------------------------------
 Center     Atomic      Atomic             Coordinates (Angstroms)
 Number     Number       Type             X           Y           Z
 ---------------------------------------------------------------------
      1         17           0        0.875199    0.533039    2.406761
      2          7           0        0.123357   -0.102022    0.992615
      3          6           0        0.813537   -0.600589   -0.162835
      4          8           0        1.748871   -1.291105   -0.350047
      5          6           0       -0.813537    0.600589    0.162835
      6          7           0       -0.123357    0.102022   -0.992615
      7          8           0       -1.748871    1.291105    0.350047
      8         17           0       -0.875199   -0.533039   -2.406761
 ---------------------------------------------------------------------

 SCF Done:  E(RHF) =  -1253.45744451     A.U. after    2 cycles

 The electronic state is 1-AG.
 Alpha  occ. eigenvalues -- -103.74798-103.74798 -20.63089 -20.63089 -15.76891
 Alpha  occ. eigenvalues --  -15.76875 -11.47509 -11.47456 -10.77664 -10.77664
 Alpha  occ. eigenvalues --   -8.43438  -8.43433  -8.43001  -8.42998  -8.42975
 Alpha  occ. eigenvalues --   -8.42972  -1.47409  -1.44234  -1.37249  -1.28669
 Alpha  occ. eigenvalues --   -1.19982  -1.05707  -0.90569  -0.80243  -0.77509
 Alpha  occ. eigenvalues --   -0.75297  -0.74140  -0.70776  -0.66779  -0.62427
 Alpha  occ. eigenvalues --   -0.59527  -0.56859  -0.55926  -0.55126  -0.53520
 Alpha  occ. eigenvalues --   -0.48552  -0.46442  -0.45234
 Alpha virt. eigenvalues --    0.04615   0.04810   0.06426   0.06818   0.07448
 Alpha virt. eigenvalues --    0.09559   0.10115   0.11626   0.11658   0.12775
 Alpha virt. eigenvalues --    0.13021   0.13237   0.13404   0.15421   0.15425

 Mulliken charges:
               1
     1  Cl   0.427313
     2  N   -0.861346
     3  C    0.749667
     4  O   -0.315634
     5  C    0.749667
     6  N   -0.861346
     7  O   -0.315634
     8  Cl   0.427313
 Sum of Mulliken charges =  -0.00000

 Dipole moment (field-independent basis, Debye):
    X=             -0.0000    Y=             -0.0000    Z=             -0.0000  Tot=              0.0000

 Test job not archived.
 1\1\GINC-SE459\SP\RHF\Aug-CC-pVDZ\C2Cl2N2O2\OHZDE\09-Apr-2025\0\\#t hf
  aug-cc-pvdz iop(5/13=1,5/36=2,99/5=2) pseudo=read geom=check guess=(r
 ead,tcheck) scf=(maxcycle=1)\\title\\0,1\Cl,0,0.875199,0.533039,2.4067
 61\N,0,0.123357,-0.102022,0.992615\C,0,0.813537,-0.600589,-0.162835\O,
 0,1.748871,-1.291105,-0.350047\C,0,-0.813537,0.600589,0.162835\N,0,-0.
 123357,0.102022,-0.992615\O,0,-1.748871,1.291105,0.350047\Cl,0,-0.8751
 99,-0.533039,-2.406761\\Version=ES64L-G16RevC.01\State=1-AG\HF=-1253.4
 574445\RMSD=2.765e-03\Dipole=0.,0.,0.\Quadrupole=-3.7731565,-1.0377444

 Normal termination of Gaussian 16 at Wed Apr  9 00:49:07 2025.
