 Gaussian 16, Revision C.01,

 ----------------------------------------------------------------------
 #t hf aug-cc-pvdz symm=none int=(grid=ultrafine) guess=(read,tcheck) s
 table=opt
 ----------------------------------------------------------------------
 -----
 title
 -----
 Symbolic Z-matrix:
 Charge =  0 Multiplicity = 2

 SCF Done:  E(UHF) =  -195.726634942     A.U. after   16 cycles
 Normal termination of Gaussian 16 at Tue Apr  8 22:36:53 2025.
 Gaussian 16:  ES64L-G16RevC.01  3-Jul-2019

 ----------------------------------------------------------------------
 #t hf aug-cc-pvdz iop(5/13=1,5/36=2,99/5=2) pseudo=read geom=check gue
 ss=(read,tcheck) scf=(maxcycle=1)
 ----------------------------------------------------------------------
 -----
 title
 -----
 Structure from the checkpoint file:  "BDE49_expt_11_mol2.chk"
 Charge =  0 Multiplicity = 2

                         Standard orientation:
 ---------------------------------------------------------------------
 Center     Atomic      Atomic             Coordinates (Angstroms)
 Number     Number       Type             X           Y           Z
 ---------------------------------------------------------------------
      1          6           0        2.615452   -0.222961   -0.072258
      2          6           0        1.293342    0.454285    0.049892
      3          1           0        2.601858   -0.998250   -0.848373
      4          1           0        2.908168   -0.732566    0.861865
      5          1           0        3.415481    0.482058   -0.312104
      6          6           0        0.020532   -0.323329    0.101065
      7          1           0        1.267384    1.503104    0.331357
      8          6           0       -1.244445    0.526974   -0.084007
      9          1           0       -0.055844   -0.861741    1.064793
     10          1           0        0.043363   -1.118481   -0.659254
     11          6           0       -2.537460   -0.288836   -0.010853
     12          1           0       -1.187491    1.044029   -1.048327
     13          1           0       -1.261635    1.310691    0.682562
     14          1           0       -2.563307   -1.060292   -0.786927
     15          1           0       -3.417589    0.345727   -0.145453
     16          1           0       -2.634911   -0.791079    0.956832
 ---------------------------------------------------------------------

 SCF Done:  E(UHF) =  -195.789980495     A.U. after    2 cycles

 The electronic state is 2-A.
 Alpha  occ. eigenvalues --  -11.23216 -11.22726 -11.22636 -11.22463 -11.22128
 Alpha  occ. eigenvalues --   -1.07569  -1.01243  -0.92235  -0.81886  -0.77994
 Alpha  occ. eigenvalues --   -0.63965  -0.61048  -0.58146  -0.57182  -0.55604
 Alpha  occ. eigenvalues --   -0.53052  -0.50500  -0.47655  -0.47233  -0.46417
 Alpha  occ. eigenvalues --   -0.32622
 Alpha virt. eigenvalues --    0.03650   0.04242   0.04597   0.04964   0.06403
 Alpha virt. eigenvalues --    0.06492   0.06906   0.07635   0.09130   0.09223
 Alpha virt. eigenvalues --    0.10042   0.11433   0.13843   0.14365   0.14504

  Beta  occ. eigenvalues --  -11.22980 -11.22801 -11.22667 -11.22135 -11.20707
  Beta  occ. eigenvalues --   -1.05784  -0.99197  -0.92198  -0.80837  -0.74175
  Beta  occ. eigenvalues --   -0.62849  -0.60494  -0.56298  -0.55584  -0.54957
  Beta  occ. eigenvalues --   -0.52432  -0.50000  -0.47042  -0.46797  -0.46173
  Beta virt. eigenvalues --    0.03673   0.04253   0.04624   0.04989   0.06428
  Beta virt. eigenvalues --    0.06482   0.06834   0.07519   0.09141   0.09228
  Beta virt. eigenvalues --    0.09990   0.11151   0.12013   0.14100   0.14407

 Mulliken charges and spin densities:
               1          2
     1  C    0.309726  -0.257073
     2  C    0.289481   1.489590
     3  H   -0.045025   0.017278
     4  H    0.014054   0.047976
     5  H   -0.056675   0.003926
     6  C   -0.150555  -0.283569
     7  H   -0.458727  -0.100019
     8  C    0.207117   0.026128
     9  H   -0.059636   0.049739
    10  H   -0.079623   0.014932
    11  C    0.488827  -0.003888
    12  H   -0.115985  -0.000702
    13  H   -0.134284  -0.003882
    14  H   -0.082036   0.000272
    15  H   -0.055274  -0.000189
    16  H   -0.071385  -0.000517
 Sum of Mulliken charges =  -0.00000   1.00000

 Dipole moment (field-independent basis, Debye):
    X=              0.0073    Y=             -0.0473    Z=              0.1260  Tot=              0.1348
                          Isotropic Fermi Contact Couplings
        Atom                 a.u.       MegaHertz       Gauss      10(-4) cm-1
     1  C(13)             -0.06397     -71.91216     -25.66005     -23.98732
     2  C(13)              0.23432     263.42532      93.99670      87.86923
     3  H(1)               0.01102      49.28040      17.58447      16.43817
     4  H(1)               0.02580     115.32479      41.15075      38.46821
     5  H(1)               0.00458      20.48119       7.30820       6.83179
     6  C(13)             -0.06196     -69.65415     -24.85433     -23.23412
     7  H(1)              -0.02521    -112.67480     -40.20517     -37.58427
     8  C(13)              0.01054      11.84883       4.22796       3.95234

 Normal termination of Gaussian 16 at Tue Apr  8 22:36:57 2025.
