 Gaussian 16, Revision C.01,

 ----------------------------------------------------------------------
 #t hf aug-cc-pvdz symm=none int=(grid=ultrafine) guess=(read,tcheck) s
 table=opt
 ----------------------------------------------------------------------
 -----
 title
 -----
 Symbolic Z-matrix:
 Charge =  0 Multiplicity = 2

 SCF Done:  E(UHF) =  -421.266582523     A.U. after   20 cycles

 1\1\GINC-SE458\Stability\UHF\Aug-CC-pVDZ\C7H11O2\OHZDE\08-Apr-2025\0\\
 #t hf aug-cc-pvdz symm=none int=(grid=ultrafine) guess=(read,tcheck) s
 table=opt\\title\\0,2\C,0,-1.787405,0.12425,-0.040652\O,0,-2.408667,-1
 .088888,-0.15339\O,0,-2.405048,1.16524,-0.191942\H,0,-3.332471,-0.8883
 82,-0.358439\C,0,-0.373522,0.030687,0.26632\C,0,0.412137,1.289431,0.44
 0846\C,0,0.342501,-1.269953,0.445089\C,0,1.745183,1.240923,-0.338886\H
 ,0,0.645692,1.409593,1.511443\H,0,-0.192535,2.148957,0.150513\C,0,2.52
 5461,-0.04563,-0.041735\H,0,2.344357,2.121633,-0.089473\H,0,1.531749,1

 Normal termination of Gaussian 16 at Tue Apr  8 23:01:55 2025.
 Gaussian 16:  ES64L-G16RevC.01  3-Jul-2019

 ----------------------------------------------------------------------
 #t hf aug-cc-pvdz iop(5/13=1,5/36=2,99/5=2) pseudo=read geom=check gue
 ss=(read,tcheck) scf=(maxcycle=1)
 ----------------------------------------------------------------------
 -----
 title
 -----
 Structure from the checkpoint file:  "BDE49_expt_251_mol2.chk"
 Charge =  0 Multiplicity = 2

                         Standard orientation:
 ---------------------------------------------------------------------
 Center     Atomic      Atomic             Coordinates (Angstroms)
 Number     Number       Type             X           Y           Z
 ---------------------------------------------------------------------
      1          6           0       -1.787405    0.124250   -0.040652
      2          8           0       -2.408667   -1.088888   -0.153390
      3          8           0       -2.405048    1.165240   -0.191942
      4          1           0       -3.332471   -0.888382   -0.358439
      5          6           0       -0.373522    0.030687    0.266320
      6          6           0        0.412137    1.289431    0.440846
      7          6           0        0.342501   -1.269953    0.445089
      8          6           0        1.745183    1.240923   -0.338886
      9          1           0        0.645692    1.409593    1.511443
     10          1           0       -0.192535    2.148957    0.150513
     11          6           0        2.525461   -0.045630   -0.041735
     12          1           0        2.344357    2.121633   -0.089473
     13          1           0        1.531749    1.297690   -1.412619
     14          6           0        1.679531   -1.291305   -0.332355
     15          1           0        2.831231   -0.050913    1.012724
     16          1           0        3.446299   -0.072116   -0.632936
     17          1           0        1.464331   -1.342158   -1.406056
     18          1           0        2.231605   -2.200933   -0.077783
     19          1           0       -0.292163   -2.107184    0.156866
     20          1           0        0.568305   -1.397429    1.516660
 ---------------------------------------------------------------------

 SCF Done:  E(UHF) =  -421.395019744     A.U. after    2 cycles

 The electronic state is 2-A.
 Alpha  occ. eigenvalues --  -20.61502 -20.56985 -11.38542 -11.27268 -11.24196
 Alpha  occ. eigenvalues --  -11.23962 -11.23755 -11.23693 -11.23489  -1.41696
 Alpha  occ. eigenvalues --   -1.32481  -1.13305  -1.03783  -1.01125  -0.90475
 Alpha  occ. eigenvalues --   -0.85287  -0.80658  -0.75559  -0.71849  -0.69889
 Alpha  occ. eigenvalues --   -0.65820  -0.63205  -0.62192  -0.61426  -0.59111
 Alpha  occ. eigenvalues --   -0.56701  -0.54965  -0.53841  -0.53209  -0.49889
 Alpha  occ. eigenvalues --   -0.48901  -0.47853  -0.45949  -0.45510  -0.35833
 Alpha virt. eigenvalues --    0.03315   0.04034   0.04297   0.04344   0.05805
 Alpha virt. eigenvalues --    0.06432   0.06705   0.07088   0.07223   0.08744
 Alpha virt. eigenvalues --    0.09116   0.11146   0.11657   0.12340   0.13659

  Beta  occ. eigenvalues --  -20.61535 -20.55682 -11.39129 -11.25092 -11.24475
  Beta  occ. eigenvalues --  -11.23984 -11.23840 -11.23623 -11.23506  -1.41031
  Beta  occ. eigenvalues --   -1.30496  -1.11266  -1.01082  -1.00863  -0.89730
  Beta  occ. eigenvalues --   -0.85052  -0.79884  -0.74387  -0.71015  -0.68806
  Beta  occ. eigenvalues --   -0.63128  -0.62981  -0.61503  -0.60912  -0.57714
  Beta  occ. eigenvalues --   -0.55432  -0.54611  -0.53277  -0.49339  -0.47816
  Beta  occ. eigenvalues --   -0.47252  -0.46369  -0.45350  -0.45024
  Beta virt. eigenvalues --    0.03155   0.04024   0.04301   0.04359   0.05642
  Beta virt. eigenvalues --    0.06134   0.06492   0.06743   0.07112   0.07379
  Beta virt. eigenvalues --    0.08771   0.09120   0.11165   0.11670   0.12406

 Mulliken charges and spin densities:
               1          2
     1  C    0.567519  -0.442771
     2  O   -0.610730  -0.000957
     3  O   -0.494866   0.287695
     4  H    0.226421  -0.002756
     5  C   -0.325446   1.447255
     6  C    0.454520  -0.209433
     7  C    0.384577  -0.209436
     8  C    0.228819   0.026613
     9  H   -0.000429   0.038144
    10  H   -0.232968   0.001608
    11  C    0.363449  -0.003157
    12  H   -0.101841   0.001975
    13  H   -0.121499  -0.003320
    14  C    0.225299   0.030725
    15  H   -0.105755  -0.000807
    16  H   -0.089274   0.000952
    17  H   -0.119689  -0.003277
    18  H   -0.108103   0.002441
    19  H   -0.157954   0.001632
    20  H    0.017950   0.036874
 Sum of Mulliken charges =  -0.00000   1.00000

 Dipole moment (field-independent basis, Debye):
    X=              1.9209    Y=             -1.4920    Z=              0.2877  Tot=              2.4492
                          Isotropic Fermi Contact Couplings
        Atom                 a.u.       MegaHertz       Gauss      10(-4) cm-1
     1  C(13)             -0.09534    -107.18323     -38.24564     -35.75248
     2  O(17)             -0.01196       7.24774       2.58617       2.41759
     3  O(17)              0.11202     -67.90659     -24.23076     -22.65120
     4  H(1)              -0.00058      -2.61376      -0.93265      -0.87186
     5  C(13)              0.19598     220.31862      78.61516      73.49038
     6  C(13)             -0.05292     -59.48830     -21.22691     -19.84316
     7  C(13)             -0.05365     -60.30796     -21.51938     -20.11657
     8  C(13)              0.02498      28.08704      10.02216       9.36883

 Normal termination of Gaussian 16 at Tue Apr  8 23:02:05 2025.
