 Gaussian 16, Revision C.01,

 ----------------------------------------------------------------------
 #t hf aug-cc-pvdz symm=none int=(grid=ultrafine) guess=(read,tcheck) s
 table=(opt,rrhf)
 ----------------------------------------------------------------------
 -----
 title
 -----
 Symbolic Z-matrix:
 Charge =  0 Multiplicity = 1

 SCF Done:  E(RHF) =  -888.129314330     A.U. after   11 cycles
 Normal termination of Gaussian 16 at Tue Apr  8 23:48:15 2025.
 Gaussian 16:  ES64L-G16RevC.01  3-Jul-2019

 ----------------------------------------------------------------------
 #t hf aug-cc-pvdz iop(5/13=1,5/36=2,99/5=2) pseudo=read geom=check gue
 ss=(read,tcheck) scf=(maxcycle=1)
 ----------------------------------------------------------------------
 -----
 title
 -----
 Structure from the checkpoint file:  "BDE49_nonexpt_1852_mol1.chk"
 Charge =  0 Multiplicity = 1

                         Standard orientation:
 ---------------------------------------------------------------------
 Center     Atomic      Atomic             Coordinates (Angstroms)
 Number     Number       Type             X           Y           Z
 ---------------------------------------------------------------------
      1          6           0        1.284813   -0.693274   -0.000025
      2         14           0       -0.044515    0.648793    0.000021
      3         17           0       -1.905443   -0.292757   -0.000011
      4          1           0        0.051548    1.476731   -1.215312
      5          1           0        0.051549    1.476647    1.215412
      6          9           0        2.526520   -0.026824    0.000004
      7          1           0        1.232540   -1.329240   -0.888099
      8          1           0        1.232534   -1.329307    0.888002
 ---------------------------------------------------------------------

 SCF Done:  E(RHF) =  -888.220741894     A.U. after    2 cycles

 The electronic state is 1-A.
 Alpha  occ. eigenvalues -- -103.66076 -69.12438 -26.11906 -11.32609 -10.69517
 Alpha  occ. eigenvalues --   -8.35207  -8.34985  -8.34977  -6.87346  -3.98217
 Alpha  occ. eigenvalues --   -3.98050  -3.98033  -1.64503  -1.14414  -0.97538
 Alpha  occ. eigenvalues --   -0.76274  -0.75267  -0.73065  -0.67949  -0.57936
 Alpha  occ. eigenvalues --   -0.54073  -0.52826  -0.51569  -0.46614  -0.46107
 Alpha virt. eigenvalues --    0.03630   0.04844   0.04969   0.05359   0.07346
 Alpha virt. eigenvalues --    0.08055   0.10031   0.11192   0.11685   0.14419
 Alpha virt. eigenvalues --    0.15260   0.15420   0.15621   0.15808   0.18244

 Mulliken charges:
               1
     1  C    0.423260
     2  Si   1.019673
     3  Cl  -0.523868
     4  H   -0.061767
     5  H   -0.061767
     6  F   -0.461688
     7  H   -0.166923
     8  H   -0.166920
 Sum of Mulliken charges =  -0.00000

 Dipole moment (field-independent basis, Debye):
    X=             -0.2260    Y=             -0.4322    Z=             -0.0000  Tot=              0.4877

 Test job not archived.
 1\1\GINC-SE364\SP\RHF\Aug-CC-pVDZ\C1H4Cl1F1Si1\OHZDE\08-Apr-2025\0\\#t
  hf aug-cc-pvdz iop(5/13=1,5/36=2,99/5=2) pseudo=read geom=check guess
 =(read,tcheck) scf=(maxcycle=1)\\title\\0,1\C,0,1.284813,-0.693274,-0.
 000025\Si,0,-0.044515,0.648793,0.000021\Cl,0,-1.905443,-0.292758,-0.00
 0011\H,0,0.051548,1.476731,-1.215312\H,0,0.051549,1.476647,1.215412\F,
 0,2.52652,-0.026824,0.000004\H,0,1.23254,-1.32924,-0.888099\H,0,1.2325
 34,-1.329307,0.888002\\Version=ES64L-G16RevC.01\State=1-A\HF=-888.2207
 419\RMSD=4.707e-03\Dipole=-0.0889019,-0.1700396,-0.0000104\Quadrupole=

 Normal termination of Gaussian 16 at Tue Apr  8 23:48:18 2025.
