 Gaussian 16, Revision C.01,

 ----------------------------------------------------------------------
 #t hf aug-cc-pvdz symm=none int=(grid=ultrafine) guess=(read,tcheck) s
 table=(opt,rrhf)
 ----------------------------------------------------------------------
 -----
 title
 -----
 Symbolic Z-matrix:
 Charge =  0 Multiplicity = 1

 SCF Done:  E(RHF) =  -1144.48342373     A.U. after   13 cycles

 1\1\GINC-SE455\Stability\RHF\Aug-CC-pVDZ\C2Cl2O2\OHZDE\08-Apr-2025\0\\
 #t hf aug-cc-pvdz symm=none int=(grid=ultrafine) guess=(read,tcheck) s
 table=(opt,rrhf)\\title\\0,1\C,0,-0.558179,-0.544434,0.000334\C,0,0.55
 8166,0.544419,0.000377\O,0,-0.365259,-1.706819,0.000731\O,0,0.365262,1
 .70681,0.000758\Cl,0,-2.176973,0.184037,-0.000406\Cl,0,2.176977,-0.184
 027,-0.000545\\Version=ES64L-G16RevC.01\HF=-1144.4834237\RMSD=2.947e-0
 9\Dipole=-0.000038,-0.0000069,-0.0002173\Quadrupole=1.8831075,-4.22442
 34,2.3413159,-1.1687343,-0.0000368,0.0000174\PG=Unknown\\@

 Normal termination of Gaussian 16 at Tue Apr  8 22:32:22 2025.
 Gaussian 16:  ES64L-G16RevC.01  3-Jul-2019

 ----------------------------------------------------------------------
 #t hf aug-cc-pvdz iop(5/13=1,5/36=2,99/5=2) pseudo=read geom=check gue
 ss=(read,tcheck) scf=(maxcycle=1)
 ----------------------------------------------------------------------
 -----
 title
 -----
 Structure from the checkpoint file:  "BDE49_expt_1103_mol1.chk"
 Charge =  0 Multiplicity = 1

                         Standard orientation:
 ---------------------------------------------------------------------
 Center     Atomic      Atomic             Coordinates (Angstroms)
 Number     Number       Type             X           Y           Z
 ---------------------------------------------------------------------
      1          6           0        0.558179    0.544434    0.000334
      2          6           0       -0.558166   -0.544419    0.000377
      3          8           0        0.365259    1.706819    0.000731
      4          8           0       -0.365262   -1.706810    0.000758
      5         17           0        2.176973   -0.184037   -0.000406
      6         17           0       -2.176977    0.184027   -0.000545
 ---------------------------------------------------------------------

 SCF Done:  E(RHF) =  -1144.59193946     A.U. after    2 cycles

 The electronic state is 1-A.
 Alpha  occ. eigenvalues -- -103.71013-103.71013 -20.66032 -20.66031 -11.46863
 Alpha  occ. eigenvalues --  -11.46818 -10.74318 -10.74317  -8.40036  -8.40031
 Alpha  occ. eigenvalues --   -8.39715  -8.39714  -8.39693  -8.39693  -1.47287
 Alpha  occ. eigenvalues --   -1.45800  -1.20719  -1.20617  -0.96570  -0.80260
 Alpha  occ. eigenvalues --   -0.76632  -0.74292  -0.69651  -0.68245  -0.62131
 Alpha  occ. eigenvalues --   -0.58236  -0.52488  -0.51680  -0.50753  -0.50424
 Alpha  occ. eigenvalues --   -0.48796
 Alpha virt. eigenvalues --    0.00470   0.05974   0.06535   0.08452   0.10102
 Alpha virt. eigenvalues --    0.10115   0.10670   0.12457   0.12757   0.13204
 Alpha virt. eigenvalues --    0.14174   0.16327   0.16940   0.17737   0.17740

 Mulliken charges:
               1
     1  C    0.266919
     2  C    0.266926
     3  O   -0.250530
     4  O   -0.250536
     5  Cl  -0.016386
     6  Cl  -0.016394
 Sum of Mulliken charges =   0.00000

 Dipole moment (field-independent basis, Debye):
    X=              0.0001    Y=              0.0000    Z=             -0.0006  Tot=              0.0007

 Test job not archived.
 1\1\GINC-SE455\SP\RHF\Aug-CC-pVDZ\C2Cl2O2\OHZDE\08-Apr-2025\0\\#t hf a
 ug-cc-pvdz iop(5/13=1,5/36=2,99/5=2) pseudo=read geom=check guess=(rea
 d,tcheck) scf=(maxcycle=1)\\title\\0,1\C,0,-0.558179,-0.544434,0.00033
 4\C,0,0.558166,0.544419,0.000377\O,0,-0.365259,-1.706819,0.000731\O,0,
 0.365262,1.70681,0.000758\Cl,0,-2.176973,0.184037,-0.000406\Cl,0,2.176
 977,-0.184027,-0.000545\\Version=ES64L-G16RevC.01\State=1-A\HF=-1144.5
 919395\RMSD=3.565e-03\Dipole=-0.0000391,-0.0000079,-0.0002547\Quadrupo
 le=2.1363558,-4.6115133,2.4751575,-1.2608655,-0.0000363,0.0000206\PG=C

 Normal termination of Gaussian 16 at Tue Apr  8 22:32:24 2025.
