 Gaussian 16, Revision C.01,

 ----------------------------------------------------------------------
 #t hf aug-cc-pvdz symm=none int=(grid=ultrafine) guess=(read,tcheck) s
 table=(opt,rrhf)
 ----------------------------------------------------------------------
 -----
 title
 -----
 Symbolic Z-matrix:
 Charge =  0 Multiplicity = 1

 SCF Done:  E(RHF) =  -786.225888995     A.U. after   15 cycles
 Normal termination of Gaussian 16 at Wed Apr  9 00:44:02 2025.
 Gaussian 16:  ES64L-G16RevC.01  3-Jul-2019

 ----------------------------------------------------------------------
 #t hf aug-cc-pvdz iop(5/13=1,5/36=2,99/5=2) pseudo=read geom=check gue
 ss=(read,tcheck) scf=(maxcycle=1)
 ----------------------------------------------------------------------
 -----
 title
 -----
 Structure from the checkpoint file:  "BDE49_nonexpt_746_mol1.chk"
 Charge =  0 Multiplicity = 1

                         Standard orientation:
 ---------------------------------------------------------------------
 Center     Atomic      Atomic             Coordinates (Angstroms)
 Number     Number       Type             X           Y           Z
 ---------------------------------------------------------------------
      1          6           0        2.107997   -0.857909   -0.860746
      2          6           0        0.781064   -1.204650   -0.634003
      3          6           0        2.735099    0.152540   -0.121167
      4          6           0        1.984300    0.797427    0.863463
      5          6           0        0.658161    0.441532    1.108610
      6          6           0        0.026439   -0.559214    0.356678
      7          1           0        2.666402   -1.376803   -1.634063
      8          1           0        0.325452   -1.982587   -1.236561
      9          5           0       -2.626362    0.447458   -0.266844
     10          8           0       -3.942412    0.266325   -0.558197
     11          8           0       -2.016221    1.617644   -0.608533
     12          1           0        2.443343    1.579606    1.459799
     13          6           0        4.180489    0.509604   -0.368799
     14          1           0        4.386123    0.619448   -1.437153
     15          1           0        4.849314   -0.269768    0.011412
     16          1           0        4.449851    1.445545    0.124582
     17          1           0        0.116997    0.938365    1.908583
     18          1           0       -1.069088    1.616504   -0.427076
     19          1           0       -4.316344    1.024392   -1.023646
     20         15           0       -1.731299   -0.972885    0.739182
     21          1           0       -1.922979   -1.986451   -0.229773
 ---------------------------------------------------------------------

 SCF Done:  E(RHF) =  -786.385381289     A.U. after    2 cycles

 The electronic state is 1-A.
 Alpha  occ. eigenvalues --  -81.24150 -20.58750 -20.58404 -11.26072 -11.25890
 Alpha  occ. eigenvalues --  -11.25567 -11.25477 -11.25127 -11.25035 -11.24302
 Alpha  occ. eigenvalues --   -7.74712  -7.67372  -4.88869  -4.88692  -4.88452
 Alpha  occ. eigenvalues --   -1.34941  -1.31321  -1.15416  -1.04981  -1.01804
 Alpha  occ. eigenvalues --   -0.94381  -0.83999  -0.82916  -0.79412  -0.77079
 Alpha  occ. eigenvalues --   -0.74140  -0.66983  -0.65598  -0.63848  -0.62817
 Alpha  occ. eigenvalues --   -0.59838  -0.59620  -0.58808  -0.58600  -0.55335
 Alpha  occ. eigenvalues --   -0.54325  -0.52658  -0.50930  -0.49932  -0.48245
 Alpha  occ. eigenvalues --   -0.44882  -0.37404  -0.35135  -0.31018
 Alpha virt. eigenvalues --    0.02880   0.03745   0.03991   0.04775   0.05295
 Alpha virt. eigenvalues --    0.05792   0.06300   0.06975   0.07471   0.07855
 Alpha virt. eigenvalues --    0.08511   0.08797   0.09310   0.09796   0.10260

 Mulliken charges:
               1
     1  C    0.745751
     2  C    0.501705
     3  C   -0.332432
     4  C    0.690130
     5  C    0.405709
     6  C   -0.261030
     7  H   -0.601027
     8  H   -0.604645
     9  B    0.851411
    10  O   -0.537063
    11  O   -0.449837
    12  H   -0.601571
    13  C    0.638194
    14  H    0.009200
    15  H    0.089864
    16  H   -0.159292
    17  H   -0.590829
    18  H    0.259722
    19  H    0.192370
    20  P   -0.347131
    21  H    0.100803
 Sum of Mulliken charges =  -0.00000

 Dipole moment (field-independent basis, Debye):
    X=              2.4946    Y=              0.9457    Z=             -1.0767  Tot=              2.8769

 Test job not archived.
 1\1\GINC-SE072\SP\RHF\Aug-CC-pVDZ\C7H10B1O2P1\OHZDE\09-Apr-2025\0\\#t
 hf aug-cc-pvdz iop(5/13=1,5/36=2,99/5=2) pseudo=read geom=check guess=
 (read,tcheck) scf=(maxcycle=1)\\title\\0,1\C,0,2.107997,-0.857909,-0.8
 60746\C,0,0.781064,-1.20465,-0.634003\C,0,2.735099,0.15254,-0.121167\C
 ,0,1.9843,0.797427,0.863463\C,0,0.658161,0.441532,1.10861\C,0,0.026439
 ,-0.559214,0.356678\H,0,2.666402,-1.376803,-1.634063\H,0,0.325452,-1.9
 82587,-1.236561\B,0,-2.626362,0.447458,-0.266844\O,0,-3.942412,0.26632
 5,-0.558197\O,0,-2.016221,1.617644,-0.608533\H,0,2.443343,1.579606,1.4

 Normal termination of Gaussian 16 at Wed Apr  9 00:44:16 2025.
