 Gaussian 16, Revision C.01,

 ----------------------------------------------------------------------
 #t hf aug-cc-pvdz symm=none int=(grid=ultrafine) guess=(read,tcheck) s
 table=(opt,rrhf)
 ----------------------------------------------------------------------
 -----
 title
 -----
 Symbolic Z-matrix:
 Charge =  0 Multiplicity = 1

 SCF Done:  E(RHF) =  -304.813319199     A.U. after   13 cycles
 Normal termination of Gaussian 16 at Tue Apr  8 23:32:31 2025.
 Gaussian 16:  ES64L-G16RevC.01  3-Jul-2019

 ----------------------------------------------------------------------
 #t hf aug-cc-pvdz iop(5/13=1,5/36=2,99/5=2) pseudo=read geom=check gue
 ss=(read,tcheck) scf=(maxcycle=1)
 ----------------------------------------------------------------------
 -----
 title
 -----
 Structure from the checkpoint file:  "BDE49_nonexpt_145_mol1.chk"
 Charge =  0 Multiplicity = 1

                         Standard orientation:
 ---------------------------------------------------------------------
 Center     Atomic      Atomic             Coordinates (Angstroms)
 Number     Number       Type             X           Y           Z
 ---------------------------------------------------------------------
      1          5           0        2.486691   -1.481366   -0.431095
      2          5           0        1.449064   -0.811316    0.614368
      3          5           0       -0.060277   -0.146904    0.180180
      4          8           0       -1.102728   -1.021582    0.132295
      5          8           0       -0.299357    1.168337   -0.108146
      6          6           0       -2.432135   -0.583962   -0.166332
      7          1           0       -3.075809   -1.462936   -0.132521
      8          1           0       -2.481235   -0.133124   -1.160827
      9          1           0       -2.777629    0.150131    0.566117
     10          6           0        0.720394    2.158638   -0.044114
     11          1           0        0.470349    2.948454   -0.754091
     12          1           0        1.703606    1.753107   -0.306589
     13          1           0        0.769289    2.590762    0.959685
     14          1           0        1.730049   -0.781782    1.782506
     15          1           0        2.424010   -2.639514   -0.726884
     16          1           0        3.347108   -0.849257   -0.975182
 ---------------------------------------------------------------------

 SCF Done:  E(RHF) =  -304.919524141     A.U. after    2 cycles

 The electronic state is 1-A.
 Alpha  occ. eigenvalues --  -20.57472 -20.56568 -11.29828 -11.28283  -7.63841
 Alpha  occ. eigenvalues --   -7.59516  -7.57936  -1.34125  -1.30608  -0.94847
 Alpha  occ. eigenvalues --   -0.93288  -0.75177  -0.71774  -0.68830  -0.65894
 Alpha  occ. eigenvalues --   -0.65495  -0.62446  -0.60297  -0.59378  -0.52278
 Alpha  occ. eigenvalues --   -0.50260  -0.49934  -0.48561  -0.46388  -0.44720
 Alpha  occ. eigenvalues --   -0.40875
 Alpha virt. eigenvalues --    0.03164   0.04195   0.04443   0.04511   0.05358
 Alpha virt. eigenvalues --    0.05932   0.06085   0.06372   0.06425   0.07940
 Alpha virt. eigenvalues --    0.08605   0.08927   0.09391   0.10054   0.10603

 Mulliken charges:
               1
     1  B   -0.473728
     2  B   -0.117396
     3  B    0.619459
     4  O   -0.619852
     5  O   -0.654270
     6  C    0.863630
     7  H   -0.285502
     8  H   -0.142650
     9  H   -0.129108
    10  C    0.931276
    11  H   -0.224023
    12  H   -0.240222
    13  H   -0.137056
    14  H    0.120566
    15  H    0.254668
    16  H    0.234208
 Sum of Mulliken charges =  -0.00000

 Dipole moment (field-independent basis, Debye):
    X=              0.0222    Y=              1.7448    Z=             -0.0413  Tot=              1.7454

 Test job not archived.
 1\1\GINC-SE455\SP\RHF\Aug-CC-pVDZ\C2H9B3O2\OHZDE\08-Apr-2025\0\\#t hf
 aug-cc-pvdz iop(5/13=1,5/36=2,99/5=2) pseudo=read geom=check guess=(re
 ad,tcheck) scf=(maxcycle=1)\\title\\0,1\B,0,2.486691,-1.481366,-0.4310
 95\B,0,1.449064,-0.811316,0.614368\B,0,-0.060277,-0.146904,0.18018\O,0
 ,-1.102728,-1.021582,0.132295\O,0,-0.299357,1.168337,-0.108146\C,0,-2.
 432135,-0.583962,-0.166332\H,0,-3.075809,-1.462936,-0.132521\H,0,-2.48
 1235,-0.133124,-1.160827\H,0,-2.777629,0.150131,0.566117\C,0,0.720394,
 2.158638,-0.044114\H,0,0.470349,2.948454,-0.754091\H,0,1.703606,1.7531

 Normal termination of Gaussian 16 at Tue Apr  8 23:32:36 2025.
