 Gaussian 16, Revision C.01,

 ----------------------------------------------------------------------
 #t hf aug-cc-pvdz symm=none int=(grid=ultrafine) guess=(read,tcheck) s
 table=(opt,rrhf)
 ----------------------------------------------------------------------
 -----
 title
 -----
 Symbolic Z-matrix:
 Charge =  0 Multiplicity = 1

 SCF Done:  E(RHF) =  -798.234707890     A.U. after   12 cycles
 Normal termination of Gaussian 16 at Tue Apr  8 23:38:27 2025.
 Gaussian 16:  ES64L-G16RevC.01  3-Jul-2019

 ----------------------------------------------------------------------
 #t hf aug-cc-pvdz iop(5/13=1,5/36=2,99/5=2) pseudo=read geom=check gue
 ss=(read,tcheck) scf=(maxcycle=1)
 ----------------------------------------------------------------------
 -----
 title
 -----
 Structure from the checkpoint file:  "BDE49_nonexpt_1587_mol1.chk"
 Charge =  0 Multiplicity = 1

                         Standard orientation:
 ---------------------------------------------------------------------
 Center     Atomic      Atomic             Coordinates (Angstroms)
 Number     Number       Type             X           Y           Z
 ---------------------------------------------------------------------
      1          8           0        0.143564    0.600921    0.480574
      2         15           0        1.412295   -0.186503   -0.037029
      3          8           0        1.188505   -1.245917   -1.025839
      4          6           0       -0.825013    1.136870   -0.467250
      5          6           0       -2.192519    1.164366    0.194764
      6          1           0       -0.822988    0.511415   -1.362661
      7          6           0       -2.721652   -0.206754    0.641803
      8          1           0       -2.886864    1.615296   -0.525610
      9          1           0       -2.150604    1.839322    1.055790
     10          6           0       -2.864449   -1.233077   -0.487637
     11          1           0       -3.694353   -0.053307    1.121038
     12          1           0       -2.059035   -0.604163    1.416614
     13          1           0       -3.490617   -0.848019   -1.299471
     14          1           0       -3.331590   -2.150349   -0.119472
     15          1           0       -1.895392   -1.509665   -0.910902
     16          1           0       -0.497884    2.143462   -0.737812
     17          8           0        2.373575    1.000038   -0.510027
     18          1           0        3.060518    0.682462   -1.107855
     19          8           0        2.087957   -0.658301    1.330089
     20          1           0        1.857367   -1.571262    1.537331
 ---------------------------------------------------------------------

 SCF Done:  E(RHF) =  -798.458389315     A.U. after    2 cycles

 The electronic state is 1-A.
 Alpha  occ. eigenvalues --  -81.44523 -20.61831 -20.61772 -20.60380 -20.52934
 Alpha  occ. eigenvalues --  -11.30844 -11.24106 -11.23228 -11.22150  -7.92456
 Alpha  occ. eigenvalues --   -5.07158  -5.07062  -5.07054  -1.39699  -1.35269
 Alpha  occ. eigenvalues --   -1.34785  -1.26335  -1.07192  -0.98570  -0.89388
 Alpha  occ. eigenvalues --   -0.84717  -0.79078  -0.76626  -0.73735  -0.68882
 Alpha  occ. eigenvalues --   -0.67242  -0.65913  -0.63180  -0.61931  -0.59725
 Alpha  occ. eigenvalues --   -0.58871  -0.57667  -0.56386  -0.54600  -0.53153
 Alpha  occ. eigenvalues --   -0.51869  -0.49356  -0.48954  -0.47897  -0.47174
 Alpha  occ. eigenvalues --   -0.46854
 Alpha virt. eigenvalues --    0.03206   0.04108   0.04192   0.04962   0.05337
 Alpha virt. eigenvalues --    0.06282   0.07038   0.07340   0.08272   0.08379
 Alpha virt. eigenvalues --    0.10185   0.10941   0.11240   0.13071   0.13915

 Mulliken charges:
               1
     1  O   -1.059678
     2  P    2.488474
     3  O   -0.888035
     4  C    0.755002
     5  C    0.128989
     6  H   -0.229879
     7  C    0.141984
     8  H   -0.032706
     9  H   -0.092816
    10  C    0.439737
    11  H   -0.078623
    12  H   -0.100210
    13  H   -0.074942
    14  H   -0.102431
    15  H   -0.131678
    16  H   -0.185070
    17  O   -0.645565
    18  H    0.157417
    19  O   -0.647099
    20  H    0.157128
 Sum of Mulliken charges =  -0.00000

 Dipole moment (field-independent basis, Debye):
    X=             -0.6029    Y=              0.8274    Z=              0.2399  Tot=              1.0515

 Test job not archived.
 1\1\GINC-SE071\SP\RHF\Aug-CC-pVDZ\C4H11O4P1\OHZDE\08-Apr-2025\0\\#t hf
  aug-cc-pvdz iop(5/13=1,5/36=2,99/5=2) pseudo=read geom=check guess=(r
 ead,tcheck) scf=(maxcycle=1)\\title\\0,1\O,0,-0.143564,-0.600921,0.480
 574\P,0,-1.412295,0.186503,-0.037029\O,0,-1.188505,1.245917,-1.025839\
 C,0,0.825013,-1.13687,-0.46725\C,0,2.192519,-1.164366,0.194764\H,0,0.8
 22988,-0.511415,-1.362661\C,0,2.721652,0.206754,0.641803\H,0,2.886864,
 -1.615296,-0.52561\H,0,2.150604,-1.839322,1.05579\C,0,2.864449,1.23307
 7,-0.487637\H,0,3.694353,0.053307,1.121038\H,0,2.059035,0.604163,1.416

 Normal termination of Gaussian 16 at Tue Apr  8 23:38:38 2025.
