 Gaussian 16, Revision C.01,

 ----------------------------------------------------------------------
 #t hf aug-cc-pvdz symm=none int=(grid=ultrafine) guess=(read,tcheck) s
 table=(opt,rrhf)
 ----------------------------------------------------------------------
 -----
 title
 -----
 Symbolic Z-matrix:
 Charge =  0 Multiplicity = 1

 SCF Done:  E(RHF) =  -1129.71957311     A.U. after   14 cycles
 Normal termination of Gaussian 16 at Wed Apr  9 00:20:13 2025.
 Gaussian 16:  ES64L-G16RevC.01  3-Jul-2019

 ----------------------------------------------------------------------
 #t hf aug-cc-pvdz iop(5/13=1,5/36=2,99/5=2) pseudo=read geom=check gue
 ss=(read,tcheck) scf=(maxcycle=1)
 ----------------------------------------------------------------------
 -----
 title
 -----
 Structure from the checkpoint file:  "BDE49_nonexpt_2609_mol1.chk"
 Charge =  0 Multiplicity = 1

                         Standard orientation:
 ---------------------------------------------------------------------
 Center     Atomic      Atomic             Coordinates (Angstroms)
 Number     Number       Type             X           Y           Z
 ---------------------------------------------------------------------
      1          6           0        1.010713    1.154490   -0.324170
      2          6           0        2.249672    1.370086    0.556557
      3          6           0        3.331977    0.317833    0.279680
      4          6           0        2.774865   -1.105217    0.420422
      5          6           0        1.533335   -1.317535   -0.458356
      6          6           0       -0.772832   -0.521755   -1.071494
      7          6           0        0.442131   -0.266036   -0.173137
      8         16           0       -2.258947    0.489086   -0.758711
      9         17           0       -2.870816   -0.264155    1.087251
     10          1           0        1.283111    1.316815   -1.376866
     11          1           0        0.240808    1.892003   -0.082047
     12          1           0        1.954210    1.317246    1.612120
     13          1           0        2.648704    2.376701    0.396941
     14          1           0        4.181379    0.459546    0.955440
     15          1           0        3.717568    0.455656   -0.738942
     16          1           0        2.507096   -1.286746    1.469035
     17          1           0        3.542511   -1.842175    0.163816
     18          1           0        1.130887   -2.324503   -0.303074
     19          1           0        1.823597   -1.255756   -1.516294
     20          1           0       -1.073761   -1.571559   -1.052551
     21          1           0       -0.547135   -0.266155   -2.116033
     22          1           0        0.118892   -0.397027    0.867565
 ---------------------------------------------------------------------

 SCF Done:  E(RHF) =  -1129.84005741     A.U. after    2 cycles

 The electronic state is 1-A.
 Alpha  occ. eigenvalues -- -103.67073 -93.58844 -11.28447 -11.24678 -11.23643
 Alpha  occ. eigenvalues --  -11.23246 -11.23090 -11.23036 -11.22981 -10.70216
 Alpha  occ. eigenvalues --   -8.88157  -8.35947  -8.35618  -8.35586  -6.22267
 Alpha  occ. eigenvalues --   -6.21985  -6.21606  -1.16134  -1.11988  -1.04943
 Alpha  occ. eigenvalues --   -1.00252  -0.96962  -0.86031  -0.83777  -0.79624
 Alpha  occ. eigenvalues --   -0.76291  -0.65787  -0.63599  -0.61587  -0.60768
 Alpha  occ. eigenvalues --   -0.59270  -0.56051  -0.54009  -0.53445  -0.51901
 Alpha  occ. eigenvalues --   -0.50286  -0.49792  -0.49147  -0.48322  -0.46235
 Alpha  occ. eigenvalues --   -0.45533  -0.44038  -0.42401  -0.35851
 Alpha virt. eigenvalues --    0.03307   0.03942   0.04073   0.04811   0.05309
 Alpha virt. eigenvalues --    0.05960   0.06251   0.06620   0.07094   0.07541
 Alpha virt. eigenvalues --    0.08830   0.08996   0.09055   0.09991   0.10103

 Mulliken charges:
               1
     1  C    0.331176
     2  C    0.340126
     3  C    0.249494
     4  C    0.346252
     5  C    0.566910
     6  C    0.575392
     7  C   -1.083142
     8  S    0.507608
     9  Cl  -0.350384
    10  H   -0.085023
    11  H   -0.147674
    12  H   -0.089456
    13  H   -0.098741
    14  H   -0.121840
    15  H   -0.095597
    16  H   -0.087672
    17  H   -0.105563
    18  H   -0.172717
    19  H   -0.074722
    20  H   -0.135851
    21  H   -0.014593
    22  H   -0.253981
 Sum of Mulliken charges =  -0.00000

 Dipole moment (field-independent basis, Debye):
    X=              2.5054    Y=             -0.4630    Z=             -1.2641  Tot=              2.8442

 Test job not archived.
 1\1\GINC-SE367\SP\RHF\Aug-CC-pVDZ\C7H13Cl1S1\OHZDE\09-Apr-2025\0\\#t h
 f aug-cc-pvdz iop(5/13=1,5/36=2,99/5=2) pseudo=read geom=check guess=(
 read,tcheck) scf=(maxcycle=1)\\title\\0,1\C,0,1.010713,1.15449,-0.3241
 7\C,0,2.249672,1.370086,0.556557\C,0,3.331977,0.317833,0.27968\C,0,2.7
 74865,-1.105217,0.420422\C,0,1.533335,-1.317535,-0.458356\C,0,-0.77283
 2,-0.521755,-1.071494\C,0,0.442131,-0.266036,-0.173137\S,0,-2.258947,0
 .489086,-0.758711\Cl,0,-2.870816,-0.264155,1.087251\H,0,1.283111,1.316
 815,-1.376866\H,0,0.240808,1.892003,-0.082047\H,0,1.95421,1.317246,1.6

 Normal termination of Gaussian 16 at Wed Apr  9 00:20:25 2025.
