 Gaussian 16, Revision C.01,

 ----------------------------------------------------------------------
 #t hf aug-cc-pvdz symm=none int=(grid=ultrafine) guess=(read,tcheck) s
 table=(opt,rrhf)
 ----------------------------------------------------------------------
 -----
 title
 -----
 Symbolic Z-matrix:
 Charge =  0 Multiplicity = 1

 SCF Done:  E(RHF) =  -750.996462333     A.U. after   15 cycles
 Normal termination of Gaussian 16 at Wed Apr  9 00:46:59 2025.
 Gaussian 16:  ES64L-G16RevC.01  3-Jul-2019

 ----------------------------------------------------------------------
 #t hf aug-cc-pvdz iop(5/13=1,5/36=2,99/5=2) pseudo=read geom=check gue
 ss=(read,tcheck) scf=(maxcycle=1)
 ----------------------------------------------------------------------
 -----
 title
 -----
 Structure from the checkpoint file:  "BDE49_nonexpt_829_mol1.chk"
 Charge =  0 Multiplicity = 1

                         Standard orientation:
 ---------------------------------------------------------------------
 Center     Atomic      Atomic             Coordinates (Angstroms)
 Number     Number       Type             X           Y           Z
 ---------------------------------------------------------------------
      1          6           0        1.716164    1.747658    0.525614
      2          6           0        0.474007    1.157570    0.754272
      3          6           0        2.771150    1.005970    0.008646
      4          6           0        2.600985   -0.355289   -0.286919
      5          6           0        1.345404   -0.940709   -0.053430
      6          6           0        0.275780   -0.205710    0.467393
      7          1           0        1.212474   -1.993295   -0.288009
      8          1           0        3.732271    1.477447   -0.170983
      9          1           0        1.867595    2.796940    0.756030
     10          1           0       -0.327774    1.754022    1.179176
     11          5           0       -2.782793    0.086118   -0.350447
     12          8           0       -2.417090    1.171845   -1.098106
     13          8           0       -4.094820   -0.275133   -0.331062
     14          7           0        3.634297   -1.094807   -0.856903
     15          1           0        4.566366   -0.748308   -0.685150
     16          1           0        3.569455   -2.095089   -0.740282
     17          1           0       -1.470974    1.352799   -1.063953
     18          1           0       -4.638896    0.304744   -0.880012
     19         14           0       -1.422994   -0.989247    0.723928
     20          1           0       -1.352396   -2.405095    0.278793
     21          1           0       -1.767986   -0.992280    2.169831
 ---------------------------------------------------------------------

 SCF Done:  E(RHF) =  -751.162213517     A.U. after    2 cycles

 The electronic state is 1-A.
 Alpha  occ. eigenvalues --  -69.04745 -20.58406 -20.58024 -15.63800 -11.29788
 Alpha  occ. eigenvalues --  -11.25417 -11.24288 -11.24284 -11.24079 -11.23976
 Alpha  occ. eigenvalues --   -7.65805  -6.80247  -3.91012  -3.90981  -3.90914
 Alpha  occ. eigenvalues --   -1.34458  -1.30731  -1.20429  -1.11967  -1.01197
 Alpha  occ. eigenvalues --   -0.98624  -0.83970  -0.82190  -0.78356  -0.75293
 Alpha  occ. eigenvalues --   -0.72185  -0.69645  -0.67344  -0.65722  -0.62173
 Alpha  occ. eigenvalues --   -0.60806  -0.59847  -0.58906  -0.58391  -0.55261
 Alpha  occ. eigenvalues --   -0.54185  -0.52104  -0.51251  -0.47513  -0.45870
 Alpha  occ. eigenvalues --   -0.44596  -0.41473  -0.34495  -0.30306
 Alpha virt. eigenvalues --    0.02839   0.03527   0.03749   0.04765   0.05604
 Alpha virt. eigenvalues --    0.05671   0.06759   0.07089   0.07327   0.07758
 Alpha virt. eigenvalues --    0.08230   0.09022   0.09560   0.09737   0.10395

 Mulliken charges:
               1
     1  C    0.315478
     2  C    0.939363
     3  C    1.100314
     4  C    0.143336
     5  C    0.856113
     6  C   -0.512401
     7  H   -0.698209
     8  H   -0.571007
     9  H   -0.457719
    10  H   -0.696829
    11  B    1.044343
    12  O   -0.520246
    13  O   -0.497902
    14  N   -0.294832
    15  H   -0.038284
    16  H   -0.038844
    17  H    0.232219
    18  H    0.191614
    19  Si  -0.736231
    20  H    0.055917
    21  H    0.183806
 Sum of Mulliken charges =  -0.00000

 Dipole moment (field-independent basis, Debye):
    X=              2.8775    Y=              0.3116    Z=             -0.2038  Tot=              2.9015

 Test job not archived.
 1\1\GINC-SE435\SP\RHF\Aug-CC-pVDZ\C6H10B1N1O2Si1\OHZDE\09-Apr-2025\0\\
 #t hf aug-cc-pvdz iop(5/13=1,5/36=2,99/5=2) pseudo=read geom=check gue
 ss=(read,tcheck) scf=(maxcycle=1)\\title\\0,1\C,0,1.716164,1.747658,0.
 525614\C,0,0.474007,1.15757,0.754272\C,0,2.77115,1.00597,0.008646\C,0,
 2.600985,-0.355289,-0.286919\C,0,1.345404,-0.940709,-0.05343\C,0,0.275
 78,-0.20571,0.467393\H,0,1.212474,-1.993295,-0.288009\H,0,3.732271,1.4
 77447,-0.170983\H,0,1.867595,2.79694,0.75603\H,0,-0.327774,1.754022,1.
 179176\B,0,-2.782793,0.086118,-0.350447\O,0,-2.41709,1.171845,-1.09810

 Normal termination of Gaussian 16 at Wed Apr  9 00:47:13 2025.
