 Gaussian 16, Revision C.01,

 ----------------------------------------------------------------------
 #t hf aug-cc-pvdz symm=none int=(grid=ultrafine) guess=(read,tcheck) s
 table=(opt,rrhf)
 ----------------------------------------------------------------------
 -----
 title
 -----
 Symbolic Z-matrix:
 Charge =  0 Multiplicity = 1

 SCF Done:  E(RHF) =  -1245.96347467     A.U. after   13 cycles
 Normal termination of Gaussian 16 at Wed Apr  9 00:07:13 2025.
 Gaussian 16:  ES64L-G16RevC.01  3-Jul-2019

 ----------------------------------------------------------------------
 #t hf aug-cc-pvdz iop(5/13=1,5/36=2,99/5=2) pseudo=read geom=check gue
 ss=(read,tcheck) scf=(maxcycle=1)
 ----------------------------------------------------------------------
 -----
 title
 -----
 Structure from the checkpoint file:  "BDE49_nonexpt_229_mol1.chk"
 Charge =  0 Multiplicity = 1

                         Standard orientation:
 ---------------------------------------------------------------------
 Center     Atomic      Atomic             Coordinates (Angstroms)
 Number     Number       Type             X           Y           Z
 ---------------------------------------------------------------------
      1         17           0        1.299844    1.634103   -0.298083
      2          5           0        1.119447   -0.094359   -0.025547
      3         17           0        2.546192   -1.121608    0.060324
      4          8           0       -0.084140   -0.709052    0.074910
      5          6           0       -1.305246   -0.116276    0.294476
      6          8           0       -1.507988    0.748596    1.090946
      7          8           0       -2.185763   -0.721394   -0.490239
      8          6           0       -3.548394   -0.265260   -0.342120
      9          1           0       -3.622063    0.791175   -0.601318
     10          1           0       -3.885493   -0.414478    0.683849
     11          1           0       -4.127336   -0.873298   -1.031959
 ---------------------------------------------------------------------

 SCF Done:  E(RHF) =  -1246.10999024     A.U. after    2 cycles

 The electronic state is 1-A.
 Alpha  occ. eigenvalues -- -103.67825-103.67582 -20.65208 -20.65186 -20.59354
 Alpha  occ. eigenvalues --  -11.48264 -11.32209 -10.71316 -10.71056  -8.37014
 Alpha  occ. eigenvalues --   -8.36777  -8.36758  -8.36754  -8.36525  -8.36497
 Alpha  occ. eigenvalues --   -7.78313  -1.49117  -1.39210  -1.36794  -1.18741
 Alpha  occ. eigenvalues --   -1.15566  -1.01801  -0.89318  -0.80068  -0.75397
 Alpha  occ. eigenvalues --   -0.73912  -0.68758  -0.66080  -0.65415  -0.63497
 Alpha  occ. eigenvalues --   -0.58564  -0.57288  -0.55706  -0.52727  -0.51784
 Alpha  occ. eigenvalues --   -0.51251  -0.50533  -0.48782  -0.47521
 Alpha virt. eigenvalues --    0.03131   0.05152   0.05235   0.05402   0.06344
 Alpha virt. eigenvalues --    0.06476   0.06999   0.09913   0.10765   0.12440
 Alpha virt. eigenvalues --    0.12755   0.13357   0.14226   0.14742   0.15517

 Mulliken charges:
               1
     1  Cl  -0.269309
     2  B    0.569679
     3  Cl  -0.307159
     4  O   -0.370920
     5  C    0.726086
     6  O   -0.300331
     7  O   -0.473118
     8  C    0.753560
     9  H   -0.055484
    10  H   -0.051602
    11  H   -0.221402
 Sum of Mulliken charges =  -0.00000

 Dipole moment (field-independent basis, Debye):
    X=             -2.6979    Y=             -0.5617    Z=             -1.1378  Tot=              2.9814

 Test job not archived.
 1\1\GINC-SE252\SP\RHF\Aug-CC-pVDZ\C2H3B1Cl2O3\OHZDE\09-Apr-2025\0\\#t
 hf aug-cc-pvdz iop(5/13=1,5/36=2,99/5=2) pseudo=read geom=check guess=
 (read,tcheck) scf=(maxcycle=1)\\title\\0,1\Cl,0,1.299844,1.634103,-0.2
 98083\B,0,1.119447,-0.094359,-0.025547\Cl,0,2.546192,-1.121608,0.06032
 4\O,0,-0.08414,-0.709052,0.07491\C,0,-1.305246,-0.116276,0.294476\O,0,
 -1.507988,0.748596,1.090946\O,0,-2.185763,-0.721394,-0.490239\C,0,-3.5
 48394,-0.26526,-0.34212\H,0,-3.622063,0.791175,-0.601318\H,0,-3.885493
 ,-0.414478,0.683849\H,0,-4.127336,-0.873298,-1.031959\\Version=ES64L-G

 Normal termination of Gaussian 16 at Wed Apr  9 00:07:18 2025.
