 Gaussian 16, Revision C.01,

 ----------------------------------------------------------------------
 #t hf aug-cc-pvdz symm=none int=(grid=ultrafine) guess=(read,tcheck) s
 table=(opt,rrhf)
 ----------------------------------------------------------------------
 -----
 title
 -----
 Symbolic Z-matrix:
 Charge =  0 Multiplicity = 1

 SCF Done:  E(RHF) =  -125.332838161     A.U. after   10 cycles
 Normal termination of Gaussian 16 at Wed Apr  9 00:35:45 2025.
 Gaussian 16:  ES64L-G16RevC.01  3-Jul-2019

 ----------------------------------------------------------------------
 #t hf aug-cc-pvdz iop(5/13=1,5/36=2,99/5=2) pseudo=read geom=check gue
 ss=(read,tcheck) scf=(maxcycle=1)
 ----------------------------------------------------------------------
 -----
 title
 -----
 Structure from the checkpoint file:  "BDE49_nonexpt_547_mol1.chk"
 Charge =  0 Multiplicity = 1

                         Standard orientation:
 ---------------------------------------------------------------------
 Center     Atomic      Atomic             Coordinates (Angstroms)
 Number     Number       Type             X           Y           Z
 ---------------------------------------------------------------------
      1          5           0       -0.674901    0.000000    0.000005
      2          9           0        0.648756   -0.000001   -0.000003
      3          1           0       -1.232144    1.054111   -0.000001
      4          1           0       -1.232154   -1.054106   -0.000001
 ---------------------------------------------------------------------

 SCF Done:  E(RHF) =  -125.386052748     A.U. after    2 cycles

 The electronic state is 1-A.
 Alpha  occ. eigenvalues --  -26.13233  -7.68944  -1.67181  -0.84451  -0.76143
 Alpha  occ. eigenvalues --   -0.73426  -0.63701  -0.49855
 Alpha virt. eigenvalues --    0.04182   0.04679   0.05538   0.05726   0.10724
 Alpha virt. eigenvalues --    0.11826   0.12296   0.20965   0.24407   0.25488
 Alpha virt. eigenvalues --    0.26286   0.28543   0.28782   0.33186   0.35181

 Mulliken charges:
               1
     1  B    0.217259
     2  F   -0.455577
     3  H    0.119160
     4  H    0.119158
 Sum of Mulliken charges =   0.00000

 Dipole moment (field-independent basis, Debye):
    X=             -1.2622    Y=             -0.0000    Z=              0.0000  Tot=              1.2622

 Test job not archived.
 1\1\GINC-SE336\SP\RHF\Aug-CC-pVDZ\B1F1H2\OHZDE\09-Apr-2025\0\\#t hf au
 g-cc-pvdz iop(5/13=1,5/36=2,99/5=2) pseudo=read geom=check guess=(read
 ,tcheck) scf=(maxcycle=1)\\title\\0,1\B,0,0.674901,0.,-0.000005\F,0,-0
 .648756,-0.000001,0.000003\H,0,1.232144,1.054111,0.000001\H,0,1.232154
 ,-1.054106,0.000001\\Version=ES64L-G16RevC.01\State=1-A\HF=-125.386052
 7\RMSD=8.577e-03\Dipole=0.4965779,-0.000002,-0.0000093\Quadrupole=-0.7
 305656,-0.3563817,1.0869474,-0.0000059,-0.000002,0.\PG=C01 [X(B1F1H2)]
 \\@

 Normal termination of Gaussian 16 at Wed Apr  9 00:35:46 2025.
