 Gaussian 16, Revision C.01,

 ----------------------------------------------------------------------
 #t hf aug-cc-pvdz symm=none int=(grid=ultrafine) guess=(read,tcheck) s
 table=opt
 ----------------------------------------------------------------------
 -----
 title
 -----
 Symbolic Z-matrix:
 Charge =  0 Multiplicity = 2

 SCF Done:  E(UHF) =  -995.025231636     A.U. after   24 cycles
 Normal termination of Gaussian 16 at Tue Apr  8 23:57:24 2025.
 Gaussian 16:  ES64L-G16RevC.01  3-Jul-2019

 ----------------------------------------------------------------------
 #t hf aug-cc-pvdz iop(5/13=1,5/36=2,99/5=2) pseudo=read geom=check gue
 ss=(read,tcheck) scf=(maxcycle=1)
 ----------------------------------------------------------------------
 -----
 title
 -----
 Structure from the checkpoint file:  "BDE49_nonexpt_206_mol2.chk"
 Charge =  0 Multiplicity = 2

                         Standard orientation:
 ---------------------------------------------------------------------
 Center     Atomic      Atomic             Coordinates (Angstroms)
 Number     Number       Type             X           Y           Z
 ---------------------------------------------------------------------
      1         17           0       -2.232290   -0.268150   -0.129111
      2          5           0       -0.775347    0.138937    0.669460
      3          6           0        0.610448    0.566204    0.117594
      4          8           0        0.869787    1.722972   -0.125458
      5         16           0        1.880805   -0.722862   -0.074140
      6          1           0        1.111806   -1.751347    0.331925
 ---------------------------------------------------------------------

 SCF Done:  E(UHF) =  -995.103984077     A.U. after    2 cycles

 The electronic state is 2-A.
 Alpha  occ. eigenvalues -- -103.70889 -93.57695 -20.60851 -11.38640 -10.74362
 Alpha  occ. eigenvalues --   -8.87512  -8.40079  -8.39850  -8.39769  -7.73677
 Alpha  occ. eigenvalues --   -6.21632  -6.21436  -6.21051  -1.39977  -1.20634
 Alpha  occ. eigenvalues --   -1.02742  -0.84992  -0.72927  -0.66539  -0.65038
 Alpha  occ. eigenvalues --   -0.62164  -0.55335  -0.54898  -0.52944  -0.45091
 Alpha  occ. eigenvalues --   -0.41372  -0.37024
 Alpha virt. eigenvalues --    0.02794   0.03663   0.05277   0.05310   0.05947
 Alpha virt. eigenvalues --    0.07300   0.09430   0.09870   0.11531   0.12481
 Alpha virt. eigenvalues --    0.13793   0.14212   0.15903   0.16014   0.17380

  Beta  occ. eigenvalues -- -103.70826 -93.57697 -20.59915 -11.38917 -10.74290
  Beta  occ. eigenvalues --   -8.87515  -8.40020  -8.39810  -8.39568  -7.71693
  Beta  occ. eigenvalues --   -6.21601  -6.21437  -6.21085  -1.38077  -1.19907
  Beta  occ. eigenvalues --   -1.02518  -0.83083  -0.71488  -0.65670  -0.63977
  Beta  occ. eigenvalues --   -0.57334  -0.54728  -0.53008  -0.52305  -0.43186
  Beta  occ. eigenvalues --   -0.39980
  Beta virt. eigenvalues --    0.02065   0.03974   0.05047   0.05515   0.05628
  Beta virt. eigenvalues --    0.07311   0.07700   0.09948   0.11432   0.12095
  Beta virt. eigenvalues --    0.13381   0.13805   0.14565   0.16079   0.16851

 Mulliken charges and spin densities:
               1          2
     1  Cl  -0.178343   0.011339
     2  B    0.240332   0.967000
     3  C    0.135835  -0.198656
     4  O   -0.473783   0.217836
     5  S    0.232365   0.006681
     6  H    0.043595  -0.004200
 Sum of Mulliken charges =   0.00000   1.00000

 Dipole moment (field-independent basis, Debye):
    X=             -1.2162    Y=             -2.8200    Z=              0.7346  Tot=              3.1577
                          Isotropic Fermi Contact Couplings
        Atom                 a.u.       MegaHertz       Gauss      10(-4) cm-1
     1  Cl(35)             0.05820      25.51984       9.10611       8.51250
     2  B(11)              0.32322     463.62246     165.43202     154.64781
     3  C(13)              0.00020       0.21938       0.07828       0.07318
     4  O(17)              0.07646     -46.34872     -16.53838     -15.46027
     5  S(33)             -0.00649      -2.22814      -0.79506      -0.74323
     6  H(1)              -0.00035      -1.56857      -0.55970      -0.52322
 --------------------------------------------------------
       Center         ----  Spin Dipole Couplings  ----

 Normal termination of Gaussian 16 at Tue Apr  8 23:57:26 2025.
