 Gaussian 16, Revision C.01,

 ----------------------------------------------------------------------
 #t hf aug-cc-pvdz symm=none int=(grid=ultrafine) guess=(read,tcheck) s
 table=(opt,rrhf)
 ----------------------------------------------------------------------
 -----
 title
 -----
 Symbolic Z-matrix:
 Charge =  0 Multiplicity = 1

 SCF Done:  E(RHF) =  -683.496851005     A.U. after   17 cycles
 Normal termination of Gaussian 16 at Wed Apr  9 00:52:10 2025.
 Gaussian 16:  ES64L-G16RevC.01  3-Jul-2019

 ----------------------------------------------------------------------
 #t hf aug-cc-pvdz iop(5/13=1,5/36=2,99/5=2) pseudo=read geom=check gue
 ss=(read,tcheck) scf=(maxcycle=1)
 ----------------------------------------------------------------------
 -----
 title
 -----
 Structure from the checkpoint file:  "BDE49_nonexpt_980_mol1.chk"
 Charge =  0 Multiplicity = 1

                         Standard orientation:
 ---------------------------------------------------------------------
 Center     Atomic      Atomic             Coordinates (Angstroms)
 Number     Number       Type             X           Y           Z
 ---------------------------------------------------------------------
      1         16           0       -1.392006   -0.794334   -0.597754
      2          7           0       -2.095081    0.908416   -0.335091
      3          8           0       -1.710136    1.507931    0.604245
      4          6           0       -0.247829   -0.972748    0.803949
      5          6           0        1.238994   -0.875917    0.436615
      6          1           0       -0.480520   -1.930507    1.273352
      7          6           0        1.687230    0.513679   -0.027447
      8          1           0        1.474779   -1.617471   -0.334792
      9          1           0        1.814660   -1.163886    1.325418
     10          6           0        3.172386    0.565361   -0.395280
     11          1           0        1.477334    1.241715    0.764181
     12          1           0        1.086492    0.816738   -0.891748
     13          1           0        3.803225    0.293693    0.456888
     14          1           0        3.465165    1.567684   -0.718053
     15          1           0        3.402296   -0.126413   -1.211487
     16          1           0       -0.529364   -0.176810    1.504962
 ---------------------------------------------------------------------

 SCF Done:  E(RHF) =  -683.605837635     A.U. after    2 cycles

 The electronic state is 1-A.
 Alpha  occ. eigenvalues --  -93.56685 -20.67556 -15.82057 -11.27956 -11.24659
 Alpha  occ. eigenvalues --  -11.23528 -11.22856  -8.86300  -6.20387  -6.20139
 Alpha  occ. eigenvalues --   -6.19851  -1.51744  -1.09454  -1.03697  -0.97856
 Alpha  occ. eigenvalues --   -0.89907  -0.83404  -0.78778  -0.71727  -0.69115
 Alpha  occ. eigenvalues --   -0.64924  -0.63686  -0.61519  -0.59820  -0.55884
 Alpha  occ. eigenvalues --   -0.53625  -0.49523  -0.48746  -0.47965  -0.45760
 Alpha  occ. eigenvalues --   -0.39232  -0.37429
 Alpha virt. eigenvalues --    0.03376   0.04100   0.04788   0.05381   0.06652
 Alpha virt. eigenvalues --    0.06712   0.07087   0.07344   0.07888   0.09398
 Alpha virt. eigenvalues --    0.09532   0.10073   0.12233   0.12961   0.13940

 Mulliken charges:
               1
     1  S    0.651396
     2  N   -0.171422
     3  O   -0.363384
     4  C    0.212751
     5  C    0.011683
     6  H   -0.085029
     7  C    0.093009
     8  H   -0.159650
     9  H   -0.095641
    10  C    0.390726
    11  H   -0.134094
    12  H   -0.142850
    13  H   -0.070517
    14  H   -0.059880
    15  H   -0.060490
    16  H   -0.016609
 Sum of Mulliken charges =   0.00000

 Dipole moment (field-independent basis, Debye):
    X=              1.6352    Y=             -1.3581    Z=              0.6976  Tot=              2.2372

 Test job not archived.
 1\1\GINC-SE015\SP\RHF\Aug-CC-pVDZ\C4H9N1O1S1\OHZDE\09-Apr-2025\0\\#t h
 f aug-cc-pvdz iop(5/13=1,5/36=2,99/5=2) pseudo=read geom=check guess=(
 read,tcheck) scf=(maxcycle=1)\\title\\0,1\S,0,-1.392006,-0.794334,-0.5
 97754\N,0,-2.095081,0.908416,-0.335091\O,0,-1.710136,1.507931,0.604245
 \C,0,-0.247829,-0.972748,0.803949\C,0,1.238994,-0.875917,0.436615\H,0,
 -0.48052,-1.930507,1.273352\C,0,1.68723,0.513679,-0.027447\H,0,1.47477
 9,-1.617471,-0.334792\H,0,1.81466,-1.163886,1.325418\C,0,3.172386,0.56
 5361,-0.39528\H,0,1.477334,1.241715,0.764181\H,0,1.086492,0.816738,-0.

 Normal termination of Gaussian 16 at Wed Apr  9 00:52:17 2025.
