 Gaussian 16, Revision C.01,

 ----------------------------------------------------------------------
 #t hf aug-cc-pvdz symm=none int=(grid=ultrafine) guess=(read,tcheck) s
 table=(opt,rrhf)
 ----------------------------------------------------------------------
 -----
 title
 -----
 Symbolic Z-matrix:
 Charge =  0 Multiplicity = 1

 SCF Done:  E(RHF) =  -558.070955176     A.U. after   12 cycles
 Normal termination of Gaussian 16 at Tue Apr  8 23:57:44 2025.
 Gaussian 16:  ES64L-G16RevC.01  3-Jul-2019

 ----------------------------------------------------------------------
 #t hf aug-cc-pvdz iop(5/13=1,5/36=2,99/5=2) pseudo=read geom=check gue
 ss=(read,tcheck) scf=(maxcycle=1)
 ----------------------------------------------------------------------
 -----
 title
 -----
 Structure from the checkpoint file:  "BDE49_nonexpt_2070_mol1.chk"
 Charge =  0 Multiplicity = 1

                         Standard orientation:
 ---------------------------------------------------------------------
 Center     Atomic      Atomic             Coordinates (Angstroms)
 Number     Number       Type             X           Y           Z
 ---------------------------------------------------------------------
      1         14           0       -1.742863   -0.698368    0.064782
      2          6           0        0.029405   -0.200143   -0.489106
      3          8           0        0.893057   -0.775184    0.471581
      4          8           0        0.278740    1.176985   -0.699089
      5          6           0        2.252588   -0.869412    0.047973
      6          1           0        2.344919   -1.538705   -0.817281
      7          1           0        2.816001   -1.283236    0.883920
      8          1           0        2.653107    0.113734   -0.215395
      9          6           0        0.011081    2.017631    0.418446
     10          1           0        0.364778    3.012658    0.149390
     11          1           0        0.535839    1.673262    1.314441
     12          1           0       -1.064362    2.074057    0.632897
     13          1           0        0.224381   -0.642056   -1.477061
     14          1           0       -1.963443   -0.433065    1.503415
     15          1           0       -1.897684   -2.147958   -0.192245
     16          1           0       -2.746262    0.045598   -0.732842
 ---------------------------------------------------------------------

 SCF Done:  E(RHF) =  -558.182167784     A.U. after    2 cycles

 The electronic state is 1-A.
 Alpha  occ. eigenvalues --  -69.06245 -20.58127 -20.57857 -11.33191 -11.28485
 Alpha  occ. eigenvalues --  -11.28466  -6.81623  -3.92395  -3.92380  -3.92372
 Alpha  occ. eigenvalues --   -1.36913  -1.30559  -0.98120  -0.93545  -0.83822
 Alpha  occ. eigenvalues --   -0.72237  -0.70178  -0.68935  -0.64499  -0.61843
 Alpha  occ. eigenvalues --   -0.61023  -0.57813  -0.53128  -0.52125  -0.48129
 Alpha  occ. eigenvalues --   -0.47916  -0.46783  -0.46085  -0.41522
 Alpha virt. eigenvalues --    0.03350   0.04437   0.04692   0.05030   0.06336
 Alpha virt. eigenvalues --    0.06643   0.06818   0.07272   0.08221   0.09139
 Alpha virt. eigenvalues --    0.09784   0.10407   0.11196   0.13144   0.14198

 Mulliken charges:
               1
     1  Si  -0.054924
     2  C    0.674458
     3  O   -0.590379
     4  O   -0.679867
     5  C    0.707476
     6  H   -0.098716
     7  H   -0.252709
     8  H   -0.043954
     9  C    0.799596
    10  H   -0.235894
    11  H   -0.064901
    12  H   -0.071322
    13  H   -0.345010
    14  H    0.132205
    15  H    0.000212
    16  H    0.123730
 Sum of Mulliken charges =  -0.00000

 Dipole moment (field-independent basis, Debye):
    X=              0.6333    Y=              0.1479    Z=              0.0870  Tot=              0.6562

 Test job not archived.
 1\1\GINC-SE338\SP\RHF\Aug-CC-pVDZ\C3H10O2Si1\OHZDE\08-Apr-2025\0\\#t h
 f aug-cc-pvdz iop(5/13=1,5/36=2,99/5=2) pseudo=read geom=check guess=(
 read,tcheck) scf=(maxcycle=1)\\title\\0,1\Si,0,-1.742863,-0.698369,0.0
 64782\C,0,0.029405,-0.200143,-0.489106\O,0,0.893057,-0.775184,0.471581
 \O,0,0.278739,1.176985,-0.699089\C,0,2.252588,-0.869411,0.047973\H,0,2
 .34492,-1.538704,-0.817281\H,0,2.816001,-1.283235,0.88392\H,0,2.653107
 ,0.113735,-0.215395\C,0,0.01108,2.017631,0.418446\H,0,0.364777,3.01265
 8,0.14939\H,0,0.535838,1.673262,1.314441\H,0,-1.064363,2.074056,0.6328

 Normal termination of Gaussian 16 at Tue Apr  8 23:57:49 2025.
