 Gaussian 16, Revision C.01,

 ----------------------------------------------------------------------
 #t hf aug-cc-pvdz symm=none int=(grid=ultrafine) guess=(read,tcheck) s
 table=(opt,rrhf)
 ----------------------------------------------------------------------
 -----
 title
 -----
 Symbolic Z-matrix:
 Charge =  0 Multiplicity = 1

 SCF Done:  E(RHF) =  -666.116689072     A.U. after   15 cycles
 Normal termination of Gaussian 16 at Tue Apr  8 23:36:19 2025.
 Gaussian 16:  ES64L-G16RevC.01  3-Jul-2019

 ----------------------------------------------------------------------
 #t hf aug-cc-pvdz iop(5/13=1,5/36=2,99/5=2) pseudo=read geom=check gue
 ss=(read,tcheck) scf=(maxcycle=1)
 ----------------------------------------------------------------------
 -----
 title
 -----
 Structure from the checkpoint file:  "BDE49_nonexpt_1525_mol1.chk"
 Charge =  0 Multiplicity = 1

                         Standard orientation:
 ---------------------------------------------------------------------
 Center     Atomic      Atomic             Coordinates (Angstroms)
 Number     Number       Type             X           Y           Z
 ---------------------------------------------------------------------
      1          6           0       -0.213589   -0.150387   -0.433459
      2          7           0        2.523276   -0.218109    0.367179
      3          6           0        2.342530    0.824779    1.372583
      4          1           0        1.419762    0.717152    1.957664
      5          1           0        2.313935    1.800603    0.880037
      6          1           0        3.193175    0.824019    2.059344
      7          6           0       -0.893488   -1.218865    0.169322
      8          6           0       -2.211319   -1.080403    0.595090
      9          6           0       -2.882297    0.127332    0.406008
     10          6           0       -2.226380    1.193617   -0.204539
     11          6           0       -0.900986    1.056706   -0.614224
     12          1           0       -0.396700    1.897650   -1.078764
     13          1           0       -0.387806   -2.171244    0.298605
     14          1           0       -2.719693   -1.916690    1.062496
     15          1           0       -3.911865    0.234206    0.728873
     16          1           0       -2.743650    2.134914   -0.355638
     17         15           0        1.528746   -0.420156   -1.003656
     18          1           0        1.678444    0.881925   -1.548874
     19          1           0        2.873447   -1.090100    0.736147
 ---------------------------------------------------------------------

 SCF Done:  E(RHF) =  -666.241151679     A.U. after    2 cycles

 The electronic state is 1-A.
 Alpha  occ. eigenvalues --  -81.27249 -15.61496 -11.26250 -11.25054 -11.25026
 Alpha  occ. eigenvalues --  -11.24989 -11.24822 -11.24799 -11.24566  -7.77194
 Alpha  occ. eigenvalues --   -4.91355  -4.91200  -4.90929  -1.15126  -1.14092
 Alpha  occ. eigenvalues --   -1.01407  -1.01301  -0.90846  -0.83649  -0.83064
 Alpha  occ. eigenvalues --   -0.76188  -0.70018  -0.64283  -0.63381  -0.62765
 Alpha  occ. eigenvalues --   -0.60003  -0.59404  -0.58584  -0.54809  -0.51453
 Alpha  occ. eigenvalues --   -0.50503  -0.49946  -0.48285  -0.38270  -0.36023
 Alpha  occ. eigenvalues --   -0.34390  -0.32128
 Alpha virt. eigenvalues --    0.03223   0.03888   0.04080   0.05012   0.05412
 Alpha virt. eigenvalues --    0.05935   0.07136   0.07618   0.07921   0.08269
 Alpha virt. eigenvalues --    0.09408   0.10229   0.10469   0.11358   0.12914

 Mulliken charges:
               1
     1  C   -0.023124
     2  N   -0.652167
     3  C    0.804474
     4  H   -0.100618
     5  H   -0.194541
     6  H   -0.213567
     7  C    0.270865
     8  C    0.519379
     9  C    0.630089
    10  C    0.462944
    11  C    0.565690
    12  H   -0.602654
    13  H   -0.560729
    14  H   -0.446383
    15  H   -0.434500
    16  H   -0.444021
    17  P    0.434664
    18  H    0.051850
    19  H   -0.067653
 Sum of Mulliken charges =   0.00000

 Dipole moment (field-independent basis, Debye):
    X=             -0.6000    Y=              0.4759    Z=              1.6932  Tot=              1.8583

 Test job not archived.
 1\1\GINC-SE423\SP\RHF\Aug-CC-pVDZ\C7H10N1P1\OHZDE\08-Apr-2025\0\\#t hf
  aug-cc-pvdz iop(5/13=1,5/36=2,99/5=2) pseudo=read geom=check guess=(r
 ead,tcheck) scf=(maxcycle=1)\\title\\0,1\C,0,-0.213589,-0.150387,-0.43
 3459\N,0,2.523276,-0.218109,0.367179\C,0,2.34253,0.824779,1.372583\H,0
 ,1.419762,0.717152,1.957664\H,0,2.313935,1.800603,0.880037\H,0,3.19317
 5,0.824019,2.059344\C,0,-0.893488,-1.218865,0.169322\C,0,-2.211319,-1.
 080403,0.59509\C,0,-2.882297,0.127332,0.406008\C,0,-2.22638,1.193617,-
 0.204539\C,0,-0.900986,1.056706,-0.614224\H,0,-0.3967,1.89765,-1.07876

 Normal termination of Gaussian 16 at Tue Apr  8 23:36:29 2025.
