 Gaussian 16, Revision C.01,

 ----------------------------------------------------------------------
 #t hf aug-cc-pvdz symm=none int=(grid=ultrafine) guess=(read,tcheck) s
 table=opt
 ----------------------------------------------------------------------
 -----
 title
 -----
 Symbolic Z-matrix:
 Charge =  0 Multiplicity = 2

 SCF Done:  E(UHF) =  -592.223807732     A.U. after   17 cycles
 Normal termination of Gaussian 16 at Tue Apr  8 23:57:43 2025.
 Gaussian 16:  ES64L-G16RevC.01  3-Jul-2019

 ----------------------------------------------------------------------
 #t hf aug-cc-pvdz iop(5/13=1,5/36=2,99/5=2) pseudo=read geom=check gue
 ss=(read,tcheck) scf=(maxcycle=1)
 ----------------------------------------------------------------------
 -----
 title
 -----
 Structure from the checkpoint file:  "BDE49_nonexpt_2073_mol2.chk"
 Charge =  0 Multiplicity = 2

                         Standard orientation:
 ---------------------------------------------------------------------
 Center     Atomic      Atomic             Coordinates (Angstroms)
 Number     Number       Type             X           Y           Z
 ---------------------------------------------------------------------
      1         14           0        2.280645   -0.089292    0.000148
      2          8           0        0.706605   -0.710176   -0.000065
      3          6           0       -0.388385    0.069783   -0.000274
      4          8           0       -0.375090    1.274732   -0.000093
      5          8           0       -1.474080   -0.703977   -0.000064
      6          6           0       -2.726907    0.006426    0.000106
      7          1           0       -2.810586    0.631997    0.889671
      8          1           0       -3.492902   -0.765241    0.000261
      9          1           0       -2.810864    0.631918   -0.889489
     10          1           0        2.508613    0.704841    1.231357
     11          1           0        2.508989    0.704690   -1.231090
 ---------------------------------------------------------------------

 SCF Done:  E(UHF) =  -592.351862554     A.U. after    2 cycles

 The electronic state is 2-A.
 Alpha  occ. eigenvalues --  -69.12309 -20.63219 -20.61580 -20.56966 -11.45910
 Alpha  occ. eigenvalues --  -11.30792  -6.87121  -3.98408  -3.97685  -3.97476
 Alpha  occ. eigenvalues --   -1.46503  -1.35863  -1.33296  -0.99452  -0.85113
 Alpha  occ. eigenvalues --   -0.77557  -0.73062  -0.71788  -0.68214  -0.63187
 Alpha  occ. eigenvalues --   -0.62849  -0.58223  -0.55348  -0.53932  -0.50150
 Alpha  occ. eigenvalues --   -0.49576  -0.48780  -0.35127
 Alpha virt. eigenvalues --    0.03448   0.04201   0.05406   0.05643   0.05802
 Alpha virt. eigenvalues --    0.06688   0.07554   0.09293   0.10432   0.13262
 Alpha virt. eigenvalues --    0.13509   0.13752   0.14409   0.14528   0.15876

  Beta  occ. eigenvalues --  -69.11719 -20.63219 -20.61470 -20.56980 -11.45825
  Beta  occ. eigenvalues --  -11.30790  -6.86201  -3.97293  -3.97091  -3.96243
  Beta  occ. eigenvalues --   -1.46410  -1.35748  -1.33174  -0.99310  -0.84141
  Beta  occ. eigenvalues --   -0.77107  -0.72698  -0.71743  -0.65934  -0.63013
  Beta  occ. eigenvalues --   -0.62730  -0.56910  -0.55221  -0.53652  -0.50118
  Beta  occ. eigenvalues --   -0.49629  -0.47597
  Beta virt. eigenvalues --    0.02715   0.03609   0.04847   0.05663   0.05686
  Beta virt. eigenvalues --    0.06070   0.06826   0.09349   0.09478   0.10567
  Beta virt. eigenvalues --    0.13415   0.13813   0.14542   0.14736   0.14947

 Mulliken charges and spin densities:
               1          2
     1  Si   0.510361   1.059635
     2  O   -0.641869  -0.173699
     3  C    0.605291   0.036625
     4  O   -0.352849  -0.003544
     5  O   -0.489703  -0.004729
     6  C    0.742798  -0.000553
     7  H   -0.057225  -0.000300
     8  H   -0.234314   0.000109
     9  H   -0.057229  -0.000301
    10  H   -0.012626   0.043384
    11  H   -0.012635   0.043373
 Sum of Mulliken charges =  -0.00000   1.00000

 Dipole moment (field-independent basis, Debye):
    X=             -0.6809    Y=             -0.5881    Z=             -0.0001  Tot=              0.8997
                          Isotropic Fermi Contact Couplings
        Atom                 a.u.       MegaHertz       Gauss      10(-4) cm-1
     1  Si(29)             0.65670    -583.62920    -208.25341    -194.67775
     2  O(17)              0.07668     -46.48227     -16.58603     -15.50482
     3  C(13)              0.01795      20.17793       7.19999       6.73063
     4  O(17)             -0.00064       0.38863       0.13867       0.12963
     5  O(17)              0.00090      -0.54721      -0.19526      -0.18253
     6  C(13)              0.00045       0.50287       0.17944       0.16774
     7  H(1)              -0.00002      -0.09147      -0.03264      -0.03051
     8  H(1)               0.00002       0.07961       0.02841       0.02656

 Normal termination of Gaussian 16 at Tue Apr  8 23:57:47 2025.
