 Gaussian 16, Revision C.01,

 ----------------------------------------------------------------------
 #t hf aug-cc-pvdz symm=none int=(grid=ultrafine) guess=(read,tcheck) s
 table=(opt,rrhf)
 ----------------------------------------------------------------------
 -----
 title
 -----
 Symbolic Z-matrix:
 Charge =  0 Multiplicity = 1

 SCF Done:  E(RHF) =  -709.620317936     A.U. after   15 cycles
 Normal termination of Gaussian 16 at Wed Apr  9 00:03:29 2025.
 Gaussian 16:  ES64L-G16RevC.01  3-Jul-2019

 ----------------------------------------------------------------------
 #t hf aug-cc-pvdz iop(5/13=1,5/36=2,99/5=2) pseudo=read geom=check gue
 ss=(read,tcheck) scf=(maxcycle=1)
 ----------------------------------------------------------------------
 -----
 title
 -----
 Structure from the checkpoint file:  "BDE49_nonexpt_2195_mol1.chk"
 Charge =  0 Multiplicity = 1

                         Standard orientation:
 ---------------------------------------------------------------------
 Center     Atomic      Atomic             Coordinates (Angstroms)
 Number     Number       Type             X           Y           Z
 ---------------------------------------------------------------------
      1          6           0       -1.620646    1.603997   -0.000001
      2          6           0       -1.747088    0.207214    0.000000
      3          6           0       -0.609207   -0.598220    0.000000
      4          6           0       -0.358020    2.172832   -0.000001
      5          6           0        0.794343    1.382619    0.000000
      6          6           0        0.656501   -0.002888    0.000000
      7          1           0       -0.259701    3.252450   -0.000001
      8          1           0        1.774599    1.844516   -0.000001
      9          8           0        1.727588   -0.857161    0.000000
     10         14           0        3.358351   -0.541837    0.000000
     11          1           0       -0.660408   -1.677465    0.000000
     12          1           0       -2.519275    2.207398   -0.000001
     13          8           0       -3.022094   -0.271728    0.000000
     14          6           0       -3.219237   -1.678220    0.000000
     15          1           0       -4.297830   -1.826998    0.000000
     16          1           0       -2.789692   -2.144403    0.893798
     17          1           0       -2.789692   -2.144404   -0.893797
     18          1           0        3.998913   -1.868706    0.000001
     19          1           0        3.751166    0.225218    1.204146
     20          1           0        3.751166    0.225218   -1.204146
 ---------------------------------------------------------------------

 SCF Done:  E(RHF) =  -709.782350638     A.U. after    2 cycles

 The electronic state is 1-A.
 Alpha  occ. eigenvalues --  -69.10395 -20.60199 -20.58936 -11.32308 -11.31749
 Alpha  occ. eigenvalues --  -11.29795 -11.25474 -11.23558 -11.23551 -11.23122
 Alpha  occ. eigenvalues --   -6.85198  -3.96111  -3.95963  -3.95933  -1.37189
 Alpha  occ. eigenvalues --   -1.34664  -1.13635  -1.01869  -1.01217  -0.94403
 Alpha  occ. eigenvalues --   -0.84904  -0.83037  -0.75967  -0.70075  -0.69275
 Alpha  occ. eigenvalues --   -0.67176  -0.66742  -0.64475  -0.61965  -0.61885
 Alpha  occ. eigenvalues --   -0.59861  -0.55887  -0.54099  -0.52941  -0.51787
 Alpha  occ. eigenvalues --   -0.50532  -0.48581  -0.47654  -0.46052  -0.33789
 Alpha  occ. eigenvalues --   -0.31533
 Alpha virt. eigenvalues --    0.03214   0.03772   0.04197   0.05104   0.05560
 Alpha virt. eigenvalues --    0.05600   0.06883   0.06908   0.07124   0.09253
 Alpha virt. eigenvalues --    0.09262   0.10011   0.10155   0.11223   0.11883

 Mulliken charges:
               1
     1  C    0.586329
     2  C    0.614471
     3  C    0.377592
     4  C    0.500205
     5  C    0.636929
     6  C    0.375344
     7  H   -0.429700
     8  H   -0.608322
     9  O   -0.910334
    10  Si   0.254528
    11  H   -0.764179
    12  H   -0.549900
    13  O   -0.699904
    14  C    0.846172
    15  H   -0.317243
    16  H   -0.079504
    17  H   -0.079505
    18  H    0.047539
    19  H    0.099742
    20  H    0.099741
 Sum of Mulliken charges =  -0.00000

 Dipole moment (field-independent basis, Debye):
    X=              0.4347    Y=             -0.6615    Z=             -0.0000  Tot=              0.7916

 Test job not archived.
 1\1\GINC-SE331\SP\RHF\Aug-CC-pVDZ\C7H10O2Si1\OHZDE\09-Apr-2025\0\\#t h
 f aug-cc-pvdz iop(5/13=1,5/36=2,99/5=2) pseudo=read geom=check guess=(
 read,tcheck) scf=(maxcycle=1)\\title\\0,1\C,0,-1.620646,1.603997,-0.00
 0001\C,0,-1.747088,0.207214,0.\C,0,-0.609207,-0.59822,0.\C,0,-0.35802,
 2.172832,-0.000001\C,0,0.794343,1.382619,0.\C,0,0.656501,-0.002888,0.\
 H,0,-0.259701,3.25245,-0.000001\H,0,1.774599,1.844516,-0.000001\O,0,1.
 727588,-0.857161,0.\Si,0,3.358351,-0.541837,0.\H,0,-0.660408,-1.677465
 ,0.\H,0,-2.519275,2.207398,-0.000001\O,0,-3.022094,-0.271728,0.\C,0,-3

 Normal termination of Gaussian 16 at Wed Apr  9 00:03:40 2025.
