 Gaussian 16, Revision C.01,

 ----------------------------------------------------------------------
 #t hf aug-cc-pvdz symm=none int=(grid=ultrafine) guess=(read,tcheck) s
 table=opt
 ----------------------------------------------------------------------
 -----
 title
 -----
 Symbolic Z-matrix:
 Charge =  0 Multiplicity = 2

 SCF Done:  E(UHF) =  -478.297768698     A.U. after   17 cycles
 Normal termination of Gaussian 16 at Tue Apr  8 23:49:55 2025.
 Gaussian 16:  ES64L-G16RevC.01  3-Jul-2019

 ----------------------------------------------------------------------
 #t hf aug-cc-pvdz iop(5/13=1,5/36=2,99/5=2) pseudo=read geom=check gue
 ss=(read,tcheck) scf=(maxcycle=1)
 ----------------------------------------------------------------------
 -----
 title
 -----
 Structure from the checkpoint file:  "BDE49_nonexpt_1888_mol2.chk"
 Charge =  0 Multiplicity = 2

                         Standard orientation:
 ---------------------------------------------------------------------
 Center     Atomic      Atomic             Coordinates (Angstroms)
 Number     Number       Type             X           Y           Z
 ---------------------------------------------------------------------
      1         14           0        1.383575   -0.116895    0.000000
      2          8           0       -0.018194    0.844578   -0.000004
      3          1           0        1.428141   -0.941925    1.231219
      4          1           0        1.428117   -0.941954   -1.231200
      5          6           0       -1.275670    0.350499   -0.000002
      6          8           0       -1.552730   -0.813919    0.000003
      7          1           0       -2.004893    1.172143   -0.000005
 ---------------------------------------------------------------------

 SCF Done:  E(UHF) =  -478.387057127     A.U. after    2 cycles

 The electronic state is 2-A.
 Alpha  occ. eigenvalues --  -69.12560 -20.61816 -20.58416 -11.41419  -6.87382
 Alpha  occ. eigenvalues --   -3.98668  -3.97940  -3.97740  -1.42304  -1.33242
 Alpha  occ. eigenvalues --   -0.89924  -0.75121  -0.72727  -0.66750  -0.65861
 Alpha  occ. eigenvalues --   -0.56708  -0.53167  -0.49301  -0.48910  -0.35397
 Alpha virt. eigenvalues --    0.03340   0.04399   0.05786   0.05799   0.07407
 Alpha virt. eigenvalues --    0.09124   0.09433   0.10574   0.13783   0.14058
 Alpha virt. eigenvalues --    0.15229   0.15874   0.17701   0.18488   0.18613

  Beta  occ. eigenvalues --  -69.11970 -20.61701 -20.58450 -11.41333  -6.86462
  Beta  occ. eigenvalues --   -3.97546  -3.97355  -3.96503  -1.42182  -1.33077
  Beta  occ. eigenvalues --   -0.89051  -0.74335  -0.71997  -0.65711  -0.64300
  Beta  occ. eigenvalues --   -0.55713  -0.52869  -0.49295  -0.47845
  Beta virt. eigenvalues --    0.02383   0.03833   0.04802   0.05919   0.06268
  Beta virt. eigenvalues --    0.09285   0.09354   0.09640   0.10691   0.14330
  Beta virt. eigenvalues --    0.15110   0.15406   0.16006   0.18914   0.20343

 Mulliken charges and spin densities:
               1          2
     1  Si   0.636861   1.002279
     2  O   -0.704566  -0.096152
     3  H   -0.033892   0.043095
     4  H   -0.033891   0.043095
     5  C    0.688180   0.016629
     6  O   -0.369651  -0.008567
     7  H   -0.183042  -0.000378
 Sum of Mulliken charges =  -0.00000   1.00000

 Dipole moment (field-independent basis, Debye):
    X=              0.9943    Y=              1.7522    Z=             -0.0000  Tot=              2.0147
                          Isotropic Fermi Contact Couplings
        Atom                 a.u.       MegaHertz       Gauss      10(-4) cm-1
     1  Si(29)             0.66043    -586.94301    -209.43586    -195.78311
     2  O(17)              0.07450     -45.15941     -16.11400     -15.06356
     3  H(1)               0.01286      57.49919      20.51714      19.17966
     4  H(1)               0.01286      57.49836      20.51685      19.17939
     5  C(13)              0.01622      18.23911       6.50817       6.08391
     6  O(17)             -0.00236       1.43304       0.51134       0.47801
     7  H(1)              -0.00001      -0.05856      -0.02090      -0.01953
 --------------------------------------------------------

 Normal termination of Gaussian 16 at Tue Apr  8 23:49:57 2025.
