 Gaussian 16, Revision C.01,

 ----------------------------------------------------------------------
 #t hf aug-cc-pvdz symm=none int=(grid=ultrafine) guess=(read,tcheck) s
 table=opt
 ----------------------------------------------------------------------
 -----
 title
 -----
 Symbolic Z-matrix:
 Charge =  0 Multiplicity = 2

 SCF Done:  E(UHF) =  -407.757477147     A.U. after   15 cycles

 1\1\GINC-SE253\Stability\UHF\Aug-CC-pVDZ\C3H9Si1\OHZDE\08-Apr-2025\0\\
 #t hf aug-cc-pvdz symm=none int=(grid=ultrafine) guess=(read,tcheck) s
 table=opt\\title\\0,2\Si,0,0.680177,-0.703795,0.12049\C,0,-1.098561,-0
 .443373,-0.484177\C,0,-1.87124,0.664887,0.260207\H,0,-1.629724,-1.3965
 8,-0.38706\H,0,-1.069282,-0.224175,-1.55763\H,0,-1.935803,0.455793,1.3
 31636\H,0,-2.893855,0.757358,-0.119947\C,0,1.763258,0.824325,-0.130126
 \H,0,2.782281,0.638672,0.218536\H,0,1.370004,1.680952,0.429169\H,0,1.8
 13934,1.104318,-1.185745\H,0,-1.390141,1.639887,0.143342\H,0,0.669374,

 Normal termination of Gaussian 16 at Tue Apr  8 23:39:24 2025.
 Gaussian 16:  ES64L-G16RevC.01  3-Jul-2019

 ----------------------------------------------------------------------
 #t hf aug-cc-pvdz iop(5/13=1,5/36=2,99/5=2) pseudo=read geom=check gue
 ss=(read,tcheck) scf=(maxcycle=1)
 ----------------------------------------------------------------------
 -----
 title
 -----
 Structure from the checkpoint file:  "BDE49_nonexpt_1636_mol2.chk"
 Charge =  0 Multiplicity = 2

                         Standard orientation:
 ---------------------------------------------------------------------
 Center     Atomic      Atomic             Coordinates (Angstroms)
 Number     Number       Type             X           Y           Z
 ---------------------------------------------------------------------
      1         14           0        0.680177   -0.703795    0.120490
      2          6           0       -1.098561   -0.443373   -0.484177
      3          6           0       -1.871240    0.664887    0.260207
      4          1           0       -1.629724   -1.396580   -0.387060
      5          1           0       -1.069282   -0.224175   -1.557630
      6          1           0       -1.935803    0.455793    1.331636
      7          1           0       -2.893855    0.757358   -0.119947
      8          6           0        1.763258    0.824326   -0.130126
      9          1           0        2.782281    0.638673    0.218536
     10          1           0        1.370004    1.680952    0.429169
     11          1           0        1.813934    1.104319   -1.185745
     12          1           0       -1.390141    1.639887    0.143342
     13          1           0        0.669374   -1.078137    1.565417
 ---------------------------------------------------------------------

 SCF Done:  E(UHF) =  -407.819052091     A.U. after    2 cycles

 The electronic state is 2-A.
 Alpha  occ. eigenvalues --  -69.05646 -11.23204 -11.22266 -11.21838  -6.80971
 Alpha  occ. eigenvalues --   -3.92310  -3.91431  -3.91422  -1.01388  -0.93815
 Alpha  occ. eigenvalues --   -0.84270  -0.65565  -0.60882  -0.57549  -0.56143
 Alpha  occ. eigenvalues --   -0.54980  -0.51875  -0.49945  -0.45055  -0.42424
 Alpha  occ. eigenvalues --   -0.30359
 Alpha virt. eigenvalues --    0.03332   0.04581   0.04938   0.04982   0.06539
 Alpha virt. eigenvalues --    0.06848   0.07204   0.07490   0.08507   0.09538
 Alpha virt. eigenvalues --    0.09853   0.10953   0.13950   0.14607   0.15451

  Beta  occ. eigenvalues --  -69.05101 -11.23112 -11.22210 -11.21785  -6.80154
  Beta  occ. eigenvalues --   -3.91059  -3.91052  -3.90199  -1.00975  -0.93313
  Beta  occ. eigenvalues --   -0.83886  -0.62716  -0.60748  -0.56432  -0.55269
  Beta  occ. eigenvalues --   -0.54585  -0.51326  -0.49820  -0.44239  -0.41636
  Beta virt. eigenvalues --    0.03165   0.04208   0.04656   0.04992   0.06490
  Beta virt. eigenvalues --    0.06721   0.07087   0.07374   0.07819   0.09567
  Beta virt. eigenvalues --    0.09871   0.09977   0.11355   0.14040   0.14997

 Mulliken charges and spin densities:
               1          2
     1  Si   0.700532   0.972224
     2  C   -0.007232   0.013625
     3  C    0.267820   0.006449
     4  H   -0.182784  -0.005669
     5  H   -0.120729  -0.005670
     6  H   -0.092454  -0.007651
     7  H   -0.098640   0.005825
     8  C    0.224294   0.001702
     9  H   -0.257343  -0.014229
    10  H   -0.208583   0.013839
    11  H   -0.170699  -0.005369
    12  H   -0.114901  -0.004529
    13  H    0.060719   0.029452
 Sum of Mulliken charges =   0.00000   1.00000

 Dipole moment (field-independent basis, Debye):
    X=             -0.3419    Y=              0.6444    Z=             -0.3607  Tot=              0.8138
                          Isotropic Fermi Contact Couplings
        Atom                 a.u.       MegaHertz       Gauss      10(-4) cm-1
     1  Si(29)             0.50847    -451.89077    -161.24586    -150.73454
     2  C(13)              0.01513      17.00620       6.06824       5.67266
     3  C(13)              0.02245      25.23348       9.00393       8.41698
     4  H(1)               0.00033       1.48100       0.52846       0.49401
     5  H(1)               0.00004       0.19587       0.06989       0.06533
     6  H(1)              -0.00028      -1.23658      -0.44124      -0.41248
     7  H(1)               0.00228      10.20883       3.64276       3.40530
     8  C(13)              0.01307      14.69669       5.24415       4.90229

 Normal termination of Gaussian 16 at Tue Apr  8 23:39:28 2025.
