 Gaussian 16, Revision C.01,

 ----------------------------------------------------------------------
 #t hf aug-cc-pvdz symm=none int=(grid=ultrafine) guess=(read,tcheck) s
 table=(opt,rrhf)
 ----------------------------------------------------------------------
 -----
 title
 -----
 Symbolic Z-matrix:
 Charge =  0 Multiplicity = 1

 SCF Done:  E(RHF) =  -522.343279577     A.U. after   11 cycles
 Normal termination of Gaussian 16 at Tue Apr  8 22:42:54 2025.
 Gaussian 16:  ES64L-G16RevC.01  3-Jul-2019

 ----------------------------------------------------------------------
 #t hf aug-cc-pvdz iop(5/13=1,5/36=2,99/5=2) pseudo=read geom=check gue
 ss=(read,tcheck) scf=(maxcycle=1)
 ----------------------------------------------------------------------
 -----
 title
 -----
 Structure from the checkpoint file:  "BDE49_expt_1490_mol1.chk"
 Charge =  0 Multiplicity = 1

                         Standard orientation:
 ---------------------------------------------------------------------
 Center     Atomic      Atomic             Coordinates (Angstroms)
 Number     Number       Type             X           Y           Z
 ---------------------------------------------------------------------
      1          6           0       -2.366899    0.000000    0.210673
      2          8           0       -1.078178   -0.000001    0.797505
      3          1           0       -2.532496   -0.890548   -0.408700
      4          1           0       -2.532495    0.890549   -0.408699
      5          1           0       -3.106915   -0.000001    1.013774
      6         14           0        0.378127   -0.000000   -0.002362
      7          6           0        1.669302   -0.000002    1.349501
      8          1           0        1.568110    0.883696    1.985638
      9          1           0        2.680636   -0.000001    0.930914
     10          1           0        1.568110   -0.883701    1.985636
     11          6           0        0.535242   -1.532906   -1.079695
     12          1           0        0.440027   -2.446817   -0.485847
     13          1           0        1.511672   -1.557830   -1.574623
     14          1           0       -0.227012   -1.562008   -1.864659
     15          6           0        0.535243    1.532909   -1.079692
     16          1           0        0.440028    2.446818   -0.485842
     17          1           0       -0.227012    1.562012   -1.864655
     18          1           0        1.511672    1.557833   -1.574620
 ---------------------------------------------------------------------

 SCF Done:  E(RHF) =  -522.456302112     A.U. after    2 cycles

 The electronic state is 1-A.
 Alpha  occ. eigenvalues --  -69.06752 -20.54658 -11.28503 -11.20655 -11.20651
 Alpha  occ. eigenvalues --  -11.20336  -6.81556  -3.92491  -3.92339  -3.92316
 Alpha  occ. eigenvalues --   -1.29207  -0.95931  -0.92192  -0.91787  -0.91175
 Alpha  occ. eigenvalues --   -0.68791  -0.63112  -0.62164  -0.58327  -0.56166
 Alpha  occ. eigenvalues --   -0.56063  -0.54494  -0.53933  -0.53573  -0.52989
 Alpha  occ. eigenvalues --   -0.47715  -0.47382  -0.42431  -0.41520
 Alpha virt. eigenvalues --    0.03087   0.04359   0.04859   0.04873   0.06330
 Alpha virt. eigenvalues --    0.06553   0.06691   0.06969   0.06983   0.09141
 Alpha virt. eigenvalues --    0.09237   0.09489   0.10791   0.11959   0.12065

 Mulliken charges:
               1
     1  C    0.824297
     2  O   -1.014787
     3  H   -0.141209
     4  H   -0.141209
     5  H   -0.278311
     6  Si   2.017422
     7  C    0.419354
     8  H   -0.279429
     9  H   -0.291312
    10  H   -0.279430
    11  C    0.449265
    12  H   -0.301473
    13  H   -0.241028
    14  H   -0.324457
    15  C    0.449268
    16  H   -0.301475
    17  H   -0.324456
    18  H   -0.241030
 Sum of Mulliken charges =  -0.00000

 Dipole moment (field-independent basis, Debye):
    X=             -0.2311    Y=              0.0000    Z=             -1.1467  Tot=              1.1697

 Test job not archived.
 1\1\GINC-SE366\SP\RHF\Aug-CC-pVDZ\C4H12O1Si1\OHZDE\08-Apr-2025\0\\#t h
 f aug-cc-pvdz iop(5/13=1,5/36=2,99/5=2) pseudo=read geom=check guess=(
 read,tcheck) scf=(maxcycle=1)\\title\\0,1\C,0,2.366899,0.,-0.210673\O,
 0,1.078178,-0.000001,-0.797505\H,0,2.532496,-0.890548,0.4087\H,0,2.532
 495,0.890549,0.408699\H,0,3.106915,-0.000001,-1.013774\Si,0,-0.378127,
 0.,0.002362\C,0,-1.669302,-0.000002,-1.349501\H,0,-1.56811,0.883696,-1
 .985638\H,0,-2.680636,-0.000001,-0.930914\H,0,-1.56811,-0.883701,-1.98
 5636\C,0,-0.535242,-1.532906,1.079695\H,0,-0.440027,-2.446817,0.485847

 Normal termination of Gaussian 16 at Tue Apr  8 22:42:59 2025.
