 Gaussian 16, Revision C.01,

 ----------------------------------------------------------------------
 #t hf aug-cc-pvdz symm=none int=(grid=ultrafine) guess=(read,tcheck) s
 table=(opt,rrhf)
 ----------------------------------------------------------------------
 -----
 title
 -----
 Symbolic Z-matrix:
 Charge =  0 Multiplicity = 1

 SCF Done:  E(RHF) =  -772.400578017     A.U. after   12 cycles
 Normal termination of Gaussian 16 at Tue Apr  8 22:50:17 2025.
 Gaussian 16:  ES64L-G16RevC.01  3-Jul-2019

 ----------------------------------------------------------------------
 #t hf aug-cc-pvdz iop(5/13=1,5/36=2,99/5=2) pseudo=read geom=check gue
 ss=(read,tcheck) scf=(maxcycle=1)
 ----------------------------------------------------------------------
 -----
 title
 -----
 Structure from the checkpoint file:  "BDE49_expt_1668_mol1.chk"
 Charge =  0 Multiplicity = 1

                         Standard orientation:
 ---------------------------------------------------------------------
 Center     Atomic      Atomic             Coordinates (Angstroms)
 Number     Number       Type             X           Y           Z
 ---------------------------------------------------------------------
      1          6           0        2.523090   -0.350406    0.399227
      2          6           0        1.184682   -0.812304   -0.168962
      3          6           0       -0.039480   -0.030691    0.316833
      4          1           0        1.072862   -1.867608    0.114768
      5          1           0        1.238963   -0.789170   -1.263066
      6          6           0        3.688328   -1.252123    0.022301
      7          1           0        3.515045   -2.256974    0.421205
      8          1           0        4.627181   -0.876910    0.431653
      9          1           0        3.789205   -1.324918   -1.062986
     10         17           0        2.898161    1.362599   -0.177174
     11          1           0        2.457974   -0.242514    1.483109
     12          6           0       -1.356728   -0.572025   -0.250866
     13          1           0        0.070977    1.022895    0.042546
     14          1           0       -0.076331   -0.062760    1.413396
     15          6           0       -2.590284    0.200156    0.230019
     16          1           0       -1.464692   -1.630427    0.020222
     17          1           0       -1.316591   -0.541612   -1.347220
     18          6           0       -3.909825   -0.334824   -0.337947
     19          1           0       -2.482969    1.258186   -0.041159
     20          1           0       -2.631578    0.171024    1.326640
     21          6           0       -5.136847    0.442114    0.147655
     22          1           0       -4.016726   -1.392330   -0.067189
     23          1           0       -3.868886   -0.304791   -1.433503
     24          1           0       -5.224964    0.401189    1.237859
     25          1           0       -6.060013    0.036478   -0.275149
     26          1           0       -5.075815    1.496669   -0.138729
 ---------------------------------------------------------------------

 SCF Done:  E(RHF) =  -772.516633345     A.U. after    2 cycles

 The electronic state is 1-A.
 Alpha  occ. eigenvalues -- -103.63586 -11.30918 -11.24355 -11.24156 -11.23044
 Alpha  occ. eigenvalues --  -11.22899 -11.22775 -11.22611 -11.22212 -10.66868
 Alpha  occ. eigenvalues --   -8.32573  -8.32316  -8.32305  -1.15702  -1.07983
 Alpha  occ. eigenvalues --   -1.04520  -1.00936  -0.95853  -0.88679  -0.81709
 Alpha  occ. eigenvalues --   -0.79299  -0.78710  -0.66549  -0.64182  -0.61861
 Alpha  occ. eigenvalues --   -0.60543  -0.59402  -0.58205  -0.56026  -0.55043
 Alpha  occ. eigenvalues --   -0.52188  -0.51903  -0.51293  -0.49281  -0.48531
 Alpha  occ. eigenvalues --   -0.47350  -0.46628  -0.46412  -0.45143  -0.43490
 Alpha  occ. eigenvalues --   -0.43243
 Alpha virt. eigenvalues --    0.03346   0.03603   0.04206   0.04678   0.05188
 Alpha virt. eigenvalues --    0.05462   0.05848   0.06778   0.07284   0.07580
 Alpha virt. eigenvalues --    0.07820   0.08751   0.09677   0.10351   0.10515

 Mulliken charges:
               1
     1  C   -0.164060
     2  C    0.183765
     3  C    0.202807
     4  H   -0.126724
     5  H   -0.162109
     6  C    0.805175
     7  H   -0.026377
     8  H   -0.061780
     9  H   -0.028731
    10  Cl  -0.220340
    11  H   -0.135482
    12  C    0.120706
    13  H   -0.187037
    14  H   -0.184408
    15  C    0.198162
    16  H   -0.208811
    17  H   -0.187618
    18  C    0.494768
    19  H   -0.180456
    20  H   -0.195064
    21  C    0.639488
    22  H   -0.161953
    23  H   -0.165080
    24  H   -0.089635
    25  H   -0.067600
    26  H   -0.091605
 Sum of Mulliken charges =  -0.00000

 Dipole moment (field-independent basis, Debye):
    X=             -0.7362    Y=             -2.4290    Z=              0.6346  Tot=              2.6162

 Test job not archived.
 1\1\GINC-SE029\SP\RHF\Aug-CC-pVDZ\C8H17Cl1\OHZDE\08-Apr-2025\0\\#t hf
 aug-cc-pvdz iop(5/13=1,5/36=2,99/5=2) pseudo=read geom=check guess=(re
 ad,tcheck) scf=(maxcycle=1)\\title\\0,1\C,0,2.52309,-0.350406,0.399227
 \C,0,1.184682,-0.812304,-0.168962\C,0,-0.03948,-0.030691,0.316833\H,0,
 1.072862,-1.867608,0.114768\H,0,1.238963,-0.78917,-1.263066\C,0,3.6883
 28,-1.252123,0.022301\H,0,3.515045,-2.256974,0.421205\H,0,4.627181,-0.
 87691,0.431653\H,0,3.789205,-1.324918,-1.062986\Cl,0,2.898161,1.362599
 ,-0.177174\H,0,2.457974,-0.242514,1.483109\C,0,-1.356728,-0.572025,-0.

 Normal termination of Gaussian 16 at Tue Apr  8 22:50:33 2025.
