 Gaussian 16, Revision C.01,

 ----------------------------------------------------------------------
 #t hf aug-cc-pvdz symm=none int=(grid=ultrafine) guess=(read,tcheck) s
 table=(opt,rrhf)
 ----------------------------------------------------------------------
 -----
 title
 -----
 Symbolic Z-matrix:
 Charge =  0 Multiplicity = 1

 SCF Done:  E(RHF) =  -906.407591176     A.U. after   12 cycles
 Normal termination of Gaussian 16 at Tue Apr  8 23:43:46 2025.
 Gaussian 16:  ES64L-G16RevC.01  3-Jul-2019

 ----------------------------------------------------------------------
 #t hf aug-cc-pvdz iop(5/13=1,5/36=2,99/5=2) pseudo=read geom=check gue
 ss=(read,tcheck) scf=(maxcycle=1)
 ----------------------------------------------------------------------
 -----
 title
 -----
 Structure from the checkpoint file:  "BDE49_nonexpt_1744_mol1.chk"
 Charge =  0 Multiplicity = 1

                         Standard orientation:
 ---------------------------------------------------------------------
 Center     Atomic      Atomic             Coordinates (Angstroms)
 Number     Number       Type             X           Y           Z
 ---------------------------------------------------------------------
      1         14           0       -0.799266    0.419244    0.403742
      2          6           0        0.946683    0.682324   -0.226660
      3          6           0        2.008754   -0.292517    0.313686
      4          1           0        1.222346    1.714705    0.032733
      5          1           0        0.924079    0.644383   -1.323165
      6          6           0       -2.005717    1.672506   -0.277560
      7          1           0       -1.720343    2.682001    0.035810
      8          1           0       -3.017199    1.477139    0.086504
      9          1           0       -2.026217    1.646531   -1.370185
     10         17           0       -1.448931   -1.496593   -0.170245
     11          6           0        3.414708   -0.004521   -0.222879
     12          1           0        1.724441   -1.317691    0.055911
     13          1           0        2.022696   -0.247678    1.408666
     14          1           0        3.442113   -0.078515   -1.314368
     15          1           0        4.144934   -0.713355    0.177472
     16          1           0        3.743776    1.003274    0.049234
     17          1           0       -0.825644    0.415123    1.883637
 ---------------------------------------------------------------------

 SCF Done:  E(RHF) =  -906.502412697     A.U. after    2 cycles

 The electronic state is 1-A.
 Alpha  occ. eigenvalues -- -103.63708 -69.09838 -11.23916 -11.22834 -11.22700
 Alpha  occ. eigenvalues --  -11.22695 -10.67130  -8.32819  -8.32614  -8.32609
 Alpha  occ. eigenvalues --   -6.84714  -3.95569  -3.95416  -3.95402  -1.12055
 Alpha  occ. eigenvalues --   -1.05110  -0.95414  -0.92446  -0.81057  -0.67112
 Alpha  occ. eigenvalues --   -0.63824  -0.58940  -0.57861  -0.56551  -0.54910
 Alpha  occ. eigenvalues --   -0.54684  -0.50271  -0.49971  -0.48322  -0.48003
 Alpha  occ. eigenvalues --   -0.47333  -0.43883  -0.42141
 Alpha virt. eigenvalues --    0.03139   0.04183   0.04624   0.04914   0.06153
 Alpha virt. eigenvalues --    0.06436   0.06567   0.07563   0.08201   0.08576
 Alpha virt. eigenvalues --    0.09238   0.09650   0.09862   0.11624   0.12758

 Mulliken charges:
               1
     1  Si   1.150468
     2  C    0.134486
     3  C    0.034872
     4  H   -0.203033
     5  H   -0.180521
     6  C    0.298751
     7  H   -0.182162
     8  H   -0.259449
     9  H   -0.160150
    10  Cl  -0.625551
    11  C    0.450664
    12  H   -0.147614
    13  H   -0.162836
    14  H   -0.067429
    15  H   -0.066905
    16  H   -0.075222
    17  H    0.061630
 Sum of Mulliken charges =  -0.00000

 Dipole moment (field-independent basis, Debye):
    X=              0.9475    Y=              2.2657    Z=              0.0165  Tot=              2.4559

 Test job not archived.
 1\1\GINC-SE074\SP\RHF\Aug-CC-pVDZ\C4H11Cl1Si1\OHZDE\08-Apr-2025\0\\#t
 hf aug-cc-pvdz iop(5/13=1,5/36=2,99/5=2) pseudo=read geom=check guess=
 (read,tcheck) scf=(maxcycle=1)\\title\\0,1\Si,0,-0.799266,0.419244,0.4
 03742\C,0,0.946683,0.682324,-0.22666\C,0,2.008754,-0.292517,0.313686\H
 ,0,1.222346,1.714705,0.032733\H,0,0.924079,0.644383,-1.323165\C,0,-2.0
 05717,1.672506,-0.27756\H,0,-1.720343,2.682001,0.03581\H,0,-3.017199,1
 .477139,0.086504\H,0,-2.026217,1.646531,-1.370185\Cl,0,-1.448931,-1.49
 6593,-0.170245\C,0,3.414708,-0.004521,-0.222879\H,0,1.724441,-1.317691

 Normal termination of Gaussian 16 at Tue Apr  8 23:43:52 2025.
