 Gaussian 16, Revision C.01,

 ----------------------------------------------------------------------
 #t hf aug-cc-pvdz symm=none int=(grid=ultrafine) guess=(read,tcheck) s
 table=(opt,rrhf)
 ----------------------------------------------------------------------
 -----
 title
 -----
 Symbolic Z-matrix:
 Charge =  0 Multiplicity = 1

 SCF Done:  E(RHF) =  -1130.06339699     A.U. after   13 cycles
 Normal termination of Gaussian 16 at Tue Apr  8 23:42:30 2025.
 Gaussian 16:  ES64L-G16RevC.01  3-Jul-2019

 ----------------------------------------------------------------------
 #t hf aug-cc-pvdz iop(5/13=1,5/36=2,99/5=2) pseudo=read geom=check gue
 ss=(read,tcheck) scf=(maxcycle=1)
 ----------------------------------------------------------------------
 -----
 title
 -----
 Structure from the checkpoint file:  "BDE49_nonexpt_1674_mol1.chk"
 Charge =  0 Multiplicity = 1

                         Standard orientation:
 ---------------------------------------------------------------------
 Center     Atomic      Atomic             Coordinates (Angstroms)
 Number     Number       Type             X           Y           Z
 ---------------------------------------------------------------------
      1          6           0       -1.931689    1.733333    0.015275
      2         15           0       -1.594599    0.018084    0.678535
      3          1           0       -2.133747    1.749142   -1.058772
      4          1           0       -1.080497    2.384484    0.223832
      5          1           0       -2.798053    2.143579    0.540932
      6          6           0       -3.091366   -0.880713    0.006914
      7          1           0       -3.976525   -0.529254    0.544139
      8          1           0       -2.987815   -1.950564    0.198680
      9          1           0       -3.248598   -0.725756   -1.063729
     10         14           0       -0.053921   -0.709474   -0.848594
     11         15           0        2.132811   -0.211767   -0.451686
     12          6           0        2.323756   -0.906288    1.271652
     13          1           0        1.576822   -0.535601    1.977179
     14          1           0        3.319101   -0.645736    1.641134
     15          1           0        2.261053   -1.995910    1.229564
     16          6           0        2.051007    1.615958   -0.070770
     17          1           0        3.054556    1.957158    0.196331
     18          1           0        1.373006    1.860182    0.750361
     19          1           0        1.743971    2.163611   -0.964701
     20          1           0       -0.394413   -0.217177   -2.213154
     21          1           0       -0.137388   -2.194025   -0.862651
 ---------------------------------------------------------------------

 SCF Done:  E(RHF) =  -1130.17789843     A.U. after    2 cycles

 The electronic state is 1-A.
 Alpha  occ. eigenvalues --  -81.24333 -81.24135 -69.06574 -11.24057 -11.24035
 Alpha  occ. eigenvalues --  -11.23966 -11.23582  -7.74702  -7.74507  -6.81831
 Alpha  occ. eigenvalues --   -4.88663  -4.88624  -4.88465  -4.88424  -4.88346
 Alpha  occ. eigenvalues --   -4.88145  -3.92541  -3.92528  -3.92520  -0.98281
 Alpha  occ. eigenvalues --   -0.97616  -0.93548  -0.93297  -0.74917  -0.69356
 Alpha  occ. eigenvalues --   -0.63510  -0.59441  -0.58786  -0.58287  -0.57673
 Alpha  occ. eigenvalues --   -0.56304  -0.56132  -0.55907  -0.55401  -0.48741
 Alpha  occ. eigenvalues --   -0.46023  -0.45294  -0.42192  -0.40669  -0.32678
 Alpha  occ. eigenvalues --   -0.30384
 Alpha virt. eigenvalues --    0.03428   0.04175   0.04562   0.04954   0.05806
 Alpha virt. eigenvalues --    0.06116   0.06623   0.06806   0.07556   0.08030
 Alpha virt. eigenvalues --    0.08121   0.08808   0.09213   0.09680   0.10187

 Mulliken charges:
               1
     1  C    0.369451
     2  P    0.267737
     3  H   -0.189030
     4  H   -0.267072
     5  H   -0.167391
     6  C    0.326164
     7  H   -0.207264
     8  H   -0.205306
     9  H   -0.169991
    10  Si   0.309686
    11  P    0.141615
    12  C    0.353589
    13  H   -0.155487
    14  H   -0.208719
    15  H   -0.209192
    16  C    0.395162
    17  H   -0.231789
    18  H   -0.178037
    19  H   -0.207684
    20  H    0.161769
    21  H    0.071788
 Sum of Mulliken charges =   0.00000

 Dipole moment (field-independent basis, Debye):
    X=             -0.9828    Y=              1.0163    Z=              0.4024  Tot=              1.4700

 Test job not archived.
 1\1\GINC-SE232\SP\RHF\Aug-CC-pVDZ\C4H14P2Si1\OHZDE\08-Apr-2025\0\\#t h
 f aug-cc-pvdz iop(5/13=1,5/36=2,99/5=2) pseudo=read geom=check guess=(
 read,tcheck) scf=(maxcycle=1)\\title\\0,1\C,0,-1.931689,1.733333,0.015
 275\P,0,-1.594599,0.018084,0.678535\H,0,-2.133747,1.749142,-1.058772\H
 ,0,-1.080497,2.384484,0.223832\H,0,-2.798053,2.143579,0.540932\C,0,-3.
 091366,-0.880713,0.006914\H,0,-3.976525,-0.529254,0.544139\H,0,-2.9878
 15,-1.950564,0.19868\H,0,-3.248598,-0.725756,-1.063729\Si,0,-0.053921,
 -0.709474,-0.848594\P,0,2.132811,-0.211767,-0.451686\C,0,2.323756,-0.9

 Normal termination of Gaussian 16 at Tue Apr  8 23:42:42 2025.
