 Gaussian 16, Revision C.01,

 ----------------------------------------------------------------------
 #t hf aug-cc-pvdz symm=none int=(grid=ultrafine) guess=(read,tcheck) s
 table=(opt,rrhf)
 ----------------------------------------------------------------------
 -----
 title
 -----
 Symbolic Z-matrix:
 Charge =  0 Multiplicity = 1

 SCF Done:  E(RHF) =  -600.430066621     A.U. after   12 cycles
 Normal termination of Gaussian 16 at Wed Apr  9 00:07:59 2025.
 Gaussian 16:  ES64L-G16RevC.01  3-Jul-2019

 ----------------------------------------------------------------------
 #t hf aug-cc-pvdz iop(5/13=1,5/36=2,99/5=2) pseudo=read geom=check gue
 ss=(read,tcheck) scf=(maxcycle=1)
 ----------------------------------------------------------------------
 -----
 title
 -----
 Structure from the checkpoint file:  "BDE49_nonexpt_2288_mol1.chk"
 Charge =  0 Multiplicity = 1

                         Standard orientation:
 ---------------------------------------------------------------------
 Center     Atomic      Atomic             Coordinates (Angstroms)
 Number     Number       Type             X           Y           Z
 ---------------------------------------------------------------------
      1         14           0        1.083794   -0.000001    0.013876
      2          8           0       -0.481500   -0.000008    0.570310
      3          6           0        1.417001    1.531381   -1.025962
      4          6           0        1.417010   -1.531374   -1.025972
      5          1           0        2.452483   -1.540826   -1.382024
      6          1           0        0.769697   -1.574893   -1.907618
      7          1           0        1.255424   -2.445536   -0.447180
      8          6           0        2.145279   -0.000002    1.553835
      9          1           0        3.210131    0.000015    1.300441
     10          1           0        1.944679   -0.883687    2.165952
     11          1           0        1.944654    0.883665    2.165970
     12          6           0       -1.686757   -0.000002   -0.203473
     13          1           0        0.769690    1.574901   -1.907609
     14          1           0        2.452475    1.540841   -1.382012
     15          1           0        1.255409    2.445539   -0.447165
     16          6           0       -2.473198   -1.269015    0.114627
     17          1           0       -1.888190   -2.157633   -0.132758
     18          1           0       -3.408558   -1.302194   -0.451791
     19          1           0       -2.709972   -1.302310    1.181451
     20          6           0       -2.473187    1.269020    0.114626
     21          1           0       -1.439243   -0.000004   -1.275374
     22          1           0       -2.709961    1.302317    1.181449
     23          1           0       -3.408546    1.302206   -0.451792
     24          1           0       -1.888171    2.157632   -0.132760
 ---------------------------------------------------------------------

 SCF Done:  E(RHF) =  -600.566462276     A.U. after    2 cycles

 The electronic state is 1-A.
 Alpha  occ. eigenvalues --  -69.06652 -20.54113 -11.29317 -11.22130 -11.22121
 Alpha  occ. eigenvalues --  -11.20550 -11.20547 -11.20232  -6.81444  -3.92364
 Alpha  occ. eigenvalues --   -3.92216  -3.92194  -1.28997  -1.03200  -0.95350
 Alpha  occ. eigenvalues --   -0.93109  -0.91651  -0.91556  -0.80113  -0.70480
 Alpha  occ. eigenvalues --   -0.61962  -0.60985  -0.58888  -0.56487  -0.56113
 Alpha  occ. eigenvalues --   -0.56004  -0.54663  -0.53990  -0.53928  -0.52897
 Alpha  occ. eigenvalues --   -0.52790  -0.51559  -0.51197  -0.45953  -0.45795
 Alpha  occ. eigenvalues --   -0.42242  -0.41071
 Alpha virt. eigenvalues --    0.03005   0.04237   0.04500   0.04635   0.05896
 Alpha virt. eigenvalues --    0.06038   0.06149   0.06591   0.06593   0.08162
 Alpha virt. eigenvalues --    0.08298   0.08859   0.08989   0.09270   0.09286

 Mulliken charges:
               1
     1  Si   1.902380
     2  O   -1.009735
     3  C    0.492872
     4  C    0.492870
     5  H   -0.252324
     6  H   -0.288315
     7  H   -0.319533
     8  C    0.390047
     9  H   -0.337406
    10  H   -0.298877
    11  H   -0.298874
    12  C   -0.448727
    13  H   -0.288316
    14  H   -0.252320
    15  H   -0.319538
    16  C    0.558129
    17  H   -0.086594
    18  H   -0.004579
    19  H    0.006175
    20  C    0.558130
    21  H   -0.110464
    22  H    0.006173
    23  H   -0.004579
    24  H   -0.086596
 Sum of Mulliken charges =  -0.00000

 Dipole moment (field-independent basis, Debye):
    X=             -0.1815    Y=              0.0000    Z=             -1.1021  Tot=              1.1169

 Test job not archived.
 1\1\GINC-SE455\SP\RHF\Aug-CC-pVDZ\C6H16O1Si1\OHZDE\09-Apr-2025\0\\#t h
 f aug-cc-pvdz iop(5/13=1,5/36=2,99/5=2) pseudo=read geom=check guess=(
 read,tcheck) scf=(maxcycle=1)\\title\\0,1\Si,0,1.083794,-0.000001,0.01
 3876\O,0,-0.4815,-0.000008,0.57031\C,0,1.417001,1.531381,-1.025962\C,0
 ,1.41701,-1.531374,-1.025972\H,0,2.452483,-1.540826,-1.382024\H,0,0.76
 9697,-1.574893,-1.907618\H,0,1.255424,-2.445536,-0.44718\C,0,2.145279,
 -0.000002,1.553835\H,0,3.210131,0.000015,1.300441\H,0,1.944679,-0.8836
 87,2.165952\H,0,1.944654,0.883665,2.16597\C,0,-1.686757,-0.000002,-0.2

 Normal termination of Gaussian 16 at Wed Apr  9 00:08:11 2025.
