 Gaussian 16, Revision C.01,

 ----------------------------------------------------------------------
 #t hf aug-cc-pvdz symm=none int=(grid=ultrafine) guess=(read,tcheck) s
 table=(opt,rrhf)
 ----------------------------------------------------------------------
 -----
 title
 -----
 Symbolic Z-matrix:
 Charge =  0 Multiplicity = 1

 SCF Done:  E(RHF) =  -841.672882994     A.U. after   13 cycles
 Normal termination of Gaussian 16 at Tue Apr  8 23:53:34 2025.
 Gaussian 16:  ES64L-G16RevC.01  3-Jul-2019

 ----------------------------------------------------------------------
 #t hf aug-cc-pvdz iop(5/13=1,5/36=2,99/5=2) pseudo=read geom=check gue
 ss=(read,tcheck) scf=(maxcycle=1)
 ----------------------------------------------------------------------
 -----
 title
 -----
 Structure from the checkpoint file:  "BDE49_nonexpt_1964_mol1.chk"
 Charge =  0 Multiplicity = 1

                         Standard orientation:
 ---------------------------------------------------------------------
 Center     Atomic      Atomic             Coordinates (Angstroms)
 Number     Number       Type             X           Y           Z
 ---------------------------------------------------------------------
      1         14           0       -1.912015   -0.066795   -0.288473
      2          6           0       -0.525293   -0.475301    0.951449
      3          1           0       -2.289541    1.355785   -0.231847
      4          1           0       -3.075041   -0.888098    0.131581
      5          1           0       -1.537419   -0.468763   -1.660077
      6         16           0        1.075422    0.273572    0.444750
      7          8           0        0.714941    1.431476   -0.440877
      8          6           0        1.632918   -1.079778   -0.653565
      9          1           0        1.843475   -1.968339   -0.054916
     10          1           0        2.548556   -0.725041   -1.127041
     11          1           0        0.876042   -1.280177   -1.412547
     12          1           0       -0.399759   -1.551654    1.094177
     13          1           0       -0.770137   -0.037077    1.923002
 ---------------------------------------------------------------------

 SCF Done:  E(RHF) =  -841.786967905     A.U. after    2 cycles

 The electronic state is 1-A.
 Alpha  occ. eigenvalues --  -93.66195 -69.07158 -20.52020 -11.27764 -11.26729
 Alpha  occ. eigenvalues --   -8.94544  -6.82373  -6.28812  -6.28630  -6.28330
 Alpha  occ. eigenvalues --   -3.93173  -3.93145  -3.93127  -1.30349  -1.04745
 Alpha  occ. eigenvalues --   -0.96830  -0.81704  -0.69846  -0.64198  -0.63067
 Alpha  occ. eigenvalues --   -0.62253  -0.58007  -0.55979  -0.54437  -0.48306
 Alpha  occ. eigenvalues --   -0.48087  -0.47357  -0.43342  -0.37587
 Alpha virt. eigenvalues --    0.02863   0.04241   0.04547   0.05064   0.06399
 Alpha virt. eigenvalues --    0.07118   0.07426   0.08186   0.09018   0.10230
 Alpha virt. eigenvalues --    0.10469   0.10901   0.12468   0.13621   0.14808

 Mulliken charges:
               1
     1  Si   0.249368
     2  C   -0.082151
     3  H    0.132910
     4  H    0.006037
     5  H   -0.022496
     6  S    1.120959
     7  O   -1.050875
     8  C    0.086965
     9  H   -0.000910
    10  H   -0.045078
    11  H   -0.076096
    12  H   -0.210947
    13  H   -0.107685
 Sum of Mulliken charges =  -0.00000

 Dipole moment (field-independent basis, Debye):
    X=              0.2688    Y=             -4.2172    Z=              1.4446  Tot=              4.4658

 Test job not archived.
 1\1\GINC-SE402\SP\RHF\Aug-CC-pVDZ\C2H8O1S1Si1\OHZDE\08-Apr-2025\0\\#t
 hf aug-cc-pvdz iop(5/13=1,5/36=2,99/5=2) pseudo=read geom=check guess=
 (read,tcheck) scf=(maxcycle=1)\\title\\0,1\Si,0,-1.912015,-0.066795,-0
 .288473\C,0,-0.525293,-0.475301,0.951449\H,0,-2.289541,1.355785,-0.231
 847\H,0,-3.075041,-0.888098,0.131581\H,0,-1.537419,-0.468763,-1.660077
 \S,0,1.075422,0.273572,0.44475\O,0,0.714941,1.431476,-0.440877\C,0,1.6
 32918,-1.079778,-0.653565\H,0,1.843475,-1.968339,-0.054916\H,0,2.54855
 6,-0.725041,-1.127041\H,0,0.876042,-1.280177,-1.412547\H,0,-0.399759,-

 Normal termination of Gaussian 16 at Tue Apr  8 23:53:38 2025.
