 Gaussian 16, Revision C.01,

 ----------------------------------------------------------------------
 #t hf aug-cc-pvdz symm=none int=(grid=ultrafine) guess=(read,tcheck) s
 table=(opt,rrhf)
 ----------------------------------------------------------------------
 -----
 title
 -----
 Symbolic Z-matrix:
 Charge =  0 Multiplicity = 1

 SCF Done:  E(RHF) =  -781.650584967     A.U. after   15 cycles
 Normal termination of Gaussian 16 at Wed Apr  9 00:02:29 2025.
 Gaussian 16:  ES64L-G16RevC.01  3-Jul-2019

 ----------------------------------------------------------------------
 #t hf aug-cc-pvdz iop(5/13=1,5/36=2,99/5=2) pseudo=read geom=check gue
 ss=(read,tcheck) scf=(maxcycle=1)
 ----------------------------------------------------------------------
 -----
 title
 -----
 Structure from the checkpoint file:  "BDE49_nonexpt_2180_mol1.chk"
 Charge =  0 Multiplicity = 1

                         Standard orientation:
 ---------------------------------------------------------------------
 Center     Atomic      Atomic             Coordinates (Angstroms)
 Number     Number       Type             X           Y           Z
 ---------------------------------------------------------------------
      1          8           0       -0.099857    0.078264   -1.071621
      2          8           0        1.132240    0.701727   -0.634082
      3          6           0        2.015334   -0.189333   -0.097766
      4          8           0        1.756700   -1.323532    0.202812
      5          6           0        3.353188    0.488710    0.054302
      6          1           0        3.277486    1.570448   -0.043134
      7          1           0        4.016274    0.108439   -0.726981
      8          1           0        3.775717    0.217760    1.021741
      9         14           0       -1.328854    0.053416    0.105571
     10          8           0       -1.781320    1.545127    0.591648
     11          6           0       -2.709112   -0.731128   -0.837458
     12          1           0       -2.386861   -1.662664   -1.307434
     13          1           0       -3.075104   -0.057915   -1.615796
     14          1           0       -3.536389   -0.954161   -0.158517
     15          1           0       -1.366987    1.905915    1.378803
     16          8           0       -0.762992   -0.745750    1.414496
     17          1           0       -0.014809   -1.331834    1.232828
 ---------------------------------------------------------------------

 SCF Done:  E(RHF) =  -781.858253815     A.U. after    2 cycles

 The electronic state is 1-A.
 Alpha  occ. eigenvalues --  -69.13937 -20.68908 -20.64077 -20.58682 -20.57647
 Alpha  occ. eigenvalues --  -20.56829 -11.42307 -11.27194 -11.22099  -6.88121
 Alpha  occ. eigenvalues --   -3.99138  -3.99111  -3.98937  -1.47417  -1.37665
 Alpha  occ. eigenvalues --   -1.32075  -1.29568  -1.22895  -1.02542  -0.94939
 Alpha  occ. eigenvalues --   -0.83116  -0.77138  -0.74500  -0.72414  -0.72079
 Alpha  occ. eigenvalues --   -0.71329  -0.63619  -0.62565  -0.60039  -0.59092
 Alpha  occ. eigenvalues --   -0.58593  -0.56749  -0.56257  -0.55979  -0.55153
 Alpha  occ. eigenvalues --   -0.54006  -0.52679  -0.50843  -0.49001  -0.47480
 Alpha virt. eigenvalues --    0.02935   0.04167   0.04918   0.05350   0.05952
 Alpha virt. eigenvalues --    0.06352   0.06455   0.07810   0.08624   0.09260
 Alpha virt. eigenvalues --    0.10998   0.11476   0.12288   0.13549   0.13868

 Mulliken charges:
               1
     1  O   -0.714534
     2  O   -0.403254
     3  C    0.317445
     4  O   -0.453335
     5  C    0.362958
     6  H   -0.049445
     7  H    0.085662
     8  H    0.044577
     9  Si   2.492027
    10  O   -0.803646
    11  C    0.354968
    12  H   -0.229468
    13  H   -0.179698
    14  H   -0.240401
    15  H    0.105732
    16  O   -0.867430
    17  H    0.177842
 Sum of Mulliken charges =  -0.00000

 Dipole moment (field-independent basis, Debye):
    X=              2.2015    Y=              1.2281    Z=              0.5359  Tot=              2.5772

 Test job not archived.
 1\1\GINC-SE404\SP\RHF\Aug-CC-pVDZ\C3H8O5Si1\OHZDE\09-Apr-2025\0\\#t hf
  aug-cc-pvdz iop(5/13=1,5/36=2,99/5=2) pseudo=read geom=check guess=(r
 ead,tcheck) scf=(maxcycle=1)\\title\\0,1\O,0,-0.099857,0.078264,-1.071
 621\O,0,1.13224,0.701727,-0.634082\C,0,2.015334,-0.189333,-0.097766\O,
 0,1.7567,-1.323532,0.202812\C,0,3.353188,0.48871,0.054302\H,0,3.277486
 ,1.570448,-0.043134\H,0,4.016274,0.108439,-0.726981\H,0,3.775717,0.217
 76,1.021741\Si,0,-1.328854,0.053416,0.105571\O,0,-1.78132,1.545127,0.5
 91648\C,0,-2.709112,-0.731128,-0.837458\H,0,-2.386861,-1.662664,-1.307

 Normal termination of Gaussian 16 at Wed Apr  9 00:02:37 2025.
