 Gaussian 16, Revision C.01,

 ----------------------------------------------------------------------
 #t hf aug-cc-pvdz symm=none int=(grid=ultrafine) guess=(read,tcheck) s
 table=(opt,rrhf)
 ----------------------------------------------------------------------
 -----
 title
 -----
 Symbolic Z-matrix:
 Charge =  0 Multiplicity = 1

 SCF Done:  E(RHF) =  -306.634828347     A.U. after   15 cycles
 Normal termination of Gaussian 16 at Tue Apr  8 23:20:53 2025.
 Gaussian 16:  ES64L-G16RevC.01  3-Jul-2019

 ----------------------------------------------------------------------
 #t hf aug-cc-pvdz iop(5/13=1,5/36=2,99/5=2) pseudo=read geom=check gue
 ss=(read,tcheck) scf=(maxcycle=1)
 ----------------------------------------------------------------------
 -----
 title
 -----
 Structure from the checkpoint file:  "BDE49_nonexpt_1184_mol1.chk"
 Charge =  0 Multiplicity = 1

                         Standard orientation:
 ---------------------------------------------------------------------
 Center     Atomic      Atomic             Coordinates (Angstroms)
 Number     Number       Type             X           Y           Z
 ---------------------------------------------------------------------
      1          8           0       -1.229643    0.742825   -0.000121
      2          9           0       -1.902849   -0.715104    0.000254
      3          7           0        0.028005    0.701793   -0.000127
      4          6           0        0.795445   -0.311481   -0.000082
      5          6           0        2.279648   -0.149823    0.000015
      6          1           0        2.557236    0.904158    0.000053
      7          1           0        2.715291   -0.631334   -0.880609
      8          1           0        2.715191   -0.631373    0.880668
      9          1           0        0.328467   -1.292843   -0.000138
 ---------------------------------------------------------------------

 SCF Done:  E(RHF) =  -306.733206323     A.U. after    2 cycles

 The electronic state is 1-A.
 Alpha  occ. eigenvalues --  -26.11114 -20.77277 -15.74946 -11.33318 -11.27193
 Alpha  occ. eigenvalues --   -1.60189  -1.47059  -1.17464  -1.00080  -0.85197
 Alpha  occ. eigenvalues --   -0.76989  -0.74986  -0.71617  -0.66075  -0.65566
 Alpha  occ. eigenvalues --   -0.60720  -0.60303  -0.57746  -0.48288  -0.43349
 Alpha virt. eigenvalues --    0.02366   0.03686   0.04843   0.04988   0.06634
 Alpha virt. eigenvalues --    0.09807   0.10149   0.11846   0.13877   0.14282
 Alpha virt. eigenvalues --    0.15399   0.16020   0.16483   0.17252   0.19582

 Mulliken charges:
               1
     1  O   -0.092861
     2  F   -0.468961
     3  N   -0.053236
     4  C    0.689170
     5  C    0.063877
     6  H   -0.034884
     7  H    0.044875
     8  H    0.044859
     9  H   -0.192840
 Sum of Mulliken charges =  -0.00000

 Dipole moment (field-independent basis, Debye):
    X=              4.6039    Y=             -0.1436    Z=             -0.0005  Tot=              4.6061

 Test job not archived.
 1\1\GINC-SE016\SP\RHF\Aug-CC-pVDZ\C2H4F1N1O1\OHZDE\08-Apr-2025\0\\#t h
 f aug-cc-pvdz iop(5/13=1,5/36=2,99/5=2) pseudo=read geom=check guess=(
 read,tcheck) scf=(maxcycle=1)\\title\\0,1\O,0,-1.229643,0.742825,-0.00
 0121\F,0,-1.902849,-0.715104,0.000254\N,0,0.028005,0.701793,-0.000127\
 C,0,0.795445,-0.311481,-0.000082\C,0,2.279648,-0.149823,0.000015\H,0,2
 .557236,0.904158,0.000053\H,0,2.715291,-0.631334,-0.880609\H,0,2.71519
 1,-0.631373,0.880668\H,0,0.328467,-1.292843,-0.000138\\Version=ES64L-G
 16RevC.01\State=1-A\HF=-306.7332063\RMSD=3.946e-03\Dipole=1.8113036,-0

 Normal termination of Gaussian 16 at Tue Apr  8 23:20:56 2025.
