 Gaussian 16, Revision C.01,

 ----------------------------------------------------------------------
 #t hf aug-cc-pvdz symm=none int=(grid=ultrafine) guess=(read,tcheck) s
 table=(opt,rrhf)
 ----------------------------------------------------------------------
 -----
 title
 -----
 Symbolic Z-matrix:
 Charge =  0 Multiplicity = 1

 SCF Done:  E(RHF) =  -2066.39956678     A.U. after   13 cycles

 1\1\GINC-SE343\Stability\RHF\Aug-CC-pVDZ\C6H2Cl4\OHZDE\08-Apr-2025\0\\
 #t hf aug-cc-pvdz symm=none int=(grid=ultrafine) guess=(read,tcheck) s
 table=(opt,rrhf)\\title\\0,1\C,0,0.,0.,1.388092\C,0,0.,1.208415,0.6994
 44\C,0,0.,1.208415,-0.699444\C,0,0.,0.,-1.388092\C,0,0.,-1.208415,-0.6
 99444\C,0,0.,-1.208415,0.699444\H,0,0.,0.,2.469017\Cl,0,0.,2.689855,1.
 610899\Cl,0,0.,-2.689855,1.610899\H,0,0.,0.,-2.469017\Cl,0,0.,2.689855
 ,-1.610899\Cl,0,0.,-2.689855,-1.610899\\Version=ES64L-G16RevC.01\HF=-2
 066.3995668\RMSD=4.313e-09\Dipole=0.,0.,0.\Quadrupole=-0.7649051,-3.14

 Normal termination of Gaussian 16 at Tue Apr  8 22:47:58 2025.
 Gaussian 16:  ES64L-G16RevC.01  3-Jul-2019

 ----------------------------------------------------------------------
 #t hf aug-cc-pvdz iop(5/13=1,5/36=2,99/5=2) pseudo=read geom=check gue
 ss=(read,tcheck) scf=(maxcycle=1)
 ----------------------------------------------------------------------
 -----
 title
 -----
 Structure from the checkpoint file:  "BDE49_expt_1683_mol1.chk"
 Charge =  0 Multiplicity = 1

                         Standard orientation:
 ---------------------------------------------------------------------
 Center     Atomic      Atomic             Coordinates (Angstroms)
 Number     Number       Type             X           Y           Z
 ---------------------------------------------------------------------
      1          6           0        0.000000    0.000000    1.388092
      2          6           0        0.000000    1.208415    0.699444
      3          6           0        0.000000    1.208415   -0.699444
      4          6           0        0.000000    0.000000   -1.388092
      5          6           0       -0.000000   -1.208415   -0.699444
      6          6           0       -0.000000   -1.208415    0.699444
      7          1           0        0.000000    0.000000    2.469017
      8         17           0        0.000000    2.689855    1.610899
      9         17           0       -0.000000   -2.689855    1.610899
     10          1           0        0.000000    0.000000   -2.469017
     11         17           0        0.000000    2.689855   -1.610899
     12         17           0       -0.000000   -2.689855   -1.610899
 ---------------------------------------------------------------------

 SCF Done:  E(RHF) =  -2066.53998994     A.U. after    2 cycles

 The electronic state is 1-AG.
 Alpha  occ. eigenvalues -- -103.69163-103.69162-103.69162-103.69161 -11.35164
 Alpha  occ. eigenvalues --  -11.35159 -11.35053 -11.35048 -11.29924 -11.29914
 Alpha  occ. eigenvalues --  -10.72439 -10.72438 -10.72437 -10.72434  -8.38183
 Alpha  occ. eigenvalues --   -8.38180  -8.38174  -8.38174  -8.37855  -8.37854
 Alpha  occ. eigenvalues --   -8.37849  -8.37847  -8.37839  -8.37838  -8.37837
 Alpha  occ. eigenvalues --   -8.37836  -1.26125  -1.22898  -1.19793  -1.18869
 Alpha  occ. eigenvalues --   -1.13309  -1.04329  -1.00611  -0.88835  -0.83710
 Alpha  occ. eigenvalues --   -0.73069  -0.71561  -0.67373  -0.63123  -0.62178
 Alpha  occ. eigenvalues --   -0.61770  -0.57713  -0.56875  -0.55922  -0.52651
 Alpha  occ. eigenvalues --   -0.51343  -0.50851  -0.49816  -0.48498  -0.47905
 Alpha  occ. eigenvalues --   -0.46950  -0.37831  -0.35974
 Alpha virt. eigenvalues --    0.03962   0.04277   0.05971   0.06613   0.07147
 Alpha virt. eigenvalues --    0.07272   0.08568   0.09923   0.10341   0.11645
 Alpha virt. eigenvalues --    0.11730   0.12251   0.12524   0.13035   0.14158

 Mulliken charges:
               1
     1  C    1.019863
     2  C    0.002842
     3  C    0.002842
     4  C    1.019863
     5  C    0.002842
     6  C    0.002842
     7  H   -0.347416
     8  Cl  -0.339065
     9  Cl  -0.339065
    10  H   -0.347416
    11  Cl  -0.339065
    12  Cl  -0.339065
 Sum of Mulliken charges =  -0.00000

 Dipole moment (field-independent basis, Debye):
    X=              0.0000    Y=             -0.0000    Z=              0.0000  Tot=              0.0000

 Test job not archived.
 1\1\GINC-SE343\SP\RHF\Aug-CC-pVDZ\C6H2Cl4\OHZDE\08-Apr-2025\0\\#t hf a
 ug-cc-pvdz iop(5/13=1,5/36=2,99/5=2) pseudo=read geom=check guess=(rea
 d,tcheck) scf=(maxcycle=1)\\title\\0,1\C,0,0.,0.,1.388092\C,0,0.,1.208
 415,0.699444\C,0,0.,1.208415,-0.699444\C,0,0.,0.,-1.388092\C,0,0.,-1.2
 08415,-0.699444\C,0,0.,-1.208415,0.699444\H,0,0.,0.,2.469017\Cl,0,0.,2
 .689855,1.610899\Cl,0,0.,-2.689855,1.610899\H,0,0.,0.,-2.469017\Cl,0,0
 .,2.689855,-1.610899\Cl,0,0.,-2.689855,-1.610899\\Version=ES64L-G16Rev
 C.01\State=1-AG\HF=-2066.5399899\RMSD=2.011e-02\Dipole=0.,0.,0.\Quadru

 Normal termination of Gaussian 16 at Tue Apr  8 22:48:03 2025.
