 Gaussian 16, Revision C.01,

 ----------------------------------------------------------------------
 #t hf aug-cc-pvdz symm=none int=(grid=ultrafine) guess=(read,tcheck) s
 table=(opt,rrhf)
 ----------------------------------------------------------------------
 -----
 title
 -----
 Symbolic Z-matrix:
 Charge =  0 Multiplicity = 1

 SCF Done:  E(RHF) =  -827.124439234     A.U. after   11 cycles
 Normal termination of Gaussian 16 at Tue Apr  8 23:44:13 2025.
 Gaussian 16:  ES64L-G16RevC.01  3-Jul-2019

 ----------------------------------------------------------------------
 #t hf aug-cc-pvdz iop(5/13=1,5/36=2,99/5=2) pseudo=read geom=check gue
 ss=(read,tcheck) scf=(maxcycle=1)
 ----------------------------------------------------------------------
 -----
 title
 -----
 Structure from the checkpoint file:  "BDE49_nonexpt_1750_mol1.chk"
 Charge =  0 Multiplicity = 1

                         Standard orientation:
 ---------------------------------------------------------------------
 Center     Atomic      Atomic             Coordinates (Angstroms)
 Number     Number       Type             X           Y           Z
 ---------------------------------------------------------------------
      1         14           0        0.049521    0.740403    0.051365
      2          6           0       -1.425661   -0.298935    0.477094
      3          6           0       -2.491880   -0.390598   -0.322413
      4          1           0       -1.429818   -0.844192    1.419536
      5          1           0       -2.540955    0.125534   -1.277287
      6          1           0       -3.362313   -0.985576   -0.059695
      7         17           0        1.762330   -0.450268   -0.092348
      8          1           0        0.343211    1.739635    1.097549
      9          1           0       -0.157779    1.390705   -1.257387
 ---------------------------------------------------------------------

 SCF Done:  E(RHF) =  -827.192422380     A.U. after    2 cycles

 The electronic state is 1-A.
 Alpha  occ. eigenvalues -- -103.64563 -69.11353 -11.27039 -11.24735 -10.68009
 Alpha  occ. eigenvalues --   -8.33699  -8.33476  -8.33472  -6.86208  -3.97062
 Alpha  occ. eigenvalues --   -3.96943  -3.96911  -1.12906  -1.04617  -0.80929
 Alpha  occ. eigenvalues --   -0.70761  -0.64269  -0.58753  -0.53086  -0.52376
 Alpha  occ. eigenvalues --   -0.49800  -0.45411  -0.44893  -0.39937
 Alpha virt. eigenvalues --    0.03337   0.04544   0.04824   0.05834   0.06433
 Alpha virt. eigenvalues --    0.07378   0.08142   0.09159   0.10137   0.11869
 Alpha virt. eigenvalues --    0.13312   0.14293   0.15020   0.15325   0.16420

 Mulliken charges:
               1
     1  Si   0.949266
     2  C    0.054666
     3  C    0.589061
     4  H   -0.379006
     5  H   -0.303151
     6  H   -0.241886
     7  Cl  -0.550129
     8  H   -0.049706
     9  H   -0.069116
 Sum of Mulliken charges =  -0.00000

 Dipole moment (field-independent basis, Debye):
    X=             -2.4054    Y=              0.5332    Z=              0.1170  Tot=              2.4665

 Test job not archived.
 1\1\GINC-SE106\SP\RHF\Aug-CC-pVDZ\C2H5Cl1Si1\OHZDE\08-Apr-2025\0\\#t h
 f aug-cc-pvdz iop(5/13=1,5/36=2,99/5=2) pseudo=read geom=check guess=(
 read,tcheck) scf=(maxcycle=1)\\title\\0,1\Si,0,0.049521,0.740403,0.051
 365\C,0,-1.425661,-0.298935,0.477094\C,0,-2.49188,-0.390598,-0.322413\
 H,0,-1.429818,-0.844192,1.419536\H,0,-2.540955,0.125534,-1.277287\H,0,
 -3.362313,-0.985576,-0.059695\Cl,0,1.76233,-0.450268,-0.092348\H,0,0.3
 43211,1.739635,1.097549\H,0,-0.157779,1.390705,-1.257387\\Version=ES64
 L-G16RevC.01\State=1-A\HF=-827.1924224\RMSD=6.564e-03\Dipole=-0.946342

 Normal termination of Gaussian 16 at Tue Apr  8 23:44:17 2025.
