 Gaussian 16, Revision C.01,

 ----------------------------------------------------------------------
 #t hf aug-cc-pvdz symm=none int=(grid=ultrafine) guess=(read,tcheck) s
 table=(opt,rrhf)
 ----------------------------------------------------------------------
 -----
 title
 -----
 Symbolic Z-matrix:
 Charge =  0 Multiplicity = 1

 SCF Done:  E(RHF) =  -405.184691719     A.U. after   11 cycles
 Normal termination of Gaussian 16 at Tue Apr  8 23:58:22 2025.
 Gaussian 16:  ES64L-G16RevC.01  3-Jul-2019

 ----------------------------------------------------------------------
 #t hf aug-cc-pvdz iop(5/13=1,5/36=2,99/5=2) pseudo=read geom=check gue
 ss=(read,tcheck) scf=(maxcycle=1)
 ----------------------------------------------------------------------
 -----
 title
 -----
 Structure from the checkpoint file:  "BDE49_nonexpt_2084_mol1.chk"
 Charge =  0 Multiplicity = 1

                         Standard orientation:
 ---------------------------------------------------------------------
 Center     Atomic      Atomic             Coordinates (Angstroms)
 Number     Number       Type             X           Y           Z
 ---------------------------------------------------------------------
      1         14           0       -1.066109    0.088766   -0.000000
      2          8           0        0.451077   -0.552576   -0.000000
      3          6           0        1.656901    0.200033    0.000001
      4          1           0        2.491232   -0.502976    0.000001
      5          1           0        1.733494    0.834065    0.891528
      6          1           0        1.733494    0.834065   -0.891527
      7          1           0       -1.996274   -1.056009   -0.000002
      8          1           0       -1.293226    0.934274   -1.199934
      9          1           0       -1.293227    0.934271    1.199935
 ---------------------------------------------------------------------

 SCF Done:  E(RHF) =  -405.257245377     A.U. after    2 cycles

 The electronic state is 1-A.
 Alpha  occ. eigenvalues --  -69.09123 -20.56477 -11.29565  -6.83949  -3.94868
 Alpha  occ. eigenvalues --   -3.94730  -3.94701  -1.30876  -0.93473  -0.72807
 Alpha  occ. eigenvalues --   -0.64361  -0.63488  -0.61589  -0.50594  -0.50456
 Alpha  occ. eigenvalues --   -0.46692  -0.44794
 Alpha virt. eigenvalues --    0.03429   0.04784   0.05495   0.05857   0.06748
 Alpha virt. eigenvalues --    0.07448   0.08272   0.09501   0.09525   0.13304
 Alpha virt. eigenvalues --    0.15369   0.15950   0.16026   0.17111   0.19072

 Mulliken charges:
               1
     1  Si   0.754379
     2  O   -0.929150
     3  C    0.821685
     4  H   -0.220012
     5  H   -0.136352
     6  H   -0.136350
     7  H   -0.031933
     8  H   -0.061133
     9  H   -0.061133
 Sum of Mulliken charges =  -0.00000

 Dipole moment (field-independent basis, Debye):
    X=              0.7179    Y=              1.0963    Z=              0.0000  Tot=              1.3105

 Test job not archived.
 1\1\GINC-SE106\SP\RHF\Aug-CC-pVDZ\C1H6O1Si1\OHZDE\08-Apr-2025\0\\#t hf
  aug-cc-pvdz iop(5/13=1,5/36=2,99/5=2) pseudo=read geom=check guess=(r
 ead,tcheck) scf=(maxcycle=1)\\title\\0,1\Si,0,-1.066109,0.088766,0.\O,
 0,0.451077,-0.552576,0.\C,0,1.656901,0.200033,0.000001\H,0,2.491232,-0
 .502976,0.000001\H,0,1.733494,0.834065,0.891528\H,0,1.733494,0.834065,
 -0.891527\H,0,-1.996275,-1.056009,-0.000002\H,0,-1.293226,0.934274,-1.
 199934\H,0,-1.293227,0.934271,1.199935\\Version=ES64L-G16RevC.01\State
 =1-A\HF=-405.2572454\RMSD=4.496e-03\Dipole=0.282454,0.4313263,0.000001

 Normal termination of Gaussian 16 at Tue Apr  8 23:58:24 2025.
