 Gaussian 16, Revision C.01,

 ----------------------------------------------------------------------
 #t hf aug-cc-pvdz symm=none int=(grid=ultrafine) guess=(read,tcheck) s
 table=(opt,rrhf)
 ----------------------------------------------------------------------
 -----
 title
 -----
 Symbolic Z-matrix:
 Charge =  0 Multiplicity = 1

 SCF Done:  E(RHF) =  -310.253212209     A.U. after   12 cycles

 1\1\GINC-SE195\Stability\RHF\Aug-CC-pVDZ\C6H14O1\OHZDE\08-Apr-2025\0\\
 #t hf aug-cc-pvdz symm=none int=(grid=ultrafine) guess=(read,tcheck) s
 table=(opt,rrhf)\\title\\0,1\C,0,-0.875452,0.02751,-0.000006\O,0,0.489
 373,0.495355,-0.001141\C,0,1.540786,-0.459455,0.000156\C,0,2.851797,0.
 310019,-0.0002\C,0,-1.179427,-0.792222,-1.263927\H,0,-2.247689,-1.0172
 25,-1.323266\H,0,-0.642944,-1.744138,-1.273226\H,0,-0.896923,-0.227328
 ,-2.155948\C,0,-1.17931,-0.785949,1.267998\H,0,-0.642574,-1.737663,1.2
 82115\H,0,-2.247513,-1.010955,1.32842\H,0,-0.896984,-0.2165,2.157169\H

 Normal termination of Gaussian 16 at Tue Apr  8 22:41:26 2025.
 Gaussian 16:  ES64L-G16RevC.01  3-Jul-2019

 ----------------------------------------------------------------------
 #t hf aug-cc-pvdz iop(5/13=1,5/36=2,99/5=2) pseudo=read geom=check gue
 ss=(read,tcheck) scf=(maxcycle=1)
 ----------------------------------------------------------------------
 -----
 title
 -----
 Structure from the checkpoint file:  "BDE49_expt_1380_mol1.chk"
 Charge =  0 Multiplicity = 1

                         Standard orientation:
 ---------------------------------------------------------------------
 Center     Atomic      Atomic             Coordinates (Angstroms)
 Number     Number       Type             X           Y           Z
 ---------------------------------------------------------------------
      1          6           0       -0.875452    0.027510   -0.000006
      2          8           0        0.489373    0.495355   -0.001141
      3          6           0        1.540786   -0.459455    0.000156
      4          6           0        2.851797    0.310019   -0.000200
      5          6           0       -1.179427   -0.792222   -1.263927
      6          1           0       -2.247689   -1.017225   -1.323266
      7          1           0       -0.642944   -1.744138   -1.273226
      8          1           0       -0.896923   -0.227328   -2.155948
      9          6           0       -1.179310   -0.785949    1.267998
     10          1           0       -0.642574   -1.737663    1.282115
     11          1           0       -2.247513   -1.010955    1.328420
     12          1           0       -0.896984   -0.216500    2.157169
     13          1           0        1.486879   -1.107504   -0.885211
     14          1           0        1.486337   -1.105772    0.886754
     15          1           0        2.919315    0.946608   -0.885367
     16          1           0        3.701522   -0.378410    0.000587
     17          1           0        2.918916    0.948158    0.883879
     18          6           0       -1.690553    1.323524   -0.003170
     19          1           0       -2.762914    1.112347   -0.002408
     20          1           0       -1.448905    1.915229   -0.888932
     21          1           0       -1.448548    1.919750    0.879457
 ---------------------------------------------------------------------

 SCF Done:  E(RHF) =  -310.353791120     A.U. after    2 cycles

 The electronic state is 1-A.
 Alpha  occ. eigenvalues --  -20.55637 -11.29319 -11.27824 -11.22255 -11.22248
 Alpha  occ. eigenvalues --  -11.21993 -11.21680  -1.31830  -1.06902  -0.99088
 Alpha  occ. eigenvalues --   -0.93441  -0.93116  -0.83667  -0.75648  -0.66128
 Alpha  occ. eigenvalues --   -0.65947  -0.62278  -0.60488  -0.57245  -0.56136
 Alpha  occ. eigenvalues --   -0.55014  -0.52554  -0.51904  -0.51803  -0.51286
 Alpha  occ. eigenvalues --   -0.48285  -0.48032  -0.44891  -0.41993
 Alpha virt. eigenvalues --    0.03449   0.04375   0.04720   0.04760   0.06112
 Alpha virt. eigenvalues --    0.06199   0.06362   0.06867   0.06985   0.08601
 Alpha virt. eigenvalues --    0.09046   0.09571   0.09591   0.10253   0.12409

 Mulliken charges:
               1
     1  C   -2.716559
     2  O   -0.575947
     3  C    0.622447
     4  C    0.323635
     5  C    1.068431
     6  H   -0.025602
     7  H   -0.073080
     8  H    0.012712
     9  C    1.067849
    10  H   -0.073316
    11  H   -0.025255
    12  H    0.012447
    13  H   -0.196812
    14  H   -0.195961
    15  H   -0.062263
    16  H   -0.050620
    17  H   -0.062274
    18  C    0.968396
    19  H    0.016209
    20  H   -0.017213
    21  H   -0.017223
 Sum of Mulliken charges =  -0.00000

 Dipole moment (field-independent basis, Debye):
    X=             -0.3837    Y=             -1.3481    Z=              0.0023  Tot=              1.4017

 Test job not archived.
 1\1\GINC-SE195\SP\RHF\Aug-CC-pVDZ\C6H14O1\OHZDE\08-Apr-2025\0\\#t hf a
 ug-cc-pvdz iop(5/13=1,5/36=2,99/5=2) pseudo=read geom=check guess=(rea
 d,tcheck) scf=(maxcycle=1)\\title\\0,1\C,0,-0.875452,0.02751,-0.000006
 \O,0,0.489373,0.495355,-0.001141\C,0,1.540786,-0.459455,0.000156\C,0,2
 .851797,0.310019,-0.0002\C,0,-1.179427,-0.792222,-1.263927\H,0,-2.2476
 89,-1.017225,-1.323266\H,0,-0.642944,-1.744138,-1.273226\H,0,-0.896923
 ,-0.227328,-2.155948\C,0,-1.17931,-0.785949,1.267998\H,0,-0.642574,-1.
 737663,1.282115\H,0,-2.247513,-1.010955,1.32842\H,0,-0.896984,-0.2165,

 Normal termination of Gaussian 16 at Tue Apr  8 22:41:35 2025.
