 Gaussian 16, Revision C.01,

 ----------------------------------------------------------------------
 #t hf aug-cc-pvdz symm=none int=(grid=ultrafine) guess=(read,tcheck) s
 table=(opt,rrhf)
 ----------------------------------------------------------------------
 -----
 title
 -----
 Symbolic Z-matrix:
 Charge =  0 Multiplicity = 1

 SCF Done:  E(RHF) =  -275.776077028     A.U. after   12 cycles
 Normal termination of Gaussian 16 at Tue Apr  8 22:40:24 2025.
 Gaussian 16:  ES64L-G16RevC.01  3-Jul-2019

 ----------------------------------------------------------------------
 #t hf aug-cc-pvdz iop(5/13=1,5/36=2,99/5=2) pseudo=read geom=check gue
 ss=(read,tcheck) scf=(maxcycle=1)
 ----------------------------------------------------------------------
 -----
 title
 -----
 Structure from the checkpoint file:  "BDE49_expt_137_mol1.chk"
 Charge =  0 Multiplicity = 1

                         Standard orientation:
 ---------------------------------------------------------------------
 Center     Atomic      Atomic             Coordinates (Angstroms)
 Number     Number       Type             X           Y           Z
 ---------------------------------------------------------------------
      1          6           0       -0.000006   -1.383809   -0.000000
      2          6           0        0.000034   -0.066044   -0.000000
      3          9           0       -0.000006    0.696615    1.082567
      4          1           0       -0.000036   -1.919971   -0.936036
      5          1           0       -0.000036   -1.919971    0.936036
      6          9           0       -0.000006    0.696615   -1.082567
 ---------------------------------------------------------------------

 SCF Done:  E(RHF) =  -275.876907394     A.U. after    2 cycles

 The electronic state is 1-A'.
 Alpha  occ. eigenvalues --  -26.17350 -26.17337 -11.44582 -11.25859  -1.74402
 Alpha  occ. eigenvalues --   -1.69618  -1.08492  -0.93378  -0.85942  -0.81746
 Alpha  occ. eigenvalues --   -0.79569  -0.75485  -0.73295  -0.66324  -0.60784
 Alpha  occ. eigenvalues --   -0.40615
 Alpha virt. eigenvalues --    0.03718   0.05148   0.07343   0.09972   0.11549
 Alpha virt. eigenvalues --    0.11751   0.12269   0.15652   0.17671   0.19471
 Alpha virt. eigenvalues --    0.21151   0.24612   0.26420   0.27987   0.28812

 Mulliken charges:
               1
     1  C    0.385369
     2  C    0.639584
     3  F   -0.286539
     4  H   -0.225938
     5  H   -0.225938
     6  F   -0.286539
 Sum of Mulliken charges =  -0.00000

 Dipole moment (field-independent basis, Debye):
    X=             -0.0000    Y=             -1.9144    Z=             -0.0000  Tot=              1.9144

 Test job not archived.
 1\1\GINC-SE118\SP\RHF\Aug-CC-pVDZ\C2H2F2\OHZDE\08-Apr-2025\0\\#t hf au
 g-cc-pvdz iop(5/13=1,5/36=2,99/5=2) pseudo=read geom=check guess=(read
 ,tcheck) scf=(maxcycle=1)\\title\\0,1\C,0,-0.000006,-1.383809,0.\C,0,0
 .000034,-0.066044,0.\F,0,-0.000006,0.696615,1.082567\H,0,-0.000036,-1.
 919971,-0.936036\H,0,-0.000036,-1.919971,0.936036\F,0,-0.000006,0.6966
 15,-1.082567\\Version=ES64L-G16RevC.01\State=1-A'\HF=-275.8769074\RMSD
 =8.015e-03\Dipole=-0.0000013,-0.7532001,0.\Quadrupole=-0.5971299,1.281
 2114,-0.6840815,0.0001706,0.,0.\PG=CS [SG(C2),X(H2F2)]\\@

 Normal termination of Gaussian 16 at Tue Apr  8 22:40:26 2025.
