 Gaussian 16, Revision C.01,

 ----------------------------------------------------------------------
 #t hf aug-cc-pvdz symm=none int=(grid=ultrafine) guess=(read,tcheck) s
 table=(opt,rrhf)
 ----------------------------------------------------------------------
 -----
 title
 -----
 Symbolic Z-matrix:
 Charge =  0 Multiplicity = 1

 SCF Done:  E(RHF) =  -1091.62228072     A.U. after   14 cycles
 Normal termination of Gaussian 16 at Wed Apr  9 00:11:38 2025.
 Gaussian 16:  ES64L-G16RevC.01  3-Jul-2019

 ----------------------------------------------------------------------
 #t hf aug-cc-pvdz iop(5/13=1,5/36=2,99/5=2) pseudo=read geom=check gue
 ss=(read,tcheck) scf=(maxcycle=1)
 ----------------------------------------------------------------------
 -----
 title
 -----
 Structure from the checkpoint file:  "BDE49_nonexpt_2432_mol1.chk"
 Charge =  0 Multiplicity = 1

                         Standard orientation:
 ---------------------------------------------------------------------
 Center     Atomic      Atomic             Coordinates (Angstroms)
 Number     Number       Type             X           Y           Z
 ---------------------------------------------------------------------
      1         14           0        2.465784    0.112822   -0.529155
      2         14           0        0.626351   -0.619238    0.751831
      3          6           0       -0.915448    0.440690    0.258875
      4          1           0        0.841659   -0.373791    2.195754
      5          1           0        0.328246   -2.052903    0.524882
      6          8           0       -0.936844    1.632728    0.419976
      7          1           0        3.656359   -0.698057   -0.179994
      8          1           0        2.740763    1.538625   -0.244409
      9         16           0       -2.310680   -0.474595   -0.479666
     10          1           0        2.169162   -0.057465   -1.970292
     11          1           0       -3.067763    0.620965   -0.681791
 ---------------------------------------------------------------------

 SCF Done:  E(RHF) =  -1091.71764038     A.U. after    2 cycles

 The electronic state is 1-A.
 Alpha  occ. eigenvalues --  -93.56169 -69.08788 -69.07583 -20.59441 -11.37855
 Alpha  occ. eigenvalues --   -8.86040  -6.84215  -6.83000  -6.20178  -6.19947
 Alpha  occ. eigenvalues --   -6.19633  -3.94997  -3.94946  -3.94909  -3.93754
 Alpha  occ. eigenvalues --   -3.93749  -3.93743  -1.38425  -1.00668  -0.81742
 Alpha  occ. eigenvalues --   -0.73623  -0.68996  -0.64632  -0.61526  -0.58428
 Alpha  occ. eigenvalues --   -0.52262  -0.50945  -0.49573  -0.48641  -0.42455
 Alpha  occ. eigenvalues --   -0.39496  -0.39267
 Alpha virt. eigenvalues --    0.03545   0.04025   0.05082   0.06131   0.06654
 Alpha virt. eigenvalues --    0.07008   0.07325   0.07618   0.07761   0.08617
 Alpha virt. eigenvalues --    0.08978   0.09382   0.09979   0.10301   0.12666

 Mulliken charges:
               1
     1  Si  -0.156849
     2  Si   0.338353
     3  C   -0.138079
     4  H    0.052145
     5  H    0.001708
     6  O   -0.488017
     7  H    0.029603
     8  H    0.053040
     9  S    0.154739
    10  H    0.050773
    11  H    0.102585
 Sum of Mulliken charges =  -0.00000

 Dipole moment (field-independent basis, Debye):
    X=              0.7568    Y=             -1.7995    Z=             -0.2764  Tot=              1.9716

 Test job not archived.
 1\1\GINC-SE341\SP\RHF\Aug-CC-pVDZ\C1H6O1S1Si2\OHZDE\09-Apr-2025\0\\#t
 hf aug-cc-pvdz iop(5/13=1,5/36=2,99/5=2) pseudo=read geom=check guess=
 (read,tcheck) scf=(maxcycle=1)\\title\\0,1\Si,0,2.465784,0.112822,-0.5
 29155\Si,0,0.626351,-0.619238,0.751831\C,0,-0.915448,0.44069,0.258875\
 H,0,0.841659,-0.373791,2.195754\H,0,0.328246,-2.052903,0.524882\O,0,-0
 .936844,1.632728,0.419976\H,0,3.656359,-0.698057,-0.179994\H,0,2.74076
 3,1.538625,-0.244409\S,0,-2.31068,-0.474595,-0.479666\H,0,2.169162,-0.
 057465,-1.970292\H,0,-3.067763,0.620965,-0.681791\\Version=ES64L-G16Re

 Normal termination of Gaussian 16 at Wed Apr  9 00:11:41 2025.
