 Gaussian 16, Revision C.01,

 ----------------------------------------------------------------------
 #t hf aug-cc-pvdz symm=none int=(grid=ultrafine) guess=(read,tcheck) s
 table=(opt,rrhf)
 ----------------------------------------------------------------------
 -----
 title
 -----
 Symbolic Z-matrix:
 Charge =  0 Multiplicity = 1

 SCF Done:  E(RHF) =  -231.387064297     A.U. after   12 cycles
 Normal termination of Gaussian 16 at Wed Apr  9 00:36:49 2025.
 Gaussian 16:  ES64L-G16RevC.01  3-Jul-2019

 ----------------------------------------------------------------------
 #t hf aug-cc-pvdz iop(5/13=1,5/36=2,99/5=2) pseudo=read geom=check gue
 ss=(read,tcheck) scf=(maxcycle=1)
 ----------------------------------------------------------------------
 -----
 title
 -----
 Structure from the checkpoint file:  "BDE49_nonexpt_600_mol1.chk"
 Charge =  0 Multiplicity = 1

                         Standard orientation:
 ---------------------------------------------------------------------
 Center     Atomic      Atomic             Coordinates (Angstroms)
 Number     Number       Type             X           Y           Z
 ---------------------------------------------------------------------
      1          7           0        1.388165   -0.168014    0.000003
      2          5           0       -0.018232   -0.008933   -0.000005
      3          8           0       -0.655411    1.217874    0.000002
      4          8           0       -0.804778   -1.136387   -0.000004
      5          1           0       -1.737426   -0.906143   -0.000004
      6          1           0       -0.062004    1.971299    0.000007
      7          1           0        2.050496    0.587404    0.000010
      8          1           0        1.804443   -1.083687    0.000004
 ---------------------------------------------------------------------

 SCF Done:  E(RHF) =  -231.468575512     A.U. after    2 cycles

 The electronic state is 1-A.
 Alpha  occ. eigenvalues --  -20.57529 -20.56429 -15.60546  -7.66107  -1.33445
 Alpha  occ. eigenvalues --   -1.29592  -1.11449  -0.77515  -0.74654  -0.68209
 Alpha  occ. eigenvalues --   -0.63626  -0.58734  -0.57162  -0.56268  -0.51557
 Alpha  occ. eigenvalues --   -0.41356
 Alpha virt. eigenvalues --    0.03064   0.05008   0.05188   0.05867   0.07291
 Alpha virt. eigenvalues --    0.08119   0.09895   0.10580   0.17271   0.17644
 Alpha virt. eigenvalues --    0.19169   0.21209   0.21660   0.22032   0.23212

 Mulliken charges:
               1
     1  N   -0.121942
     2  B    0.765105
     3  O   -0.454512
     4  O   -0.459777
     5  H    0.187924
     6  H    0.163091
     7  H   -0.058463
     8  H   -0.021427
 Sum of Mulliken charges =  -0.00000

 Dipole moment (field-independent basis, Debye):
    X=              1.5592    Y=              1.4781    Z=              0.0000  Tot=              2.1485

 Test job not archived.
 1\1\GINC-SE458\SP\RHF\Aug-CC-pVDZ\B1H4N1O2\OHZDE\09-Apr-2025\0\\#t hf
 aug-cc-pvdz iop(5/13=1,5/36=2,99/5=2) pseudo=read geom=check guess=(re
 ad,tcheck) scf=(maxcycle=1)\\title\\0,1\N,0,1.388165,-0.168014,0.00000
 3\B,0,-0.018232,-0.008933,-0.000005\O,0,-0.65541,1.217874,0.000002\O,0
 ,-0.804778,-1.136387,-0.000004\H,0,-1.737426,-0.906142,-0.000004\H,0,-
 0.062003,1.971299,0.000007\H,0,2.050496,0.587403,0.00001\H,0,1.804443,
 -1.083688,0.000004\\Version=ES64L-G16RevC.01\State=1-A\HF=-231.4685755
 \RMSD=2.463e-03\Dipole=0.6134504,0.5815244,0.0000011\Quadrupole=2.6729

 Normal termination of Gaussian 16 at Wed Apr  9 00:36:51 2025.
