 Gaussian 16, Revision C.01,

 ----------------------------------------------------------------------
 #t hf aug-cc-pvdz symm=none int=(grid=ultrafine) guess=(read,tcheck) s
 table=(opt,rrhf)
 ----------------------------------------------------------------------
 -----
 title
 -----
 Symbolic Z-matrix:
 Charge =  0 Multiplicity = 1

 SCF Done:  E(RHF) =  -1998.53586177     A.U. after   13 cycles
 Normal termination of Gaussian 16 at Tue Apr  8 23:52:19 2025.
 Gaussian 16:  ES64L-G16RevC.01  3-Jul-2019

 ----------------------------------------------------------------------
 #t hf aug-cc-pvdz iop(5/13=1,5/36=2,99/5=2) pseudo=read geom=check gue
 ss=(read,tcheck) scf=(maxcycle=1)
 ----------------------------------------------------------------------
 -----
 title
 -----
 Structure from the checkpoint file:  "BDE49_nonexpt_1929_mol1.chk"
 Charge =  0 Multiplicity = 1

                         Standard orientation:
 ---------------------------------------------------------------------
 Center     Atomic      Atomic             Coordinates (Angstroms)
 Number     Number       Type             X           Y           Z
 ---------------------------------------------------------------------
      1          6           0        0.724863   -0.995179   -0.798180
      2         14           0       -0.548889   -1.210292    0.571242
      3         16           0       -2.589315   -1.034326   -0.166942
      4          1           0       -0.325715   -0.223877    1.645930
      5          1           0       -0.463466   -2.590434    1.100217
      6         16           0       -2.584921    1.009747   -0.687879
      7         16           0        2.445399   -1.098459   -0.124507
      8         16           0        2.785610    0.774461    0.707873
      9          6           0       -3.174467    1.804294    0.847112
     10          1           0       -3.240468    2.870866    0.617694
     11          1           0       -2.469834    1.652824    1.663807
     12          1           0       -4.160938    1.429542    1.116533
     13          6           0        3.389610    1.753431   -0.715718
     14          1           0        3.652735    2.733309   -0.309526
     15          1           0        2.611937    1.875670   -1.468977
     16          1           0        4.274283    1.290128   -1.149727
     17          1           0        0.604253   -0.068333   -1.359202
     18          1           0        0.653271   -1.823654   -1.510144
 ---------------------------------------------------------------------

 SCF Done:  E(RHF) =  -1998.67788811     A.U. after    2 cycles

 The electronic state is 1-A.
 Alpha  occ. eigenvalues --  -93.56427 -93.56422 -93.56051 -93.54810 -69.09547
 Alpha  occ. eigenvalues --  -11.27590 -11.27513 -11.26844  -8.85916  -8.85915
 Alpha  occ. eigenvalues --   -8.85602  -8.84537  -6.84542  -6.20036  -6.20032
 Alpha  occ. eigenvalues --   -6.19777  -6.19772  -6.19705  -6.19474  -6.19457
 Alpha  occ. eigenvalues --   -6.19453  -6.19143  -6.18634  -6.18382  -6.18145
 Alpha  occ. eigenvalues --   -3.95356  -3.95270  -3.95249  -1.06884  -1.05284
 Alpha  occ. eigenvalues --   -1.00172  -0.94804  -0.89893  -0.81091  -0.78098
 Alpha  occ. eigenvalues --   -0.68145  -0.61979  -0.60466  -0.60347  -0.60161
 Alpha  occ. eigenvalues --   -0.59137  -0.53681  -0.53315  -0.51481  -0.49843
 Alpha  occ. eigenvalues --   -0.48652  -0.46356  -0.43950  -0.43905  -0.37462
 Alpha  occ. eigenvalues --   -0.36294  -0.35238  -0.34188
 Alpha virt. eigenvalues --    0.03307   0.04132   0.04350   0.05023   0.05866
 Alpha virt. eigenvalues --    0.06149   0.06368   0.07006   0.07239   0.07650
 Alpha virt. eigenvalues --    0.08770   0.09048   0.09977   0.10604   0.11118

 Mulliken charges:
               1
     1  C    0.003690
     2  Si   0.903377
     3  S   -0.501850
     4  H    0.063376
     5  H    0.023347
     6  S    0.033822
     7  S    0.070702
     8  S    0.095485
     9  C    0.066629
    10  H   -0.054935
    11  H   -0.111719
    12  H   -0.034413
    13  C    0.070761
    14  H   -0.066807
    15  H   -0.089589
    16  H   -0.035898
    17  H   -0.248366
    18  H   -0.187611
 Sum of Mulliken charges =  -0.00000

 Dipole moment (field-independent basis, Debye):
    X=              0.1369    Y=              2.1188    Z=             -0.3966  Tot=              2.1599

 Test job not archived.
 1\1\GINC-SE362\SP\RHF\Aug-CC-pVDZ\C3H10S4Si1\OHZDE\08-Apr-2025\0\\#t h
 f aug-cc-pvdz iop(5/13=1,5/36=2,99/5=2) pseudo=read geom=check guess=(
 read,tcheck) scf=(maxcycle=1)\\title\\0,1\C,0,0.724863,-0.995179,-0.79
 818\Si,0,-0.548889,-1.210292,0.571242\S,0,-2.589315,-1.034326,-0.16694
 2\H,0,-0.325715,-0.223877,1.64593\H,0,-0.463466,-2.590434,1.100217\S,0
 ,-2.584921,1.009747,-0.687879\S,0,2.445399,-1.098459,-0.124507\S,0,2.7
 8561,0.774461,0.707873\C,0,-3.174467,1.804294,0.847112\H,0,-3.240468,2
 .870866,0.617694\H,0,-2.469834,1.652824,1.663807\H,0,-4.160938,1.42954

 Normal termination of Gaussian 16 at Tue Apr  8 23:52:28 2025.
