 Gaussian 16, Revision C.01,

 ----------------------------------------------------------------------
 #t hf aug-cc-pvdz symm=none int=(grid=ultrafine) guess=(read,tcheck) s
 table=(opt,rrhf)
 ----------------------------------------------------------------------
 -----
 title
 -----
 Symbolic Z-matrix:
 Charge =  0 Multiplicity = 1

 SCF Done:  E(RHF) =  -1168.87621802     A.U. after   16 cycles
 Normal termination of Gaussian 16 at Tue Apr  8 23:28:29 2025.
 Gaussian 16:  ES64L-G16RevC.01  3-Jul-2019

 ----------------------------------------------------------------------
 #t hf aug-cc-pvdz iop(5/13=1,5/36=2,99/5=2) pseudo=read geom=check gue
 ss=(read,tcheck) scf=(maxcycle=1)
 ----------------------------------------------------------------------
 -----
 title
 -----
 Structure from the checkpoint file:  "BDE49_nonexpt_1331_mol1.chk"
 Charge =  0 Multiplicity = 1

                         Standard orientation:
 ---------------------------------------------------------------------
 Center     Atomic      Atomic             Coordinates (Angstroms)
 Number     Number       Type             X           Y           Z
 ---------------------------------------------------------------------
      1          7           0        3.035829    0.288900    0.166115
      2         15           0        1.899985   -1.130824   -0.296154
      3          6           0        0.285630   -0.429626    0.297628
      4         15           0       -2.018492    1.218545   -0.308334
      5          7           0       -2.972275   -0.326438    0.153036
      6          8           0       -2.691998   -1.370471   -0.420137
      7          8           0       -3.880661   -0.173503    0.949785
      8          8           0        2.577992    1.423412    0.172229
      9          8           0        4.199480   -0.009368    0.364541
     10          6           0       -0.385165    0.469128   -0.747437
     11          1           0       -0.340525   -1.305534    0.496066
     12          1           0       -0.536419   -0.063662   -1.690440
     13          1           0        0.251523    1.333236   -0.967753
     14          1           0        0.435564    0.103676    1.238094
     15          1           0        2.236036   -1.841369    0.878124
     16          1           0       -1.754752    1.523033    1.046686
 ---------------------------------------------------------------------

 SCF Done:  E(RHF) =  -1169.06985657     A.U. after    2 cycles

 The electronic state is 1-A.
 Alpha  occ. eigenvalues --  -81.34722 -81.34556 -20.63467 -20.63460 -20.63306
 Alpha  occ. eigenvalues --  -20.63262 -15.91393 -15.91364 -11.29769 -11.29631
 Alpha  occ. eigenvalues --   -7.84740  -7.84584  -4.98767  -4.98613  -4.98569
 Alpha  occ. eigenvalues --   -4.98384  -4.98247  -4.98110  -1.55616  -1.55581
 Alpha  occ. eigenvalues --   -1.37927  -1.37892  -1.09314  -0.98937  -0.96344
 Alpha  occ. eigenvalues --   -0.90880  -0.82297  -0.82257  -0.74920  -0.74883
 Alpha  occ. eigenvalues --   -0.73953  -0.73372  -0.72526  -0.71651  -0.66411
 Alpha  occ. eigenvalues --   -0.61172  -0.57983  -0.56591  -0.54463  -0.52673
 Alpha  occ. eigenvalues --   -0.51719  -0.49949  -0.48932  -0.48922  -0.47778
 Alpha  occ. eigenvalues --   -0.41957  -0.40865
 Alpha virt. eigenvalues --    0.02824   0.03368   0.03926   0.04864   0.05598
 Alpha virt. eigenvalues --    0.06086   0.06328   0.06702   0.07480   0.08316
 Alpha virt. eigenvalues --    0.08930   0.09366   0.10189   0.11459   0.12544

 Mulliken charges:
               1
     1  N    0.330852
     2  P    0.874346
     3  C    0.002433
     4  P    0.815525
     5  N    0.393258
     6  O   -0.573784
     7  O   -0.564289
     8  O   -0.540935
     9  O   -0.557639
    10  C   -0.052590
    11  H   -0.147966
    12  H   -0.042164
    13  H   -0.064340
    14  H   -0.145675
    15  H    0.129314
    16  H    0.143653
 Sum of Mulliken charges =  -0.00000

 Dipole moment (field-independent basis, Debye):
    X=             -0.0218    Y=             -0.0007    Z=             -0.6787  Tot=              0.6790

 Test job not archived.
 1\1\GINC-SE016\SP\RHF\Aug-CC-pVDZ\C2H6N2O4P2\OHZDE\08-Apr-2025\0\\#t h
 f aug-cc-pvdz iop(5/13=1,5/36=2,99/5=2) pseudo=read geom=check guess=(
 read,tcheck) scf=(maxcycle=1)\\title\\0,1\N,0,3.035829,0.2889,0.166115
 \P,0,1.899985,-1.130824,-0.296154\C,0,0.28563,-0.429626,0.297628\P,0,-
 2.018492,1.218545,-0.308334\N,0,-2.972275,-0.326438,0.153036\O,0,-2.69
 1998,-1.370471,-0.420137\O,0,-3.880661,-0.173503,0.949785\O,0,2.577992
 ,1.423412,0.172229\O,0,4.19948,-0.009368,0.364541\C,0,-0.385165,0.4691
 28,-0.747437\H,0,-0.340525,-1.305534,0.496066\H,0,-0.536419,-0.063662,

 Normal termination of Gaussian 16 at Tue Apr  8 23:28:37 2025.
