 Gaussian 16, Revision C.01,

 ----------------------------------------------------------------------
 #t hf aug-cc-pvdz symm=none int=(grid=ultrafine) guess=(read,tcheck) s
 table=(opt,rrhf)
 ----------------------------------------------------------------------
 -----
 title
 -----
 Symbolic Z-matrix:
 Charge =  0 Multiplicity = 1

 SCF Done:  E(RHF) =  -974.725115685     A.U. after   13 cycles
 Normal termination of Gaussian 16 at Wed Apr  9 00:15:40 2025.
 Gaussian 16:  ES64L-G16RevC.01  3-Jul-2019

 ----------------------------------------------------------------------
 #t hf aug-cc-pvdz iop(5/13=1,5/36=2,99/5=2) pseudo=read geom=check gue
 ss=(read,tcheck) scf=(maxcycle=1)
 ----------------------------------------------------------------------
 -----
 title
 -----
 Structure from the checkpoint file:  "BDE49_nonexpt_2542_mol1.chk"
 Charge =  0 Multiplicity = 1

                         Standard orientation:
 ---------------------------------------------------------------------
 Center     Atomic      Atomic             Coordinates (Angstroms)
 Number     Number       Type             X           Y           Z
 ---------------------------------------------------------------------
      1         17           0       -1.710170    0.000813   -0.620591
      2         16           0       -0.476586   -0.001466    1.061535
      3          6           0        1.206020   -0.000379    0.317319
      4          6           0        1.510422   -1.276442   -0.466760
      5          1           0        1.333509   -2.167132    0.137957
      6          1           0        2.556660   -1.275339   -0.787782
      7          1           0        0.885633   -1.339570   -1.360629
      8          6           0        1.510236    1.277758   -0.463447
      9          1           0        1.787294   -0.001550    1.251314
     10          1           0        0.885437    1.343115   -1.357149
     11          1           0        2.556475    1.277639   -0.784472
     12          1           0        1.333195    2.166850    0.143580
 ---------------------------------------------------------------------

 SCF Done:  E(RHF) =  -974.802598953     A.U. after    2 cycles

 The electronic state is 1-A.
 Alpha  occ. eigenvalues -- -103.67041 -93.58645 -11.29712 -11.24232 -11.24223
 Alpha  occ. eigenvalues --  -10.70192  -8.87989  -8.35921  -8.35595  -8.35562
 Alpha  occ. eigenvalues --   -6.22084  -6.21793  -6.21425  -1.16150  -1.08473
 Alpha  occ. eigenvalues --   -0.94821  -0.91964  -0.78178  -0.64701  -0.61822
 Alpha  occ. eigenvalues --   -0.59082  -0.55850  -0.54086  -0.51539  -0.50296
 Alpha  occ. eigenvalues --   -0.49735  -0.49381  -0.43259  -0.35968
 Alpha virt. eigenvalues --    0.03224   0.04249   0.04781   0.05847   0.06312
 Alpha virt. eigenvalues --    0.07328   0.07423   0.08004   0.08912   0.12238
 Alpha virt. eigenvalues --    0.13462   0.14602   0.14661   0.14991   0.16117

 Mulliken charges:
               1
     1  Cl  -0.360832
     2  S    0.371852
     3  C   -0.742547
     4  C    0.539197
     5  H   -0.075571
     6  H   -0.037086
     7  H   -0.038254
     8  C    0.539208
     9  H   -0.045062
    10  H   -0.038263
    11  H   -0.037082
    12  H   -0.075562
 Sum of Mulliken charges =  -0.00000

 Dipole moment (field-independent basis, Debye):
    X=              2.8391    Y=             -0.0001    Z=              0.1312  Tot=              2.8421

 Test job not archived.
 1\1\GINC-SE322\SP\RHF\Aug-CC-pVDZ\C3H7Cl1S1\OHZDE\09-Apr-2025\0\\#t hf
  aug-cc-pvdz iop(5/13=1,5/36=2,99/5=2) pseudo=read geom=check guess=(r
 ead,tcheck) scf=(maxcycle=1)\\title\\0,1\Cl,0,-1.71017,0.000813,-0.620
 591\S,0,-0.476586,-0.001466,1.061535\C,0,1.20602,-0.000379,0.317319\C,
 0,1.510422,-1.276442,-0.46676\H,0,1.333509,-2.167132,0.137957\H,0,2.55
 666,-1.275339,-0.787782\H,0,0.885633,-1.33957,-1.360629\C,0,1.510236,1
 .277758,-0.463447\H,0,1.787294,-0.00155,1.251314\H,0,0.885437,1.343115
 ,-1.357149\H,0,2.556475,1.277639,-0.784472\H,0,1.333195,2.16685,0.1435

 Normal termination of Gaussian 16 at Wed Apr  9 00:15:45 2025.
