 Gaussian 16, Revision C.01,

 ----------------------------------------------------------------------
 #t hf aug-cc-pvdz symm=none int=(grid=ultrafine) guess=(read,tcheck) s
 table=opt
 ----------------------------------------------------------------------
 -----
 title
 -----
 Symbolic Z-matrix:
 Charge =  0 Multiplicity = 2

 SCF Done:  E(UHF) =  -440.471863611     A.U. after   14 cycles

 1\1\GINC-SE070\Stability\UHF\Aug-CC-pVDZ\H3O2Si1\OHZDE\08-Apr-2025\0\\
 #t hf aug-cc-pvdz symm=none int=(grid=ultrafine) guess=(read,tcheck) s
 table=opt\\title\\0,2\Si,0,-0.001116,0.490808,-0.142004\O,0,1.375505,-
 0.387241,0.133887\H,0,1.583634,-1.112588,-0.461112\O,0,-1.37798,-0.414
 93,-0.041306\H,0,-1.595445,-0.867848,0.780029\H,0,0.047231,1.526491,0.
 928494\\Version=ES64L-G16RevC.01\HF=-440.4718636\S2=0.753542\S2-1=0.\S
 2A=0.750006\RMSD=7.140e-09\Dipole=-0.0092172,-0.4387579,0.0868839\Quad
 rupole=-1.802579,1.3882444,0.4143346,-0.7008039,-3.4811972,-0.0980543\

 Normal termination of Gaussian 16 at Tue Apr  8 23:48:14 2025.
 Gaussian 16:  ES64L-G16RevC.01  3-Jul-2019

 ----------------------------------------------------------------------
 #t hf aug-cc-pvdz iop(5/13=1,5/36=2,99/5=2) pseudo=read geom=check gue
 ss=(read,tcheck) scf=(maxcycle=1)
 ----------------------------------------------------------------------
 -----
 title
 -----
 Structure from the checkpoint file:  "BDE49_nonexpt_1862_mol2.chk"
 Charge =  0 Multiplicity = 2

                         Standard orientation:
 ---------------------------------------------------------------------
 Center     Atomic      Atomic             Coordinates (Angstroms)
 Number     Number       Type             X           Y           Z
 ---------------------------------------------------------------------
      1         14           0       -0.001116    0.490808   -0.142004
      2          8           0        1.375505   -0.387241    0.133887
      3          1           0        1.583634   -1.112588   -0.461112
      4          8           0       -1.377980   -0.414930   -0.041306
      5          1           0       -1.595445   -0.867848    0.780029
      6          1           0        0.047232    1.526491    0.928494
 ---------------------------------------------------------------------

 SCF Done:  E(UHF) =  -440.560228295     A.U. after    2 cycles

 The electronic state is 2-A.
 Alpha  occ. eigenvalues --  -69.12832 -20.58252 -20.57948  -6.87285  -3.98499
 Alpha  occ. eigenvalues --   -3.97915  -3.97727  -1.32172  -1.30235  -0.78327
 Alpha  occ. eigenvalues --   -0.73533  -0.61541  -0.60093  -0.58682  -0.53142
 Alpha  occ. eigenvalues --   -0.51724  -0.33992
 Alpha virt. eigenvalues --    0.03279   0.05007   0.05724   0.06549   0.07602
 Alpha virt. eigenvalues --    0.08600   0.13043   0.16445   0.17973   0.19193
 Alpha virt. eigenvalues --    0.20680   0.21752   0.21946   0.23525   0.25478

  Beta  occ. eigenvalues --  -69.12273 -20.57847 -20.57773  -6.86371  -3.97555
  Beta  occ. eigenvalues --   -3.97395  -3.96561  -1.31264  -1.29399  -0.76532
  Beta  occ. eigenvalues --   -0.72558  -0.60641  -0.58830  -0.55770  -0.52712
  Beta  occ. eigenvalues --   -0.49544
  Beta virt. eigenvalues --    0.02760   0.04627   0.05407   0.06245   0.07232
  Beta virt. eigenvalues --    0.08173   0.09650   0.15138   0.17706   0.19174
  Beta virt. eigenvalues --    0.19958   0.21212   0.22598   0.23023   0.24324

 Mulliken charges and spin densities:
               1          2
     1  Si   1.310237   0.910581
     2  O   -0.748376   0.035428
     3  H    0.137072  -0.015607
     4  O   -0.748303  -0.052265
     5  H    0.123049   0.014802
     6  H   -0.073678   0.107061
 Sum of Mulliken charges =  -0.00000   1.00000

 Dipole moment (field-independent basis, Debye):
    X=             -0.0365    Y=             -1.1204    Z=              0.1809  Tot=              1.1355
                          Isotropic Fermi Contact Couplings
        Atom                 a.u.       MegaHertz       Gauss      10(-4) cm-1
     1  Si(29)             0.77169    -685.82156    -244.71819    -228.76545
     2  O(17)              0.04242     -25.71368      -9.17528      -8.57716
     3  H(1)              -0.00147      -6.56348      -2.34201      -2.18934
     4  O(17)              0.10817     -65.56921     -23.39672     -21.87153
     5  H(1)               0.00909      40.64871      14.50447      13.55895
     6  H(1)               0.02974     132.93763      47.43545      44.34322
 --------------------------------------------------------
       Center         ----  Spin Dipole Couplings  ----

 Normal termination of Gaussian 16 at Tue Apr  8 23:48:16 2025.
