 Gaussian 16, Revision C.01,

 ----------------------------------------------------------------------
 #t hf aug-cc-pvdz symm=none int=(grid=ultrafine) guess=(read,tcheck) s
 table=(opt,rrhf)
 ----------------------------------------------------------------------
 -----
 title
 -----
 Symbolic Z-matrix:
 Charge =  0 Multiplicity = 1

 SCF Done:  E(RHF) =  -521.128788827     A.U. after   13 cycles
 Normal termination of Gaussian 16 at Wed Apr  9 00:06:53 2025.
 Gaussian 16:  ES64L-G16RevC.01  3-Jul-2019

 ----------------------------------------------------------------------
 #t hf aug-cc-pvdz iop(5/13=1,5/36=2,99/5=2) pseudo=read geom=check gue
 ss=(read,tcheck) scf=(maxcycle=1)
 ----------------------------------------------------------------------
 -----
 title
 -----
 Structure from the checkpoint file:  "BDE49_nonexpt_2283_mol1.chk"
 Charge =  0 Multiplicity = 1

                         Standard orientation:
 ---------------------------------------------------------------------
 Center     Atomic      Atomic             Coordinates (Angstroms)
 Number     Number       Type             X           Y           Z
 ---------------------------------------------------------------------
      1          6           0        1.916268   -0.332665   -0.523051
      2          8           0        0.862328    0.480594   -0.804074
      3         14           0       -0.360905    1.046485    0.185256
      4          6           0       -1.555137   -0.311572    0.682110
      5          6           0        2.252525   -0.838582    0.661533
      6          6           0       -2.241103   -1.028347   -0.494958
      7          1           0       -2.306463    0.153861    1.334033
      8          1           0       -1.025225   -1.036623    1.309921
      9          1           0       -2.805276   -0.326549   -1.115970
     10          1           0       -2.939988   -1.792256   -0.143038
     11          1           0       -1.509619   -1.521677   -1.139892
     12          1           0        2.498353   -0.539199   -1.416002
     13          1           0        1.695185   -0.639682    1.569034
     14          1           0        3.127762   -1.469215    0.739708
     15          1           0       -1.036243    2.063140   -0.646911
     16          1           0        0.220249    1.679663    1.394319
 ---------------------------------------------------------------------

 SCF Done:  E(RHF) =  -521.236929837     A.U. after    2 cycles

 The electronic state is 1-A.
 Alpha  occ. eigenvalues --  -69.09085 -20.58163 -11.31324 -11.23314 -11.22719
 Alpha  occ. eigenvalues --  -11.22541  -6.83911  -3.94831  -3.94675  -3.94643
 Alpha  occ. eigenvalues --   -1.33777  -1.02075  -1.01497  -0.85581  -0.82845
 Alpha  occ. eigenvalues --   -0.69911  -0.67881  -0.62835  -0.61649  -0.60136
 Alpha  occ. eigenvalues --   -0.56684  -0.55270  -0.52319  -0.52021  -0.49572
 Alpha  occ. eigenvalues --   -0.46354  -0.43194  -0.35592
 Alpha virt. eigenvalues --    0.03284   0.04327   0.04738   0.04911   0.05999
 Alpha virt. eigenvalues --    0.06295   0.06961   0.07516   0.07727   0.08908
 Alpha virt. eigenvalues --    0.09782   0.10389   0.11685   0.12937   0.13347

 Mulliken charges:
               1
     1  C    0.614450
     2  O   -0.729893
     3  Si   0.706514
     4  C    0.102169
     5  C    0.603781
     6  C    0.248799
     7  H   -0.197939
     8  H   -0.140337
     9  H   -0.105882
    10  H   -0.081300
    11  H   -0.130682
    12  H   -0.414251
    13  H   -0.385754
    14  H   -0.283690
    15  H    0.104455
    16  H    0.089560
 Sum of Mulliken charges =  -0.00000

 Dipole moment (field-independent basis, Debye):
    X=             -0.5575    Y=             -0.7032    Z=              0.6834  Tot=              1.1280

 Test job not archived.
 1\1\GINC-SE333\SP\RHF\Aug-CC-pVDZ\C4H10O1Si1\OHZDE\09-Apr-2025\0\\#t h
 f aug-cc-pvdz iop(5/13=1,5/36=2,99/5=2) pseudo=read geom=check guess=(
 read,tcheck) scf=(maxcycle=1)\\title\\0,1\C,0,1.916268,-0.332665,-0.52
 3051\O,0,0.862328,0.480594,-0.804074\Si,0,-0.360905,1.046485,0.185256\
 C,0,-1.555137,-0.311572,0.68211\C,0,2.252525,-0.838582,0.661533\C,0,-2
 .241103,-1.028347,-0.494958\H,0,-2.306463,0.153861,1.334033\H,0,-1.025
 225,-1.036623,1.309921\H,0,-2.805276,-0.326549,-1.11597\H,0,-2.939988,
 -1.792256,-0.143038\H,0,-1.509619,-1.521677,-1.139892\H,0,2.498353,-0.

 Normal termination of Gaussian 16 at Wed Apr  9 00:06:58 2025.
