 Gaussian 16, Revision C.01,

 ----------------------------------------------------------------------
 #t hf aug-cc-pvdz symm=none int=(grid=ultrafine) guess=(read,tcheck) s
 table=(opt,rrhf)
 ----------------------------------------------------------------------
 -----
 title
 -----
 Symbolic Z-matrix:
 Charge =  0 Multiplicity = 1

 SCF Done:  E(RHF) =  -498.624273753     A.U. after   12 cycles

 1\1\GINC-SE102\Stability\RHF\Aug-CC-pVDZ\C4H11P1\OHZDE\08-Apr-2025\0\\
 #t hf aug-cc-pvdz symm=none int=(grid=ultrafine) guess=(read,tcheck) s
 table=(opt,rrhf)\\title\\0,1\P,0,1.535773,0.,-0.131093\C,0,-0.356542,0
 .,0.007204\C,0,-0.842422,0.,1.464955\H,0,-0.491356,0.883747,2.004086\H
 ,0,-0.491356,-0.883747,2.004086\C,0,-0.870102,-1.259052,-0.716726\H,0,
 -1.938848,0.,1.499948\H,0,-1.965475,-1.275965,-0.709296\H,0,-0.542011,
 -1.286683,-1.759494\H,0,-0.521658,-2.174115,-0.228651\C,0,-0.870102,1.
 259052,-0.716726\H,0,-0.521658,2.174115,-0.228651\H,0,-1.965475,1.2759

 Normal termination of Gaussian 16 at Tue Apr  8 23:24:10 2025.
 Gaussian 16:  ES64L-G16RevC.01  3-Jul-2019

 ----------------------------------------------------------------------
 #t hf aug-cc-pvdz iop(5/13=1,5/36=2,99/5=2) pseudo=read geom=check gue
 ss=(read,tcheck) scf=(maxcycle=1)
 ----------------------------------------------------------------------
 -----
 title
 -----
 Structure from the checkpoint file:  "BDE49_nonexpt_1272_mol1.chk"
 Charge =  0 Multiplicity = 1

                         Standard orientation:
 ---------------------------------------------------------------------
 Center     Atomic      Atomic             Coordinates (Angstroms)
 Number     Number       Type             X           Y           Z
 ---------------------------------------------------------------------
      1         15           0       -1.535773   -0.000000   -0.131093
      2          6           0        0.356542    0.000000    0.007204
      3          6           0        0.842422    0.000000    1.464955
      4          1           0        0.491356   -0.883747    2.004086
      5          1           0        0.491356    0.883747    2.004086
      6          6           0        0.870102    1.259052   -0.716726
      7          1           0        1.938848    0.000000    1.499948
      8          1           0        1.965475    1.275965   -0.709296
      9          1           0        0.542011    1.286683   -1.759494
     10          1           0        0.521658    2.174115   -0.228651
     11          6           0        0.870102   -1.259052   -0.716726
     12          1           0        0.521658   -2.174115   -0.228651
     13          1           0        1.965475   -1.275965   -0.709296
     14          1           0        0.542011   -1.286683   -1.759494
     15          1           0       -1.789129    1.033480    0.810461
     16          1           0       -1.789128   -1.033480    0.810461
 ---------------------------------------------------------------------

 SCF Done:  E(RHF) =  -498.695313703     A.U. after    2 cycles

 The electronic state is 1-A.
 Alpha  occ. eigenvalues --  -81.24599 -11.25713 -11.23080 -11.23074 -11.22933
 Alpha  occ. eigenvalues --   -7.74974  -4.88968  -4.88959  -4.88643  -1.08291
 Alpha  occ. eigenvalues --   -0.93406  -0.93318  -0.81190  -0.71863  -0.61474
 Alpha  occ. eigenvalues --   -0.60858  -0.60327  -0.55205  -0.54757  -0.52206
 Alpha  occ. eigenvalues --   -0.49747  -0.47858  -0.47172  -0.42771  -0.34353
 Alpha virt. eigenvalues --    0.03388   0.04774   0.04882   0.05242   0.06770
 Alpha virt. eigenvalues --    0.06899   0.07029   0.07449   0.07662   0.09295
 Alpha virt. eigenvalues --    0.09732   0.10486   0.11959   0.12378   0.13433

 Mulliken charges:
               1
     1  P    0.086963
     2  C   -3.041992
     3  C    1.067624
     4  H   -0.079726
     5  H   -0.079726
     6  C    1.002597
     7  H    0.002908
     8  H   -0.011920
     9  H   -0.052772
    10  H   -0.054872
    11  C    1.002597
    12  H   -0.054872
    13  H   -0.011920
    14  H   -0.052772
    15  H    0.138942
    16  H    0.138942
 Sum of Mulliken charges =  -0.00000

 Dipole moment (field-independent basis, Debye):
    X=              1.1079    Y=              0.0000    Z=              0.5672  Tot=              1.2447

 Test job not archived.
 1\1\GINC-SE102\SP\RHF\Aug-CC-pVDZ\C4H11P1\OHZDE\08-Apr-2025\0\\#t hf a
 ug-cc-pvdz iop(5/13=1,5/36=2,99/5=2) pseudo=read geom=check guess=(rea
 d,tcheck) scf=(maxcycle=1)\\title\\0,1\P,0,1.535773,0.,-0.131093\C,0,-
 0.356542,0.,0.007204\C,0,-0.842422,0.,1.464955\H,0,-0.491356,0.883747,
 2.004086\H,0,-0.491356,-0.883747,2.004086\C,0,-0.870102,-1.259052,-0.7
 16726\H,0,-1.938848,0.,1.499948\H,0,-1.965475,-1.275965,-0.709296\H,0,
 -0.542011,-1.286683,-1.759494\H,0,-0.521658,-2.174115,-0.228651\C,0,-0
 .870102,1.259052,-0.716726\H,0,-0.521658,2.174115,-0.228651\H,0,-1.965

 Normal termination of Gaussian 16 at Tue Apr  8 23:24:16 2025.
