 Gaussian 16, Revision C.01,

 ----------------------------------------------------------------------
 #t hf aug-cc-pvdz symm=none int=(grid=ultrafine) guess=(read,tcheck) s
 table=(opt,rrhf)
 ----------------------------------------------------------------------
 -----
 title
 -----
 Symbolic Z-matrix:
 Charge =  0 Multiplicity = 1

 SCF Done:  E(RHF) =  -762.864656689     A.U. after   18 cycles
 Normal termination of Gaussian 16 at Tue Apr  8 23:36:17 2025.
 Gaussian 16:  ES64L-G16RevC.01  3-Jul-2019

 ----------------------------------------------------------------------
 #t hf aug-cc-pvdz iop(5/13=1,5/36=2,99/5=2) pseudo=read geom=check gue
 ss=(read,tcheck) scf=(maxcycle=1)
 ----------------------------------------------------------------------
 -----
 title
 -----
 Structure from the checkpoint file:  "BDE49_nonexpt_1477_mol1.chk"
 Charge =  0 Multiplicity = 1

                         Standard orientation:
 ---------------------------------------------------------------------
 Center     Atomic      Atomic             Coordinates (Angstroms)
 Number     Number       Type             X           Y           Z
 ---------------------------------------------------------------------
      1          6           0       -1.945399    0.631860   -1.065853
      2          6           0       -0.612403    0.256479   -1.178443
      3          6           0       -2.735235    0.193364    0.005201
      4          6           0       -2.143661   -0.640405    0.956478
      5          6           0       -0.811007   -1.030496    0.841448
      6          6           0       -0.018873   -0.581564   -0.221620
      7          1           0       -0.027177    0.617842   -2.017042
      8          1           0       -2.381725    1.279114   -1.820446
      9          1           0       -2.733801   -0.999178    1.793602
     10          1           0       -0.384512   -1.696295    1.584593
     11         15           0        1.734994   -1.126908   -0.304357
     12          6           0        2.721811    0.431440    0.142473
     13          8           0        3.776706    0.621368   -0.412789
     14          6           0        2.205621    1.317530    1.256296
     15          1           0        1.295281    1.829789    0.933014
     16          1           0        2.970323    2.049101    1.519022
     17          1           0        1.940321    0.718306    2.132177
     18          6           0       -4.186836    0.592534    0.106314
     19          1           0       -4.320809    1.659011   -0.093595
     20          1           0       -4.590885    0.380148    1.097936
     21          1           0       -4.794768    0.047170   -0.623338
     22          1           0        1.945107   -0.976771   -1.692020
 ---------------------------------------------------------------------

 SCF Done:  E(RHF) =  -763.012000672     A.U. after    2 cycles

 The electronic state is 1-A.
 Alpha  occ. eigenvalues --  -81.26600 -20.56986 -11.34872 -11.26879 -11.26250
 Alpha  occ. eigenvalues --  -11.26197 -11.25995 -11.25360 -11.25302 -11.24736
 Alpha  occ. eigenvalues --  -11.24688  -7.76997  -4.91094  -4.90971  -4.90733
 Alpha  occ. eigenvalues --   -1.35956  -1.15916  -1.05556  -1.02290  -1.00796
 Alpha  occ. eigenvalues --   -0.94838  -0.84755  -0.84326  -0.80069  -0.73262
 Alpha  occ. eigenvalues --   -0.68385  -0.65983  -0.64664  -0.63399  -0.62393
 Alpha  occ. eigenvalues --   -0.60797  -0.60204  -0.59069  -0.55948  -0.55512
 Alpha  occ. eigenvalues --   -0.53717  -0.52054  -0.51012  -0.50391  -0.48583
 Alpha  occ. eigenvalues --   -0.41613  -0.36670  -0.35441  -0.32917
 Alpha virt. eigenvalues --    0.02834   0.03750   0.03931   0.04592   0.05369
 Alpha virt. eigenvalues --    0.05740   0.06136   0.06999   0.07436   0.07718
 Alpha virt. eigenvalues --    0.08093   0.08740   0.09077   0.09367   0.10427

 Mulliken charges:
               1
     1  C    0.802641
     2  C    0.398941
     3  C   -0.406752
     4  C    0.866889
     5  C    0.034270
     6  C    0.249097
     7  H   -0.640377
     8  H   -0.603419
     9  H   -0.602422
    10  H   -0.587727
    11  P    0.103478
    12  C   -0.024076
    13  O   -0.528128
    14  C    0.312228
    15  H    0.039273
    16  H   -0.122588
    17  H    0.027410
    18  C    0.593702
    19  H    0.003338
    20  H   -0.149703
    21  H    0.096863
    22  H    0.137061
 Sum of Mulliken charges =   0.00000

 Dipole moment (field-independent basis, Debye):
    X=             -4.7657    Y=              0.6645    Z=              1.2955  Tot=              4.9832

 Test job not archived.
 1\1\GINC-SE339\SP\RHF\Aug-CC-pVDZ\C9H11O1P1\OHZDE\08-Apr-2025\0\\#t hf
  aug-cc-pvdz iop(5/13=1,5/36=2,99/5=2) pseudo=read geom=check guess=(r
 ead,tcheck) scf=(maxcycle=1)\\title\\0,1\C,0,-1.945399,0.63186,-1.0658
 53\C,0,-0.612403,0.256479,-1.178443\C,0,-2.735235,0.193364,0.005201\C,
 0,-2.143661,-0.640405,0.956478\C,0,-0.811007,-1.030496,0.841448\C,0,-0
 .018873,-0.581564,-0.22162\H,0,-0.027177,0.617842,-2.017042\H,0,-2.381
 725,1.279114,-1.820446\H,0,-2.733801,-0.999178,1.793602\H,0,-0.384512,
 -1.696295,1.584593\P,0,1.734994,-1.126908,-0.304357\C,0,2.721811,0.431

 Normal termination of Gaussian 16 at Tue Apr  8 23:36:32 2025.
