 Gaussian 16, Revision C.01,

 ----------------------------------------------------------------------
 #t hf aug-cc-pvdz symm=none int=(grid=ultrafine) guess=(read,tcheck) s
 table=(opt,rrhf)
 ----------------------------------------------------------------------
 -----
 title
 -----
 Symbolic Z-matrix:
 Charge =  0 Multiplicity = 1

 SCF Done:  E(RHF) =  -705.142571772     A.U. after   15 cycles
 Normal termination of Gaussian 16 at Tue Apr  8 23:38:03 2025.
 Gaussian 16:  ES64L-G16RevC.01  3-Jul-2019

 ----------------------------------------------------------------------
 #t hf aug-cc-pvdz iop(5/13=1,5/36=2,99/5=2) pseudo=read geom=check gue
 ss=(read,tcheck) scf=(maxcycle=1)
 ----------------------------------------------------------------------
 -----
 title
 -----
 Structure from the checkpoint file:  "BDE49_nonexpt_1535_mol1.chk"
 Charge =  0 Multiplicity = 1

                         Standard orientation:
 ---------------------------------------------------------------------
 Center     Atomic      Atomic             Coordinates (Angstroms)
 Number     Number       Type             X           Y           Z
 ---------------------------------------------------------------------
      1          7           0       -1.674780   -0.006783    0.207379
      2          6           0        0.747564   -0.288822   -0.323025
      3          6           0        1.080568    1.057282   -0.142318
      4          6           0        1.763181   -1.245390   -0.266088
      5          6           0        3.087104   -0.868738   -0.043957
      6          6           0        3.409266    0.474260    0.131312
      7          6           0        2.400444    1.436197    0.083748
      8          1           0        4.437261    0.770168    0.308094
      9          1           0        2.643860    2.484006    0.222132
     10          1           0        0.292729    1.801390   -0.169538
     11          1           0        1.516720   -2.294944   -0.395112
     12          1           0        3.863400   -1.624777   -0.001483
     13         15           0       -3.176483    0.349902   -0.544254
     14          6           0       -1.651075   -0.395253    1.615655
     15          1           0       -0.624510   -0.373669    1.990420
     16          1           0       -2.059193   -1.406141    1.776926
     17          1           0       -2.242009    0.308382    2.204511
     18          6           0       -0.684584   -0.700594   -0.622155
     19          1           0       -0.910275   -0.468654   -1.668362
     20          1           0       -0.768448   -1.794515   -0.519339
     21          1           0       -3.659192    1.276272    0.417274
     22          1           0       -4.034446   -0.692223   -0.052391
 ---------------------------------------------------------------------

 SCF Done:  E(RHF) =  -705.277038178     A.U. after    2 cycles

 The electronic state is 1-A.
 Alpha  occ. eigenvalues --  -81.27428 -15.62228 -11.27638 -11.26224 -11.24929
 Alpha  occ. eigenvalues --  -11.24551 -11.24477 -11.24288 -11.24253 -11.23918
 Alpha  occ. eigenvalues --   -7.77441  -4.91600  -4.91312  -4.91147  -1.18645
 Alpha  occ. eigenvalues --   -1.13923  -1.02958  -1.00846  -0.94748  -0.88178
 Alpha  occ. eigenvalues --   -0.82960  -0.80202  -0.75400  -0.70240  -0.65240
 Alpha  occ. eigenvalues --   -0.64241  -0.62733  -0.61208  -0.60050  -0.58816
 Alpha  occ. eigenvalues --   -0.56265  -0.53714  -0.52268  -0.51271  -0.49508
 Alpha  occ. eigenvalues --   -0.49307  -0.48160  -0.36895  -0.35260  -0.33987
 Alpha  occ. eigenvalues --   -0.33170
 Alpha virt. eigenvalues --    0.03257   0.03852   0.03990   0.04993   0.05327
 Alpha virt. eigenvalues --    0.05517   0.06764   0.07361   0.07622   0.07706
 Alpha virt. eigenvalues --    0.08306   0.09415   0.10378   0.10619   0.11096

 Mulliken charges:
               1
     1  N   -0.800781
     2  C    0.473637
     3  C    0.431879
     4  C    0.571020
     5  C    0.288025
     6  C    0.711289
     7  C    0.000839
     8  H   -0.445388
     9  H   -0.465964
    10  H   -0.591557
    11  H   -0.582821
    12  H   -0.452636
    13  P    0.205719
    14  C    0.772054
    15  H   -0.183791
    16  H   -0.126387
    17  H   -0.230269
    18  C    0.758446
    19  H   -0.129363
    20  H   -0.294061
    21  H    0.011130
    22  H    0.078980
 Sum of Mulliken charges =  -0.00000

 Dipole moment (field-independent basis, Debye):
    X=              0.3277    Y=             -0.6767    Z=              0.9426  Tot=              1.2057

 Test job not archived.
 1\1\GINC-SE051\SP\RHF\Aug-CC-pVDZ\C8H12N1P1\OHZDE\08-Apr-2025\0\\#t hf
  aug-cc-pvdz iop(5/13=1,5/36=2,99/5=2) pseudo=read geom=check guess=(r
 ead,tcheck) scf=(maxcycle=1)\\title\\0,1\N,0,-1.67478,-0.006783,0.2073
 79\C,0,0.747564,-0.288822,-0.323025\C,0,1.080568,1.057282,-0.142318\C,
 0,1.763181,-1.24539,-0.266088\C,0,3.087104,-0.868738,-0.043957\C,0,3.4
 09266,0.47426,0.131312\C,0,2.400444,1.436197,0.083748\H,0,4.437261,0.7
 70168,0.308094\H,0,2.64386,2.484006,0.222132\H,0,0.292729,1.80139,-0.1
 69538\H,0,1.51672,-2.294944,-0.395112\H,0,3.8634,-1.624777,-0.001483\P

 Normal termination of Gaussian 16 at Tue Apr  8 23:38:17 2025.
