 Gaussian 16, Revision C.01,

 ----------------------------------------------------------------------
 #t hf aug-cc-pvdz symm=none int=(grid=ultrafine) guess=(read,tcheck) s
 table=(opt,rrhf)
 ----------------------------------------------------------------------
 -----
 title
 -----
 Symbolic Z-matrix:
 Charge =  0 Multiplicity = 1

 SCF Done:  E(RHF) =  -844.962260561     A.U. after   13 cycles
 Normal termination of Gaussian 16 at Wed Apr  9 00:15:13 2025.
 Gaussian 16:  ES64L-G16RevC.01  3-Jul-2019

 ----------------------------------------------------------------------
 #t hf aug-cc-pvdz iop(5/13=1,5/36=2,99/5=2) pseudo=read geom=check gue
 ss=(read,tcheck) scf=(maxcycle=1)
 ----------------------------------------------------------------------
 -----
 title
 -----
 Structure from the checkpoint file:  "BDE49_nonexpt_2522_mol1.chk"
 Charge =  0 Multiplicity = 1

                         Standard orientation:
 ---------------------------------------------------------------------
 Center     Atomic      Atomic             Coordinates (Angstroms)
 Number     Number       Type             X           Y           Z
 ---------------------------------------------------------------------
      1         16           0       -0.466422   -1.025978    0.000003
      2          6           0        1.036540    0.122305    0.000004
      3          6           0        2.236537   -0.836476   -0.000213
      4          1           0        3.165797   -0.257547   -0.000337
      5          1           0        2.233831   -1.476198   -0.885682
      6          1           0        2.234097   -1.476245    0.885224
      7          6           0        1.052185    0.987715   -1.264303
      8          1           0        0.208002    1.680115   -1.295953
      9          1           0        1.019239    0.371022   -2.164473
     10          1           0        1.970924    1.584446   -1.289703
     11         14           0       -2.208097    0.236239    0.000009
     12          6           0        1.052422    0.987422    1.264495
     13          1           0        1.019606    0.370541    2.164541
     14          1           0        0.208268    1.679842    1.296434
     15          1           0        1.971186    1.584117    1.289876
     16          1           0       -3.332455   -0.723536   -0.000067
     17          1           0       -2.294209    1.103021   -1.198499
     18          1           0       -2.294273    1.102934    1.198575
 ---------------------------------------------------------------------

 SCF Done:  E(RHF) =  -845.052861831     A.U. after    2 cycles

 The electronic state is 1-A.
 Alpha  occ. eigenvalues --  -93.51238 -69.08487 -11.29272 -11.23586 -11.23578
 Alpha  occ. eigenvalues --  -11.23504  -8.81153  -6.83543  -6.15291  -6.15078
 Alpha  occ. eigenvalues --   -6.14834  -3.94358  -3.94302  -3.94264  -1.10344
 Alpha  occ. eigenvalues --   -0.94287  -0.94182  -0.91738  -0.75162  -0.68444
 Alpha  occ. eigenvalues --   -0.62062  -0.61580  -0.61232  -0.55812  -0.55589
 Alpha  occ. eigenvalues --   -0.52909  -0.49934  -0.49189  -0.48752  -0.48707
 Alpha  occ. eigenvalues --   -0.43975  -0.40474  -0.35016
 Alpha virt. eigenvalues --    0.03278   0.04322   0.04894   0.04946   0.06113
 Alpha virt. eigenvalues --    0.06658   0.06702   0.07164   0.07263   0.08412
 Alpha virt. eigenvalues --    0.08981   0.09385   0.10190   0.10872   0.11531

 Mulliken charges:
               1
     1  S   -0.190724
     2  C   -2.124580
     3  C    0.999923
     4  H   -0.016724
     5  H   -0.048724
     6  H   -0.048680
     7  C    0.822608
     8  H   -0.152079
     9  H   -0.062819
    10  H    0.009638
    11  Si   0.107756
    12  C    0.822493
    13  H   -0.062833
    14  H   -0.152021
    15  H    0.009668
    16  H   -0.019311
    17  H    0.053200
    18  H    0.053210
 Sum of Mulliken charges =   0.00000

 Dipole moment (field-independent basis, Debye):
    X=              1.1987    Y=              1.5402    Z=             -0.0000  Tot=              1.9517

 Test job not archived.
 1\1\GINC-SE454\SP\RHF\Aug-CC-pVDZ\C4H12S1Si1\OHZDE\09-Apr-2025\0\\#t h
 f aug-cc-pvdz iop(5/13=1,5/36=2,99/5=2) pseudo=read geom=check guess=(
 read,tcheck) scf=(maxcycle=1)\\title\\0,1\S,0,0.466422,-1.025978,-0.00
 0003\C,0,-1.03654,0.122305,-0.000004\C,0,-2.236537,-0.836476,0.000213\
 H,0,-3.165797,-0.257547,0.000337\H,0,-2.233831,-1.476198,0.885682\H,0,
 -2.234097,-1.476245,-0.885224\C,0,-1.052185,0.987715,1.264303\H,0,-0.2
 08002,1.680115,1.295953\H,0,-1.019239,0.371022,2.164473\H,0,-1.970924,
 1.584446,1.289703\Si,0,2.208097,0.236239,-0.000009\C,0,-1.052422,0.987

 Normal termination of Gaussian 16 at Wed Apr  9 00:15:20 2025.
