 Gaussian 16, Revision C.01,

 ----------------------------------------------------------------------
 #t hf aug-cc-pvdz symm=none int=(grid=ultrafine) guess=(read,tcheck) s
 table=opt
 ----------------------------------------------------------------------
 -----
 title
 -----
 Symbolic Z-matrix:
 Charge =  0 Multiplicity = 2

 SCF Done:  E(UHF) =  -116.428431370     A.U. after   15 cycles
 Normal termination of Gaussian 16 at Tue Apr  8 22:38:24 2025.
 Gaussian 16:  ES64L-G16RevC.01  3-Jul-2019

 ----------------------------------------------------------------------
 #t hf aug-cc-pvdz iop(5/13=1,5/36=2,99/5=2) pseudo=read geom=check gue
 ss=(read,tcheck) scf=(maxcycle=1)
 ----------------------------------------------------------------------
 -----
 title
 -----
 Structure from the checkpoint file:  "BDE49_expt_1281_mol2.chk"
 Charge =  0 Multiplicity = 2

                         Standard orientation:
 ---------------------------------------------------------------------
 Center     Atomic      Atomic             Coordinates (Angstroms)
 Number     Number       Type             X           Y           Z
 ---------------------------------------------------------------------
      1          6           0       -0.027291    0.886367   -0.000000
      2          6           0       -0.027291   -0.363759    0.767965
      3          6           0       -0.027291   -0.363759   -0.767965
      4          1           0        0.632754    1.741616   -0.000000
      5          1           0        0.874129   -0.663664   -1.297867
      6          1           0       -0.944888   -0.683690   -1.256023
      7          1           0       -0.944888   -0.683690    1.256023
      8          1           0        0.874129   -0.663664    1.297867
 ---------------------------------------------------------------------

 SCF Done:  E(UHF) =  -116.465965624     A.U. after    2 cycles

 The electronic state is 2-A'.
 Alpha  occ. eigenvalues --  -11.25565 -11.24026 -11.23987  -1.14100  -0.82713
 Alpha  occ. eigenvalues --   -0.80856  -0.66893  -0.64156  -0.52268  -0.45673
 Alpha  occ. eigenvalues --   -0.44370  -0.36476
 Alpha virt. eigenvalues --    0.03935   0.04868   0.05079   0.05245   0.07455
 Alpha virt. eigenvalues --    0.10439   0.11754   0.12228   0.13340   0.15445
 Alpha virt. eigenvalues --    0.15901   0.16605   0.17611   0.18562   0.19878

  Beta  occ. eigenvalues --  -11.24225 -11.24184 -11.22929  -1.11379  -0.82466
  Beta  occ. eigenvalues --   -0.75621  -0.65154  -0.61235  -0.51382  -0.43574
  Beta  occ. eigenvalues --   -0.42975
  Beta virt. eigenvalues --    0.03947   0.04915   0.05086   0.05296   0.07458
  Beta virt. eigenvalues --    0.08501   0.11178   0.11778   0.12514   0.15478
  Beta virt. eigenvalues --    0.15964   0.16338   0.17021   0.17917   0.18992

 Mulliken charges and spin densities:
               1          2
     1  C    0.249694   1.262043
     2  C    0.603548  -0.151889
     3  C    0.603548  -0.151889
     4  H   -0.349118  -0.055328
     5  H   -0.303489   0.021458
     6  H   -0.250346   0.027074
     7  H   -0.250346   0.027074
     8  H   -0.303489   0.021458
 Sum of Mulliken charges =  -0.00000   1.00000

 Dipole moment (field-independent basis, Debye):
    X=              0.4659    Y=             -0.2680    Z=             -0.0000  Tot=              0.5375
                          Isotropic Fermi Contact Couplings
        Atom                 a.u.       MegaHertz       Gauss      10(-4) cm-1
     1  C(13)              0.36697     412.53880     147.20410     137.60813
     2  C(13)             -0.03706     -41.66050     -14.86550     -13.89645
     3  C(13)             -0.03706     -41.66050     -14.86550     -13.89645
     4  H(1)              -0.01185     -52.97127     -18.90147     -17.66931
     5  H(1)               0.00961      42.97097      15.33311      14.33357
     6  H(1)               0.01446      64.63469      23.06327      21.55981
     7  H(1)               0.01446      64.63469      23.06327      21.55981
     8  H(1)               0.00961      42.97097      15.33311      14.33357

 Normal termination of Gaussian 16 at Tue Apr  8 22:38:26 2025.
