 Gaussian 16, Revision C.01,

 ----------------------------------------------------------------------
 #t hf aug-cc-pvdz symm=none int=(grid=ultrafine) guess=(read,tcheck) s
 table=(opt,rrhf)
 ----------------------------------------------------------------------
 -----
 title
 -----
 Symbolic Z-matrix:
 Charge =  0 Multiplicity = 1

 SCF Done:  E(RHF) =  -687.466740420     A.U. after   17 cycles
 Normal termination of Gaussian 16 at Wed Apr  9 00:04:11 2025.
 Gaussian 16:  ES64L-G16RevC.01  3-Jul-2019

 ----------------------------------------------------------------------
 #t hf aug-cc-pvdz iop(5/13=1,5/36=2,99/5=2) pseudo=read geom=check gue
 ss=(read,tcheck) scf=(maxcycle=1)
 ----------------------------------------------------------------------
 -----
 title
 -----
 Structure from the checkpoint file:  "BDE49_nonexpt_2203_mol1.chk"
 Charge =  0 Multiplicity = 1

                         Standard orientation:
 ---------------------------------------------------------------------
 Center     Atomic      Atomic             Coordinates (Angstroms)
 Number     Number       Type             X           Y           Z
 ---------------------------------------------------------------------
      1          6           0       -2.101585    1.091891    0.000014
      2          6           0       -1.606326   -0.216839    0.000016
      3          6           0       -0.224593   -0.458333    0.000009
      4          6           0       -1.202810    2.154791    0.000004
      5          6           0        0.167549    1.926734   -0.000003
      6          6           0        0.661107    0.617860   -0.000001
      7          1           0       -1.574880    3.172431    0.000001
      8          1           0        0.876757    2.744989   -0.000010
      9          8           0        2.013540    0.461208   -0.000009
     10         14           0        2.963722   -0.909693    0.000004
     11          1           0       -3.169812    1.264104    0.000018
     12          1           0        0.137200   -1.479237    0.000010
     13          6           0       -2.512060   -1.325550    0.000024
     14          7           0       -3.241526   -2.221230   -0.000057
     15          1           0        4.346002   -0.404427   -0.000003
     16          1           0        2.693646   -1.723282   -1.205879
     17          1           0        2.693648   -1.723257    1.205904
 ---------------------------------------------------------------------

 SCF Done:  E(RHF) =  -687.615641749     A.U. after    2 cycles

 The electronic state is 1-A.
 Alpha  occ. eigenvalues --  -69.11765 -20.60664 -15.64544 -11.34459 -11.30680
 Alpha  occ. eigenvalues --  -11.29415 -11.27973 -11.27681 -11.27531 -11.27063
 Alpha  occ. eigenvalues --   -6.86570  -3.97484  -3.97329  -3.97300  -1.36716
 Alpha  occ. eigenvalues --   -1.20421  -1.16818  -1.05941  -1.03580  -0.90111
 Alpha  occ. eigenvalues --   -0.87551  -0.79529  -0.73791  -0.70865  -0.68378
 Alpha  occ. eigenvalues --   -0.65654  -0.64066  -0.63434  -0.58765  -0.56487
 Alpha  occ. eigenvalues --   -0.55206  -0.55064  -0.53189  -0.49719  -0.49258
 Alpha  occ. eigenvalues --   -0.47289  -0.47090  -0.36909  -0.34789
 Alpha virt. eigenvalues --    0.02674   0.03313   0.04383   0.05192   0.05405
 Alpha virt. eigenvalues --    0.05480   0.06057   0.06869   0.08474   0.08765
 Alpha virt. eigenvalues --    0.09377   0.09865   0.10205   0.10387   0.12045

 Mulliken charges:
               1
     1  C    0.256779
     2  C    1.861068
     3  C    0.277597
     4  C    0.671110
     5  C    0.641147
     6  C    0.083215
     7  H   -0.413692
     8  H   -0.531656
     9  O   -0.864062
    10  Si   0.259402
    11  H   -0.529983
    12  H   -0.678704
    13  C   -1.155255
    14  N   -0.134963
    15  H    0.050356
    16  H    0.103821
    17  H    0.103822
 Sum of Mulliken charges =  -0.00000

 Dipole moment (field-independent basis, Debye):
    X=              2.9857    Y=              2.8944    Z=              0.0001  Tot=              4.1584

 Test job not archived.
 1\1\GINC-SE333\SP\RHF\Aug-CC-pVDZ\C7H7N1O1Si1\OHZDE\09-Apr-2025\0\\#t
 hf aug-cc-pvdz iop(5/13=1,5/36=2,99/5=2) pseudo=read geom=check guess=
 (read,tcheck) scf=(maxcycle=1)\\title\\0,1\C,0,-2.101585,1.091891,0.00
 0014\C,0,-1.606326,-0.216839,0.000016\C,0,-0.224593,-0.458333,0.000009
 \C,0,-1.20281,2.154791,0.000004\C,0,0.167549,1.926734,-0.000003\C,0,0.
 661107,0.61786,-0.000001\H,0,-1.57488,3.172431,0.000001\H,0,0.876757,2
 .744989,-0.00001\O,0,2.01354,0.461208,-0.000009\Si,0,2.963722,-0.90969
 3,0.000004\H,0,-3.169812,1.264104,0.000018\H,0,0.1372,-1.479237,0.0000

 Normal termination of Gaussian 16 at Wed Apr  9 00:04:21 2025.
