 Gaussian 16, Revision C.01,

 ----------------------------------------------------------------------
 #t hf aug-cc-pvdz symm=none int=(grid=ultrafine) guess=(read,tcheck) s
 table=(opt,rrhf)
 ----------------------------------------------------------------------
 -----
 title
 -----
 Symbolic Z-matrix:
 Charge =  0 Multiplicity = 1

 SCF Done:  E(RHF) =  -1010.70090527     A.U. after   16 cycles
 Normal termination of Gaussian 16 at Tue Apr  8 22:56:55 2025.
 Gaussian 16:  ES64L-G16RevC.01  3-Jul-2019

 ----------------------------------------------------------------------
 #t hf aug-cc-pvdz iop(5/13=1,5/36=2,99/5=2) pseudo=read geom=check gue
 ss=(read,tcheck) scf=(maxcycle=1)
 ----------------------------------------------------------------------
 -----
 title
 -----
 Structure from the checkpoint file:  "BDE49_expt_1588_mol1.chk"
 Charge =  0 Multiplicity = 1

                         Standard orientation:
 ---------------------------------------------------------------------
 Center     Atomic      Atomic             Coordinates (Angstroms)
 Number     Number       Type             X           Y           Z
 ---------------------------------------------------------------------
      1          6           0        2.606478    0.884411   -0.448090
      2          6           0        1.262762    0.627419   -0.722424
      3          6           0        3.415221   -0.133508    0.064815
      4          6           0        2.866915   -1.402920    0.294227
      5          6           0        1.532034   -1.646349    0.016634
      6          6           0        0.705824   -0.631485   -0.491735
      7          1           0        0.638879    1.415496   -1.125572
      8          1           0        3.005655    1.871036   -0.641345
      9          8           0        4.735787    0.002859    0.366847
     10          1           0        3.513172   -2.180533    0.683203
     11          1           0        1.117757   -2.633565    0.184314
     12         16           0       -1.008400   -0.956164   -0.877497
     13          6           0       -1.836502   -0.574863    0.789640
     14          6           0       -3.210843   -1.169571    0.775022
     15          6           0       -1.830180    0.879238    1.151096
     16          1           0       -1.225091   -1.120341    1.507530
     17          6           0       -2.588867    1.850498    0.601499
     18          6           0       -4.281039   -0.676629    0.118845
     19          6           0       -4.390770    0.581910   -0.579235
     20          6           0       -3.650682    1.698535   -0.360660
     21          1           0       -3.322904   -2.114286    1.298444
     22          1           0       -5.179789   -1.288518    0.118356
     23          1           0       -1.111803    1.169653    1.912101
     24          1           0       -2.385712    2.870813    0.917620
     25          1           0       -5.219056    0.663492   -1.277243
     26          1           0       -3.939128    2.598086   -0.897027
     27          6           0        5.357084    1.261682    0.146101
     28          1           0        5.321847    1.547011   -0.911092
     29          1           0        6.394943    1.137586    0.450473
     30          1           0        4.894722    2.049620    0.750999
 ---------------------------------------------------------------------

 SCF Done:  E(RHF) =  -1010.90150141     A.U. after    2 cycles

 The electronic state is 1-A.
 Alpha  occ. eigenvalues --  -93.52317 -20.60493 -11.31868 -11.30151 -11.28257
 Alpha  occ. eigenvalues --  -11.26182 -11.25480 -11.25463 -11.25420 -11.25285
 Alpha  occ. eigenvalues --  -11.24952 -11.24807 -11.24696 -11.24564 -11.24469
 Alpha  occ. eigenvalues --  -11.24077  -8.81937  -6.16144  -6.15891  -6.15590
 Alpha  occ. eigenvalues --   -1.37477  -1.14850  -1.12909  -1.05648  -1.04145
 Alpha  occ. eigenvalues --   -1.02863  -1.01855  -0.96279  -0.92570  -0.87076
 Alpha  occ. eigenvalues --   -0.86921  -0.84081  -0.79369  -0.73251  -0.72308
 Alpha  occ. eigenvalues --   -0.70860  -0.70745  -0.68085  -0.67039  -0.64151
 Alpha  occ. eigenvalues --   -0.62517  -0.62237  -0.61259  -0.59741  -0.59189
 Alpha  occ. eigenvalues --   -0.56826  -0.54988  -0.53950  -0.53459  -0.52383
 Alpha  occ. eigenvalues --   -0.51600  -0.49676  -0.49287  -0.48301  -0.45017
 Alpha  occ. eigenvalues --   -0.43093  -0.37422  -0.34959  -0.33669  -0.32475
 Alpha  occ. eigenvalues --   -0.29322
 Alpha virt. eigenvalues --    0.03038   0.03646   0.03805   0.04311   0.04815
 Alpha virt. eigenvalues --    0.05012   0.05712   0.06077   0.06329   0.06719
 Alpha virt. eigenvalues --    0.07208   0.07465   0.07839   0.08495   0.09502

 Mulliken charges:
               1
     1  C    0.600135
     2  C    0.233980
     3  C    0.208238
     4  C    0.963563
     5  C    0.395298
     6  C    0.082878
     7  H   -0.558673
     8  H   -0.735737
     9  O   -0.670597
    10  H   -0.606300
    11  H   -0.560457
    12  S    0.296699
    13  C    0.325845
    14  C    0.577763
    15  C    0.609018
    16  H   -0.163339
    17  C    0.492355
    18  C    0.702721
    19  C    0.139406
    20  C    0.229202
    21  H   -0.488517
    22  H   -0.467259
    23  H   -0.562285
    24  H   -0.494065
    25  H   -0.467515
    26  H   -0.465520
    27  C    0.880053
    28  H   -0.090667
    29  H   -0.309002
    30  H   -0.097221
 Sum of Mulliken charges =   0.00000

 Dipole moment (field-independent basis, Debye):
    X=              0.9542    Y=              2.0470    Z=              1.0715  Tot=              2.4998

 Test job not archived.
 1\1\GINC-SE173\SP\RHF\Aug-CC-pVDZ\C14H14O1S1\OHZDE\08-Apr-2025\0\\#t h
 f aug-cc-pvdz iop(5/13=1,5/36=2,99/5=2) pseudo=read geom=check guess=(
 read,tcheck) scf=(maxcycle=1)\\title\\0,1\C,0,2.606478,0.884411,-0.448
 09\C,0,1.262762,0.627419,-0.722424\C,0,3.415221,-0.133508,0.064815\C,0
 ,2.866915,-1.40292,0.294227\C,0,1.532034,-1.646349,0.016634\C,0,0.7058
 24,-0.631485,-0.491735\H,0,0.638879,1.415496,-1.125572\H,0,3.005655,1.
 871036,-0.641345\O,0,4.735787,0.002859,0.366847\H,0,3.513172,-2.180533
 ,0.683203\H,0,1.117757,-2.633565,0.184314\S,0,-1.0084,-0.956164,-0.877

 Normal termination of Gaussian 16 at Tue Apr  8 22:57:33 2025.
