 Gaussian 16, Revision C.01,

 ----------------------------------------------------------------------
 #t hf aug-cc-pvdz symm=none int=(grid=ultrafine) guess=(read,tcheck) s
 table=(opt,rrhf)
 ----------------------------------------------------------------------
 -----
 title
 -----
 Symbolic Z-matrix:
 Charge =  0 Multiplicity = 1

 SCF Done:  E(RHF) =  -276.964634002     A.U. after   11 cycles
 Normal termination of Gaussian 16 at Tue Apr  8 22:27:16 2025.
 Gaussian 16:  ES64L-G16RevC.01  3-Jul-2019

 ----------------------------------------------------------------------
 #t hf aug-cc-pvdz iop(5/13=1,5/36=2,99/5=2) pseudo=read geom=check gue
 ss=(read,tcheck) scf=(maxcycle=1)
 ----------------------------------------------------------------------
 -----
 title
 -----
 Structure from the checkpoint file:  "BDE49_expt_1007_mol1.chk"
 Charge =  0 Multiplicity = 1

                         Standard orientation:
 ---------------------------------------------------------------------
 Center     Atomic      Atomic             Coordinates (Angstroms)
 Number     Number       Type             X           Y           Z
 ---------------------------------------------------------------------
      1          6           0       -0.268882    0.703012    0.510554
      2          6           0        0.268882   -0.703012    0.510554
      3          1           0       -1.356771    0.695049    0.401254
      4          9           0        0.268882    1.433480   -0.545598
      5          1           0        0.005411    1.202911    1.445806
      6          1           0       -0.005411   -1.202911    1.445806
      7          1           0        1.356771   -0.695049    0.401254
      8          9           0       -0.268882   -1.433480   -0.545598
 ---------------------------------------------------------------------

 SCF Done:  E(RHF) =  -277.062159744     A.U. after    2 cycles

 The electronic state is 1-A.
 Alpha  occ. eigenvalues --  -26.11271 -26.11270 -11.33810 -11.33747  -1.64786
 Alpha  occ. eigenvalues --   -1.64072  -1.06073  -0.90683  -0.77179  -0.77134
 Alpha  occ. eigenvalues --   -0.75275  -0.72725  -0.72334  -0.67094  -0.57139
 Alpha  occ. eigenvalues --   -0.55451  -0.53434
 Alpha virt. eigenvalues --    0.03133   0.04716   0.05157   0.05914   0.10412
 Alpha virt. eigenvalues --    0.11108   0.11994   0.13500   0.15094   0.16832
 Alpha virt. eigenvalues --    0.17026   0.19714   0.23802   0.25571   0.25825

 Mulliken charges:
               1
     1  C    0.572732
     2  C    0.572732
     3  H   -0.082548
     4  F   -0.405517
     5  H   -0.084667
     6  H   -0.084667
     7  H   -0.082548
     8  F   -0.405517
 Sum of Mulliken charges =  -0.00000

 Dipole moment (field-independent basis, Debye):
    X=              0.0000    Y=             -0.0000    Z=              3.4355  Tot=              3.4355

 Test job not archived.
 1\1\GINC-SE364\SP\RHF\Aug-CC-pVDZ\C2H4F2\OHZDE\08-Apr-2025\0\\#t hf au
 g-cc-pvdz iop(5/13=1,5/36=2,99/5=2) pseudo=read geom=check guess=(read
 ,tcheck) scf=(maxcycle=1)\\title\\0,1\C,0,-0.268882,0.703012,0.510554\
 C,0,0.268882,-0.703012,0.510554\H,0,-1.356771,0.695049,0.401254\F,0,0.
 268882,1.43348,-0.545598\H,0,0.005411,1.202911,1.445806\H,0,-0.005411,
 -1.202911,1.445806\H,0,1.356771,-0.695049,0.401254\F,0,-0.268882,-1.43
 348,-0.545598\\Version=ES64L-G16RevC.01\State=1-A\HF=-277.0621597\RMSD
 =5.762e-03\Dipole=0.,0.,1.3516323\Quadrupole=1.5793209,-2.5999257,1.02

 Normal termination of Gaussian 16 at Tue Apr  8 22:27:18 2025.
