 Gaussian 16, Revision C.01,

 ----------------------------------------------------------------------
 #t hf aug-cc-pvdz symm=none int=(grid=ultrafine) guess=(read,tcheck) s
 table=opt
 ----------------------------------------------------------------------
 -----
 title
 -----
 Symbolic Z-matrix:
 Charge =  0 Multiplicity = 2

 SCF Done:  E(UHF) =  -749.607702180     A.U. after   14 cycles
 Normal termination of Gaussian 16 at Tue Apr  8 23:46:12 2025.
 Gaussian 16:  ES64L-G16RevC.01  3-Jul-2019

 ----------------------------------------------------------------------
 #t hf aug-cc-pvdz iop(5/13=1,5/36=2,99/5=2) pseudo=read geom=check gue
 ss=(read,tcheck) scf=(maxcycle=1)
 ----------------------------------------------------------------------
 -----
 title
 -----
 Structure from the checkpoint file:  "BDE49_nonexpt_1809_mol2.chk"
 Charge =  0 Multiplicity = 2

                         Standard orientation:
 ---------------------------------------------------------------------
 Center     Atomic      Atomic             Coordinates (Angstroms)
 Number     Number       Type             X           Y           Z
 ---------------------------------------------------------------------
      1         14           0       -1.041174   -0.000002   -0.101779
      2         17           0        1.038154   -0.000007    0.016115
      3          1           0       -1.535964    1.223928    0.575451
      4          1           0       -1.536207   -1.223795    0.575513
 ---------------------------------------------------------------------

 SCF Done:  E(UHF) =  -749.647977995     A.U. after    2 cycles

 The electronic state is 2-A.
 Alpha  occ. eigenvalues -- -103.65806 -69.12921 -10.69250  -8.34993  -8.34753
 Alpha  occ. eigenvalues --   -8.34675  -6.87860  -3.99082  -3.98344  -3.98183
 Alpha  occ. eigenvalues --   -1.14267  -0.72101  -0.54302  -0.53890  -0.50208
 Alpha  occ. eigenvalues --   -0.46523  -0.35252
 Alpha virt. eigenvalues --    0.03906   0.04878   0.05971   0.06614   0.08680
 Alpha virt. eigenvalues --    0.11520   0.14127   0.14405   0.15483   0.16334
 Alpha virt. eigenvalues --    0.17827   0.18303   0.23166   0.23550   0.26831

  Beta  occ. eigenvalues -- -103.65715 -69.12334 -10.69153  -8.34845  -8.34626
  Beta  occ. eigenvalues --   -8.34491  -6.86943  -3.97953  -3.97799  -3.96945
  Beta  occ. eigenvalues --   -1.13520  -0.68001  -0.52931  -0.52906  -0.48258
  Beta  occ. eigenvalues --   -0.45908
  Beta virt. eigenvalues --    0.01818   0.04307   0.05237   0.06110   0.08307
  Beta virt. eigenvalues --    0.08997   0.12404   0.14921   0.15951   0.16479
  Beta virt. eigenvalues --    0.16933   0.18940   0.20681   0.24241   0.25647

 Mulliken charges and spin densities:
               1          2
     1  Si   0.689153   0.884429
     2  Cl  -0.491652   0.030137
     3  H   -0.098755   0.042713
     4  H   -0.098746   0.042722
 Sum of Mulliken charges =   0.00000   1.00000

 Dipole moment (field-independent basis, Debye):
    X=             -1.7217    Y=             -0.0001    Z=             -0.1332  Tot=              1.7269
                          Isotropic Fermi Contact Couplings
        Atom                 a.u.       MegaHertz       Gauss      10(-4) cm-1
     1  Si(29)             0.68154    -605.70019    -216.12889    -202.03984
     2  Cl(35)             0.05125      22.47283       8.01887       7.49613
     3  H(1)               0.01229      54.93572      19.60243      18.32458
     4  H(1)               0.01229      54.95228      19.60834      18.33011
 --------------------------------------------------------
       Center         ----  Spin Dipole Couplings  ----
                      3XX-RR        3YY-RR        3ZZ-RR
 --------------------------------------------------------

 Normal termination of Gaussian 16 at Tue Apr  8 23:46:14 2025.
