 Gaussian 16, Revision C.01,

 ----------------------------------------------------------------------
 #t hf aug-cc-pvdz symm=none int=(grid=ultrafine) guess=(read,tcheck) s
 table=(opt,rrhf)
 ----------------------------------------------------------------------
 -----
 title
 -----
 Symbolic Z-matrix:
 Charge =  0 Multiplicity = 1

 SCF Done:  E(RHF) =  -1682.35296719     A.U. after   16 cycles
 Normal termination of Gaussian 16 at Tue Apr  8 23:10:49 2025.
 Gaussian 16:  ES64L-G16RevC.01  3-Jul-2019

 ----------------------------------------------------------------------
 #t hf aug-cc-pvdz iop(5/13=1,5/36=2,99/5=2) pseudo=read geom=check gue
 ss=(read,tcheck) scf=(maxcycle=1)
 ----------------------------------------------------------------------
 -----
 title
 -----
 Structure from the checkpoint file:  "BDE49_expt_772_mol1.chk"
 Charge =  0 Multiplicity = 1

                         Standard orientation:
 ---------------------------------------------------------------------
 Center     Atomic      Atomic             Coordinates (Angstroms)
 Number     Number       Type             X           Y           Z
 ---------------------------------------------------------------------
      1          6           0        0.492800    2.129839    0.000004
      2          6           0        1.509684    1.177200    0.000003
      3          6           0        1.186971   -0.176072   -0.000000
      4          6           0       -0.144045   -0.608299   -0.000001
      5          6           0       -1.148354    0.372572   -0.000000
      6          6           0       -0.841495    1.725227    0.000003
      7          8           0        0.735387    3.467301    0.000006
      8          1           0        1.684977    3.627655    0.000009
      9          1           0        2.552040    1.472043    0.000003
     10          1           0       -1.627240    2.467435    0.000004
     11         17           0       -2.830564   -0.083716   -0.000001
     12         17           0       -0.539009   -2.297954   -0.000004
     13         17           0        2.497441   -1.325880   -0.000001
 ---------------------------------------------------------------------

 SCF Done:  E(RHF) =  -1682.49910754     A.U. after    2 cycles

 The electronic state is 1-A.
 Alpha  occ. eigenvalues -- -103.68646-103.68357-103.67977 -20.63531 -11.35288
 Alpha  occ. eigenvalues --  -11.34939 -11.34767 -11.33550 -11.28058 -11.27488
 Alpha  occ. eigenvalues --  -10.71922 -10.71635 -10.71262  -8.37661  -8.37374
 Alpha  occ. eigenvalues --   -8.37338  -8.37324  -8.37050  -8.37038  -8.37004
 Alpha  occ. eigenvalues --   -8.36675  -8.36659  -1.40066  -1.24898  -1.20516
 Alpha  occ. eigenvalues --   -1.17545  -1.13616  -1.02863  -1.01468  -0.87623
 Alpha  occ. eigenvalues --   -0.85512  -0.77208  -0.72676  -0.69293  -0.64238
 Alpha  occ. eigenvalues --   -0.64132  -0.62397  -0.62175  -0.59160  -0.57724
 Alpha  occ. eigenvalues --   -0.54997  -0.53261  -0.50213  -0.49830  -0.49201
 Alpha  occ. eigenvalues --   -0.46678  -0.46358  -0.36690  -0.34599
 Alpha virt. eigenvalues --    0.02520   0.04526   0.05427   0.06944   0.07242
 Alpha virt. eigenvalues --    0.08473   0.09499   0.09523   0.10708   0.10793
 Alpha virt. eigenvalues --    0.11678   0.12424   0.12974   0.14062   0.14318

 Mulliken charges:
               1
     1  C    0.934125
     2  C    0.444938
     3  C    0.094159
     4  C    0.073122
     5  C    0.333164
     6  C    0.485307
     7  O   -0.592984
     8  H    0.161551
     9  H   -0.516976
    10  H   -0.396146
    11  Cl  -0.358042
    12  Cl  -0.299294
    13  Cl  -0.362926
 Sum of Mulliken charges =  -0.00000

 Dipole moment (field-independent basis, Debye):
    X=              2.0618    Y=              2.6340    Z=              0.0000  Tot=              3.3450

 Test job not archived.
 1\1\GINC-SE041\SP\RHF\Aug-CC-pVDZ\C6H3Cl3O1\OHZDE\08-Apr-2025\0\\#t hf
  aug-cc-pvdz iop(5/13=1,5/36=2,99/5=2) pseudo=read geom=check guess=(r
 ead,tcheck) scf=(maxcycle=1)\\title\\0,1\C,0,0.492779,2.129844,0.00000
 4\C,0,1.509672,1.177215,0.000003\C,0,1.186972,-0.176061,0.\C,0,-0.1440
 39,-0.6083,-0.000001\C,0,-1.148358,0.372561,0.\C,0,-0.841512,1.725219,
 0.000003\O,0,0.735353,3.467308,0.000006\H,0,1.684942,3.627671,0.000009
 \H,0,2.552026,1.472068,0.000003\H,0,-1.627264,2.467419,0.000004\Cl,0,-
 2.830563,-0.083743,-0.000001\Cl,0,-0.538987,-2.297959,-0.000004\Cl,0,2

 Normal termination of Gaussian 16 at Tue Apr  8 23:10:57 2025.
