 Gaussian 16, Revision C.01,

 ----------------------------------------------------------------------
 #t hf aug-cc-pvdz symm=none int=(grid=ultrafine) guess=(read,tcheck) s
 table=(opt,rrhf)
 ----------------------------------------------------------------------
 -----
 title
 -----
 Symbolic Z-matrix:
 Charge =  0 Multiplicity = 1

 SCF Done:  E(RHF) =  -739.852099694     A.U. after   16 cycles
 Normal termination of Gaussian 16 at Tue Apr  8 23:32:28 2025.
 Gaussian 16:  ES64L-G16RevC.01  3-Jul-2019

 ----------------------------------------------------------------------
 #t hf aug-cc-pvdz iop(5/13=1,5/36=2,99/5=2) pseudo=read geom=check gue
 ss=(read,tcheck) scf=(maxcycle=1)
 ----------------------------------------------------------------------
 -----
 title
 -----
 Structure from the checkpoint file:  "BDE49_nonexpt_1441_mol1.chk"
 Charge =  0 Multiplicity = 1

                         Standard orientation:
 ---------------------------------------------------------------------
 Center     Atomic      Atomic             Coordinates (Angstroms)
 Number     Number       Type             X           Y           Z
 ---------------------------------------------------------------------
      1          6           0        0.660748    0.134686   -0.039676
      2          6           0       -0.800717    0.474496   -0.106111
      3          8           0       -1.191473    1.599970   -0.366587
      4          7           0       -1.686438   -0.549650    0.150683
      5         15           0       -3.406873   -0.260628   -0.005242
      6          1           0       -1.333568   -1.375597    0.609718
      7          6           0        1.153093   -1.167938   -0.179703
      8          6           0        2.522913   -1.411101   -0.125459
      9          6           0        3.411217   -0.355877    0.070877
     10          6           0        2.927500    0.945881    0.199454
     11          6           0        1.560716    1.190866    0.136972
     12          1           0        0.476036   -1.993659   -0.368165
     13          1           0        2.896333   -2.421663   -0.245308
     14          1           0        4.477590   -0.546426    0.115343
     15          1           0        3.617317    1.769446    0.344307
     16          1           0        1.164269    2.195137    0.218737
     17          1           0       -3.718875    0.086039    1.342609
     18          1           0       -3.751978   -1.622153    0.201187
 ---------------------------------------------------------------------

 SCF Done:  E(RHF) =  -739.995457226     A.U. after    2 cycles

 The electronic state is 1-A.
 Alpha  occ. eigenvalues --  -81.29333 -20.54470 -15.65371 -11.37575 -11.26908
 Alpha  occ. eigenvalues --  -11.26630 -11.26452 -11.26032 -11.25969 -11.25733
 Alpha  occ. eigenvalues --   -7.79247  -4.93353  -4.93082  -4.92837  -1.35615
 Alpha  occ. eigenvalues --   -1.18203  -1.15726  -1.03776  -1.02681  -0.88786
 Alpha  occ. eigenvalues --   -0.84740  -0.81591  -0.77123  -0.74777  -0.68932
 Alpha  occ. eigenvalues --   -0.65912  -0.63790  -0.62782  -0.61051  -0.60855
 Alpha  occ. eigenvalues --   -0.56744  -0.53139  -0.52988  -0.51256  -0.51126
 Alpha  occ. eigenvalues --   -0.45296  -0.42833  -0.36694  -0.35478  -0.35304
 Alpha virt. eigenvalues --    0.02647   0.03446   0.04103   0.05090   0.05712
 Alpha virt. eigenvalues --    0.05927   0.06758   0.07261   0.08124   0.09570
 Alpha virt. eigenvalues --    0.09677   0.10785   0.11035   0.11561   0.12129

 Mulliken charges:
               1
     1  C    1.379579
     2  C   -0.049101
     3  O   -0.461569
     4  N   -0.592968
     5  P    0.398349
     6  H   -0.101905
     7  C    0.429295
     8  C    0.388869
     9  C    0.402421
    10  C    0.596963
    11  C    0.027594
    12  H   -0.599986
    13  H   -0.449565
    14  H   -0.430378
    15  H   -0.414592
    16  H   -0.587055
    17  H    0.094389
    18  H   -0.030339
 Sum of Mulliken charges =   0.00000

 Dipole moment (field-independent basis, Debye):
    X=              2.0417    Y=             -3.7687    Z=              1.5915  Tot=              4.5721

 Test job not archived.
 1\1\GINC-SE070\SP\RHF\Aug-CC-pVDZ\C7H8N1O1P1\OHZDE\08-Apr-2025\0\\#t h
 f aug-cc-pvdz iop(5/13=1,5/36=2,99/5=2) pseudo=read geom=check guess=(
 read,tcheck) scf=(maxcycle=1)\\title\\0,1\C,0,0.660748,0.134686,-0.039
 676\C,0,-0.800717,0.474496,-0.106111\O,0,-1.191473,1.59997,-0.366587\N
 ,0,-1.686438,-0.54965,0.150683\P,0,-3.406873,-0.260628,-0.005242\H,0,-
 1.333568,-1.375597,0.609718\C,0,1.153093,-1.167938,-0.179703\C,0,2.522
 913,-1.411101,-0.125459\C,0,3.411217,-0.355877,0.070877\C,0,2.9275,0.9
 45881,0.199454\C,0,1.560716,1.190866,0.136972\H,0,0.476036,-1.993659,-

 Normal termination of Gaussian 16 at Tue Apr  8 23:32:38 2025.
