 Gaussian 16, Revision C.01,

 ----------------------------------------------------------------------
 #t hf aug-cc-pvdz symm=none int=(grid=ultrafine) guess=(read,tcheck) s
 table=opt
 ----------------------------------------------------------------------
 -----
 title
 -----
 Symbolic Z-matrix:
 Charge =  0 Multiplicity = 2

 SCF Done:  E(UHF) =  -679.658729002     A.U. after   14 cycles

 1\1\GINC-SE345\Stability\UHF\Aug-CC-pVDZ\F1H4Si2\OHZDE\08-Apr-2025\0\\
 #t hf aug-cc-pvdz symm=none int=(grid=ultrafine) guess=(read,tcheck) s
 table=opt\\title\\0,2\Si,0,1.552341,-0.19791,-0.076852\Si,0,-0.676045,
 0.512911,0.066703\F,0,-1.646518,-0.772168,-0.097604\H,0,-1.021184,1.13
 8044,1.364561\H,0,-0.968839,1.455206,-1.035705\H,0,2.052645,-0.962333,
 1.092735\H,0,2.487904,0.90859,-0.401066\\Version=ES64L-G16RevC.01\HF=-
 679.658729\S2=0.759135\S2-1=0.\S2A=0.750033\RMSD=7.273e-09\Dipole=0.42
 58846,0.4430613,0.0751493\Quadrupole=-1.0746912,0.3184646,0.7562266,-1

 Normal termination of Gaussian 16 at Tue Apr  8 23:55:19 2025.
 Gaussian 16:  ES64L-G16RevC.01  3-Jul-2019

 ----------------------------------------------------------------------
 #t hf aug-cc-pvdz iop(5/13=1,5/36=2,99/5=2) pseudo=read geom=check gue
 ss=(read,tcheck) scf=(maxcycle=1)
 ----------------------------------------------------------------------
 -----
 title
 -----
 Structure from the checkpoint file:  "BDE49_nonexpt_2020_mol2.chk"
 Charge =  0 Multiplicity = 2

                         Standard orientation:
 ---------------------------------------------------------------------
 Center     Atomic      Atomic             Coordinates (Angstroms)
 Number     Number       Type             X           Y           Z
 ---------------------------------------------------------------------
      1         14           0        1.552341   -0.197910   -0.076852
      2         14           0       -0.676045    0.512911    0.066703
      3          9           0       -1.646518   -0.772168   -0.097604
      4          1           0       -1.021184    1.138044    1.364561
      5          1           0       -0.968839    1.455206   -1.035705
      6          1           0        2.052645   -0.962333    1.092735
      7          1           0        2.487904    0.908590   -0.401066
 ---------------------------------------------------------------------

 SCF Done:  E(UHF) =  -679.741538312     A.U. after    2 cycles

 The electronic state is 2-A.
 Alpha  occ. eigenvalues --  -69.12281 -69.07869 -26.10713  -6.86941  -6.83420
 Alpha  occ. eigenvalues --   -3.97869  -3.97669  -3.97627  -3.94779  -3.93867
 Alpha  occ. eigenvalues --   -3.93833  -1.63175  -0.80557  -0.72792  -0.71986
 Alpha  occ. eigenvalues --   -0.71065  -0.62536  -0.50697  -0.48934  -0.43234
 Alpha  occ. eigenvalues --   -0.32861
 Alpha virt. eigenvalues --    0.03931   0.04217   0.05672   0.06639   0.07265
 Alpha virt. eigenvalues --    0.07528   0.07963   0.08399   0.09263   0.09956
 Alpha virt. eigenvalues --    0.12170   0.14084   0.14851   0.15627   0.18270

  Beta  occ. eigenvalues --  -69.12286 -69.07308 -26.10743  -6.86952  -6.82600
  Beta  occ. eigenvalues --   -3.97840  -3.97676  -3.97651  -3.93455  -3.93432
  Beta  occ. eigenvalues --   -3.92582  -1.63262  -0.80401  -0.72200  -0.72000
  Beta  occ. eigenvalues --   -0.68083  -0.61469  -0.50192  -0.48542  -0.42017
  Beta virt. eigenvalues --    0.01582   0.04179   0.04344   0.06015   0.07123
  Beta virt. eigenvalues --    0.07472   0.07895   0.08289   0.09211   0.10133
  Beta virt. eigenvalues --    0.10219   0.13223   0.15288   0.15774   0.17317

 Mulliken charges and spin densities:
               1          2
     1  Si   0.041761   1.117154
     2  Si   0.851997  -0.068532
     3  F   -0.764295   0.003089
     4  H   -0.032607   0.018748
     5  H   -0.006218  -0.007636
     6  H   -0.048769  -0.024402
     7  H   -0.041869  -0.038421
 Sum of Mulliken charges =  -0.00000   1.00000

 Dipole moment (field-independent basis, Debye):
    X=              1.1980    Y=              1.1984    Z=              0.1649  Tot=              1.7025
                          Isotropic Fermi Contact Couplings
        Atom                 a.u.       MegaHertz       Gauss      10(-4) cm-1
     1  Si(29)             0.45616    -405.40632    -144.65905    -135.22899
     2  Si(29)            -0.01741      15.47541       5.52201       5.16204
     3  F(19)             -0.00441     -18.53468      -6.61363      -6.18250
     4  H(1)               0.00796      35.57114      12.69267      11.86526
     5  H(1)              -0.00182      -8.13602      -2.90313      -2.71388
     6  H(1)              -0.00479     -21.40964      -7.63949      -7.14149
     7  H(1)              -0.00646     -28.86884     -10.30112      -9.62961
 --------------------------------------------------------

 Normal termination of Gaussian 16 at Tue Apr  8 23:55:21 2025.
