 Gaussian 16, Revision C.01,

 ----------------------------------------------------------------------
 #t hf aug-cc-pvdz symm=none int=(grid=ultrafine) guess=(read,tcheck) s
 table=opt
 ----------------------------------------------------------------------
 -----
 title
 -----
 Symbolic Z-matrix:
 Charge =  0 Multiplicity = 2

 SCF Done:  E(UHF) =  -524.874375893     A.U. after   15 cycles
 Normal termination of Gaussian 16 at Tue Apr  8 23:45:10 2025.
 Gaussian 16:  ES64L-G16RevC.01  3-Jul-2019

 ----------------------------------------------------------------------
 #t hf aug-cc-pvdz iop(5/13=1,5/36=2,99/5=2) pseudo=read geom=check gue
 ss=(read,tcheck) scf=(maxcycle=1)
 ----------------------------------------------------------------------
 -----
 title
 -----
 Structure from the checkpoint file:  "BDE49_nonexpt_1742_mol2.chk"
 Charge =  0 Multiplicity = 2

                         Standard orientation:
 ---------------------------------------------------------------------
 Center     Atomic      Atomic             Coordinates (Angstroms)
 Number     Number       Type             X           Y           Z
 ---------------------------------------------------------------------
      1         14           0       -2.627362   -0.499653    0.203947
      2          6           0       -0.865764   -0.890751   -0.378256
      3          6           0        0.233391    0.005930    0.230865
      4          1           0       -0.839172   -0.819472   -1.472582
      5          1           0       -0.657900   -1.940883   -0.140614
      6          6           0       -3.183940    1.241884   -0.274164
      7          1           0       -2.541043    2.000559    0.186586
      8          1           0       -4.208379    1.426543    0.058902
      9          1           0       -3.151148    1.383667   -1.357743
     10          6           0        1.646873   -0.359191   -0.244535
     11          1           0        0.195096   -0.059359    1.324900
     12          1           0        0.034769    1.055324   -0.017899
     13          6           0        2.743730    0.528195    0.355440
     14          1           0        1.686362   -0.295199   -1.339600
     15          1           0        1.850690   -1.408104    0.006235
     16          6           0        4.150615    0.157079   -0.122575
     17          1           0        2.701127    0.464029    1.449449
     18          1           0        2.537674    1.575856    0.104582
     19          1           0        4.399769   -0.874557    0.144847
     20          1           0        4.908504    0.807414    0.322710
     21          1           0        4.234916    0.245320   -1.210249
     22          1           0       -2.717624   -0.664876    1.684571
 ---------------------------------------------------------------------

 SCF Done:  E(UHF) =  -524.971656258     A.U. after    2 cycles

 The electronic state is 2-A.
 Alpha  occ. eigenvalues --  -69.05582 -11.23369 -11.22754 -11.22585 -11.22224
 Alpha  occ. eigenvalues --  -11.21954 -11.21772  -6.80904  -3.92241  -3.91361
 Alpha  occ. eigenvalues --   -3.91355  -1.07105  -1.00904  -0.94064  -0.91238
 Alpha  occ. eigenvalues --   -0.82189  -0.78908  -0.65452  -0.64961  -0.60059
 Alpha  occ. eigenvalues --   -0.58713  -0.56630  -0.55940  -0.55602  -0.53333
 Alpha  occ. eigenvalues --   -0.51155  -0.48761  -0.48451  -0.46571  -0.46436
 Alpha  occ. eigenvalues --   -0.44957  -0.41781  -0.30213
 Alpha virt. eigenvalues --    0.03300   0.04066   0.04298   0.04553   0.05468
 Alpha virt. eigenvalues --    0.05820   0.05978   0.06731   0.07480   0.07842
 Alpha virt. eigenvalues --    0.07905   0.08356   0.08959   0.10018   0.10628

  Beta  occ. eigenvalues --  -69.05037 -11.23277 -11.22750 -11.22561 -11.22222
  Beta  occ. eigenvalues --  -11.21901 -11.21721  -6.80085  -3.90989  -3.90984
  Beta  occ. eigenvalues --   -3.90130  -1.06968  -1.00679  -0.93525  -0.91055
  Beta  occ. eigenvalues --   -0.81954  -0.78852  -0.65072  -0.62228  -0.59985
  Beta  occ. eigenvalues --   -0.58125  -0.55970  -0.55785  -0.54947  -0.53264
  Beta  occ. eigenvalues --   -0.50894  -0.48433  -0.48352  -0.46433  -0.46409
  Beta  occ. eigenvalues --   -0.44145  -0.40980
  Beta virt. eigenvalues --    0.03085   0.03854   0.04270   0.04575   0.05294
  Beta virt. eigenvalues --    0.05646   0.06011   0.06572   0.07361   0.07529
  Beta virt. eigenvalues --    0.07924   0.08149   0.08594   0.09893   0.10194

 Mulliken charges and spin densities:
               1          2
     1  Si   0.548161   1.046629
     2  C    0.183277  -0.051286
     3  C    0.156059   0.016638
     4  H   -0.134742  -0.007556
     5  H   -0.204469  -0.002095
     6  C    0.276841  -0.008169
     7  H   -0.218933   0.013876
     8  H   -0.261359  -0.014803
     9  H   -0.167372  -0.006377
    10  C    0.153158  -0.000070
    11  H   -0.213153  -0.006372
    12  H   -0.235017  -0.001736
    13  C    0.304559  -0.001771
    14  H   -0.167728   0.000227
    15  H   -0.174664  -0.000713
    16  C    0.570571   0.000139
    17  H   -0.141984  -0.000119
    18  H   -0.146180   0.000083
    19  H   -0.087844   0.000008
    20  H   -0.058023   0.000067
    21  H   -0.084729   0.000013
    22  H    0.103571   0.023389
 Sum of Mulliken charges =  -0.00000   1.00000

 Dipole moment (field-independent basis, Debye):
    X=              0.5838    Y=              0.5081    Z=             -0.3767  Tot=              0.8608
                          Isotropic Fermi Contact Couplings
        Atom                 a.u.       MegaHertz       Gauss      10(-4) cm-1
     1  Si(29)             0.50597    -449.66679    -160.45229    -149.99270
     2  C(13)              0.01464      16.45807       5.87265       5.48982
     3  C(13)              0.02145      24.11869       8.60615       8.04513
     4  H(1)               0.00009       0.40044       0.14289       0.13357
     5  H(1)               0.00037       1.65486       0.59049       0.55200
     6  C(13)              0.01300      14.61102       5.21357       4.87371
     7  H(1)               0.00965      43.15549      15.39895      14.39512
     8  H(1)               0.00035       1.56702       0.55915       0.52270

 Normal termination of Gaussian 16 at Tue Apr  8 23:45:22 2025.
