 Gaussian 16, Revision C.01,

 ----------------------------------------------------------------------
 #t hf aug-cc-pvdz symm=none int=(grid=ultrafine) guess=(read,tcheck) s
 table=(opt,rrhf)
 ----------------------------------------------------------------------
 -----
 title
 -----
 Symbolic Z-matrix:
 Charge =  0 Multiplicity = 1

 SCF Done:  E(RHF) =  -117.086638521     A.U. after   12 cycles
 Normal termination of Gaussian 16 at Tue Apr  8 23:01:37 2025.
 Gaussian 16:  ES64L-G16RevC.01  3-Jul-2019

 ----------------------------------------------------------------------
 #t hf aug-cc-pvdz iop(5/13=1,5/36=2,99/5=2) pseudo=read geom=check gue
 ss=(read,tcheck) scf=(maxcycle=1)
 ----------------------------------------------------------------------
 -----
 title
 -----
 Structure from the checkpoint file:  "BDE49_expt_35_mol1.chk"
 Charge =  0 Multiplicity = 1

                         Standard orientation:
 ---------------------------------------------------------------------
 Center     Atomic      Atomic             Coordinates (Angstroms)
 Number     Number       Type             X           Y           Z
 ---------------------------------------------------------------------
      1          6           0       -1.233484    0.162304    0.000004
      2          6           0        0.134602   -0.453561    0.000004
      3          6           0        1.280494    0.220394   -0.000008
      4          1           0        2.238917   -0.286355   -0.000007
      5          1           0        1.301823    1.306420   -0.000021
      6          1           0       -1.807315   -0.153290    0.878502
      7          1           0       -1.807326   -0.153314   -0.878478
      8          1           0       -1.182468    1.253708   -0.000011
      9          1           0        0.166696   -1.541990    0.000016
 ---------------------------------------------------------------------

 SCF Done:  E(RHF) =  -117.126123497     A.U. after    2 cycles

 The electronic state is 1-A.
 Alpha  occ. eigenvalues --  -11.24479 -11.23330 -11.22883  -1.05713  -0.93058
 Alpha  occ. eigenvalues --   -0.75836  -0.64252  -0.58755  -0.56886  -0.52668
 Alpha  occ. eigenvalues --   -0.49257  -0.36270
 Alpha virt. eigenvalues --    0.03676   0.04845   0.05011   0.06064   0.06871
 Alpha virt. eigenvalues --    0.07631   0.10916   0.12418   0.14161   0.14733
 Alpha virt. eigenvalues --    0.15651   0.16915   0.17193   0.17384   0.18606

 Mulliken charges:
               1
     1  C    0.207474
     2  C    0.299756
     3  C    0.511517
     4  H   -0.280182
     5  H   -0.278120
     6  H    0.010816
     7  H    0.010815
     8  H   -0.128600
     9  H   -0.353475
 Sum of Mulliken charges =   0.00000

 Dipole moment (field-independent basis, Debye):
    X=             -0.4114    Y=             -0.0697    Z=              0.0000  Tot=              0.4172

 Test job not archived.
 1\1\GINC-SE435\SP\RHF\Aug-CC-pVDZ\C3H6\OHZDE\08-Apr-2025\0\\#t hf aug-
 cc-pvdz iop(5/13=1,5/36=2,99/5=2) pseudo=read geom=check guess=(read,t
 check) scf=(maxcycle=1)\\title\\0,1\C,0,-1.233484,0.162304,0.000004\C,
 0,0.134602,-0.453561,0.000004\C,0,1.280494,0.220394,-0.000008\H,0,2.23
 8917,-0.286355,-0.000007\H,0,1.301823,1.30642,-0.000021\H,0,-1.807315,
 -0.15329,0.878502\H,0,-1.807326,-0.153314,-0.878478\H,0,-1.182468,1.25
 3708,-0.000011\H,0,0.166696,-1.54199,0.000016\\Version=ES64L-G16RevC.0
 1\State=1-A\HF=-117.1261235\RMSD=4.992e-03\Dipole=-0.1618518,-0.027424

 Normal termination of Gaussian 16 at Tue Apr  8 23:01:39 2025.
