 Gaussian 16, Revision C.01,

 ----------------------------------------------------------------------
 #t hf aug-cc-pvdz symm=none int=(grid=ultrafine) guess=(read,tcheck) s
 table=(opt,rrhf)
 ----------------------------------------------------------------------
 -----
 title
 -----
 Symbolic Z-matrix:
 Charge =  0 Multiplicity = 1

 SCF Done:  E(RHF) =  -346.643392180     A.U. after   14 cycles
 Normal termination of Gaussian 16 at Wed Apr  9 00:51:18 2025.
 Gaussian 16:  ES64L-G16RevC.01  3-Jul-2019

 ----------------------------------------------------------------------
 #t hf aug-cc-pvdz iop(5/13=1,5/36=2,99/5=2) pseudo=read geom=check gue
 ss=(read,tcheck) scf=(maxcycle=1)
 ----------------------------------------------------------------------
 -----
 title
 -----
 Structure from the checkpoint file:  "BDE49_nonexpt_970_mol1.chk"
 Charge =  0 Multiplicity = 1

                         Standard orientation:
 ---------------------------------------------------------------------
 Center     Atomic      Atomic             Coordinates (Angstroms)
 Number     Number       Type             X           Y           Z
 ---------------------------------------------------------------------
      1          9           0        0.679296    2.118246    0.000000
      2          7           0       -0.285954    1.022312    0.000000
      3          6           0       -0.090143    0.303035    1.198341
      4          6           0       -0.090143   -1.029242    1.237815
      5          6           0       -0.204110   -1.875016   -0.000000
      6          6           0       -0.090143   -1.029242   -1.237815
      7          6           0       -0.090143    0.303035   -1.198341
      8          1           0       -0.024220    0.933734    2.074463
      9          1           0       -0.044564   -1.522051    2.202188
     10          1           0       -0.044564   -1.522051   -2.202188
     11          1           0       -0.024220    0.933734   -2.074463
     12          1           0       -1.157299   -2.425504   -0.000000
     13          1           0        0.570965   -2.653680   -0.000000
 ---------------------------------------------------------------------

 SCF Done:  E(RHF) =  -346.751249563     A.U. after    2 cycles

 The electronic state is 1-A'.
 Alpha  occ. eigenvalues --  -26.12315 -15.73534 -11.28830 -11.28823 -11.26247
 Alpha  occ. eigenvalues --  -11.25809 -11.25804  -1.63178  -1.22727  -1.07128
 Alpha  occ. eigenvalues --   -1.04676  -0.90565  -0.86106  -0.75223  -0.72722
 Alpha  occ. eigenvalues --   -0.71420  -0.70394  -0.63953  -0.63492  -0.61807
 Alpha  occ. eigenvalues --   -0.60728  -0.55192  -0.50772  -0.50112  -0.38956
 Alpha  occ. eigenvalues --   -0.33673
 Alpha virt. eigenvalues --    0.03007   0.03825   0.04824   0.05225   0.05943
 Alpha virt. eigenvalues --    0.06714   0.10064   0.10633   0.11500   0.12054
 Alpha virt. eigenvalues --    0.12667   0.13823   0.14003   0.14750   0.15089

 Mulliken charges:
               1
     1  F   -0.494862
     2  N   -0.463450
     3  C    0.797785
     4  C    0.386648
     5  C   -0.137067
     6  C    0.386648
     7  C    0.797785
     8  H   -0.305259
     9  H   -0.372795
    10  H   -0.372795
    11  H   -0.305259
    12  H    0.045373
    13  H    0.037250
 Sum of Mulliken charges =  -0.00000

 Dipole moment (field-independent basis, Debye):
    X=             -0.6157    Y=             -3.1657    Z=             -0.0000  Tot=              3.2250

 Test job not archived.
 1\1\GINC-SE419\SP\RHF\Aug-CC-pVDZ\C5H6F1N1\OHZDE\09-Apr-2025\0\\#t hf
 aug-cc-pvdz iop(5/13=1,5/36=2,99/5=2) pseudo=read geom=check guess=(re
 ad,tcheck) scf=(maxcycle=1)\\title\\0,1\F,0,0.679296,2.118246,0.\N,0,-
 0.285954,1.022312,0.\C,0,-0.090143,0.303035,1.198341\C,0,-0.090143,-1.
 029242,1.237815\C,0,-0.20411,-1.875016,0.\C,0,-0.090143,-1.029242,-1.2
 37815\C,0,-0.090143,0.303035,-1.198341\H,0,-0.02422,0.933734,2.074463\
 H,0,-0.044564,-1.522051,2.202188\H,0,-0.044564,-1.522051,-2.202188\H,0
 ,-0.02422,0.933734,-2.074463\H,0,-1.157299,-2.425504,0.\H,0,0.570965,-

 Normal termination of Gaussian 16 at Wed Apr  9 00:51:21 2025.
