 Gaussian 16, Revision C.01,

 ----------------------------------------------------------------------
 #t hf aug-cc-pvdz symm=none int=(grid=ultrafine) guess=(read,tcheck) s
 table=(opt,rrhf)
 ----------------------------------------------------------------------
 -----
 title
 -----
 Symbolic Z-matrix:
 Charge =  0 Multiplicity = 1

 SCF Done:  E(RHF) =  -139.057305349     A.U. after   10 cycles
 Normal termination of Gaussian 16 at Tue Apr  8 22:34:39 2025.
 Gaussian 16:  ES64L-G16RevC.01  3-Jul-2019

 ----------------------------------------------------------------------
 #t hf aug-cc-pvdz iop(5/13=1,5/36=2,99/5=2) pseudo=read geom=check gue
 ss=(read,tcheck) scf=(maxcycle=1)
 ----------------------------------------------------------------------
 -----
 title
 -----
 Structure from the checkpoint file:  "BDE49_expt_113_mol1.chk"
 Charge =  0 Multiplicity = 1

                         Standard orientation:
 ---------------------------------------------------------------------
 Center     Atomic      Atomic             Coordinates (Angstroms)
 Number     Number       Type             X           Y           Z
 ---------------------------------------------------------------------
      1          6           0       -0.634442    0.000000   -0.000003
      2          1           0       -0.993444   -0.887233   -0.528008
      3          1           0       -0.993444    0.900890   -0.504354
      4          9           0        0.754110   -0.000000    0.000001
      5          1           0       -0.993455   -0.013657    1.032369
 ---------------------------------------------------------------------

 SCF Done:  E(RHF) =  -139.108789134     A.U. after    2 cycles

 The electronic state is 1-A.
 Alpha  occ. eigenvalues --  -26.10383 -11.32194  -1.63467  -0.96984  -0.73986
 Alpha  occ. eigenvalues --   -0.73986  -0.71559  -0.55137  -0.55136
 Alpha virt. eigenvalues --    0.03427   0.05819   0.05819   0.08708   0.14467
 Alpha virt. eigenvalues --    0.14467   0.16936   0.24701   0.27415   0.27415
 Alpha virt. eigenvalues --    0.28523   0.28636   0.28636   0.37826   0.41170

 Mulliken charges:
               1
     1  C    0.750338
     2  H   -0.109012
     3  H   -0.109011
     4  F   -0.423318
     5  H   -0.108997
 Sum of Mulliken charges =   0.00000

 Dipole moment (field-independent basis, Debye):
    X=             -2.2991    Y=             -0.0000    Z=             -0.0000  Tot=              2.2991

 Test job not archived.
 1\1\GINC-SE083\SP\RHF\Aug-CC-pVDZ\C1H3F1\OHZDE\08-Apr-2025\0\\#t hf au
 g-cc-pvdz iop(5/13=1,5/36=2,99/5=2) pseudo=read geom=check guess=(read
 ,tcheck) scf=(maxcycle=1)\\title\\0,1\C,0,0.634442,0.,-0.000003\H,0,0.
 993444,0.890285,-0.522846\H,0,0.993444,-0.897946,-0.509577\F,0,-0.7541
 1,0.,0.000001\H,0,0.993455,0.007661,1.032431\\Version=ES64L-G16RevC.01
 \State=1-A\HF=-139.1087891\RMSD=4.507e-03\Dipole=0.9045447,0.,-0.00000
 17\Quadrupole=-0.4174018,0.2087222,0.2086797,0.0000002,0.000008,-0.000
 0001\PG=C01 [X(C1H3F1)]\\@

 Normal termination of Gaussian 16 at Tue Apr  8 22:34:41 2025.
