 Gaussian 16, Revision C.01,

 ----------------------------------------------------------------------
 #t hf aug-cc-pvdz symm=none int=(grid=ultrafine) guess=(read,tcheck) s
 table=(opt,rrhf)
 ----------------------------------------------------------------------
 -----
 title
 -----
 Symbolic Z-matrix:
 Charge =  0 Multiplicity = 1

 SCF Done:  E(RHF) =  -668.720787424     A.U. after   14 cycles
 Normal termination of Gaussian 16 at Tue Apr  8 23:21:55 2025.
 Gaussian 16:  ES64L-G16RevC.01  3-Jul-2019

 ----------------------------------------------------------------------
 #t hf aug-cc-pvdz iop(5/13=1,5/36=2,99/5=2) pseudo=read geom=check gue
 ss=(read,tcheck) scf=(maxcycle=1)
 ----------------------------------------------------------------------
 -----
 title
 -----
 Structure from the checkpoint file:  "BDE49_nonexpt_1189_mol1.chk"
 Charge =  0 Multiplicity = 1

                         Standard orientation:
 ---------------------------------------------------------------------
 Center     Atomic      Atomic             Coordinates (Angstroms)
 Number     Number       Type             X           Y           Z
 ---------------------------------------------------------------------
      1         16           0        2.696528   -0.030371   -0.121726
      2          8           0        1.096648    0.334739    0.240563
      3          6           0        0.116139   -0.569313   -0.305647
      4          6           0       -1.285315   -0.014959   -0.010379
      5          6           0       -1.488667    0.109672    1.510462
      6          1           0       -1.394756   -0.864609    2.000985
      7          1           0       -2.485112    0.501760    1.733848
      8          1           0       -0.748581    0.781364    1.948931
      9          6           0       -2.304358   -1.010659   -0.594020
     10          1           0       -2.203359   -2.000751   -0.138600
     11          1           0       -2.182031   -1.121178   -1.675937
     12          1           0       -3.324172   -0.662123   -0.408510
     13          6           0       -1.455242    1.359905   -0.681270
     14          1           0       -0.718698    2.071766   -0.304636
     15          1           0       -2.453526    1.761666   -0.484918
     16          1           0       -1.331203    1.286357   -1.766420
     17          1           0        0.240309   -1.557544    0.156655
     18          1           0        0.274411   -0.671211   -1.385386
     19          1           0        2.913736   -0.965353    0.832232
 ---------------------------------------------------------------------

 SCF Done:  E(RHF) =  -668.831331343     A.U. after    2 cycles

 The electronic state is 1-A.
 Alpha  occ. eigenvalues --  -93.58879 -20.60365 -11.29215 -11.24854 -11.22810
 Alpha  occ. eigenvalues --  -11.22022 -11.21969  -8.87941  -6.22193  -6.21851
 Alpha  occ. eigenvalues --   -6.21481  -1.33790  -1.09725  -0.96400  -0.93227
 Alpha  occ. eigenvalues --   -0.92767  -0.88206  -0.74593  -0.67867  -0.65502
 Alpha  occ. eigenvalues --   -0.64282  -0.60226  -0.58575  -0.56115  -0.54329
 Alpha  occ. eigenvalues --   -0.53808  -0.51889  -0.51548  -0.47086  -0.46607
 Alpha  occ. eigenvalues --   -0.45793  -0.44807  -0.36837
 Alpha virt. eigenvalues --    0.03373   0.04381   0.04751   0.04915   0.06046
 Alpha virt. eigenvalues --    0.06722   0.06892   0.07385   0.07408   0.08411
 Alpha virt. eigenvalues --    0.09180   0.09499   0.10237   0.11852   0.12780

 Mulliken charges:
               1
     1  S    0.411506
     2  O   -0.818753
     3  C    1.536348
     4  C   -4.544523
     5  C    1.238105
     6  H   -0.010631
     7  H   -0.023590
     8  H    0.003677
     9  C    1.317538
    10  H   -0.020564
    11  H   -0.019928
    12  H   -0.006676
    13  C    1.234068
    14  H    0.008940
    15  H   -0.021183
    16  H   -0.012940
    17  H   -0.157857
    18  H   -0.149670
    19  H    0.036133
 Sum of Mulliken charges =   0.00000

 Dipole moment (field-independent basis, Debye):
    X=             -0.7376    Y=             -1.5539    Z=             -0.0678  Tot=              1.7214

 Test job not archived.
 1\1\GINC-SE084\SP\RHF\Aug-CC-pVDZ\C5H12O1S1\OHZDE\08-Apr-2025\0\\#t hf
  aug-cc-pvdz iop(5/13=1,5/36=2,99/5=2) pseudo=read geom=check guess=(r
 ead,tcheck) scf=(maxcycle=1)\\title\\0,1\S,0,2.696528,-0.030371,-0.121
 726\O,0,1.096648,0.334739,0.240563\C,0,0.116139,-0.569313,-0.305647\C,
 0,-1.285315,-0.014959,-0.010379\C,0,-1.488667,0.109672,1.510462\H,0,-1
 .394756,-0.864609,2.000985\H,0,-2.485112,0.50176,1.733848\H,0,-0.74858
 1,0.781364,1.948931\C,0,-2.304358,-1.010659,-0.59402\H,0,-2.203359,-2.
 000751,-0.1386\H,0,-2.182031,-1.121178,-1.675937\H,0,-3.324172,-0.6621

 Normal termination of Gaussian 16 at Tue Apr  8 23:22:05 2025.
