 Gaussian 16, Revision C.01,

 ----------------------------------------------------------------------
 #t hf aug-cc-pvdz symm=none int=(grid=ultrafine) guess=(read,tcheck) s
 table=opt
 ----------------------------------------------------------------------
 -----
 title
 -----
 Symbolic Z-matrix:
 Charge =  0 Multiplicity = 2

 SCF Done:  E(UHF) =  -406.546025961     A.U. after   14 cycles

 1\1\GINC-SE115\Stability\UHF\Aug-CC-pVDZ\C3H7Si1\OHZDE\09-Apr-2025\0\\
 #t hf aug-cc-pvdz symm=none int=(grid=ultrafine) guess=(read,tcheck) s
 table=opt\\title\\0,2\C,0,0.589507,0.054312,0.\C,0,0.589507,-1.268597,
 -0.749839\C,0,0.589507,-1.268597,0.749839\H,0,-0.317997,-1.569781,1.26
 1332\H,0,1.500868,-1.551992,1.263189\H,0,1.500868,-1.551992,-1.263189\
 H,0,-0.317997,-1.569781,-1.261332\Si,0,-0.900576,1.178238,0.\H,0,1.546
 14,0.574348,0.\H,0,-0.957478,2.035581,-1.213803\H,0,-0.957478,2.035581
 ,1.213803\\Version=ES64L-G16RevC.01\HF=-406.546026\S2=0.754207\S2-1=0.

 Normal termination of Gaussian 16 at Wed Apr  9 00:44:31 2025.
 Gaussian 16:  ES64L-G16RevC.01  3-Jul-2019

 ----------------------------------------------------------------------
 #t hf aug-cc-pvdz iop(5/13=1,5/36=2,99/5=2) pseudo=read geom=check gue
 ss=(read,tcheck) scf=(maxcycle=1)
 ----------------------------------------------------------------------
 -----
 title
 -----
 Structure from the checkpoint file:  "BDE49_nonexpt_809_mol2.chk"
 Charge =  0 Multiplicity = 2

                         Standard orientation:
 ---------------------------------------------------------------------
 Center     Atomic      Atomic             Coordinates (Angstroms)
 Number     Number       Type             X           Y           Z
 ---------------------------------------------------------------------
      1          6           0       -0.589507    0.054312    0.000000
      2          6           0       -0.589507   -1.268597    0.749839
      3          6           0       -0.589507   -1.268597   -0.749839
      4          1           0        0.317997   -1.569781   -1.261332
      5          1           0       -1.500868   -1.551992   -1.263189
      6          1           0       -1.500868   -1.551992    1.263189
      7          1           0        0.317997   -1.569781    1.261332
      8         14           0        0.900576    1.178238    0.000000
      9          1           0       -1.546140    0.574348    0.000000
     10          1           0        0.957478    2.035581    1.213803
     11          1           0        0.957478    2.035581   -1.213803
 ---------------------------------------------------------------------

 SCF Done:  E(UHF) =  -406.603675272     A.U. after    2 cycles

 The electronic state is 2-A'.
 Alpha  occ. eigenvalues --  -69.06579 -11.24533 -11.24472 -11.23530  -6.81932
 Alpha  occ. eigenvalues --   -3.93298  -3.92395  -3.92381  -1.12769  -0.82576
 Alpha  occ. eigenvalues --   -0.82505  -0.70192  -0.65967  -0.60351  -0.52296
 Alpha  occ. eigenvalues --   -0.49070  -0.48071  -0.41963  -0.41782  -0.31767
 Alpha virt. eigenvalues --    0.03462   0.04565   0.05000   0.05077   0.06514
 Alpha virt. eigenvalues --    0.06847   0.08070   0.08238   0.08718   0.11014
 Alpha virt. eigenvalues --    0.12836   0.12942   0.13400   0.14671   0.16114

  Beta  occ. eigenvalues --  -69.06020 -11.24527 -11.24467 -11.23512  -6.81095
  Beta  occ. eigenvalues --   -3.92006  -3.91991  -3.91149  -1.12667  -0.82544
  Beta  occ. eigenvalues --   -0.81828  -0.68050  -0.65133  -0.59008  -0.52286
  Beta  occ. eigenvalues --   -0.48311  -0.47335  -0.41830  -0.41482
  Beta virt. eigenvalues --    0.03117   0.03858   0.04936   0.05034   0.06001
  Beta virt. eigenvalues --    0.06699   0.06906   0.08268   0.08460   0.10140
  Beta virt. eigenvalues --    0.11325   0.12988   0.13023   0.13862   0.15256

 Mulliken charges and spin densities:
               1          2
     1  C    0.195363  -0.073674
     2  C    0.642865   0.035056
     3  C    0.642865   0.035056
     4  H   -0.328424  -0.002450
     5  H   -0.302503  -0.000531
     6  H   -0.302503  -0.000531
     7  H   -0.328424  -0.002450
     8  Si   0.217321   0.995634
     9  H   -0.358567   0.001098
    10  H   -0.038996   0.006397
    11  H   -0.038996   0.006397
 Sum of Mulliken charges =  -0.00000   1.00000

 Dipole moment (field-independent basis, Debye):
    X=             -0.7549    Y=             -0.6526    Z=              0.0000  Tot=              0.9978
                          Isotropic Fermi Contact Couplings
        Atom                 a.u.       MegaHertz       Gauss      10(-4) cm-1
     1  C(13)              0.00181       2.03050       0.72453       0.67730
     2  C(13)              0.00271       3.04150       1.08528       1.01454
     3  C(13)              0.00271       3.04150       1.08528       1.01454
     4  H(1)              -0.00031      -1.38322      -0.49357      -0.46139
     5  H(1)              -0.00030      -1.32955      -0.47442      -0.44349
     6  H(1)              -0.00030      -1.32955      -0.47442      -0.44349
     7  H(1)              -0.00031      -1.38322      -0.49357      -0.46139
     8  Si(29)             0.51455    -457.29563    -163.17445    -152.53740

 Normal termination of Gaussian 16 at Wed Apr  9 00:44:35 2025.
