 Gaussian 16, Revision C.01,

 ----------------------------------------------------------------------
 #t hf aug-cc-pvdz symm=none int=(grid=ultrafine) guess=(read,tcheck) s
 table=(opt,rrhf)
 ----------------------------------------------------------------------
 -----
 title
 -----
 Symbolic Z-matrix:
 Charge =  0 Multiplicity = 1

 SCF Done:  E(RHF) =  -940.230757045     A.U. after   15 cycles
 Normal termination of Gaussian 16 at Tue Apr  8 23:42:46 2025.
 Gaussian 16:  ES64L-G16RevC.01  3-Jul-2019

 ----------------------------------------------------------------------
 #t hf aug-cc-pvdz iop(5/13=1,5/36=2,99/5=2) pseudo=read geom=check gue
 ss=(read,tcheck) scf=(maxcycle=1)
 ----------------------------------------------------------------------
 -----
 title
 -----
 Structure from the checkpoint file:  "BDE49_nonexpt_1654_mol1.chk"
 Charge =  0 Multiplicity = 1

                         Standard orientation:
 ---------------------------------------------------------------------
 Center     Atomic      Atomic             Coordinates (Angstroms)
 Number     Number       Type             X           Y           Z
 ---------------------------------------------------------------------
      1         15           0        2.587328    0.000000   -0.015028
      2          6           0        2.121303    1.433258   -1.119392
      3          6           0       -0.878251   -0.000001    0.611810
      4          6           0        2.121302   -1.433256   -1.119395
      5          1           0        2.824886   -1.469676   -1.955197
      6          1           0        1.106282   -1.362970   -1.517982
      7          1           0        2.221839   -2.367818   -0.562557
      8          1           0        1.106282    1.362973   -1.517979
      9          1           0        2.824887    1.469680   -1.955193
     10          1           0        2.221840    2.367819   -0.562551
     11          6           0       -1.522923    1.203317    0.278866
     12          6           0       -1.522923   -1.203317    0.278865
     13          6           0       -2.760468   -1.205311   -0.360905
     14          6           0       -3.381106    0.000001   -0.683097
     15          6           0       -2.760468    1.205312   -0.360904
     16          1           0       -3.242381    2.146184   -0.603341
     17          1           0       -1.059800    2.152069    0.531815
     18          1           0       -3.242383   -2.146182   -0.603343
     19          1           0       -4.345699    0.000002   -1.178426
     20          1           0       -1.059801   -2.152069    0.531813
     21         14           0        0.817020   -0.000002    1.423153
     22          1           0        0.948525   -1.211949    2.269564
     23          1           0        0.948526    1.211943    2.269567
 ---------------------------------------------------------------------

 SCF Done:  E(RHF) =  -940.366208531     A.U. after    2 cycles

 The electronic state is 1-A.
 Alpha  occ. eigenvalues --  -81.23710 -69.06402 -11.25456 -11.25453 -11.25393
 Alpha  occ. eigenvalues --  -11.25060 -11.25044 -11.23953 -11.23515 -11.23514
 Alpha  occ. eigenvalues --   -7.74096  -6.81705  -4.88062  -4.88012  -4.87746
 Alpha  occ. eigenvalues --   -3.92433  -3.92424  -3.92388  -1.14525  -1.01542
 Alpha  occ. eigenvalues --   -1.01280  -0.97550  -0.93063  -0.83179  -0.82989
 Alpha  occ. eigenvalues --   -0.73903  -0.70470  -0.65141  -0.63399  -0.63025
 Alpha  occ. eigenvalues --   -0.59709  -0.58620  -0.58114  -0.55849  -0.55480
 Alpha  occ. eigenvalues --   -0.55396  -0.51169  -0.50239  -0.48257  -0.45701
 Alpha  occ. eigenvalues --   -0.45093  -0.40858  -0.34862  -0.34647  -0.30783
 Alpha virt. eigenvalues --    0.03020   0.03940   0.04093   0.04807   0.05419
 Alpha virt. eigenvalues --    0.05761   0.06421   0.06452   0.07192   0.07361
 Alpha virt. eigenvalues --    0.08124   0.08446   0.08961   0.09288   0.09379

 Mulliken charges:
               1
     1  P    0.203884
     2  C    0.419702
     3  C   -0.467457
     4  C    0.419705
     5  H   -0.220322
     6  H   -0.202970
     7  H   -0.213012
     8  H   -0.202966
     9  H   -0.220324
    10  H   -0.213010
    11  C    0.531836
    12  C    0.531845
    13  C    0.678734
    14  C    0.692756
    15  C    0.678735
    16  H   -0.455103
    17  H   -0.648009
    18  H   -0.455102
    19  H   -0.445472
    20  H   -0.648010
    21  Si   0.031139
    22  H    0.101711
    23  H    0.101711
 Sum of Mulliken charges =  -0.00000

 Dipole moment (field-independent basis, Debye):
    X=             -1.5676    Y=              0.0000    Z=             -1.4415  Tot=              2.1296

 Test job not archived.
 1\1\GINC-SE329\SP\RHF\Aug-CC-pVDZ\C8H13P1Si1\OHZDE\08-Apr-2025\0\\#t h
 f aug-cc-pvdz iop(5/13=1,5/36=2,99/5=2) pseudo=read geom=check guess=(
 read,tcheck) scf=(maxcycle=1)\\title\\0,1\P,0,2.587328,0.,-0.015028\C,
 0,2.121303,1.433258,-1.119392\C,0,-0.878251,-0.000001,0.61181\C,0,2.12
 1302,-1.433256,-1.119395\H,0,2.824886,-1.469676,-1.955197\H,0,1.106282
 ,-1.36297,-1.517982\H,0,2.221839,-2.367818,-0.562557\H,0,1.106282,1.36
 2973,-1.517979\H,0,2.824887,1.46968,-1.955193\H,0,2.22184,2.367819,-0.
 562551\C,0,-1.522923,1.203317,0.278866\C,0,-1.522923,-1.203317,0.27886

 Normal termination of Gaussian 16 at Tue Apr  8 23:43:01 2025.
