 Gaussian 16, Revision C.01,

 ----------------------------------------------------------------------
 #t hf aug-cc-pvdz symm=none int=(grid=ultrafine) guess=(read,tcheck) s
 table=(opt,rrhf)
 ----------------------------------------------------------------------
 -----
 title
 -----
 Symbolic Z-matrix:
 Charge =  0 Multiplicity = 1

 SCF Done:  E(RHF) =  -496.405812163     A.U. after   16 cycles

 1\1\GINC-SE364\Stability\RHF\Aug-CC-pVDZ\C9H10O2\OHZDE\08-Apr-2025\0\\
 #t hf aug-cc-pvdz symm=none int=(grid=ultrafine) guess=(read,tcheck) s
 table=(opt,rrhf)\\title\\0,1\C,0,1.990945,-1.495268,-0.372313\C,0,0.70
 8082,-0.969198,-0.502282\C,0,3.027045,-0.704281,0.118708\C,0,2.782221,
 0.621773,0.480383\C,0,1.506523,1.151495,0.346746\C,0,0.455434,0.362855
 ,-0.144527\H,0,-0.098359,-1.595264,-0.858672\H,0,2.180392,-2.525355,-0
 .652071\H,0,4.023913,-1.118887,0.220635\H,0,3.588015,1.238438,0.862136
 \H,0,1.294351,2.180317,0.610407\C,0,-0.884704,1.010944,-0.298848\O,0,-

 Normal termination of Gaussian 16 at Tue Apr  8 23:01:51 2025.
 Gaussian 16:  ES64L-G16RevC.01  3-Jul-2019

 ----------------------------------------------------------------------
 #t hf aug-cc-pvdz iop(5/13=1,5/36=2,99/5=2) pseudo=read geom=check gue
 ss=(read,tcheck) scf=(maxcycle=1)
 ----------------------------------------------------------------------
 -----
 title
 -----
 Structure from the checkpoint file:  "BDE49_expt_240_mol1.chk"
 Charge =  0 Multiplicity = 1

                         Standard orientation:
 ---------------------------------------------------------------------
 Center     Atomic      Atomic             Coordinates (Angstroms)
 Number     Number       Type             X           Y           Z
 ---------------------------------------------------------------------
      1          6           0        1.990945   -1.495268   -0.372313
      2          6           0        0.708082   -0.969198   -0.502282
      3          6           0        3.027045   -0.704281    0.118708
      4          6           0        2.782221    0.621773    0.480383
      5          6           0        1.506523    1.151495    0.346746
      6          6           0        0.455434    0.362855   -0.144527
      7          1           0       -0.098359   -1.595264   -0.858672
      8          1           0        2.180392   -2.525355   -0.652071
      9          1           0        4.023913   -1.118888    0.220635
     10          1           0        3.588015    1.238438    0.862136
     11          1           0        1.294351    2.180317    0.610407
     12          6           0       -0.884704    1.010944   -0.298848
     13          8           0       -1.039146    2.199066   -0.090482
     14          6           0       -2.093737    0.192085   -0.789640
     15          8           0       -2.270209   -1.076547   -0.191064
     16          1           0       -1.969120    0.010161   -1.862270
     17          1           0       -2.973720    0.831594   -0.648765
     18          6           0       -2.686838   -1.003457    1.164603
     19          1           0       -3.629758   -0.448496    1.258476
     20          1           0       -1.931610   -0.526281    1.802262
     21          1           0       -2.839093   -2.028055    1.503247
 ---------------------------------------------------------------------

 SCF Done:  E(RHF) =  -496.556401763     A.U. after    2 cycles

 The electronic state is 1-A.
 Alpha  occ. eigenvalues --  -20.58944 -20.56756 -11.34947 -11.30482 -11.29322
 Alpha  occ. eigenvalues --  -11.26225 -11.26041 -11.25791 -11.25653 -11.25310
 Alpha  occ. eigenvalues --  -11.25245  -1.36287  -1.34573  -1.15571  -1.04176
 Alpha  occ. eigenvalues --   -1.02197  -0.99844  -0.91503  -0.86306  -0.83887
 Alpha  occ. eigenvalues --   -0.77186  -0.72058  -0.68739  -0.68329  -0.67842
 Alpha  occ. eigenvalues --   -0.65340  -0.63315  -0.61894  -0.60146  -0.58817
 Alpha  occ. eigenvalues --   -0.57443  -0.53470  -0.53414  -0.51164  -0.50689
 Alpha  occ. eigenvalues --   -0.50314  -0.47844  -0.42062  -0.35325  -0.34948
 Alpha virt. eigenvalues --    0.03100   0.03824   0.04227   0.04736   0.05377
 Alpha virt. eigenvalues --    0.05848   0.06369   0.06604   0.07310   0.07780
 Alpha virt. eigenvalues --    0.08511   0.09554   0.10314   0.11052   0.12273

 Mulliken charges:
               1
     1  C    0.403623
     2  C    0.321232
     3  C    0.586099
     4  C    0.547176
     5  C   -0.012932
     6  C    1.205489
     7  H   -0.678944
     8  H   -0.443460
     9  H   -0.441939
    10  H   -0.427004
    11  H   -0.616771
    12  C   -0.339089
    13  O   -0.531807
    14  C    0.863448
    15  O   -0.659099
    16  H   -0.007043
    17  H   -0.091108
    18  C    0.719879
    19  H   -0.098993
    20  H   -0.062757
    21  H   -0.236002
 Sum of Mulliken charges =  -0.00000

 Dipole moment (field-independent basis, Debye):
    X=              0.8085    Y=             -2.3296    Z=              0.4585  Tot=              2.5081

 Test job not archived.
 1\1\GINC-SE364\SP\RHF\Aug-CC-pVDZ\C9H10O2\OHZDE\08-Apr-2025\0\\#t hf a
 ug-cc-pvdz iop(5/13=1,5/36=2,99/5=2) pseudo=read geom=check guess=(rea
 d,tcheck) scf=(maxcycle=1)\\title\\0,1\C,0,1.990945,-1.495268,-0.37231
 3\C,0,0.708082,-0.969198,-0.502282\C,0,3.027045,-0.704281,0.118708\C,0
 ,2.782221,0.621773,0.480383\C,0,1.506523,1.151495,0.346746\C,0,0.45543
 4,0.362855,-0.144527\H,0,-0.098359,-1.595264,-0.858672\H,0,2.180392,-2
 .525355,-0.652071\H,0,4.023913,-1.118887,0.220635\H,0,3.588015,1.23843
 8,0.862136\H,0,1.294351,2.180317,0.610407\C,0,-0.884704,1.010944,-0.29

 Normal termination of Gaussian 16 at Tue Apr  8 23:02:05 2025.
