 Gaussian 16, Revision C.01,

 ----------------------------------------------------------------------
 #t hf aug-cc-pvdz symm=none int=(grid=ultrafine) guess=(read,tcheck) s
 table=(opt,rrhf)
 ----------------------------------------------------------------------
 -----
 title
 -----
 Symbolic Z-matrix:
 Charge =  0 Multiplicity = 1

 SCF Done:  E(RHF) =  -1130.65880396     A.U. after   15 cycles
 Normal termination of Gaussian 16 at Wed Apr  9 00:11:57 2025.
 Gaussian 16:  ES64L-G16RevC.01  3-Jul-2019

 ----------------------------------------------------------------------
 #t hf aug-cc-pvdz iop(5/13=1,5/36=2,99/5=2) pseudo=read geom=check gue
 ss=(read,tcheck) scf=(maxcycle=1)
 ----------------------------------------------------------------------
 -----
 title
 -----
 Structure from the checkpoint file:  "BDE49_nonexpt_2436_mol1.chk"
 Charge =  0 Multiplicity = 1

                         Standard orientation:
 ---------------------------------------------------------------------
 Center     Atomic      Atomic             Coordinates (Angstroms)
 Number     Number       Type             X           Y           Z
 ---------------------------------------------------------------------
      1         14           0        2.815896    0.428512   -0.538906
      2         14           0        1.136776   -0.820509    0.546780
      3          6           0       -0.518688    0.166684    0.435637
      4          1           0        1.433603   -0.968684    1.990187
      5          1           0        0.960839   -2.158176   -0.065940
      6          8           0       -0.613249    1.277282    0.903958
      7         16           0       -1.869840   -0.672534   -0.418838
      8          1           0        2.434004    0.661483   -1.951361
      9          1           0        4.091551   -0.326263   -0.503765
     10          1           0        3.000235    1.729649    0.141990
     11          6           0       -3.176920    0.594236   -0.326052
     12          1           0       -3.477228    0.878995   -1.333307
     13          1           0       -2.754798    1.451688    0.200809
     14          1           0       -4.028538    0.196017    0.223388
 ---------------------------------------------------------------------

 SCF Done:  E(RHF) =  -1130.76829162     A.U. after    2 cycles

 The electronic state is 1-A.
 Alpha  occ. eigenvalues --  -93.55146 -69.08205 -69.07130 -20.58581 -11.36865
 Alpha  occ. eigenvalues --  -11.27007  -8.85015  -6.83634  -6.82546  -6.19138
 Alpha  occ. eigenvalues --   -6.18894  -6.18622  -3.94417  -3.94366  -3.94331
 Alpha  occ. eigenvalues --   -3.93301  -3.93296  -3.93286  -1.37400  -1.04636
 Alpha  occ. eigenvalues --   -0.91317  -0.78767  -0.72729  -0.68497  -0.65212
 Alpha  occ. eigenvalues --   -0.60576  -0.60085  -0.57090  -0.56567  -0.50766
 Alpha  occ. eigenvalues --   -0.49279  -0.48361  -0.46686  -0.41886  -0.38893
 Alpha  occ. eigenvalues --   -0.37180
 Alpha virt. eigenvalues --    0.03535   0.04102   0.04480   0.05761   0.06169
 Alpha virt. eigenvalues --    0.06621   0.06913   0.07320   0.07890   0.08357
 Alpha virt. eigenvalues --    0.08496   0.09124   0.09557   0.10114   0.10591

 Mulliken charges:
               1
     1  Si  -0.172347
     2  Si   0.277721
     3  C   -0.027572
     4  H    0.065334
     5  H    0.006148
     6  O   -0.502540
     7  S    0.310844
     8  H    0.052798
     9  H    0.024443
    10  H    0.050879
    11  C    0.043967
    12  H   -0.011798
    13  H   -0.098741
    14  H   -0.019136
 Sum of Mulliken charges =  -0.00000

 Dipole moment (field-independent basis, Debye):
    X=             -0.1997    Y=             -1.1063    Z=             -0.8337  Tot=              1.3996

 Test job not archived.
 1\1\GINC-SE455\SP\RHF\Aug-CC-pVDZ\C2H8O1S1Si2\OHZDE\09-Apr-2025\0\\#t
 hf aug-cc-pvdz iop(5/13=1,5/36=2,99/5=2) pseudo=read geom=check guess=
 (read,tcheck) scf=(maxcycle=1)\\title\\0,1\Si,0,2.815896,0.428512,-0.5
 38906\Si,0,1.136776,-0.820509,0.54678\C,0,-0.518688,0.166684,0.435637\
 H,0,1.433603,-0.968684,1.990187\H,0,0.960839,-2.158176,-0.06594\O,0,-0
 .613249,1.277282,0.903958\S,0,-1.86984,-0.672534,-0.418838\H,0,2.43400
 4,0.661483,-1.951361\H,0,4.091551,-0.326263,-0.503765\H,0,3.000235,1.7
 29649,0.14199\C,0,-3.17692,0.594236,-0.326052\H,0,-3.477228,0.878995,-

 Normal termination of Gaussian 16 at Wed Apr  9 00:12:02 2025.
