 Gaussian 16, Revision C.01,

 ----------------------------------------------------------------------
 #t hf aug-cc-pvdz symm=none int=(grid=ultrafine) guess=(read,tcheck) s
 table=(opt,rrhf)
 ----------------------------------------------------------------------
 -----
 title
 -----
 Symbolic Z-matrix:
 Charge =  0 Multiplicity = 1

 SCF Done:  E(RHF) =  -728.691219184     A.U. after   15 cycles

 1\1\GINC-SE039\Stability\RHF\Aug-CC-pVDZ\C7H7Cl1\OHZDE\08-Apr-2025\0\\
 #t hf aug-cc-pvdz symm=none int=(grid=ultrafine) guess=(read,tcheck) s
 table=(opt,rrhf)\\title\\0,1\C,0,-0.358647,-0.381071,0.\C,0,0.508276,-
 1.46859,0.\C,0,1.882127,-1.247412,0.\C,0,2.371413,0.055614,0.\C,0,1.48
 5199,1.128746,0.\C,0,0.098087,0.942647,0.\Cl,0,-2.091531,-0.703664,0.\
 H,0,2.561273,-2.091911,0.\H,0,3.439768,0.237886,0.\H,0,0.105451,-2.473
 263,0.\H,0,1.870517,2.142823,0.\C,0,-0.843647,2.117405,0.\H,0,-0.28715
 6,3.055798,0.\H,0,-1.49534,2.103466,0.878172\H,0,-1.49534,2.103466,-0.

 Normal termination of Gaussian 16 at Tue Apr  8 22:48:15 2025.
 Gaussian 16:  ES64L-G16RevC.01  3-Jul-2019

 ----------------------------------------------------------------------
 #t hf aug-cc-pvdz iop(5/13=1,5/36=2,99/5=2) pseudo=read geom=check gue
 ss=(read,tcheck) scf=(maxcycle=1)
 ----------------------------------------------------------------------
 -----
 title
 -----
 Structure from the checkpoint file:  "BDE49_expt_1675_mol1.chk"
 Charge =  0 Multiplicity = 1

                         Standard orientation:
 ---------------------------------------------------------------------
 Center     Atomic      Atomic             Coordinates (Angstroms)
 Number     Number       Type             X           Y           Z
 ---------------------------------------------------------------------
      1          6           0        0.000000    0.523300    0.000000
      2          6           0       -1.376638    0.721089    0.000000
      3          6           0       -2.225502   -0.381552    0.000000
      4          6           0       -1.688766   -1.665761    0.000000
      5          6           0       -0.307941   -1.839852    0.000000
      6          6           0        0.574621   -0.753667    0.000000
      7         17           0        1.040809    1.945858    0.000000
      8          1           0       -3.298844   -0.232038    0.000000
      9          1           0       -2.341830   -2.530697    0.000000
     10          1           0       -1.771857    1.728778    0.000000
     11          1           0        0.106472   -2.842391    0.000000
     12          6           0        2.065527   -0.963712    0.000000
     13          1           0        2.303419   -2.028452    0.000000
     14          1           0        2.530542   -0.506920    0.878172
     15          1           0        2.530542   -0.506920   -0.878172
 ---------------------------------------------------------------------

 SCF Done:  E(RHF) =  -728.789630422     A.U. after    2 cycles

 The electronic state is 1-A'.
 Alpha  occ. eigenvalues -- -103.66340 -11.30959 -11.26830 -11.25918 -11.25506
 Alpha  occ. eigenvalues --  -11.25412 -11.25324 -11.24116 -10.69615  -8.35347
 Alpha  occ. eigenvalues --   -8.35056  -8.35034  -1.19735  -1.13212  -1.05197
 Alpha  occ. eigenvalues --   -1.00437  -0.94051  -0.83786  -0.81038  -0.70084
 Alpha  occ. eigenvalues --   -0.66556  -0.64032  -0.59624  -0.59163  -0.58377
 Alpha  occ. eigenvalues --   -0.55431  -0.52761  -0.51605  -0.50595  -0.47573
 Alpha  occ. eigenvalues --   -0.46418  -0.34760  -0.33750
 Alpha virt. eigenvalues --    0.03290   0.03872   0.04443   0.05729   0.06171
 Alpha virt. eigenvalues --    0.06337   0.07994   0.09568   0.10266   0.10333
 Alpha virt. eigenvalues --    0.10573   0.12401   0.13098   0.13388   0.13790

 Mulliken charges:
               1
     1  C   -0.585344
     2  C    0.531329
     3  C    0.606678
     4  C    0.172638
     5  C    0.747998
     6  C    0.334920
     7  Cl  -0.470365
     8  H   -0.424458
     9  H   -0.446425
    10  H   -0.432072
    11  H   -0.560958
    12  C    0.569468
    13  H   -0.192711
    14  H    0.074651
    15  H    0.074651
 Sum of Mulliken charges =  -0.00000

 Dipole moment (field-independent basis, Debye):
    X=             -0.7552    Y=             -1.7397    Z=              0.0000  Tot=              1.8965

 Test job not archived.
 1\1\GINC-SE039\SP\RHF\Aug-CC-pVDZ\C7H7Cl1\OHZDE\08-Apr-2025\0\\#t hf a
 ug-cc-pvdz iop(5/13=1,5/36=2,99/5=2) pseudo=read geom=check guess=(rea
 d,tcheck) scf=(maxcycle=1)\\title\\0,1\C,0,-0.358647,-0.381071,0.\C,0,
 0.508276,-1.46859,0.\C,0,1.882127,-1.247412,0.\C,0,2.371413,0.055614,0
 .\C,0,1.485199,1.128746,0.\C,0,0.098087,0.942647,0.\Cl,0,-2.091531,-0.
 703664,0.\H,0,2.561273,-2.091911,0.\H,0,3.439768,0.237886,0.\H,0,0.105
 451,-2.473263,0.\H,0,1.870517,2.142823,0.\C,0,-0.843647,2.117405,0.\H,
 0,-0.287156,3.055798,0.\H,0,-1.49534,2.103466,0.878172\H,0,-1.49534,2.

 Normal termination of Gaussian 16 at Tue Apr  8 22:48:24 2025.
