 Gaussian 16, Revision C.01,

 ----------------------------------------------------------------------
 #t hf aug-cc-pvdz symm=none int=(grid=ultrafine) guess=(read,tcheck) s
 table=(opt,rrhf)
 ----------------------------------------------------------------------
 -----
 title
 -----
 Symbolic Z-matrix:
 Charge =  0 Multiplicity = 1

 SCF Done:  E(RHF) =  -689.165888972     A.U. after   15 cycles

 1\1\GINC-SE195\Stability\RHF\Aug-CC-pVDZ\C9H13P1\OHZDE\08-Apr-2025\0\\
 #t hf aug-cc-pvdz symm=none int=(grid=ultrafine) guess=(read,tcheck) s
 table=(opt,rrhf)\\title\\0,1\P,0,1.956353,-0.361541,-0.495961\C,0,3.54
 3626,-0.373403,0.470672\C,0,-0.690324,-0.210267,0.508967\C,0,1.890731,
 1.433839,-0.960399\H,0,2.648532,1.63336,-1.722105\H,0,2.064985,2.09657
 5,-0.106605\H,0,0.91429,1.661667,-1.392657\H,0,3.576959,0.405547,1.239
 055\H,0,4.382397,-0.226688,-0.214351\H,0,3.673643,-1.347638,0.948498\C
 ,0,-1.376768,0.990024,0.723043\C,0,-1.366523,-1.253753,-0.136813\C,0,-

 Normal termination of Gaussian 16 at Tue Apr  8 23:27:28 2025.
 Gaussian 16:  ES64L-G16RevC.01  3-Jul-2019

 ----------------------------------------------------------------------
 #t hf aug-cc-pvdz iop(5/13=1,5/36=2,99/5=2) pseudo=read geom=check gue
 ss=(read,tcheck) scf=(maxcycle=1)
 ----------------------------------------------------------------------
 -----
 title
 -----
 Structure from the checkpoint file:  "BDE49_nonexpt_1296_mol1.chk"
 Charge =  0 Multiplicity = 1

                         Standard orientation:
 ---------------------------------------------------------------------
 Center     Atomic      Atomic             Coordinates (Angstroms)
 Number     Number       Type             X           Y           Z
 ---------------------------------------------------------------------
      1         15           0        1.956353   -0.361541   -0.495961
      2          6           0        3.543626   -0.373403    0.470672
      3          6           0       -0.690324   -0.210267    0.508967
      4          6           0        1.890731    1.433839   -0.960399
      5          1           0        2.648532    1.633360   -1.722105
      6          1           0        2.064985    2.096575   -0.106605
      7          1           0        0.914290    1.661667   -1.392657
      8          1           0        3.576959    0.405547    1.239055
      9          1           0        4.382397   -0.226688   -0.214351
     10          1           0        3.673643   -1.347638    0.948498
     11          6           0       -1.376768    0.990024    0.723043
     12          6           0       -1.366523   -1.253753   -0.136813
     13          6           0       -2.686805   -1.102746   -0.549922
     14          6           0       -3.359139    0.098377   -0.328831
     15          6           0       -2.698711    1.144813    0.309372
     16          1           0       -3.212468    2.082713    0.489987
     17          1           0       -0.872987    1.809195    1.226174
     18          1           0       -3.192526   -1.924767   -1.044565
     19          1           0       -4.388183    0.215600   -0.649220
     20          1           0       -0.850373   -2.191045   -0.316732
     21          6           0        0.745197   -0.371357    0.943610
     22          1           0        0.882634   -1.335108    1.444669
     23          1           0        1.020104    0.410536    1.659077
 ---------------------------------------------------------------------

 SCF Done:  E(RHF) =  -689.294596189     A.U. after    2 cycles

 The electronic state is 1-A.
 Alpha  occ. eigenvalues --  -81.24737 -11.25312 -11.24395 -11.24341 -11.24194
 Alpha  occ. eigenvalues --  -11.24039 -11.23992 -11.23885 -11.23229 -11.22914
 Alpha  occ. eigenvalues --   -7.74945  -4.88954  -4.88913  -4.88576  -1.14393
 Alpha  occ. eigenvalues --   -1.04333  -1.00712  -0.98162  -0.93014  -0.92288
 Alpha  occ. eigenvalues --   -0.82784  -0.80157  -0.70316  -0.68113  -0.64306
 Alpha  occ. eigenvalues --   -0.63557  -0.59298  -0.58756  -0.58526  -0.58262
 Alpha  occ. eigenvalues --   -0.55404  -0.55169  -0.54241  -0.51553  -0.49534
 Alpha  occ. eigenvalues --   -0.49046  -0.45123  -0.45004  -0.34060  -0.32647
 Alpha  occ. eigenvalues --   -0.31589
 Alpha virt. eigenvalues --    0.03406   0.03843   0.04188   0.04668   0.05308
 Alpha virt. eigenvalues --    0.05563   0.06362   0.07079   0.07418   0.07603
 Alpha virt. eigenvalues --    0.07927   0.08742   0.09913   0.10333   0.11039

 Mulliken charges:
               1
     1  P    0.461682
     2  C    0.385622
     3  C    0.703479
     4  C    0.334018
     5  H   -0.173450
     6  H   -0.147057
     7  H   -0.178028
     8  H   -0.160710
     9  H   -0.166826
    10  H   -0.162586
    11  C    0.622079
    12  C    0.487790
    13  C    0.217350
    14  C    0.708767
    15  C    0.178626
    16  H   -0.456224
    17  H   -0.637587
    18  H   -0.459200
    19  H   -0.439800
    20  H   -0.613924
    21  C    0.117365
    22  H   -0.224664
    23  H   -0.396723
 Sum of Mulliken charges =  -0.00000

 Dipole moment (field-independent basis, Debye):
    X=              0.5348    Y=              0.7795    Z=              0.8290  Tot=              1.2574

 Test job not archived.
 1\1\GINC-SE195\SP\RHF\Aug-CC-pVDZ\C9H13P1\OHZDE\08-Apr-2025\0\\#t hf a
 ug-cc-pvdz iop(5/13=1,5/36=2,99/5=2) pseudo=read geom=check guess=(rea
 d,tcheck) scf=(maxcycle=1)\\title\\0,1\P,0,1.956353,-0.361541,-0.49596
 1\C,0,3.543626,-0.373403,0.470672\C,0,-0.690324,-0.210267,0.508967\C,0
 ,1.890731,1.433839,-0.960399\H,0,2.648532,1.63336,-1.722105\H,0,2.0649
 85,2.096575,-0.106605\H,0,0.91429,1.661667,-1.392657\H,0,3.576959,0.40
 5547,1.239055\H,0,4.382397,-0.226688,-0.214351\H,0,3.673643,-1.347638,
 0.948498\C,0,-1.376768,0.990024,0.723043\C,0,-1.366523,-1.253753,-0.13

 Normal termination of Gaussian 16 at Tue Apr  8 23:27:44 2025.
