 Gaussian 16, Revision C.01,

 ----------------------------------------------------------------------
 #t hf aug-cc-pvdz symm=none int=(grid=ultrafine) guess=(read,tcheck) s
 table=(opt,rrhf)
 ----------------------------------------------------------------------
 -----
 title
 -----
 Symbolic Z-matrix:
 Charge =  0 Multiplicity = 1

 SCF Done:  E(RHF) =  -749.699458110     A.U. after   12 cycles
 Normal termination of Gaussian 16 at Tue Apr  8 23:39:30 2025.
 Gaussian 16:  ES64L-G16RevC.01  3-Jul-2019

 ----------------------------------------------------------------------
 #t hf aug-cc-pvdz iop(5/13=1,5/36=2,99/5=2) pseudo=read geom=check gue
 ss=(read,tcheck) scf=(maxcycle=1)
 ----------------------------------------------------------------------
 -----
 title
 -----
 Structure from the checkpoint file:  "BDE49_nonexpt_1632_mol1.chk"
 Charge =  0 Multiplicity = 1

                         Standard orientation:
 ---------------------------------------------------------------------
 Center     Atomic      Atomic             Coordinates (Angstroms)
 Number     Number       Type             X           Y           Z
 ---------------------------------------------------------------------
      1         15           0       -2.118337   -0.868700   -0.193928
      2         14           0       -0.838350    0.994925    0.146613
      3          6           0        3.160525   -0.543827   -0.087623
      4          6           0        0.940425    0.695000   -0.411875
      5          6           0        1.708773   -0.382133    0.375660
      6          1           0        1.468919    1.654338   -0.337750
      7          1           0        0.926994    0.440793   -1.478897
      8          1           0        1.194029   -1.345233    0.281946
      9          1           0        1.695712   -0.134865    1.443510
     10          1           0        3.717084    0.391075    0.029542
     11          1           0        3.207183   -0.826993   -1.143574
     12          1           0        3.678775   -1.315601    0.488499
     13          1           0       -3.259028   -0.326151    0.454457
     14          1           0       -1.667981   -1.547641    0.969048
     15          1           0       -0.857931    1.427940    1.567098
     16          1           0       -1.450137    2.069649   -0.674511
 ---------------------------------------------------------------------

 SCF Done:  E(RHF) =  -749.778940439     A.U. after    2 cycles

 The electronic state is 1-A.
 Alpha  occ. eigenvalues --  -81.24463 -69.06779 -11.24092 -11.22729 -11.22584
 Alpha  occ. eigenvalues --   -7.75004  -6.82000  -4.88955  -4.88863  -4.88642
 Alpha  occ. eigenvalues --   -3.92757  -3.92736  -3.92721  -1.05104  -0.92767
 Alpha  occ. eigenvalues --   -0.81237  -0.79428  -0.66332  -0.63659  -0.57960
 Alpha  occ. eigenvalues --   -0.55201  -0.54729  -0.51394  -0.49326  -0.48238
 Alpha  occ. eigenvalues --   -0.47247  -0.44098  -0.41478  -0.34948
 Alpha virt. eigenvalues --    0.03394   0.04433   0.04512   0.04914   0.06269
 Alpha virt. eigenvalues --    0.06481   0.06935   0.07187   0.08728   0.08872
 Alpha virt. eigenvalues --    0.09382   0.10021   0.10184   0.10962   0.12081

 Mulliken charges:
               1
     1  P   -0.556913
     2  Si   0.392623
     3  C    0.419614
     4  C    0.168955
     5  C   -0.025663
     6  H   -0.187332
     7  H   -0.181591
     8  H   -0.134011
     9  H   -0.135543
    10  H   -0.072536
    11  H   -0.055285
    12  H   -0.073862
    13  H    0.156275
    14  H    0.176492
    15  H    0.113083
    16  H   -0.004304
 Sum of Mulliken charges =  -0.00000

 Dipole moment (field-independent basis, Debye):
    X=              0.9785    Y=              0.2672    Z=              0.4092  Tot=              1.0938

 Test job not archived.
 1\1\GINC-SE284\SP\RHF\Aug-CC-pVDZ\C3H11P1Si1\OHZDE\08-Apr-2025\0\\#t h
 f aug-cc-pvdz iop(5/13=1,5/36=2,99/5=2) pseudo=read geom=check guess=(
 read,tcheck) scf=(maxcycle=1)\\title\\0,1\P,0,-2.118337,-0.8687,-0.193
 928\Si,0,-0.83835,0.994925,0.146613\C,0,3.160525,-0.543827,-0.087623\C
 ,0,0.940425,0.695,-0.411875\C,0,1.708773,-0.382133,0.37566\H,0,1.46891
 9,1.654338,-0.33775\H,0,0.926994,0.440793,-1.478897\H,0,1.194029,-1.34
 5233,0.281946\H,0,1.695712,-0.134865,1.44351\H,0,3.717084,0.391075,0.0
 29542\H,0,3.207183,-0.826993,-1.143574\H,0,3.678775,-1.315601,0.488499

 Normal termination of Gaussian 16 at Tue Apr  8 23:39:35 2025.
