 Gaussian 16, Revision C.01,

 ----------------------------------------------------------------------
 #t hf aug-cc-pvdz symm=none int=(grid=ultrafine) guess=(read,tcheck) s
 table=(opt,rrhf)
 ----------------------------------------------------------------------
 -----
 title
 -----
 Symbolic Z-matrix:
 Charge =  0 Multiplicity = 1

 SCF Done:  E(RHF) =  -748.088296248     A.U. after   13 cycles
 Normal termination of Gaussian 16 at Tue Apr  8 22:30:34 2025.
 Gaussian 16:  ES64L-G16RevC.01  3-Jul-2019

 ----------------------------------------------------------------------
 #t hf aug-cc-pvdz iop(5/13=1,5/36=2,99/5=2) pseudo=read geom=check gue
 ss=(read,tcheck) scf=(maxcycle=1)
 ----------------------------------------------------------------------
 -----
 title
 -----
 Structure from the checkpoint file:  "BDE49_expt_1048_mol1.chk"
 Charge =  0 Multiplicity = 1

                         Standard orientation:
 ---------------------------------------------------------------------
 Center     Atomic      Atomic             Coordinates (Angstroms)
 Number     Number       Type             X           Y           Z
 ---------------------------------------------------------------------
      1          6           0       -0.305427   -1.544018   -0.373693
      2          6           0        0.088438   -0.718714    0.593807
      3          6           0       -0.088438    0.718714    0.593807
      4          6           0        0.305427    1.544018   -0.373693
      5          9           0       -0.686573    1.248719    1.685255
      6          9           0        0.936270    1.150628   -1.462202
      7          9           0        0.088438    2.839409   -0.369796
      8          9           0       -0.088438   -2.839409   -0.369796
      9          9           0       -0.936270   -1.150628   -1.462202
     10          9           0        0.686573   -1.248719    1.685255
 ---------------------------------------------------------------------

 SCF Done:  E(RHF) =  -748.355861271     A.U. after    2 cycles

 The electronic state is 1-A.
 Alpha  occ. eigenvalues --  -26.20874 -26.20874 -26.20684 -26.20684 -26.17165
 Alpha  occ. eigenvalues --  -26.17164 -11.48321 -11.48319 -11.39039 -11.38960
 Alpha  occ. eigenvalues --   -1.77923  -1.77790  -1.73296  -1.73206  -1.71124
 Alpha  occ. eigenvalues --   -1.70377  -1.17181  -1.10024  -0.99767  -0.95494
 Alpha  occ. eigenvalues --   -0.90910  -0.89989  -0.89199  -0.85727  -0.85355
 Alpha  occ. eigenvalues --   -0.84747  -0.81054  -0.79123  -0.79122  -0.78495
 Alpha  occ. eigenvalues --   -0.78462  -0.77404  -0.77301  -0.76573  -0.76257
 Alpha  occ. eigenvalues --   -0.73592  -0.66124  -0.47430  -0.40620
 Alpha virt. eigenvalues --    0.05834   0.06331   0.07262   0.08023   0.09015
 Alpha virt. eigenvalues --    0.10568   0.10634   0.10787   0.12658   0.12700
 Alpha virt. eigenvalues --    0.14927   0.15228   0.15593   0.15937   0.16386

 Mulliken charges:
               1
     1  C    0.680627
     2  C    0.158030
     3  C    0.158030
     4  C    0.680627
     5  F   -0.332934
     6  F   -0.251658
     7  F   -0.254065
     8  F   -0.254065
     9  F   -0.251658
    10  F   -0.332934
 Sum of Mulliken charges =  -0.00000

 Dipole moment (field-independent basis, Debye):
    X=             -0.0000    Y=             -0.0000    Z=             -0.9472  Tot=              0.9472

 Test job not archived.
 1\1\GINC-SE362\SP\RHF\Aug-CC-pVDZ\C4F6\OHZDE\08-Apr-2025\0\\#t hf aug-
 cc-pvdz iop(5/13=1,5/36=2,99/5=2) pseudo=read geom=check guess=(read,t
 check) scf=(maxcycle=1)\\title\\0,1\C,0,-0.305427,-1.544018,-0.373693\
 C,0,0.088438,-0.718714,0.593807\C,0,-0.088438,0.718714,0.593807\C,0,0.
 305427,1.544018,-0.373693\F,0,-0.686573,1.248719,1.685255\F,0,0.93627,
 1.150628,-1.462202\F,0,0.088438,2.839409,-0.369796\F,0,-0.088438,-2.83
 9409,-0.369796\F,0,-0.93627,-1.150628,-1.462202\F,0,0.686573,-1.248719
 ,1.685255\\Version=ES64L-G16RevC.01\State=1-A\HF=-748.3558613\RMSD=9.4

 Normal termination of Gaussian 16 at Tue Apr  8 22:30:38 2025.
