 Gaussian 16, Revision C.01,

 ----------------------------------------------------------------------
 #t hf aug-cc-pvdz symm=none int=(grid=ultrafine) guess=(read,tcheck) s
 table=opt
 ----------------------------------------------------------------------
 -----
 title
 -----
 Symbolic Z-matrix:
 Charge =  0 Multiplicity = 2

 SCF Done:  E(UHF) =  -964.120164832     A.U. after   17 cycles
 Normal termination of Gaussian 16 at Tue Apr  8 23:42:16 2025.
 Gaussian 16:  ES64L-G16RevC.01  3-Jul-2019

 ----------------------------------------------------------------------
 #t hf aug-cc-pvdz iop(5/13=1,5/36=2,99/5=2) pseudo=read geom=check gue
 ss=(read,tcheck) scf=(maxcycle=1)
 ----------------------------------------------------------------------
 -----
 title
 -----
 Structure from the checkpoint file:  "BDE49_nonexpt_1703_mol2.chk"
 Charge =  0 Multiplicity = 2

                         Standard orientation:
 ---------------------------------------------------------------------
 Center     Atomic      Atomic             Coordinates (Angstroms)
 Number     Number       Type             X           Y           Z
 ---------------------------------------------------------------------
      1         15           0        0.342216   -0.000003    0.127028
      2         16           0       -1.695275    0.000003   -0.171963
      3          8           0        0.519164   -0.000043    1.591837
      4          8           0        1.016904   -1.183120   -0.699711
      5          1           0        0.783717   -2.050536   -0.346970
      6          8           0        1.016900    1.183162   -0.699648
      7          1           0        0.783695    2.050559   -0.346872
 ---------------------------------------------------------------------

 SCF Done:  E(UHF) =  -964.278307749     A.U. after    2 cycles

 The electronic state is 2-A.
 Alpha  occ. eigenvalues --  -93.59230 -81.45365 -20.63836 -20.63829 -20.54546
 Alpha  occ. eigenvalues --   -8.89150  -7.93540  -6.24468  -6.22750  -6.22354
 Alpha  occ. eigenvalues --   -5.08163  -5.08070  -5.07685  -1.40601  -1.36962
 Alpha  occ. eigenvalues --   -1.27977  -1.01288  -0.87479  -0.74428  -0.71328
 Alpha  occ. eigenvalues --   -0.66986  -0.66735  -0.61204  -0.60285  -0.55024
 Alpha  occ. eigenvalues --   -0.50999  -0.49830  -0.46550  -0.43031
 Alpha virt. eigenvalues --    0.03133   0.04342   0.06743   0.09285   0.09946
 Alpha virt. eigenvalues --    0.12013   0.12332   0.12596   0.12610   0.16854
 Alpha virt. eigenvalues --    0.17699   0.19779   0.22462   0.22462   0.22898

  Beta  occ. eigenvalues --  -93.58329 -81.45403 -20.63829 -20.63823 -20.54215
  Beta  occ. eigenvalues --   -8.88148  -7.93595  -6.22242  -6.21799  -6.20490
  Beta  occ. eigenvalues --   -5.08216  -5.08101  -5.07788  -1.40588  -1.36959
  Beta  occ. eigenvalues --   -1.27074  -0.93620  -0.86546  -0.74450  -0.70447
  Beta  occ. eigenvalues --   -0.66996  -0.65887  -0.60089  -0.59916  -0.53089
  Beta  occ. eigenvalues --   -0.50620  -0.46344  -0.40770
  Beta virt. eigenvalues --   -0.02502   0.03185   0.04355   0.06909   0.09845
  Beta virt. eigenvalues --    0.10074   0.12038   0.12692   0.12753   0.13763
  Beta virt. eigenvalues --    0.17210   0.17734   0.20523   0.22501   0.22914

 Mulliken charges and spin densities:
               1          2
     1  P    2.069229  -0.093093
     2  S   -0.284591   1.063283
     3  O   -0.868015   0.037510
     4  O   -0.635186  -0.008453
     5  H    0.176875   0.004603
     6  O   -0.635188  -0.008453
     7  H    0.176876   0.004603
 Sum of Mulliken charges =  -0.00000   1.00000

 Dipole moment (field-independent basis, Debye):
    X=             -1.4091    Y=              0.0001    Z=             -2.0842  Tot=              2.5159
                          Isotropic Fermi Contact Couplings
        Atom                 a.u.       MegaHertz       Gauss      10(-4) cm-1
     1  P(31)             -0.05318     -96.31847     -34.36882     -32.12838
     2  S(33)              0.18159      62.37159      22.25574      20.80492
     3  O(17)              0.03445     -20.88370      -7.45182      -6.96605
     4  O(17)              0.00003      -0.01928      -0.00688      -0.00643
     5  H(1)              -0.00003      -0.12228      -0.04363      -0.04079
     6  O(17)              0.00003      -0.01931      -0.00689      -0.00644
     7  H(1)              -0.00003      -0.12230      -0.04364      -0.04079
 --------------------------------------------------------

 Normal termination of Gaussian 16 at Tue Apr  8 23:42:19 2025.
