 Gaussian 16, Revision C.01,

 ----------------------------------------------------------------------
 #t hf aug-cc-pvdz symm=none int=(grid=ultrafine) guess=(read,tcheck) s
 table=(opt,rrhf)
 ----------------------------------------------------------------------
 -----
 title
 -----
 Symbolic Z-matrix:
 Charge =  0 Multiplicity = 1

 SCF Done:  E(RHF) =  -304.730673653     A.U. after   12 cycles
 Normal termination of Gaussian 16 at Tue Apr  8 22:59:44 2025.
 Gaussian 16:  ES64L-G16RevC.01  3-Jul-2019

 ----------------------------------------------------------------------
 #t hf aug-cc-pvdz iop(5/13=1,5/36=2,99/5=2) pseudo=read geom=check gue
 ss=(read,tcheck) scf=(maxcycle=1)
 ----------------------------------------------------------------------
 -----
 title
 -----
 Structure from the checkpoint file:  "BDE49_expt_243_mol1.chk"
 Charge =  0 Multiplicity = 1

                         Standard orientation:
 ---------------------------------------------------------------------
 Center     Atomic      Atomic             Coordinates (Angstroms)
 Number     Number       Type             X           Y           Z
 ---------------------------------------------------------------------
      1          6           0       -1.896073    0.561250    0.000014
      2          6           0       -0.695124   -0.347350    0.000026
      3          1           0       -2.805868   -0.036769    0.000125
      4          1           0       -1.870800    1.217890   -0.873910
      5          1           0       -1.870694    1.218072    0.873796
      6          6           0        0.695124    0.347350   -0.000045
      7          6           0        1.896073   -0.561250    0.000002
      8          1           0        1.870772   -1.217897    0.873919
      9          1           0        2.805868    0.036769   -0.000076
     10          1           0        1.870722   -1.218065   -0.873787
     11          8           0       -0.754757   -1.555172    0.000075
     12          8           0        0.754757    1.555172   -0.000080
 ---------------------------------------------------------------------

 SCF Done:  E(RHF) =  -304.826667825     A.U. after    2 cycles

 The electronic state is 1-A.
 Alpha  occ. eigenvalues --  -20.59590 -20.59589 -11.36561 -11.36514 -11.25370
 Alpha  occ. eigenvalues --  -11.25370  -1.39244  -1.37463  -1.02956  -1.01746
 Alpha  occ. eigenvalues --   -0.87184  -0.73953  -0.71122  -0.67567  -0.64044
 Alpha  occ. eigenvalues --   -0.62758  -0.59643  -0.59007  -0.55731  -0.53166
 Alpha  occ. eigenvalues --   -0.52562  -0.52407  -0.42242
 Alpha virt. eigenvalues --    0.03429   0.04096   0.05064   0.05835   0.05857
 Alpha virt. eigenvalues --    0.06526   0.06624   0.08896   0.11343   0.12344
 Alpha virt. eigenvalues --    0.12763   0.13338   0.15311   0.15619   0.15774

 Mulliken charges:
               1
     1  C    0.418507
     2  C    0.026943
     3  H   -0.080645
     4  H    0.068936
     5  H    0.068919
     6  C    0.026943
     7  C    0.418507
     8  H    0.068931
     9  H   -0.080645
    10  H    0.068924
    11  O   -0.502661
    12  O   -0.502661
 Sum of Mulliken charges =  -0.00000

 Dipole moment (field-independent basis, Debye):
    X=              0.0000    Y=              0.0000    Z=             -0.0000  Tot=              0.0000

 Test job not archived.
 1\1\GINC-SE435\SP\RHF\Aug-CC-pVDZ\C4H6O2\OHZDE\08-Apr-2025\0\\#t hf au
 g-cc-pvdz iop(5/13=1,5/36=2,99/5=2) pseudo=read geom=check guess=(read
 ,tcheck) scf=(maxcycle=1)\\title\\0,1\C,0,1.896073,0.56125,-0.000014\C
 ,0,0.695124,-0.34735,-0.000026\H,0,2.805868,-0.036768,-0.000125\H,0,1.
 8708,1.21789,0.87391\H,0,1.870694,1.218072,-0.873796\C,0,-0.695124,0.3
 4735,0.000045\C,0,-1.896073,-0.56125,-0.000002\H,0,-1.870772,-1.217897
 ,-0.873919\H,0,-2.805868,0.036768,0.000076\H,0,-1.870722,-1.218065,0.8
 73787\O,0,0.754757,-1.555172,-0.000075\O,0,-0.754757,1.555172,0.00008\

 Normal termination of Gaussian 16 at Tue Apr  8 22:59:48 2025.
