 Gaussian 16, Revision C.01,

 ----------------------------------------------------------------------
 #t hf aug-cc-pvdz symm=none int=(grid=ultrafine) guess=(read,tcheck) s
 table=(opt,rrhf)
 ----------------------------------------------------------------------
 -----
 title
 -----
 Symbolic Z-matrix:
 Charge =  0 Multiplicity = 1

 SCF Done:  E(RHF) =  -779.756418788     A.U. after   16 cycles
 Normal termination of Gaussian 16 at Tue Apr  8 23:37:43 2025.
 Gaussian 16:  ES64L-G16RevC.01  3-Jul-2019

 ----------------------------------------------------------------------
 #t hf aug-cc-pvdz iop(5/13=1,5/36=2,99/5=2) pseudo=read geom=check gue
 ss=(read,tcheck) scf=(maxcycle=1)
 ----------------------------------------------------------------------
 -----
 title
 -----
 Structure from the checkpoint file:  "BDE49_nonexpt_1503_mol1.chk"
 Charge =  0 Multiplicity = 1

                         Standard orientation:
 ---------------------------------------------------------------------
 Center     Atomic      Atomic             Coordinates (Angstroms)
 Number     Number       Type             X           Y           Z
 ---------------------------------------------------------------------
      1          6           0        1.811378   -1.614712   -0.082659
      2          6           0        3.170310   -1.415625   -0.033549
      3          6           0        3.697707   -0.106283    0.049084
      4          6           0        2.854459    0.978805    0.080577
      5          6           0        1.447981    0.807029    0.031157
      6          6           0        0.913185   -0.516360   -0.051835
      7          1           0        1.405356   -2.618927   -0.147071
      8          1           0        3.845159   -2.263969   -0.058603
      9          1           0        4.771653    0.037660    0.086950
     10          1           0        3.256755    1.984740    0.143456
     11          6           0       -0.495552   -0.690890   -0.099993
     12          6           0       -1.352463    0.385947   -0.061660
     13          6           0        0.543370    1.902169    0.060752
     14          6           0       -0.811387    1.700031    0.012417
     15          1           0        0.942916    2.909282    0.124219
     16          1           0       -1.481134    2.554717    0.038437
     17          7           0       -3.415146   -1.410716    0.284180
     18          1           0       -0.900536   -1.695226   -0.163032
     19         15           0       -3.175592    0.197635   -0.233706
     20          1           0       -3.492017    0.960638    0.928825
     21          1           0       -4.215299   -1.876954   -0.114954
     22          1           0       -3.266883   -1.662143    1.252371
 ---------------------------------------------------------------------

 SCF Done:  E(RHF) =  -779.909286207     A.U. after    2 cycles

 The electronic state is 1-A.
 Alpha  occ. eigenvalues --  -81.27914 -15.62197 -11.25319 -11.25217 -11.24923
 Alpha  occ. eigenvalues --  -11.24854 -11.24757 -11.24732 -11.24687 -11.24586
 Alpha  occ. eigenvalues --  -11.24533 -11.24369  -7.77871  -4.92035  -4.91883
 Alpha  occ. eigenvalues --   -4.91536  -1.16639  -1.12639  -1.10132  -1.04373
 Alpha  occ. eigenvalues --   -1.00538  -0.97878  -0.86206  -0.84292  -0.81526
 Alpha  occ. eigenvalues --   -0.76774  -0.70701  -0.69710  -0.67543  -0.66326
 Alpha  occ. eigenvalues --   -0.62702  -0.61134  -0.59669  -0.58642  -0.56625
 Alpha  occ. eigenvalues --   -0.55209  -0.53765  -0.52011  -0.48875  -0.47674
 Alpha  occ. eigenvalues --   -0.45667  -0.40815  -0.39177  -0.36166  -0.31070
 Alpha  occ. eigenvalues --   -0.28775
 Alpha virt. eigenvalues --    0.03223   0.03585   0.03860   0.04824   0.05310
 Alpha virt. eigenvalues --    0.05523   0.06556   0.07115   0.07494   0.08301
 Alpha virt. eigenvalues --    0.08803   0.09241   0.10372   0.10466   0.11518

 Mulliken charges:
               1
     1  C    0.531532
     2  C    0.315814
     3  C    0.348783
     4  C    0.680213
     5  C   -0.019662
     6  C    0.882612
     7  H   -0.575104
     8  H   -0.450810
     9  H   -0.449190
    10  H   -0.578175
    11  C    0.212937
    12  C   -0.068010
    13  C    0.793207
    14  C    0.147288
    15  H   -0.641189
    16  H   -0.624691
    17  N   -0.455179
    18  H   -0.654834
    19  P    0.576425
    20  H    0.067167
    21  H   -0.002496
    22  H   -0.036637
 Sum of Mulliken charges =  -0.00000

 Dipole moment (field-independent basis, Debye):
    X=             -0.2954    Y=             -0.7998    Z=              1.2758  Tot=              1.5345

 Test job not archived.
 1\1\GINC-SE435\SP\RHF\Aug-CC-pVDZ\C10H10N1P1\OHZDE\08-Apr-2025\0\\#t h
 f aug-cc-pvdz iop(5/13=1,5/36=2,99/5=2) pseudo=read geom=check guess=(
 read,tcheck) scf=(maxcycle=1)\\title\\0,1\C,0,1.811378,-1.614712,-0.08
 2659\C,0,3.17031,-1.415625,-0.033549\C,0,3.697707,-0.106283,0.049084\C
 ,0,2.854459,0.978805,0.080577\C,0,1.447981,0.807029,0.031157\C,0,0.913
 185,-0.51636,-0.051835\H,0,1.405356,-2.618927,-0.147071\H,0,3.845159,-
 2.263969,-0.058603\H,0,4.771653,0.03766,0.08695\H,0,3.256755,1.98474,0
 .143456\C,0,-0.495552,-0.69089,-0.099993\C,0,-1.352463,0.385947,-0.061

 Normal termination of Gaussian 16 at Tue Apr  8 23:37:58 2025.
