 Gaussian 16, Revision C.01,

 ----------------------------------------------------------------------
 #t hf aug-cc-pvdz symm=none int=(grid=ultrafine) guess=(read,tcheck) s
 table=opt
 ----------------------------------------------------------------------
 -----
 title
 -----
 Symbolic Z-matrix:
 Charge =  0 Multiplicity = 2

 SCF Done:  E(UHF) =  -597.351105290     A.U. after   15 cycles
 Normal termination of Gaussian 16 at Tue Apr  8 22:27:15 2025.
 Gaussian 16:  ES64L-G16RevC.01  3-Jul-2019

 ----------------------------------------------------------------------
 #t hf aug-cc-pvdz iop(5/13=1,5/36=2,99/5=2) pseudo=read geom=check gue
 ss=(read,tcheck) scf=(maxcycle=1)
 ----------------------------------------------------------------------
 -----
 title
 -----
 Structure from the checkpoint file:  "BDE49_expt_1003_mol2.chk"
 Charge =  0 Multiplicity = 2

                         Standard orientation:
 ---------------------------------------------------------------------
 Center     Atomic      Atomic             Coordinates (Angstroms)
 Number     Number       Type             X           Y           Z
 ---------------------------------------------------------------------
      1          6           0        0.547417    0.548918   -0.132031
      2         17           0       -1.044769   -0.101588    0.011154
      3          9           0        1.528446   -0.340873    0.027174
      4          1           0        0.720566    1.501342    0.357996
 ---------------------------------------------------------------------

 SCF Done:  E(UHF) =  -597.420993700     A.U. after    2 cycles

 The electronic state is 2-A.
 Alpha  occ. eigenvalues -- -103.69031 -26.16646 -11.41149 -10.72372  -8.38090
 Alpha  occ. eigenvalues --   -8.37839  -8.37758  -1.71321  -1.20979  -0.96873
 Alpha  occ. eigenvalues --   -0.81536  -0.79846  -0.75684  -0.60684  -0.55164
 Alpha  occ. eigenvalues --   -0.49876  -0.41167
 Alpha virt. eigenvalues --    0.03688   0.07414   0.09452   0.10234   0.13003
 Alpha virt. eigenvalues --    0.15565   0.15940   0.16048   0.21924   0.25107
 Alpha virt. eigenvalues --    0.26706   0.27687   0.30086   0.32070   0.33289

  Beta  occ. eigenvalues -- -103.68972 -26.16182 -11.38266 -10.72306  -8.38144
  Beta  occ. eigenvalues --   -8.37727  -8.37528  -1.69937  -1.19398  -0.92432
  Beta  occ. eigenvalues --   -0.79677  -0.75416  -0.72774  -0.58780  -0.50350
  Beta  occ. eigenvalues --   -0.49630
  Beta virt. eigenvalues --    0.03722   0.06711   0.07620   0.09604   0.13128
  Beta virt. eigenvalues --    0.13406   0.15670   0.16325   0.17596   0.24021
  Beta virt. eigenvalues --    0.25629   0.27515   0.28250   0.30920   0.32626

 Mulliken charges and spin densities:
               1          2
     1  C    0.446596   1.068047
     2  Cl  -0.100677  -0.011362
     3  F   -0.306318   0.011654
     4  H   -0.039601  -0.068339
 Sum of Mulliken charges =  -0.00000   1.00000

 Dipole moment (field-independent basis, Debye):
    X=             -0.1148    Y=              1.6040    Z=              0.2850  Tot=              1.6331
                          Isotropic Fermi Contact Couplings
        Atom                 a.u.       MegaHertz       Gauss      10(-4) cm-1
     1  C(13)              0.41262     463.86729     165.51938     154.72947
     2  Cl(35)             0.04978      21.82852       7.78896       7.28121
     3  F(19)              0.06341     266.78228      95.19455      88.98899
     4  H(1)              -0.00923     -41.25691     -14.72149     -13.76183
 --------------------------------------------------------
       Center         ----  Spin Dipole Couplings  ----
                      3XX-RR        3YY-RR        3ZZ-RR
 --------------------------------------------------------

 Normal termination of Gaussian 16 at Tue Apr  8 22:27:17 2025.
