 Gaussian 16, Revision C.01,

 ----------------------------------------------------------------------
 #t hf aug-cc-pvdz symm=none int=(grid=ultrafine) guess=(read,tcheck) s
 table=(opt,rrhf)
 ----------------------------------------------------------------------
 -----
 title
 -----
 Symbolic Z-matrix:
 Charge =  0 Multiplicity = 1

 SCF Done:  E(RHF) =  -899.884272479     A.U. after   14 cycles
 Normal termination of Gaussian 16 at Tue Apr  8 23:13:25 2025.
 Gaussian 16:  ES64L-G16RevC.01  3-Jul-2019

 ----------------------------------------------------------------------
 #t hf aug-cc-pvdz iop(5/13=1,5/36=2,99/5=2) pseudo=read geom=check gue
 ss=(read,tcheck) scf=(maxcycle=1)
 ----------------------------------------------------------------------
 -----
 title
 -----
 Structure from the checkpoint file:  "BDE49_expt_694_mol1.chk"
 Charge =  0 Multiplicity = 1

                         Standard orientation:
 ---------------------------------------------------------------------
 Center     Atomic      Atomic             Coordinates (Angstroms)
 Number     Number       Type             X           Y           Z
 ---------------------------------------------------------------------
      1          6           0       -1.392194   -0.699199   -0.045246
      2          6           0       -0.079838   -1.447411    0.027117
      3          6           0        0.944126   -0.605412    0.001755
      4          6           0        0.534416    0.851312   -0.094923
      5          7           0       -0.901455    0.650228   -0.459595
      6          6           0       -2.327735   -1.234541   -1.139204
      7          1           0       -1.805436   -1.269854   -2.096112
      8          1           0       -3.187624   -0.568454   -1.243353
      9          1           0       -2.693046   -2.236342   -0.893549
     10          6           0       -2.114861   -0.729725    1.319983
     11          1           0       -1.486138   -0.348953    2.128200
     12          1           0       -2.382112   -1.758567    1.572793
     13          1           0       -3.040074   -0.149112    1.281574
     14          6           0        0.767384    1.581336    1.244835
     15          1           0        0.273275    1.079626    2.080154
     16          1           0        0.411131    2.612162    1.184108
     17          1           0        1.836103    1.611106    1.466375
     18          6           0        1.223657    1.614701   -1.233312
     19          1           0        1.125019    1.065100   -2.170204
     20          1           0        2.283583    1.776183   -1.022596
     21          1           0        0.738002    2.585734   -1.353070
     22          8           0       -1.746220    1.717914   -0.093195
     23          1           0       -1.764390    1.765644    0.876471
     24         17           0        2.627062   -1.054148    0.092180
     25          1           0       -0.018116   -2.525024    0.098840
 ---------------------------------------------------------------------

 SCF Done:  E(RHF) =  -900.034072050     A.U. after    2 cycles

 The electronic state is 1-A.
 Alpha  occ. eigenvalues -- -103.67113 -20.60747 -15.66815 -11.30680 -11.29521
 Alpha  occ. eigenvalues --  -11.29178 -11.25423 -11.23918 -11.23771 -11.22612
 Alpha  occ. eigenvalues --  -11.22366 -10.70360  -8.36102  -8.35799  -8.35785
 Alpha  occ. eigenvalues --   -1.36788  -1.21008  -1.15561  -1.07820  -1.00195
 Alpha  occ. eigenvalues --   -0.98227  -0.94181  -0.93523  -0.84600  -0.78229
 Alpha  occ. eigenvalues --   -0.74841  -0.70650  -0.65856  -0.63295  -0.62913
 Alpha  occ. eigenvalues --   -0.61918  -0.59773  -0.58110  -0.56861  -0.55809
 Alpha  occ. eigenvalues --   -0.54923  -0.54585  -0.54283  -0.52568  -0.51518
 Alpha  occ. eigenvalues --   -0.50331  -0.49436  -0.48276  -0.46340  -0.45577
 Alpha  occ. eigenvalues --   -0.37971  -0.35460
 Alpha virt. eigenvalues --    0.03215   0.03787   0.04394   0.04614   0.05909
 Alpha virt. eigenvalues --    0.06107   0.06309   0.06853   0.07411   0.08251
 Alpha virt. eigenvalues --    0.08533   0.08765   0.09439   0.09964   0.11013

 Mulliken charges:
               1
     1  C   -1.739001
     2  C    1.156247
     3  C   -0.388765
     4  C   -1.450721
     5  N   -0.138775
     6  C    1.057590
     7  H   -0.020023
     8  H   -0.010638
     9  H    0.037079
    10  C    0.868052
    11  H   -0.087806
    12  H   -0.057783
    13  H    0.057873
    14  C    0.877570
    15  H   -0.080204
    16  H    0.055888
    17  H   -0.039759
    18  C    1.011415
    19  H   -0.005788
    20  H    0.042237
    21  H    0.013476
    22  O   -0.722323
    23  H    0.268531
    24  Cl  -0.288338
    25  H   -0.416034
 Sum of Mulliken charges =   0.00000

 Dipole moment (field-independent basis, Debye):
    X=             -0.8695    Y=             -0.6321    Z=              2.0214  Tot=              2.2895

 Test job not archived.
 1\1\GINC-SE099\SP\RHF\Aug-CC-pVDZ\C8H14Cl1N1O1\OHZDE\08-Apr-2025\0\\#t
  hf aug-cc-pvdz iop(5/13=1,5/36=2,99/5=2) pseudo=read geom=check guess
 =(read,tcheck) scf=(maxcycle=1)\\title\\0,1\C,0,-1.392194,-0.699199,-0
 .045246\C,0,-0.079838,-1.447411,0.027117\C,0,0.944126,-0.605412,0.0017
 55\C,0,0.534416,0.851312,-0.094923\N,0,-0.901455,0.650228,-0.459595\C,
 0,-2.327735,-1.234542,-1.139204\H,0,-1.805436,-1.269854,-2.096112\H,0,
 -3.187624,-0.568455,-1.243353\H,0,-2.693045,-2.236343,-0.893549\C,0,-2
 .114861,-0.729726,1.319983\H,0,-1.486138,-0.348953,2.1282\H,0,-2.38211

 Normal termination of Gaussian 16 at Tue Apr  8 23:13:47 2025.
