 Gaussian 16, Revision C.01,

 ----------------------------------------------------------------------
 #t hf aug-cc-pvdz symm=none int=(grid=ultrafine) guess=(read,tcheck) s
 table=(opt,rrhf)
 ----------------------------------------------------------------------
 -----
 title
 -----
 Symbolic Z-matrix:
 Charge =  0 Multiplicity = 1

 SCF Done:  E(RHF) =  -753.549710624     A.U. after   14 cycles
 Normal termination of Gaussian 16 at Tue Apr  8 23:49:32 2025.
 Gaussian 16:  ES64L-G16RevC.01  3-Jul-2019

 ----------------------------------------------------------------------
 #t hf aug-cc-pvdz iop(5/13=1,5/36=2,99/5=2) pseudo=read geom=check gue
 ss=(read,tcheck) scf=(maxcycle=1)
 ----------------------------------------------------------------------
 -----
 title
 -----
 Structure from the checkpoint file:  "BDE49_nonexpt_1876_mol1.chk"
 Charge =  0 Multiplicity = 1

                         Standard orientation:
 ---------------------------------------------------------------------
 Center     Atomic      Atomic             Coordinates (Angstroms)
 Number     Number       Type             X           Y           Z
 ---------------------------------------------------------------------
      1         14           0        0.480320    1.116025   -0.116595
      2          6           0       -1.060012    0.565668    0.844353
      3          6           0        1.803112   -0.252416    0.128225
      4          8           0        1.820261   -1.103086    0.950315
      5          1           0        1.040592    2.345682    0.478733
      6          1           0        0.219229    1.298748   -1.555286
      7          9           0        2.838925   -0.130501   -0.766172
      8          6           0       -2.031802   -0.189964    0.001104
      9          8           0       -3.150361    0.066293   -0.277472
     10          9           0       -1.433727   -1.318427   -0.505615
     11          1           0       -1.568513    1.418918    1.292685
     12          1           0       -0.689558   -0.092727    1.637452
 ---------------------------------------------------------------------

 SCF Done:  E(RHF) =  -753.729848737     A.U. after    2 cycles

 The electronic state is 1-A.
 Alpha  occ. eigenvalues --  -69.12960 -26.16366 -26.15962 -20.62352 -20.61300
 Alpha  occ. eigenvalues --  -11.45882 -11.43885 -11.28923  -6.88201  -3.99010
 Alpha  occ. eigenvalues --   -3.98963  -3.98941  -1.70406  -1.69837  -1.42040
 Alpha  occ. eigenvalues --   -1.41878  -1.06453  -0.92557  -0.89706  -0.82102
 Alpha  occ. eigenvalues --   -0.78946  -0.78299  -0.77248  -0.76346  -0.74680
 Alpha  occ. eigenvalues --   -0.70942  -0.66342  -0.64319  -0.60843  -0.59662
 Alpha  occ. eigenvalues --   -0.58669  -0.54200  -0.52209  -0.50367  -0.49708
 Alpha virt. eigenvalues --    0.02564   0.03962   0.04515   0.05183   0.06603
 Alpha virt. eigenvalues --    0.06939   0.07148   0.08655   0.09271   0.10244
 Alpha virt. eigenvalues --    0.11393   0.12427   0.12998   0.13534   0.13838

 Mulliken charges:
               1
     1  Si   0.589855
     2  C    0.057254
     3  C    0.429908
     4  O   -0.390087
     5  H    0.007290
     6  H    0.104498
     7  F   -0.392165
     8  C    0.412525
     9  O   -0.343613
    10  F   -0.391302
    11  H   -0.130282
    12  H    0.046120
 Sum of Mulliken charges =  -0.00000

 Dipole moment (field-independent basis, Debye):
    X=              0.1919    Y=              3.6964    Z=              1.4018  Tot=              3.9580

 Test job not archived.
 1\1\GINC-SE423\SP\RHF\Aug-CC-pVDZ\C3H4F2O2Si1\OHZDE\08-Apr-2025\0\\#t
 hf aug-cc-pvdz iop(5/13=1,5/36=2,99/5=2) pseudo=read geom=check guess=
 (read,tcheck) scf=(maxcycle=1)\\title\\0,1\Si,0,0.48032,1.116025,-0.11
 6595\C,0,-1.060012,0.565668,0.844353\C,0,1.803112,-0.252416,0.128225\O
 ,0,1.820261,-1.103086,0.950315\H,0,1.040592,2.345682,0.478733\H,0,0.21
 9229,1.298748,-1.555286\F,0,2.838925,-0.130501,-0.766172\C,0,-2.031802
 ,-0.189964,0.001104\O,0,-3.150361,0.066293,-0.277472\F,0,-1.433727,-1.
 318427,-0.505615\H,0,-1.568513,1.418918,1.292685\H,0,-0.689558,-0.0927

 Normal termination of Gaussian 16 at Tue Apr  8 23:49:37 2025.
