 Gaussian 16, Revision C.01,

 ----------------------------------------------------------------------
 #t hf aug-cc-pvdz symm=none int=(grid=ultrafine) guess=(read,tcheck) s
 table=opt
 ----------------------------------------------------------------------
 -----
 title
 -----
 Symbolic Z-matrix:
 Charge =  0 Multiplicity = 2

 SCF Done:  E(UHF) =  -634.978957273     A.U. after   23 cycles
 Normal termination of Gaussian 16 at Wed Apr  9 00:31:04 2025.
 Gaussian 16:  ES64L-G16RevC.01  3-Jul-2019

 ----------------------------------------------------------------------
 #t hf aug-cc-pvdz iop(5/13=1,5/36=2,99/5=2) pseudo=read geom=check gue
 ss=(read,tcheck) scf=(maxcycle=1)
 ----------------------------------------------------------------------
 -----
 title
 -----
 Structure from the checkpoint file:  "BDE49_nonexpt_396_mol2.chk"
 Charge =  0 Multiplicity = 2

                         Standard orientation:
 ---------------------------------------------------------------------
 Center     Atomic      Atomic             Coordinates (Angstroms)
 Number     Number       Type             X           Y           Z
 ---------------------------------------------------------------------
      1          9           0       -2.246582   -0.585590   -0.229226
      2          5           0       -1.294744   -0.155010    0.544886
      3          6           0        0.059638    0.517664    0.091638
      4          8           0        0.155019    1.708225   -0.079590
      5         16           0        1.513779   -0.563830   -0.052699
      6          1           0        0.874512   -1.705147    0.268692
 ---------------------------------------------------------------------

 SCF Done:  E(UHF) =  -635.083875217     A.U. after    2 cycles

 The electronic state is 2-A.
 Alpha  occ. eigenvalues --  -93.58014 -26.18669 -20.60967 -11.39174  -8.87837
 Alpha  occ. eigenvalues --   -7.75341  -6.21961  -6.21760  -6.21377  -1.73190
 Alpha  occ. eigenvalues --   -1.40124  -1.03216  -0.90585  -0.84413  -0.79985
 Alpha  occ. eigenvalues --   -0.78631  -0.71568  -0.66071  -0.61090  -0.54491
 Alpha  occ. eigenvalues --   -0.46463  -0.41520  -0.38354
 Alpha virt. eigenvalues --    0.02944   0.04115   0.05355   0.05430   0.06945
 Alpha virt. eigenvalues --    0.07567   0.09344   0.10068   0.11740   0.13450
 Alpha virt. eigenvalues --    0.14363   0.15053   0.16284   0.17549   0.19647

  Beta  occ. eigenvalues --  -93.58004 -26.18338 -20.60361 -11.39128  -8.87825
  Beta  occ. eigenvalues --   -7.73404  -6.21905  -6.21745  -6.21389  -1.72254
  Beta  occ. eigenvalues --   -1.38843  -1.02865  -0.89170  -0.82335  -0.78761
  Beta  occ. eigenvalues --   -0.77482  -0.70375  -0.65343  -0.57890  -0.54309
  Beta  occ. eigenvalues --   -0.43680  -0.40464
  Beta virt. eigenvalues --    0.01967   0.03916   0.05180   0.05538   0.05973
  Beta virt. eigenvalues --    0.07572   0.09180   0.10770   0.11790   0.12434
  Beta virt. eigenvalues --    0.13568   0.15017   0.15385   0.16623   0.19125

 Mulliken charges and spin densities:
               1          2
     1  F   -0.238054  -0.035377
     2  B    0.347179   0.967399
     3  C    0.062764  -0.081796
     4  O   -0.446097   0.137955
     5  S    0.241735   0.014035
     6  H    0.032473  -0.002217
 Sum of Mulliken charges =   0.00000   1.00000

 Dipole moment (field-independent basis, Debye):
    X=             -0.2606    Y=             -2.8133    Z=              0.8289  Tot=              2.9444
                          Isotropic Fermi Contact Couplings
        Atom                 a.u.       MegaHertz       Gauss      10(-4) cm-1
     1  F(19)              0.06603     277.82191      99.13377      92.67141
     2  B(11)              0.35219     505.16752     180.25633     168.50575
     3  C(13)              0.06293      70.73981      25.24172      23.59626
     4  O(17)              0.04890     -29.64153     -10.57683      -9.88735
     5  S(33)             -0.00083      -0.28482      -0.10163      -0.09500
     6  H(1)              -0.00053      -2.35364      -0.83984      -0.78509
 --------------------------------------------------------
       Center         ----  Spin Dipole Couplings  ----

 Normal termination of Gaussian 16 at Wed Apr  9 00:31:07 2025.
