 Gaussian 16, Revision C.01,

 ----------------------------------------------------------------------
 #t hf aug-cc-pvdz symm=none int=(grid=ultrafine) guess=(read,tcheck) s
 table=(opt,rrhf)
 ----------------------------------------------------------------------
 -----
 title
 -----
 Symbolic Z-matrix:
 Charge =  0 Multiplicity = 1

 SCF Done:  E(RHF) =  -1075.17218760     A.U. after   12 cycles

 1\1\GINC-SE343\Stability\RHF\Aug-CC-pVDZ\C4H8Cl2\OHZDE\08-Apr-2025\0\\
 #t hf aug-cc-pvdz symm=none int=(grid=ultrafine) guess=(read,tcheck) s
 table=(opt,rrhf)\\title\\0,1\C,0,-1.983199,1.500726,-0.284886\H,0,-1.5
 39367,2.488904,-0.44285\H,0,-2.539505,1.517034,0.655226\H,0,-2.68422,1
 .306319,-1.097227\C,0,-0.882773,0.452661,-0.251961\C,0,0.108782,0.6614
 19,0.889105\H,0,-0.357967,0.412651,-1.205612\Cl,0,-1.648969,-1.216413,
 -0.103814\C,0,1.309035,-0.271408,0.902352\H,0,-0.416819,0.544988,1.843
 998\H,0,0.461563,1.697331,0.840081\Cl,0,2.403314,0.004131,-0.529139\H,

 Normal termination of Gaussian 16 at Tue Apr  8 22:29:39 2025.
 Gaussian 16:  ES64L-G16RevC.01  3-Jul-2019

 ----------------------------------------------------------------------
 #t hf aug-cc-pvdz iop(5/13=1,5/36=2,99/5=2) pseudo=read geom=check gue
 ss=(read,tcheck) scf=(maxcycle=1)
 ----------------------------------------------------------------------
 -----
 title
 -----
 Structure from the checkpoint file:  "BDE49_expt_1031_mol1.chk"
 Charge =  0 Multiplicity = 1

                         Standard orientation:
 ---------------------------------------------------------------------
 Center     Atomic      Atomic             Coordinates (Angstroms)
 Number     Number       Type             X           Y           Z
 ---------------------------------------------------------------------
      1          6           0       -1.983199    1.500726   -0.284886
      2          1           0       -1.539367    2.488904   -0.442850
      3          1           0       -2.539505    1.517034    0.655226
      4          1           0       -2.684220    1.306319   -1.097227
      5          6           0       -0.882773    0.452661   -0.251961
      6          6           0        0.108782    0.661419    0.889105
      7          1           0       -0.357967    0.412651   -1.205612
      8         17           0       -1.648969   -1.216413   -0.103814
      9          6           0        1.309035   -0.271408    0.902352
     10          1           0       -0.416819    0.544988    1.843998
     11          1           0        0.461563    1.697331    0.840081
     12         17           0        2.403314    0.004130   -0.529139
     13          1           0        1.013766   -1.317358    0.857927
     14          1           0        1.927617   -0.101456    1.780998
 ---------------------------------------------------------------------

 SCF Done:  E(RHF) =  -1075.25668616     A.U. after    2 cycles

 The electronic state is 1-A.
 Alpha  occ. eigenvalues -- -103.65118-103.64660 -11.31894 -11.31241 -11.26797
 Alpha  occ. eigenvalues --  -11.24985 -10.68394 -10.67945  -8.34108  -8.33835
 Alpha  occ. eigenvalues --   -8.33821  -8.33651  -8.33391  -8.33377  -1.17805
 Alpha  occ. eigenvalues --   -1.15324  -1.05137  -0.99400  -0.88078  -0.80371
 Alpha  occ. eigenvalues --   -0.67554  -0.65172  -0.62395  -0.60073  -0.57155
 Alpha  occ. eigenvalues --   -0.54035  -0.53363  -0.51580  -0.49844  -0.45552
 Alpha  occ. eigenvalues --   -0.45272  -0.44410  -0.44178
 Alpha virt. eigenvalues --    0.03331   0.04052   0.05128   0.05274   0.06597
 Alpha virt. eigenvalues --    0.06926   0.07517   0.08001   0.10393   0.10754
 Alpha virt. eigenvalues --    0.11767   0.13495   0.14274   0.15260   0.15696

 Mulliken charges:
               1
     1  C    0.606586
     2  H   -0.012831
     3  H   -0.009075
     4  H   -0.050866
     5  C   -0.477336
     6  C    0.301897
     7  H   -0.082052
     8  Cl  -0.216724
     9  C    0.190939
    10  H   -0.055452
    11  H   -0.092102
    12  Cl  -0.154390
    13  H    0.021130
    14  H    0.030277
 Sum of Mulliken charges =  -0.00000

 Dipole moment (field-independent basis, Debye):
    X=             -0.6178    Y=              2.1326    Z=              1.6663  Tot=              2.7760

 Test job not archived.
 1\1\GINC-SE343\SP\RHF\Aug-CC-pVDZ\C4H8Cl2\OHZDE\08-Apr-2025\0\\#t hf a
 ug-cc-pvdz iop(5/13=1,5/36=2,99/5=2) pseudo=read geom=check guess=(rea
 d,tcheck) scf=(maxcycle=1)\\title\\0,1\C,0,-1.983199,1.500726,-0.28488
 6\H,0,-1.539367,2.488904,-0.44285\H,0,-2.539505,1.517034,0.655226\H,0,
 -2.68422,1.306319,-1.097227\C,0,-0.882773,0.452661,-0.251961\C,0,0.108
 782,0.661419,0.889105\H,0,-0.357967,0.412651,-1.205612\Cl,0,-1.648969,
 -1.216413,-0.103814\C,0,1.309035,-0.271408,0.902352\H,0,-0.416819,0.54
 4988,1.843998\H,0,0.461563,1.697331,0.840081\Cl,0,2.403314,0.004131,-0

 Normal termination of Gaussian 16 at Tue Apr  8 22:29:43 2025.
