 Gaussian 16, Revision C.01,

 ----------------------------------------------------------------------
 #t hf aug-cc-pvdz symm=none int=(grid=ultrafine) guess=(read,tcheck) s
 table=opt
 ----------------------------------------------------------------------
 -----
 title
 -----
 Symbolic Z-matrix:
 Charge =  0 Multiplicity = 2

 SCF Done:  E(UHF) =  -865.478201921     A.U. after   18 cycles
 Normal termination of Gaussian 16 at Wed Apr  9 00:06:25 2025.
 Gaussian 16:  ES64L-G16RevC.01  3-Jul-2019

 ----------------------------------------------------------------------
 #t hf aug-cc-pvdz iop(5/13=1,5/36=2,99/5=2) pseudo=read geom=check gue
 ss=(read,tcheck) scf=(maxcycle=1)
 ----------------------------------------------------------------------
 -----
 title
 -----
 Structure from the checkpoint file:  "BDE49_nonexpt_224_mol2.chk"
 Charge =  0 Multiplicity = 2

                         Standard orientation:
 ---------------------------------------------------------------------
 Center     Atomic      Atomic             Coordinates (Angstroms)
 Number     Number       Type             X           Y           Z
 ---------------------------------------------------------------------
      1          5           0        1.150577    0.325579    0.666904
      2         17           0        2.687287   -0.051975   -0.023672
      3          6           0       -0.285330    0.034165    0.019429
      4          8           0       -0.576160    1.242152   -0.663626
      5          8           0       -1.327201   -0.196631    0.937494
      6          8           0       -0.177374   -0.984707   -0.918863
      7          6           0       -1.149609    2.312966    0.097582
      8          1           0       -2.164628    2.069856    0.413683
      9          1           0       -1.160807    3.170972   -0.573910
     10          1           0       -0.545498    2.549825    0.978939
     11          6           0       -1.081326   -1.274329    1.834868
     12          1           0       -1.945634   -1.332308    2.494990
     13          1           0       -0.183694   -1.087206    2.440112
     14          1           0       -0.961611   -2.220499    1.298895
     15          6           0       -1.322663   -1.180336   -1.764663
     16          1           0       -1.123800   -2.096557   -2.318617
     17          1           0       -1.437706   -0.344842   -2.456932
     18          1           0       -2.233931   -1.294864   -1.172590
 ---------------------------------------------------------------------

 SCF Done:  E(UHF) =  -865.626614863     A.U. after    2 cycles

 The electronic state is 2-A.
 Alpha  occ. eigenvalues -- -103.67011 -20.58991 -20.58761 -20.58317 -11.39829
 Alpha  occ. eigenvalues --  -11.29715 -11.28882 -11.28124 -10.70470  -8.36219
 Alpha  occ. eigenvalues --   -8.35951  -8.35899  -7.69716  -1.41520  -1.31966
 Alpha  occ. eigenvalues --   -1.31514  -1.16705  -0.99816  -0.94730  -0.93271
 Alpha  occ. eigenvalues --   -0.83078  -0.74973  -0.72332  -0.71954  -0.65288
 Alpha  occ. eigenvalues --   -0.64306  -0.63276  -0.61632  -0.60399  -0.59478
 Alpha  occ. eigenvalues --   -0.56372  -0.54374  -0.51523  -0.51347  -0.50349
 Alpha  occ. eigenvalues --   -0.49722  -0.47786  -0.46610  -0.45360  -0.34694
 Alpha virt. eigenvalues --    0.03161   0.04381   0.04599   0.04770   0.06044
 Alpha virt. eigenvalues --    0.06248   0.06317   0.06532   0.06942   0.07511
 Alpha virt. eigenvalues --    0.08744   0.09426   0.09645   0.10859   0.13060

  Beta  occ. eigenvalues -- -103.66940 -20.59024 -20.58797 -20.58238 -11.39652
  Beta  occ. eigenvalues --  -11.29697 -11.28862 -11.28093 -10.70388  -8.36098
  Beta  occ. eigenvalues --   -8.35927  -8.35703  -7.67715  -1.41399  -1.31972
  Beta  occ. eigenvalues --   -1.31424  -1.15901  -0.99491  -0.94590  -0.93151
  Beta  occ. eigenvalues --   -0.82229  -0.74025  -0.72234  -0.71679  -0.65218
  Beta  occ. eigenvalues --   -0.63654  -0.61941  -0.61066  -0.60367  -0.59408
  Beta  occ. eigenvalues --   -0.55883  -0.54115  -0.51453  -0.50326  -0.49620
  Beta  occ. eigenvalues --   -0.49033  -0.47772  -0.46493  -0.43793
  Beta virt. eigenvalues --    0.02900   0.04413   0.04537   0.04760   0.05963
  Beta virt. eigenvalues --    0.06318   0.06470   0.06530   0.06958   0.08091
  Beta virt. eigenvalues --    0.08671   0.09406   0.09582   0.10446   0.11885

 Mulliken charges and spin densities:
               1          2
     1  B    0.154733   1.044153
     2  Cl  -0.296068   0.019329
     3  C    1.174500  -0.111673
     4  O   -0.731252   0.005001
     5  O   -0.698005  -0.001412
     6  O   -0.736989   0.017454
     7  C    0.804123   0.015312
     8  H   -0.100990   0.000504
     9  H   -0.251703   0.000889
    10  H   -0.123608  -0.014045
    11  C    0.798591   0.028377
    12  H   -0.258669   0.001384
    13  H   -0.104245  -0.016234
    14  H   -0.061723   0.000280
    15  C    0.805711   0.012911
    16  H   -0.235965   0.000469
    17  H   -0.074483  -0.001248
    18  H   -0.063958  -0.001451
 Sum of Mulliken charges =  -0.00000   1.00000

 Dipole moment (field-independent basis, Debye):
    X=             -1.9438    Y=             -0.2750    Z=              1.3220  Tot=              2.3668
                          Isotropic Fermi Contact Couplings
        Atom                 a.u.       MegaHertz       Gauss      10(-4) cm-1
     1  B(11)              0.34015     487.89415     174.09276     162.74397
     2  Cl(35)             0.06887      30.19574      10.77459      10.07221
     3  C(13)              0.03882      43.64318      15.57297      14.55780
     4  O(17)             -0.00548       3.32353       1.18592       1.10861
     5  O(17)             -0.00288       1.74673       0.62328       0.58265
     6  O(17)              0.03700     -22.43014      -8.00363      -7.48189
     7  C(13)              0.00368       4.13461       1.47533       1.37916
     8  H(1)               0.00022       0.96569       0.34458       0.32212

 1\1\GINC-SE368\SP\UHF\Aug-CC-pVDZ\C4H9B1Cl1O3(2)\OHZDE\09-Apr-2025\0\\
 #t hf aug-cc-pvdz iop(5/13=1,5/36=2,99/5=2) pseudo=read geom=check gue
 ss=(read,tcheck) scf=(maxcycle=1)\\title\\0,2\B,0,1.150577,0.325579,0.
 666904\Cl,0,2.687287,-0.051975,-0.023672\C,0,-0.28533,0.034165,0.01942
 9\O,0,-0.57616,1.242152,-0.663626\O,0,-1.327201,-0.196631,0.937494\O,0
 ,-0.177374,-0.984707,-0.918863\C,0,-1.149609,2.312966,0.097582\H,0,-2.
 164628,2.069856,0.413683\H,0,-1.160807,3.170972,-0.57391\H,0,-0.545498
 ,2.549825,0.978939\C,0,-1.081326,-1.274329,1.834868\H,0,-1.945634,-1.3

 Normal termination of Gaussian 16 at Wed Apr  9 00:06:34 2025.
