 Gaussian 16, Revision C.01,

 ----------------------------------------------------------------------
 #t hf aug-cc-pvdz symm=none int=(grid=ultrafine) guess=(read,tcheck) s
 table=(opt,rrhf)
 ----------------------------------------------------------------------
 -----
 title
 -----
 Symbolic Z-matrix:
 Charge =  0 Multiplicity = 1

 SCF Done:  E(RHF) =  -377.517849896     A.U. after   17 cycles
 Normal termination of Gaussian 16 at Tue Apr  8 23:06:33 2025.
 Gaussian 16:  ES64L-G16RevC.01  3-Jul-2019

 ----------------------------------------------------------------------
 #t hf aug-cc-pvdz iop(5/13=1,5/36=2,99/5=2) pseudo=read geom=check gue
 ss=(read,tcheck) scf=(maxcycle=1)
 ----------------------------------------------------------------------
 -----
 title
 -----
 Structure from the checkpoint file:  "BDE49_expt_461_mol1.chk"
 Charge =  0 Multiplicity = 1

                         Standard orientation:
 ---------------------------------------------------------------------
 Center     Atomic      Atomic             Coordinates (Angstroms)
 Number     Number       Type             X           Y           Z
 ---------------------------------------------------------------------
      1          6           0       -0.387824   -1.207980   -0.002378
      2          6           0        0.995468   -1.208894   -0.004298
      3          6           0        1.715590   -0.000001   -0.004099
      4          6           0       -1.103301    0.000001   -0.000890
      5          6           0       -0.387823    1.207981   -0.002378
      6          6           0        0.995468    1.208894   -0.004298
      7          1           0       -0.928027   -2.146829   -0.000662
      8          1           0        1.532887   -2.151190   -0.009464
      9          7           0        3.095745   -0.000001   -0.057448
     10          1           0        3.566981   -0.844484    0.226518
     11          6           0       -2.529523    0.000002    0.003740
     12          7           0       -3.686034   -0.000002    0.008137
     13          1           0        1.532889    2.151189   -0.009464
     14          1           0       -0.928025    2.146830   -0.000662
     15          1           0        3.566981    0.844482    0.226520
 ---------------------------------------------------------------------

 SCF Done:  E(RHF) =  -377.627843325     A.U. after    2 cycles

 The electronic state is 1-A.
 Alpha  occ. eigenvalues --  -15.65822 -15.62877 -11.32496 -11.28144 -11.28109
 Alpha  occ. eigenvalues --  -11.28088 -11.27933 -11.25920 -11.25918  -1.22803
 Alpha  occ. eigenvalues --   -1.18729  -1.14523  -1.03918  -1.02523  -0.87281
 Alpha  occ. eigenvalues --   -0.86665  -0.76269  -0.72310  -0.72207  -0.63773
 Alpha  occ. eigenvalues --   -0.63389  -0.61692  -0.58220  -0.56621  -0.53379
 Alpha  occ. eigenvalues --   -0.52540  -0.51341  -0.45587  -0.44480  -0.37063
 Alpha  occ. eigenvalues --   -0.31531
 Alpha virt. eigenvalues --    0.02063   0.03073   0.04004   0.05385   0.06312
 Alpha virt. eigenvalues --    0.07638   0.08324   0.08888   0.09886   0.10414
 Alpha virt. eigenvalues --    0.10703   0.11770   0.12592   0.12911   0.13495

 Mulliken charges:
               1
     1  C   -0.045951
     2  C    1.039966
     3  C   -0.254785
     4  C    2.151702
     5  C   -0.045951
     6  C    1.039960
     7  H   -0.558290
     8  H   -0.559126
     9  N   -0.237080
    10  H   -0.035705
    11  C   -1.212516
    12  N   -0.129104
    13  H   -0.559126
    14  H   -0.558291
    15  H   -0.035705
 Sum of Mulliken charges =  -0.00000

 Dipole moment (field-independent basis, Debye):
    X=              6.7730    Y=              0.0000    Z=              0.8086  Tot=              6.8211

 Test job not archived.
 1\1\GINC-SE218\SP\RHF\Aug-CC-pVDZ\C7H6N2\OHZDE\08-Apr-2025\0\\#t hf au
 g-cc-pvdz iop(5/13=1,5/36=2,99/5=2) pseudo=read geom=check guess=(read
 ,tcheck) scf=(maxcycle=1)\\title\\0,1\C,0,0.387824,1.20798,-0.002378\C
 ,0,-0.995468,1.208894,-0.004298\C,0,-1.71559,0.000001,-0.004099\C,0,1.
 103301,-0.000001,-0.00089\C,0,0.387823,-1.207981,-0.002378\C,0,-0.9954
 68,-1.208894,-0.004298\H,0,0.928027,2.146829,-0.000662\H,0,-1.532887,2
 .15119,-0.009464\N,0,-3.095745,0.000001,-0.057448\H,0,-3.566981,0.8444
 84,0.226518\C,0,2.529523,-0.000002,0.00374\N,0,3.686034,0.000002,0.008

 Normal termination of Gaussian 16 at Tue Apr  8 23:06:40 2025.
