 Gaussian 16, Revision C.01,

 ----------------------------------------------------------------------
 #t hf aug-cc-pvdz symm=none int=(grid=ultrafine) guess=(read,tcheck) s
 table=(opt,rrhf)
 ----------------------------------------------------------------------
 -----
 title
 -----
 Symbolic Z-matrix:
 Charge =  0 Multiplicity = 1

 SCF Done:  E(RHF) =  -2127.16225511     A.U. after   10 cycles
 Normal termination of Gaussian 16 at Tue Apr  8 22:56:36 2025.
 Gaussian 16:  ES64L-G16RevC.01  3-Jul-2019

 ----------------------------------------------------------------------
 #t hf aug-cc-pvdz iop(5/13=1,5/36=2,99/5=2) pseudo=read geom=check gue
 ss=(read,tcheck) scf=(maxcycle=1)
 ----------------------------------------------------------------------
 -----
 title
 -----
 Structure from the checkpoint file:  "BDE49_expt_1945_mol1.chk"
 Charge =  0 Multiplicity = 1

                         Standard orientation:
 ---------------------------------------------------------------------
 Center     Atomic      Atomic             Coordinates (Angstroms)
 Number     Number       Type             X           Y           Z
 ---------------------------------------------------------------------
      1         14           0        0.000006    0.000001   -0.000011
      2         17           0       -0.613466    1.941743   -0.155905
      3         17           0       -1.117979   -1.169319   -1.246516
      4         17           0        1.969404   -0.135858   -0.523472
      5         17           0       -0.237963   -0.636566    1.925903
 ---------------------------------------------------------------------

 SCF Done:  E(RHF) =  -2127.26766419     A.U. after    2 cycles

 The electronic state is 1-A.
 Alpha  occ. eigenvalues -- -103.69088-103.69087-103.69087-103.69087 -69.25728
 Alpha  occ. eigenvalues --  -10.72588 -10.72569 -10.72569 -10.72569  -8.38276
 Alpha  occ. eigenvalues --   -8.38267  -8.38267  -8.38267  -8.38016  -8.38016
 Alpha  occ. eigenvalues --   -8.38011  -8.38011  -8.38011  -8.38009  -8.38009
 Alpha  occ. eigenvalues --   -8.38009  -6.99170  -4.10024  -4.10024  -4.10024
 Alpha  occ. eigenvalues --   -1.21032  -1.16692  -1.16692  -1.16691  -0.73220
 Alpha  occ. eigenvalues --   -0.61223  -0.61223  -0.61223  -0.53778  -0.53778
 Alpha  occ. eigenvalues --   -0.51694  -0.51694  -0.51694  -0.48975  -0.48975
 Alpha  occ. eigenvalues --   -0.48975
 Alpha virt. eigenvalues --    0.04638   0.05975   0.05975   0.05975   0.09704
 Alpha virt. eigenvalues --    0.11888   0.11888   0.11888   0.13312   0.13312
 Alpha virt. eigenvalues --    0.15865   0.15866   0.15866   0.18242   0.18242

 Mulliken charges:
               1
     1  Si   1.590982
     2  Cl  -0.397749
     3  Cl  -0.397742
     4  Cl  -0.397746
     5  Cl  -0.397745
 Sum of Mulliken charges =  -0.00000

 Dipole moment (field-independent basis, Debye):
    X=              0.0000    Y=             -0.0000    Z=             -0.0001  Tot=              0.0001

 Test job not archived.
 1\1\GINC-SE454\SP\RHF\Aug-CC-pVDZ\Cl4Si1\OHZDE\08-Apr-2025\0\\#t hf au
 g-cc-pvdz iop(5/13=1,5/36=2,99/5=2) pseudo=read geom=check guess=(read
 ,tcheck) scf=(maxcycle=1)\\title\\0,1\Si,0,0.000006,0.000001,-0.000011
 \Cl,0,-0.639293,1.935848,-0.121695\Cl,0,-1.105025,-1.162601,-1.264225\
 Cl,0,1.969951,-0.100931,-0.529279\Cl,0,-0.225639,-0.672316,1.915208\\V
 ersion=ES64L-G16RevC.01\State=1-A\HF=-2127.2676642\RMSD=3.477e-03\Dipo
 le=0.0000144,-0.0000087,-0.0000316\Quadrupole=0.0000554,-0.0000243,-0.
 000031,0.0000222,0.0000102,0.0000391\PG=C01 [X(Cl4Si1)]\\@

 Normal termination of Gaussian 16 at Tue Apr  8 22:56:39 2025.
