 Gaussian 16, Revision C.01,

 ----------------------------------------------------------------------
 #t hf aug-cc-pvdz symm=none int=(grid=ultrafine) guess=(read,tcheck) s
 table=(opt,rrhf)
 ----------------------------------------------------------------------
 -----
 title
 -----
 Symbolic Z-matrix:
 Charge =  0 Multiplicity = 1

 SCF Done:  E(RHF) =  -499.352747375     A.U. after   12 cycles
 Normal termination of Gaussian 16 at Wed Apr  9 00:03:41 2025.
 Gaussian 16:  ES64L-G16RevC.01  3-Jul-2019

 ----------------------------------------------------------------------
 #t hf aug-cc-pvdz iop(5/13=1,5/36=2,99/5=2) pseudo=read geom=check gue
 ss=(read,tcheck) scf=(maxcycle=1)
 ----------------------------------------------------------------------
 -----
 title
 -----
 Structure from the checkpoint file:  "BDE49_nonexpt_2228_mol1.chk"
 Charge =  0 Multiplicity = 1

                         Standard orientation:
 ---------------------------------------------------------------------
 Center     Atomic      Atomic             Coordinates (Angstroms)
 Number     Number       Type             X           Y           Z
 ---------------------------------------------------------------------
      1          7           0        0.575081    1.412555   -0.826178
      2          6           0        1.365106   -1.243767   -0.048483
      3          6           0       -1.614007   -0.657543   -0.644354
      4         14           0       -0.008653    0.029104    0.019426
      5          1           0        1.558827   -1.570101   -1.075296
      6          1           0        1.093032   -2.129368    0.532850
      7          1           0        2.301554   -0.853007    0.361793
      8          1           0        1.382993    1.353249   -1.426556
      9          1           0       -0.029283    2.176436   -1.090590
     10          1           0       -1.486394   -1.049591   -1.657621
     11          1           0       -2.387953    0.115226   -0.676336
     12          1           0       -1.984269   -1.467852   -0.009744
     13          8           0       -0.388973    0.443484    1.583189
     14          1           0        0.252255    0.989657    2.044293
 ---------------------------------------------------------------------

 SCF Done:  E(RHF) =  -499.460797070     A.U. after    2 cycles

 The electronic state is 1-A.
 Alpha  occ. eigenvalues --  -69.08083 -20.55072 -15.59218 -11.20742 -11.20189
 Alpha  occ. eigenvalues --   -6.82696  -3.93660  -3.93575  -3.93483  -1.28205
 Alpha  occ. eigenvalues --   -1.09309  -0.94183  -0.91744  -0.72342  -0.65252
 Alpha  occ. eigenvalues --   -0.64205  -0.57085  -0.56628  -0.54173  -0.53922
 Alpha  occ. eigenvalues --   -0.53574  -0.52234  -0.48557  -0.43192  -0.39330
 Alpha virt. eigenvalues --    0.02870   0.04632   0.04797   0.04926   0.06818
 Alpha virt. eigenvalues --    0.07116   0.07258   0.07598   0.08379   0.09628
 Alpha virt. eigenvalues --    0.10361   0.11010   0.12424   0.15308   0.16561

 Mulliken charges:
               1
     1  N   -0.554193
     2  C    0.408899
     3  C    0.394693
     4  Si   2.191361
     5  H   -0.220337
     6  H   -0.259363
     7  H   -0.312185
     8  H   -0.044729
     9  H   -0.095468
    10  H   -0.268487
    11  H   -0.293103
    12  H   -0.195907
    13  O   -0.842317
    14  H    0.091134
 Sum of Mulliken charges =  -0.00000

 Dipole moment (field-independent basis, Debye):
    X=              1.2642    Y=              0.7017    Z=             -1.2713  Tot=              1.9253

 Test job not archived.
 1\1\GINC-SE435\SP\RHF\Aug-CC-pVDZ\C2H9N1O1Si1\OHZDE\09-Apr-2025\0\\#t
 hf aug-cc-pvdz iop(5/13=1,5/36=2,99/5=2) pseudo=read geom=check guess=
 (read,tcheck) scf=(maxcycle=1)\\title\\0,1\N,0,0.575083,1.412554,-0.82
 6178\C,0,1.365104,-1.243769,-0.048483\C,0,-1.614008,-0.65754,-0.644354
 \Si,0,-0.008653,0.029104,0.019426\H,0,1.558824,-1.570103,-1.075296\H,0
 ,1.093028,-2.12937,0.53285\H,0,2.301552,-0.853011,0.361793\H,0,1.38299
 5,1.353247,-1.426556\H,0,-0.029279,2.176436,-1.09059\H,0,-1.486396,-1.
 049588,-1.657621\H,0,-2.387953,0.11523,-0.676336\H,0,-1.984272,-1.4678

 Normal termination of Gaussian 16 at Wed Apr  9 00:03:44 2025.
