 Gaussian 16, Revision C.01,

 ----------------------------------------------------------------------
 #t hf aug-cc-pvdz symm=none int=(grid=ultrafine) guess=(read,tcheck) s
 table=(opt,rrhf)
 ----------------------------------------------------------------------
 -----
 title
 -----
 Symbolic Z-matrix:
 Charge =  0 Multiplicity = 1

 SCF Done:  E(RHF) =  -901.765051012     A.U. after   16 cycles
 Normal termination of Gaussian 16 at Wed Apr  9 00:00:51 2025.
 Gaussian 16:  ES64L-G16RevC.01  3-Jul-2019

 ----------------------------------------------------------------------
 #t hf aug-cc-pvdz iop(5/13=1,5/36=2,99/5=2) pseudo=read geom=check gue
 ss=(read,tcheck) scf=(maxcycle=1)
 ----------------------------------------------------------------------
 -----
 title
 -----
 Structure from the checkpoint file:  "BDE49_nonexpt_2157_mol1.chk"
 Charge =  0 Multiplicity = 1

                         Standard orientation:
 ---------------------------------------------------------------------
 Center     Atomic      Atomic             Coordinates (Angstroms)
 Number     Number       Type             X           Y           Z
 ---------------------------------------------------------------------
      1         14           0       -0.000005    0.000001   -0.636792
      2          7           0        1.442042   -0.908666    0.052303
      3          7           0        0.065876    1.703176    0.052347
      4          7           0       -1.507946   -0.794525    0.052328
      5          8           0       -2.479478   -0.271499   -0.502635
      6          8           0       -0.659749    2.149089    0.915173
      7          8           0        1.474727   -2.011600   -0.502577
      8          8           0        1.004870    2.282880   -0.502324
      9          8           0        2.190979   -0.503266    0.915195
     10          8           0       -1.531315   -1.645594    0.915449
     11          1           0       -0.000005    0.000023   -2.090003
 ---------------------------------------------------------------------

 SCF Done:  E(RHF) =  -901.980263137     A.U. after    2 cycles

 The electronic state is 1-A.
 Alpha  occ. eigenvalues --  -69.28162 -20.68561 -20.68561 -20.68560 -20.67794
 Alpha  occ. eigenvalues --  -20.67794 -20.67794 -15.95104 -15.95103 -15.95103
 Alpha  occ. eigenvalues --   -7.02503  -4.13325  -4.13325  -4.13117  -1.60321
 Alpha  occ. eigenvalues --   -1.59494  -1.59494  -1.42443  -1.42442  -1.42254
 Alpha  occ. eigenvalues --   -1.05350  -0.98192  -0.98191  -0.86819  -0.83789
 Alpha  occ. eigenvalues --   -0.83789  -0.79056  -0.78983  -0.78983  -0.77298
 Alpha  occ. eigenvalues --   -0.76794  -0.76793  -0.67642  -0.58731  -0.58730
 Alpha  occ. eigenvalues --   -0.57700  -0.56087  -0.52915  -0.52915  -0.52899
 Alpha  occ. eigenvalues --   -0.52207  -0.52207
 Alpha virt. eigenvalues --   -0.00311   0.00199   0.00199   0.03110   0.04474
 Alpha virt. eigenvalues --    0.04475   0.05621   0.09850   0.11249   0.11250
 Alpha virt. eigenvalues --    0.13587   0.13587   0.14033   0.14332   0.14333

 Mulliken charges:
               1
     1  Si   1.877406
     2  N    0.323262
     3  N    0.323304
     4  N    0.323276
     5  O   -0.555689
     6  O   -0.446528
     7  O   -0.555698
     8  O   -0.555708
     9  O   -0.446520
    10  O   -0.446542
    11  H    0.159437
 Sum of Mulliken charges =  -0.00000

 Dipole moment (field-independent basis, Debye):
    X=             -0.0000    Y=              0.0001    Z=             -3.2527  Tot=              3.2527

 Test job not archived.
 1\1\GINC-SE361\SP\RHF\Aug-CC-pVDZ\H1N3O6Si1\OHZDE\09-Apr-2025\0\\#t hf
  aug-cc-pvdz iop(5/13=1,5/36=2,99/5=2) pseudo=read geom=check guess=(r
 ead,tcheck) scf=(maxcycle=1)\\title\\0,1\Si,0,0.000005,-0.000001,-0.63
 6792\N,0,-1.44277,0.907509,0.052303\N,0,-0.06451,-1.703228,0.052347\N,
 0,1.507308,0.795734,0.052328\O,0,2.47926,0.273487,-0.502635\O,0,0.6614
 72,-2.148559,0.915173\O,0,-1.476339,2.010417,-0.502577\O,0,-1.003039,-
 2.283685,-0.502324\O,0,-2.191382,0.501509,0.915195\O,0,1.529995,1.6468
 21,0.915449\H,0,0.000005,-0.000023,-2.090003\\Version=ES64L-G16RevC.01

 Normal termination of Gaussian 16 at Wed Apr  9 00:00:58 2025.
