 Gaussian 16, Revision C.01,

 ----------------------------------------------------------------------
 #t hf aug-cc-pvdz symm=none int=(grid=ultrafine) guess=(read,tcheck) s
 table=(opt,rrhf)
 ----------------------------------------------------------------------
 -----
 title
 -----
 Symbolic Z-matrix:
 Charge =  0 Multiplicity = 1

 SCF Done:  E(RHF) =  -1209.59617484     A.U. after   16 cycles
 Normal termination of Gaussian 16 at Tue Apr  8 23:37:19 2025.
 Gaussian 16:  ES64L-G16RevC.01  3-Jul-2019

 ----------------------------------------------------------------------
 #t hf aug-cc-pvdz iop(5/13=1,5/36=2,99/5=2) pseudo=read geom=check gue
 ss=(read,tcheck) scf=(maxcycle=1)
 ----------------------------------------------------------------------
 -----
 title
 -----
 Structure from the checkpoint file:  "BDE49_nonexpt_1583_mol1.chk"
 Charge =  0 Multiplicity = 1

                         Standard orientation:
 ---------------------------------------------------------------------
 Center     Atomic      Atomic             Coordinates (Angstroms)
 Number     Number       Type             X           Y           Z
 ---------------------------------------------------------------------
      1         15           0       -0.246472   -0.227090   -0.892962
      2          7           0        0.898183   -1.150862    0.012035
      3          7           0        0.040693    1.463669    0.013005
      4         17           0       -1.987651   -0.786753    0.044556
      5          8           0        1.235381    1.763695   -0.063725
      6          8           0        0.856896   -0.935727    1.405071
      7          8           0        2.191833   -0.905654   -0.481375
      8          8           0       -0.831390    2.125372    0.511590
      9          1           0        2.367797    0.035869   -0.285762
     10          1           0        0.925445   -1.825861    1.774977
 ---------------------------------------------------------------------

 SCF Done:  E(RHF) =  -1209.76832528     A.U. after    2 cycles

 The electronic state is 1-A.
 Alpha  occ. eigenvalues -- -103.70640 -81.42726 -20.66218 -20.65355 -20.65166
 Alpha  occ. eigenvalues --  -20.63585 -15.91825 -15.78738 -10.73993  -8.39699
 Alpha  occ. eigenvalues --   -8.39395  -8.39381  -7.91891  -5.05708  -5.05615
 Alpha  occ. eigenvalues --   -5.05275  -1.56493  -1.46466  -1.38864  -1.35529
 Alpha  occ. eigenvalues --   -1.19531  -1.06852  -0.95517  -0.84592  -0.80285
 Alpha  occ. eigenvalues --   -0.77636  -0.75742  -0.73385  -0.70485  -0.68713
 Alpha  occ. eigenvalues --   -0.66764  -0.56790  -0.56204  -0.54960  -0.53733
 Alpha  occ. eigenvalues --   -0.52976  -0.50641  -0.49762  -0.45552  -0.43326
 Alpha virt. eigenvalues --    0.03363   0.04138   0.04704   0.05993   0.07358
 Alpha virt. eigenvalues --    0.07527   0.09955   0.10902   0.12421   0.13166
 Alpha virt. eigenvalues --    0.14241   0.14528   0.15839   0.16385   0.17545

 Mulliken charges:
               1
     1  P    1.373076
     2  N    0.075034
     3  N    0.564002
     4  Cl  -0.369878
     5  O   -0.641441
     6  O   -0.485892
     7  O   -0.457881
     8  O   -0.535736
     9  H    0.252525
    10  H    0.226190
 Sum of Mulliken charges =   0.00000

 Dipole moment (field-independent basis, Debye):
    X=             -0.4361    Y=             -3.0143    Z=             -0.6550  Tot=              3.1153

 Test job not archived.
 1\1\GINC-SE435\SP\RHF\Aug-CC-pVDZ\Cl1H2N2O4P1\OHZDE\08-Apr-2025\0\\#t
 hf aug-cc-pvdz iop(5/13=1,5/36=2,99/5=2) pseudo=read geom=check guess=
 (read,tcheck) scf=(maxcycle=1)\\title\\0,1\P,0,-0.246472,-0.22709,-0.8
 92962\N,0,0.898183,-1.150862,0.012035\N,0,0.040693,1.463669,0.013005\C
 l,0,-1.987651,-0.786752,0.044556\O,0,1.235382,1.763695,-0.063725\O,0,0
 .856896,-0.935727,1.405071\O,0,2.191833,-0.905655,-0.481375\O,0,-0.831
 389,2.125372,0.51159\H,0,2.367797,0.035868,-0.285762\H,0,0.925444,-1.8
 25861,1.774977\\Version=ES64L-G16RevC.01\State=1-A\HF=-1209.7683253\RM

 Normal termination of Gaussian 16 at Tue Apr  8 23:37:24 2025.
