 Gaussian 16, Revision C.01,

 ----------------------------------------------------------------------
 #t hf aug-cc-pvdz symm=none int=(grid=ultrafine) guess=(read,tcheck) s
 table=(opt,rrhf)
 ----------------------------------------------------------------------
 -----
 title
 -----
 Symbolic Z-matrix:
 Charge =  0 Multiplicity = 1

 SCF Done:  E(RHF) =  -478.187483970     A.U. after   15 cycles
 Normal termination of Gaussian 16 at Tue Apr  8 23:50:32 2025.
 Gaussian 16:  ES64L-G16RevC.01  3-Jul-2019

 ----------------------------------------------------------------------
 #t hf aug-cc-pvdz iop(5/13=1,5/36=2,99/5=2) pseudo=read geom=check gue
 ss=(read,tcheck) scf=(maxcycle=1)
 ----------------------------------------------------------------------
 -----
 title
 -----
 Structure from the checkpoint file:  "BDE49_nonexpt_1910_mol1.chk"
 Charge =  0 Multiplicity = 1

                         Standard orientation:
 ---------------------------------------------------------------------
 Center     Atomic      Atomic             Coordinates (Angstroms)
 Number     Number       Type             X           Y           Z
 ---------------------------------------------------------------------
      1         14           0        1.999551   -0.386552   -0.020693
      2          6           0        0.614902    0.917520   -0.028544
      3          1           0        2.198672   -0.921487    1.344162
      4          1           0        3.251310    0.259933   -0.480008
      5          1           0        1.652308   -1.494342   -0.938616
      6          7           0       -0.629050    0.318070    0.451541
      7          7           0       -1.484500    0.181387   -0.432556
      8          6           0       -2.715100   -0.446945    0.053354
      9          1           0       -3.546141    0.231500   -0.159087
     10          1           0       -2.665248   -0.676349    1.121607
     11          1           0       -2.882198   -1.357154   -0.529721
     12          1           0        0.494508    1.347350   -1.030166
     13          1           0        0.899108    1.702619    0.679772
 ---------------------------------------------------------------------

 SCF Done:  E(RHF) =  -478.266288075     A.U. after    2 cycles

 The electronic state is 1-A.
 Alpha  occ. eigenvalues --  -69.06667 -15.69105 -15.68564 -11.26197 -11.25651
 Alpha  occ. eigenvalues --   -6.81984  -3.92767  -3.92754  -3.92743  -1.31831
 Alpha  occ. eigenvalues --   -1.05101  -0.92872  -0.77166  -0.70032  -0.65319
 Alpha  occ. eigenvalues --   -0.64910  -0.60954  -0.56051  -0.52273  -0.51143
 Alpha  occ. eigenvalues --   -0.48113  -0.47547  -0.41466  -0.37633
 Alpha virt. eigenvalues --    0.03496   0.04025   0.04439   0.04771   0.06351
 Alpha virt. eigenvalues --    0.06983   0.07720   0.08639   0.08959   0.09612
 Alpha virt. eigenvalues --    0.10330   0.11569   0.12844   0.14311   0.14590

 Mulliken charges:
               1
     1  Si   0.474739
     2  C    0.487245
     3  H   -0.017363
     4  H   -0.042382
     5  H   -0.043508
     6  N   -0.366311
     7  N   -0.539154
     8  C    0.751880
     9  H   -0.112909
    10  H   -0.119371
    11  H   -0.093350
    12  H   -0.161824
    13  H   -0.217693
 Sum of Mulliken charges =  -0.00000

 Dipole moment (field-independent basis, Debye):
    X=             -0.2735    Y=              0.1987    Z=              0.0457  Tot=              0.3411

 Test job not archived.
 1\1\GINC-SE071\SP\RHF\Aug-CC-pVDZ\C2H8N2Si1\OHZDE\08-Apr-2025\0\\#t hf
  aug-cc-pvdz iop(5/13=1,5/36=2,99/5=2) pseudo=read geom=check guess=(r
 ead,tcheck) scf=(maxcycle=1)\\title\\0,1\Si,0,1.999551,-0.386552,-0.02
 0693\C,0,0.614902,0.91752,-0.028544\H,0,2.198672,-0.921487,1.344162\H,
 0,3.25131,0.259933,-0.480008\H,0,1.652308,-1.494342,-0.938616\N,0,-0.6
 2905,0.31807,0.451541\N,0,-1.4845,0.181387,-0.432556\C,0,-2.7151,-0.44
 6945,0.053354\H,0,-3.546141,0.2315,-0.159087\H,0,-2.665248,-0.676349,1
 .121607\H,0,-2.882198,-1.357154,-0.529721\H,0,0.494508,1.34735,-1.0301

 Normal termination of Gaussian 16 at Tue Apr  8 23:50:35 2025.
