 Gaussian 16, Revision C.01,

 ----------------------------------------------------------------------
 #t hf aug-cc-pvdz symm=none int=(grid=ultrafine) guess=(read,tcheck) s
 table=(opt,rrhf)
 ----------------------------------------------------------------------
 -----
 title
 -----
 Symbolic Z-matrix:
 Charge =  0 Multiplicity = 1

 SCF Done:  E(RHF) =  -581.028981646     A.U. after   13 cycles
 Normal termination of Gaussian 16 at Wed Apr  9 00:40:43 2025.
 Gaussian 16:  ES64L-G16RevC.01  3-Jul-2019

 ----------------------------------------------------------------------
 #t hf aug-cc-pvdz iop(5/13=1,5/36=2,99/5=2) pseudo=read geom=check gue
 ss=(read,tcheck) scf=(maxcycle=1)
 ----------------------------------------------------------------------
 -----
 title
 -----
 Structure from the checkpoint file:  "BDE49_nonexpt_646_mol1.chk"
 Charge =  0 Multiplicity = 1

                         Standard orientation:
 ---------------------------------------------------------------------
 Center     Atomic      Atomic             Coordinates (Angstroms)
 Number     Number       Type             X           Y           Z
 ---------------------------------------------------------------------
      1          5           0       -2.992454   -0.001659    0.004227
      2          8           0       -3.631635   -1.205403    0.084451
      3          1           0       -4.588901   -1.102410    0.063133
      4          8           0       -3.771968    1.123716   -0.076343
      5          1           0       -3.275567    1.939740   -0.173934
      6          6           0       -1.423754    0.013683    0.004689
      7          6           0       -0.680638    1.201361    0.088283
      8          1           0       -1.186753    2.160639    0.170961
      9          6           0       -0.709392   -1.191542   -0.082306
     10          1           0       -1.259219   -2.123464   -0.147409
     11          6           0        0.709392    1.191540    0.082287
     12          6           0        1.423754   -0.013685   -0.004708
     13          5           0        2.992454    0.001658   -0.004254
     14          8           0        3.631634    1.205406   -0.084413
     15          1           0        4.588900    1.102415   -0.063065
     16          8           0        3.771969   -1.123714    0.076360
     17          1           0        3.275567   -1.939737    0.173950
     18          6           0        0.680638   -1.201363   -0.088302
     19          1           0        1.186753   -2.160641   -0.170981
     20          1           0        1.259219    2.123462    0.147387
 ---------------------------------------------------------------------

 SCF Done:  E(RHF) =  -581.215323586     A.U. after    2 cycles

 The electronic state is 1-A.
 Alpha  occ. eigenvalues --  -20.58809 -20.58809 -20.57993 -20.57993 -11.25543
 Alpha  occ. eigenvalues --  -11.25537 -11.24989 -11.24982 -11.23498 -11.23489
 Alpha  occ. eigenvalues --   -7.66252  -7.66251  -1.34846  -1.34845  -1.31008
 Alpha  occ. eigenvalues --   -1.31007  -1.14384  -1.01566  -1.01318  -0.84495
 Alpha  occ. eigenvalues --   -0.83120  -0.78824  -0.78010  -0.75796  -0.75313
 Alpha  occ. eigenvalues --   -0.69692  -0.66076  -0.63601  -0.61714  -0.60657
 Alpha  occ. eigenvalues --   -0.60073  -0.59636  -0.59495  -0.58524  -0.57649
 Alpha  occ. eigenvalues --   -0.52648  -0.52527  -0.52359  -0.50632  -0.49612
 Alpha  occ. eigenvalues --   -0.47113  -0.35035  -0.34402
 Alpha virt. eigenvalues --    0.02958   0.03465   0.04085   0.05255   0.05312
 Alpha virt. eigenvalues --    0.05985   0.06492   0.06694   0.06922   0.07309
 Alpha virt. eigenvalues --    0.07490   0.09154   0.09216   0.09935   0.09946

 Mulliken charges:
               1
     1  B    0.725355
     2  O   -0.526451
     3  H    0.212498
     4  O   -0.522325
     5  H    0.212984
     6  C    0.096255
     7  C    0.677602
     8  H   -0.700127
     9  C    0.482687
    10  H   -0.658472
    11  C    0.482696
    12  C    0.096246
    13  B    0.725357
    14  O   -0.526449
    15  H    0.212498
    16  O   -0.522328
    17  H    0.212984
    18  C    0.677594
    19  H   -0.700133
    20  H   -0.658471
 Sum of Mulliken charges =  -0.00000

 Dipole moment (field-independent basis, Debye):
    X=             -0.0000    Y=              0.0000    Z=             -0.0001  Tot=              0.0001

 Test job not archived.
 1\1\GINC-SE090\SP\RHF\Aug-CC-pVDZ\C6H8B2O4\OHZDE\09-Apr-2025\0\\#t hf
 aug-cc-pvdz iop(5/13=1,5/36=2,99/5=2) pseudo=read geom=check guess=(re
 ad,tcheck) scf=(maxcycle=1)\\title\\0,1\B,0,-2.992454,0.001659,-0.0042
 27\O,0,-3.631635,1.205403,-0.084451\H,0,-4.588901,1.10241,-0.063133\O,
 0,-3.771968,-1.123716,0.076343\H,0,-3.275567,-1.93974,0.173934\C,0,-1.
 423754,-0.013683,-0.004689\C,0,-0.680638,-1.201361,-0.088283\H,0,-1.18
 6753,-2.160639,-0.170961\C,0,-0.709392,1.191542,0.082306\H,0,-1.259219
 ,2.123464,0.147409\C,0,0.709392,-1.19154,-0.082287\C,0,1.423754,0.0136

 Normal termination of Gaussian 16 at Wed Apr  9 00:40:56 2025.
