 Gaussian 16, Revision C.01,

 ----------------------------------------------------------------------
 #t hf aug-cc-pvdz symm=none int=(grid=ultrafine) guess=(read,tcheck) s
 table=(opt,rrhf)
 ----------------------------------------------------------------------
 -----
 title
 -----
 Symbolic Z-matrix:
 Charge =  0 Multiplicity = 1

 SCF Done:  E(RHF) =  -860.522256651     A.U. after   13 cycles
 Normal termination of Gaussian 16 at Tue Apr  8 23:41:37 2025.
 Gaussian 16:  ES64L-G16RevC.01  3-Jul-2019

 ----------------------------------------------------------------------
 #t hf aug-cc-pvdz iop(5/13=1,5/36=2,99/5=2) pseudo=read geom=check gue
 ss=(read,tcheck) scf=(maxcycle=1)
 ----------------------------------------------------------------------
 -----
 title
 -----
 Structure from the checkpoint file:  "BDE49_nonexpt_1690_mol1.chk"
 Charge =  0 Multiplicity = 1

                         Standard orientation:
 ---------------------------------------------------------------------
 Center     Atomic      Atomic             Coordinates (Angstroms)
 Number     Number       Type             X           Y           Z
 ---------------------------------------------------------------------
      1         15           0       -1.394070   -0.811563   -0.176516
      2          6           0       -2.411680    0.739351    0.091627
      3          1           0       -2.115329    1.573194   -0.545424
      4          1           0       -2.309117    1.042836    1.135343
      5          1           0       -3.463269    0.510542   -0.090564
      6         14           0        0.721615   -0.009659    0.041839
      7          6           0        1.200149    1.493961   -0.935395
      8          1           0        0.600923    2.360975   -0.648152
      9          1           0        1.074567    1.320394   -2.006505
     10          1           0        2.251288    1.731398   -0.747144
     11          8           0        1.737349   -1.224147   -0.438040
     12          1           0       -1.388327   -0.830852   -1.595263
     13          1           0        1.509105   -2.130942   -0.220990
     14          8           0        0.916303    0.417799    1.629480
     15          1           0        0.688569   -0.217967    2.311777
 ---------------------------------------------------------------------

 SCF Done:  E(RHF) =  -860.657860430     A.U. after    2 cycles

 The electronic state is 1-A.
 Alpha  occ. eigenvalues --  -81.24024 -69.11442 -20.57036 -20.57001 -11.24491
 Alpha  occ. eigenvalues --  -11.21529  -7.74559  -6.85806  -4.88558  -4.88460
 Alpha  occ. eigenvalues --   -4.88226  -3.96783  -3.96654  -3.96569  -1.31006
 Alpha  occ. eigenvalues --   -1.29189  -0.96386  -0.94236  -0.77116  -0.73866
 Alpha  occ. eigenvalues --   -0.71924  -0.61674  -0.58875  -0.58315  -0.57064
 Alpha  occ. eigenvalues --   -0.56194  -0.55572  -0.54813  -0.51899  -0.49203
 Alpha  occ. eigenvalues --   -0.48184  -0.41767  -0.33106
 Alpha virt. eigenvalues --    0.03009   0.04259   0.04951   0.05199   0.06517
 Alpha virt. eigenvalues --    0.06694   0.07200   0.07285   0.07458   0.09439
 Alpha virt. eigenvalues --    0.10137   0.10652   0.11198   0.11741   0.12780

 Mulliken charges:
               1
     1  P   -0.303308
     2  C    0.220159
     3  H   -0.158306
     4  H   -0.148155
     5  H   -0.210235
     6  Si   2.193619
     7  C    0.408177
     8  H   -0.251312
     9  H   -0.222674
    10  H   -0.217288
    11  O   -0.856125
    12  H    0.211211
    13  H    0.099267
    14  O   -0.837763
    15  H    0.072732
 Sum of Mulliken charges =  -0.00000

 Dipole moment (field-independent basis, Debye):
    X=             -1.3213    Y=             -0.3541    Z=              0.2980  Tot=              1.4000

 Test job not archived.
 1\1\GINC-SE069\SP\RHF\Aug-CC-pVDZ\C2H9O2P1Si1\OHZDE\08-Apr-2025\0\\#t
 hf aug-cc-pvdz iop(5/13=1,5/36=2,99/5=2) pseudo=read geom=check guess=
 (read,tcheck) scf=(maxcycle=1)\\title\\0,1\P,0,-1.39407,-0.811563,-0.1
 76516\C,0,-2.41168,0.739351,0.091627\H,0,-2.115329,1.573194,-0.545424\
 H,0,-2.309117,1.042836,1.135343\H,0,-3.463269,0.510542,-0.090564\Si,0,
 0.721615,-0.009659,0.041839\C,0,1.200149,1.493961,-0.935395\H,0,0.6009
 23,2.360975,-0.648152\H,0,1.074567,1.320394,-2.006505\H,0,2.251288,1.7
 31398,-0.747144\O,0,1.737349,-1.224147,-0.43804\H,0,-1.388327,-0.83085

 Normal termination of Gaussian 16 at Tue Apr  8 23:41:43 2025.
