 Gaussian 16, Revision C.01,

 ----------------------------------------------------------------------
 #t hf aug-cc-pvdz symm=none int=(grid=ultrafine) guess=(read,tcheck) s
 table=(opt,rrhf)
 ----------------------------------------------------------------------
 -----
 title
 -----
 Symbolic Z-matrix:
 Charge =  0 Multiplicity = 1

 SCF Done:  E(RHF) =  -610.264676363     A.U. after   14 cycles
 Normal termination of Gaussian 16 at Wed Apr  9 00:20:05 2025.
 Gaussian 16:  ES64L-G16RevC.01  3-Jul-2019

 ----------------------------------------------------------------------
 #t hf aug-cc-pvdz iop(5/13=1,5/36=2,99/5=2) pseudo=read geom=check gue
 ss=(read,tcheck) scf=(maxcycle=1)
 ----------------------------------------------------------------------
 -----
 title
 -----
 Structure from the checkpoint file:  "BDE49_nonexpt_2646_mol1.chk"
 Charge =  0 Multiplicity = 1

                         Standard orientation:
 ---------------------------------------------------------------------
 Center     Atomic      Atomic             Coordinates (Angstroms)
 Number     Number       Type             X           Y           Z
 ---------------------------------------------------------------------
      1          9           0        1.660665    0.576116   -0.000001
      2         16           0        0.488734   -0.601443    0.000000
      3          6           0       -0.944701    0.460919    0.000001
      4          8           0       -2.055577    0.018082   -0.000001
      5          1           0       -0.652908    1.527872    0.000002
 ---------------------------------------------------------------------

 SCF Done:  E(RHF) =  -610.359838345     A.U. after    2 cycles

 The electronic state is 1-A.
 Alpha  occ. eigenvalues --  -93.65741 -26.16214 -20.61845 -11.41258  -8.94743
 Alpha  occ. eigenvalues --   -6.28900  -6.28513  -6.28107  -1.67427  -1.41235
 Alpha  occ. eigenvalues --   -1.04641  -0.85935  -0.76661  -0.76148  -0.75772
 Alpha  occ. eigenvalues --   -0.69713  -0.61204  -0.60660  -0.46237  -0.42168
 Alpha virt. eigenvalues --    0.03941   0.04369   0.06723   0.07144   0.10521
 Alpha virt. eigenvalues --    0.10583   0.11791   0.14331   0.14532   0.15657
 Alpha virt. eigenvalues --    0.21294   0.22902   0.24125   0.24381   0.27083

 Mulliken charges:
               1
     1  F   -0.602124
     2  S    0.826083
     3  C    0.166860
     4  O   -0.357384
     5  H   -0.033434
 Sum of Mulliken charges =  -0.00000

 Dipole moment (field-independent basis, Debye):
    X=              0.8160    Y=              0.3750    Z=              0.0000  Tot=              0.8981

 Test job not archived.
 1\1\GINC-SE102\SP\RHF\Aug-CC-pVDZ\C1H1F1O1S1\OHZDE\09-Apr-2025\0\\#t h
 f aug-cc-pvdz iop(5/13=1,5/36=2,99/5=2) pseudo=read geom=check guess=(
 read,tcheck) scf=(maxcycle=1)\\title\\0,1\F,0,1.660665,0.576116,-0.000
 001\S,0,0.488734,-0.601443,0.\C,0,-0.944701,0.460919,0.000001\O,0,-2.0
 55577,0.018082,-0.000001\H,0,-0.652908,1.527872,0.000002\\Version=ES64
 L-G16RevC.01\State=1-A\HF=-610.3598383\RMSD=4.436e-03\Dipole=0.3210537
 ,0.1475283,0.0000022\Quadrupole=-4.9942757,3.5456266,1.4486491,-1.9253
 064,-0.0000049,0.0000023\PG=C01 [X(C1H1F1O1S1)]\\@

 Normal termination of Gaussian 16 at Wed Apr  9 00:20:07 2025.
