 Gaussian 16, Revision C.01,

 ----------------------------------------------------------------------
 #t hf aug-cc-pvdz symm=none int=(grid=ultrafine) guess=(read,tcheck) s
 table=(opt,rrhf)
 ----------------------------------------------------------------------
 -----
 title
 -----
 Symbolic Z-matrix:
 Charge =  0 Multiplicity = 1

 SCF Done:  E(RHF) =  -1484.22156947     A.U. after   15 cycles
 Normal termination of Gaussian 16 at Tue Apr  8 22:49:02 2025.
 Gaussian 16:  ES64L-G16RevC.01  3-Jul-2019

 ----------------------------------------------------------------------
 #t hf aug-cc-pvdz iop(5/13=1,5/36=2,99/5=2) pseudo=read geom=check gue
 ss=(read,tcheck) scf=(maxcycle=1)
 ----------------------------------------------------------------------
 -----
 title
 -----
 Structure from the checkpoint file:  "BDE49_expt_1681_mol1.chk"
 Charge =  0 Multiplicity = 1

                         Standard orientation:
 ---------------------------------------------------------------------
 Center     Atomic      Atomic             Coordinates (Angstroms)
 Number     Number       Type             X           Y           Z
 ---------------------------------------------------------------------
      1          6           0        0.586822    2.007072    0.000004
      2          6           0        1.879120    1.495766    0.000000
      3          6           0        2.063254    0.118358   -0.000003
      4          6           0        0.976026   -0.746198   -0.000003
      5          6           0       -0.322923   -0.237797    0.000000
      6          6           0       -0.510478    1.150907    0.000003
      7          1           0        0.423836    3.076679    0.000006
      8          1           0        2.732014    2.161642    0.000001
      9         17           0       -2.103966    1.866347    0.000007
     10          1           0        1.133055   -1.814875   -0.000006
     11         17           0        3.683968   -0.540836   -0.000007
     12          6           0       -1.483933   -1.208910    0.000000
     13          9           0       -1.054722   -2.489073   -0.000004
     14          9           0       -2.265766   -1.057257   -1.086336
     15          9           0       -2.265763   -1.057262    1.086338
 ---------------------------------------------------------------------

 SCF Done:  E(RHF) =  -1484.44486666     A.U. after    2 cycles

 The electronic state is 1-A.
 Alpha  occ. eigenvalues -- -103.68839-103.68812 -26.17571 -26.17025 -26.17015
 Alpha  occ. eigenvalues --  -11.54403 -11.35123 -11.34158 -11.31092 -11.29802
 Alpha  occ. eigenvalues --  -11.29604 -11.29221 -10.72131 -10.72076  -8.37868
 Alpha  occ. eigenvalues --   -8.37815  -8.37551  -8.37530  -8.37502  -8.37483
 Alpha  occ. eigenvalues --   -1.76818  -1.69832  -1.69521  -1.24023  -1.21018
 Alpha  occ. eigenvalues --   -1.15121  -1.09883  -1.03328  -1.00676  -0.91595
 Alpha  occ. eigenvalues --   -0.89440  -0.88533  -0.86407  -0.81598  -0.77938
 Alpha  occ. eigenvalues --   -0.77797  -0.73783  -0.73371  -0.72248  -0.72166
 Alpha  occ. eigenvalues --   -0.70071  -0.67525  -0.63375  -0.61860  -0.59181
 Alpha  occ. eigenvalues --   -0.57128  -0.55397  -0.53941  -0.49200  -0.48823
 Alpha  occ. eigenvalues --   -0.48309  -0.39634  -0.36393
 Alpha virt. eigenvalues --    0.03012   0.04382   0.04974   0.05897   0.06632
 Alpha virt. eigenvalues --    0.07708   0.08059   0.09208   0.10011   0.10642
 Alpha virt. eigenvalues --    0.11882   0.12238   0.12450   0.12613   0.13322

 Mulliken charges:
               1
     1  C    1.057106
     2  C    0.540082
     3  C   -0.439108
     4  C    0.623951
     5  C    2.174633
     6  C   -1.625756
     7  H   -0.451063
     8  H   -0.423558
     9  Cl  -0.397657
    10  H   -0.497398
    11  Cl  -0.367949
    12  C    0.743266
    13  F   -0.291245
    14  F   -0.322652
    15  F   -0.322651
 Sum of Mulliken charges =  -0.00000

 Dipole moment (field-independent basis, Debye):
    X=              2.2358    Y=              2.0947    Z=              0.0000  Tot=              3.0638

 Test job not archived.
 1\1\GINC-SE110\SP\RHF\Aug-CC-pVDZ\C7H3Cl2F3\OHZDE\08-Apr-2025\0\\#t hf
  aug-cc-pvdz iop(5/13=1,5/36=2,99/5=2) pseudo=read geom=check guess=(r
 ead,tcheck) scf=(maxcycle=1)\\title\\0,1\C,0,0.586822,2.007072,0.00000
 4\C,0,1.87912,1.495766,0.\C,0,2.063254,0.118358,-0.000003\C,0,0.976026
 ,-0.746198,-0.000003\C,0,-0.322923,-0.237797,0.\C,0,-0.510478,1.150907
 ,0.000003\H,0,0.423836,3.076679,0.000006\H,0,2.732014,2.161642,0.00000
 1\Cl,0,-2.103966,1.866347,0.000007\H,0,1.133055,-1.814875,-0.000006\Cl
 ,0,3.683968,-0.540836,-0.000007\C,0,-1.483933,-1.20891,0.\F,0,-1.05472

 Normal termination of Gaussian 16 at Tue Apr  8 22:49:12 2025.
