 Gaussian 16, Revision C.01,

 ----------------------------------------------------------------------
 #t hf aug-cc-pvdz symm=none int=(grid=ultrafine) guess=(read,tcheck) s
 table=opt
 ----------------------------------------------------------------------
 -----
 title
 -----
 Symbolic Z-matrix:
 Charge =  0 Multiplicity = 2

 SCF Done:  E(UHF) =  -2211.40916021     A.U. after   20 cycles

 1\1\GINC-SE253\Stability\UHF\Aug-CC-pVDZ\C1Cl3S2\OHZDE\09-Apr-2025\0\\
 #t hf aug-cc-pvdz symm=none int=(grid=ultrafine) guess=(read,tcheck) s
 table=opt\\title\\0,2\S,0,-2.558708,-0.044925,0.000013\S,0,-0.96729,1.
 102196,-0.000018\C,0,0.552292,-0.02867,-0.000002\Cl,0,1.930348,1.11608
 5,-0.000026\Cl,0,0.596652,-1.050548,-1.459058\Cl,0,0.59666,-1.050497,1
 .459089\\Version=ES64L-G16RevC.01\HF=-2211.4091602\S2=0.768155\S2-1=0.
 \S2A=0.750224\RMSD=6.735e-09\Dipole=-0.0879203,0.0395318,0.0000002\Qua
 drupole=0.1721781,-0.269228,0.0970499,1.0210577,-0.0000204,0.0000008\P

 Normal termination of Gaussian 16 at Wed Apr  9 00:48:36 2025.
 Gaussian 16:  ES64L-G16RevC.01  3-Jul-2019

 ----------------------------------------------------------------------
 #t hf aug-cc-pvdz iop(5/13=1,5/36=2,99/5=2) pseudo=read geom=check gue
 ss=(read,tcheck) scf=(maxcycle=1)
 ----------------------------------------------------------------------
 -----
 title
 -----
 Structure from the checkpoint file:  "BDE49_nonexpt_915_mol2.chk"
 Charge =  0 Multiplicity = 2

                         Standard orientation:
 ---------------------------------------------------------------------
 Center     Atomic      Atomic             Coordinates (Angstroms)
 Number     Number       Type             X           Y           Z
 ---------------------------------------------------------------------
      1         16           0       -2.558708   -0.044924    0.000013
      2         16           0       -0.967290    1.102196   -0.000018
      3          6           0        0.552292   -0.028670   -0.000002
      4         17           0        1.930348    1.116084   -0.000026
      5         17           0        0.596652   -1.050548   -1.459058
      6         17           0        0.596660   -1.050497    1.459089
 ---------------------------------------------------------------------

 SCF Done:  E(UHF) =  -2211.51615334     A.U. after    2 cycles

 The electronic state is 2-A.
 Alpha  occ. eigenvalues -- -103.70588-103.70173-103.70172 -93.62440 -93.59565
 Alpha  occ. eigenvalues --  -11.48082 -10.73873 -10.73487 -10.73460  -8.91942
 Alpha  occ. eigenvalues --   -8.89310  -8.39587  -8.39244  -8.39242  -8.39210
 Alpha  occ. eigenvalues --   -8.39203  -8.38844  -8.38841  -8.38838  -8.38837
 Alpha  occ. eigenvalues --   -6.25913  -6.25797  -6.25611  -6.24341  -6.23017
 Alpha  occ. eigenvalues --   -6.22508  -1.27817  -1.17300  -1.17056  -1.09659
 Alpha  occ. eigenvalues --   -0.92394  -0.80758  -0.65858  -0.65689  -0.64119
 Alpha  occ. eigenvalues --   -0.54927  -0.54224  -0.51543  -0.50879  -0.49251
 Alpha  occ. eigenvalues --   -0.48598  -0.47868  -0.47563  -0.40353  -0.38726
 Alpha virt. eigenvalues --    0.05029   0.06075   0.08062   0.08190   0.08219
 Alpha virt. eigenvalues --    0.08852   0.11083   0.11570   0.12454   0.13306
 Alpha virt. eigenvalues --    0.13421   0.14950   0.15588   0.15679   0.17839

  Beta  occ. eigenvalues -- -103.70591-103.70166-103.70165 -93.62221 -93.58739
  Beta  occ. eigenvalues --  -11.48161 -10.73877 -10.73480 -10.73453  -8.91695
  Beta  occ. eigenvalues --   -8.88392  -8.39594  -8.39254  -8.39239  -8.39176
  Beta  occ. eigenvalues --   -8.39169  -8.38839  -8.38838  -8.38834  -8.38832
  Beta  occ. eigenvalues --   -6.25806  -6.25543  -6.24801  -6.22559  -6.21982
  Beta  occ. eigenvalues --   -6.20740  -1.27770  -1.17293  -1.16988  -1.06781
  Beta  occ. eigenvalues --   -0.89129  -0.77516  -0.65575  -0.65505  -0.63261
  Beta  occ. eigenvalues --   -0.53790  -0.53109  -0.50126  -0.49327  -0.48752
  Beta  occ. eigenvalues --   -0.47584  -0.47535  -0.42526  -0.38601
  Beta virt. eigenvalues --   -0.01001   0.05103   0.06465   0.08105   0.08269
  Beta virt. eigenvalues --    0.08274   0.08882   0.11392   0.11666   0.12849
  Beta virt. eigenvalues --    0.13450   0.14272   0.15025   0.16258   0.16688

 Mulliken charges and spin densities:
               1          2
     1  S    0.004758   0.910121
     2  S    0.407384   0.123400
     3  C   -0.816959  -0.039442
     4  Cl   0.184352  -0.002824
     5  Cl   0.110232   0.004372
     6  Cl   0.110232   0.004372
 Sum of Mulliken charges =  -0.00000   1.00000

 Dipole moment (field-independent basis, Debye):
    X=             -0.3910    Y=              0.1385    Z=              0.0000  Tot=              0.4148
                          Isotropic Fermi Contact Couplings
        Atom                 a.u.       MegaHertz       Gauss      10(-4) cm-1
     1  S(33)              0.20159      69.24061      24.70677      23.09618
     2  S(33)              0.09626      33.06153      11.79718      11.02814
     3  C(13)             -0.01630     -18.32493      -6.53879      -6.11254
     4  Cl(35)            -0.00235      -1.02985      -0.36747      -0.34352
     5  Cl(35)            -0.00092      -0.40366      -0.14404      -0.13465
     6  Cl(35)            -0.00092      -0.40369      -0.14405      -0.13466
 --------------------------------------------------------
       Center         ----  Spin Dipole Couplings  ----

 Normal termination of Gaussian 16 at Wed Apr  9 00:48:39 2025.
