 Gaussian 16, Revision C.01,

 ----------------------------------------------------------------------
 #t hf aug-cc-pvdz symm=none int=(grid=ultrafine) guess=(read,tcheck) s
 table=(opt,rrhf)
 ----------------------------------------------------------------------
 -----
 title
 -----
 Symbolic Z-matrix:
 Charge =  0 Multiplicity = 1

 SCF Done:  E(RHF) =  -483.292589611     A.U. after   12 cycles
 Normal termination of Gaussian 16 at Wed Apr  9 00:00:40 2025.
 Gaussian 16:  ES64L-G16RevC.01  3-Jul-2019

 ----------------------------------------------------------------------
 #t hf aug-cc-pvdz iop(5/13=1,5/36=2,99/5=2) pseudo=read geom=check gue
 ss=(read,tcheck) scf=(maxcycle=1)
 ----------------------------------------------------------------------
 -----
 title
 -----
 Structure from the checkpoint file:  "BDE49_nonexpt_2161_mol1.chk"
 Charge =  0 Multiplicity = 1

                         Standard orientation:
 ---------------------------------------------------------------------
 Center     Atomic      Atomic             Coordinates (Angstroms)
 Number     Number       Type             X           Y           Z
 ---------------------------------------------------------------------
      1         14           0        1.385780   -0.477721    0.144064
      2          8           0        1.854090    1.065507   -0.244403
      3          1           0        2.735256    1.358804   -0.004548
      4          6           0       -0.408937   -0.640022   -0.353509
      5          6           0       -1.366913    0.334896    0.356811
      6          1           0       -0.715106   -1.677352   -0.160818
      7          1           0       -0.472933   -0.505036   -1.440682
      8          6           0       -2.825432    0.177324   -0.085104
      9          1           0       -1.037982    1.362191    0.170485
     10          1           0       -1.298980    0.186062    1.440830
     11          1           0       -2.931941    0.356775   -1.159419
     12          1           0       -3.478321    0.882792    0.437020
     13          1           0       -3.193505   -0.832978    0.119607
     14          1           0        1.553130   -0.719856    1.602348
     15          1           0        2.214427   -1.480558   -0.575687
 ---------------------------------------------------------------------

 SCF Done:  E(RHF) =  -483.388616271     A.U. after    2 cycles

 The electronic state is 1-A.
 Alpha  occ. eigenvalues --  -69.08173 -20.56688 -11.23208 -11.22136 -11.21620
 Alpha  occ. eigenvalues --   -6.83019  -3.93942  -3.93795  -3.93777  -1.29604
 Alpha  occ. eigenvalues --   -1.04369  -0.92194  -0.80445  -0.74457  -0.64782
 Alpha  occ. eigenvalues --   -0.62192  -0.58275  -0.56749  -0.54730  -0.53665
 Alpha  occ. eigenvalues --   -0.52466  -0.48107  -0.47243  -0.44767  -0.42385
 Alpha virt. eigenvalues --    0.03273   0.04270   0.04766   0.05109   0.06465
 Alpha virt. eigenvalues --    0.06566   0.07113   0.07424   0.08925   0.09015
 Alpha virt. eigenvalues --    0.09749   0.10247   0.10776   0.13717   0.14233

 Mulliken charges:
               1
     1  Si   0.998371
     2  O   -0.813892
     3  H    0.112335
     4  C    0.182990
     5  C    0.000327
     6  H   -0.179928
     7  H   -0.169103
     8  C    0.398083
     9  H   -0.132422
    10  H   -0.147686
    11  H   -0.060725
    12  H   -0.071740
    13  H   -0.073229
    14  H    0.001983
    15  H   -0.045363
 Sum of Mulliken charges =  -0.00000

 Dipole moment (field-independent basis, Debye):
    X=              0.5714    Y=             -0.2300    Z=              0.4236  Tot=              0.7476

 Test job not archived.
 1\1\GINC-SE460\SP\RHF\Aug-CC-pVDZ\C3H10O1Si1\OHZDE\09-Apr-2025\0\\#t h
 f aug-cc-pvdz iop(5/13=1,5/36=2,99/5=2) pseudo=read geom=check guess=(
 read,tcheck) scf=(maxcycle=1)\\title\\0,1\Si,0,1.38578,-0.477721,0.144
 064\O,0,1.85409,1.065507,-0.244403\H,0,2.735256,1.358803,-0.004548\C,0
 ,-0.408937,-0.640022,-0.353509\C,0,-1.366913,0.334896,0.356811\H,0,-0.
 715107,-1.677352,-0.160818\H,0,-0.472933,-0.505036,-1.440682\C,0,-2.82
 5432,0.177324,-0.085104\H,0,-1.037982,1.362191,0.170485\H,0,-1.29898,0
 .186062,1.44083\H,0,-2.931941,0.356775,-1.159419\H,0,-3.478321,0.88279

 Normal termination of Gaussian 16 at Wed Apr  9 00:00:44 2025.
