 Gaussian 16, Revision C.01,

 ----------------------------------------------------------------------
 #t hf aug-cc-pvdz symm=none int=(grid=ultrafine) guess=(read,tcheck) s
 table=opt
 ----------------------------------------------------------------------
 -----
 title
 -----
 Symbolic Z-matrix:
 Charge =  0 Multiplicity = 2

 SCF Done:  E(UHF) =  -119.893413510     A.U. after   15 cycles
 Normal termination of Gaussian 16 at Wed Apr  9 00:33:46 2025.
 Gaussian 16:  ES64L-G16RevC.01  3-Jul-2019

 ----------------------------------------------------------------------
 #t hf aug-cc-pvdz iop(5/13=1,5/36=2,99/5=2) pseudo=read geom=check gue
 ss=(read,tcheck) scf=(maxcycle=1)
 ----------------------------------------------------------------------
 -----
 title
 -----
 Structure from the checkpoint file:  "BDE49_nonexpt_452_mol2.chk"
 Charge =  0 Multiplicity = 2

                         Standard orientation:
 ---------------------------------------------------------------------
 Center     Atomic      Atomic             Coordinates (Angstroms)
 Number     Number       Type             X           Y           Z
 ---------------------------------------------------------------------
      1          1           0       -2.492935    0.027543   -0.000003
      2          7           0       -0.233395    0.344720    0.000005
      3          5           0       -1.383623   -0.407199   -0.000009
      4          6           0        1.141703   -0.150468   -0.000001
      5          1           0       -0.295668    1.358882    0.000022
      6          1           0        1.122237   -1.240141   -0.000029
      7          1           0        1.684011    0.189718    0.888024
      8          1           0        1.684020    0.189764   -0.888003
 ---------------------------------------------------------------------

 SCF Done:  E(UHF) =  -119.933950323     A.U. after    2 cycles

 The electronic state is 2-A.
 Alpha  occ. eigenvalues --  -15.62876 -11.27198  -7.61717  -1.16166  -0.91937
 Alpha  occ. eigenvalues --   -0.72462  -0.64071  -0.60131  -0.55506  -0.53218
 Alpha  occ. eigenvalues --   -0.40339  -0.31657
 Alpha virt. eigenvalues --    0.03295   0.04555   0.04717   0.05612   0.07455
 Alpha virt. eigenvalues --    0.07645   0.07938   0.10257   0.13048   0.14614
 Alpha virt. eigenvalues --    0.14647   0.16084   0.16877   0.18061   0.19261

  Beta  occ. eigenvalues --  -15.63167 -11.27102  -7.59840  -1.16202  -0.91586
  Beta  occ. eigenvalues --   -0.70257  -0.63007  -0.60407  -0.54376  -0.51594
  Beta  occ. eigenvalues --   -0.41253
  Beta virt. eigenvalues --    0.03177   0.04543   0.04656   0.05487   0.07063
  Beta virt. eigenvalues --    0.07817   0.07830   0.09810   0.11673   0.14288
  Beta virt. eigenvalues --    0.15573   0.15854   0.17492   0.17849   0.18146

 Mulliken charges and spin densities:
               1          2
     1  H    0.409188   0.008663
     2  N   -0.226071  -0.134347
     3  B   -0.516325   1.076647
     4  C    0.808799   0.025209
     5  H   -0.057249   0.038177
     6  H   -0.199681  -0.013767
     7  H   -0.109330  -0.000291
     8  H   -0.109331  -0.000291
 Sum of Mulliken charges =  -0.00000   1.00000

 Dipole moment (field-independent basis, Debye):
    X=              1.6072    Y=              1.4208    Z=              0.0000  Tot=              2.1452
                          Isotropic Fermi Contact Couplings
        Atom                 a.u.       MegaHertz       Gauss      10(-4) cm-1
     1  H(1)               0.01257      56.16728      20.04188      18.73539
     2  N(14)             -0.02067      -6.67703      -2.38253      -2.22722
     3  B(11)              0.29613     424.76028     151.56503     141.68478
     4  C(13)              0.02712      30.48390      10.87741      10.16833
     5  H(1)               0.01474      65.90047      23.51493      21.98203
     6  H(1)              -0.00080      -3.55856      -1.26978      -1.18701
     7  H(1)              -0.00099      -4.41621      -1.57581      -1.47309
     8  H(1)              -0.00099      -4.41611      -1.57578      -1.47306

 Normal termination of Gaussian 16 at Wed Apr  9 00:33:49 2025.
