 Gaussian 16, Revision C.01,

 ----------------------------------------------------------------------
 #t hf aug-cc-pvdz symm=none int=(grid=ultrafine) guess=(read,tcheck) s
 table=(opt,rrhf)
 ----------------------------------------------------------------------
 -----
 title
 -----
 Symbolic Z-matrix:
 Charge =  0 Multiplicity = 1

 SCF Done:  E(RHF) =  -1190.24504015     A.U. after   15 cycles
 Normal termination of Gaussian 16 at Wed Apr  9 00:26:49 2025.
 Gaussian 16:  ES64L-G16RevC.01  3-Jul-2019

 ----------------------------------------------------------------------
 #t hf aug-cc-pvdz iop(5/13=1,5/36=2,99/5=2) pseudo=read geom=check gue
 ss=(read,tcheck) scf=(maxcycle=1)
 ----------------------------------------------------------------------
 -----
 title
 -----
 Structure from the checkpoint file:  "BDE49_nonexpt_2463_mol1.chk"
 Charge =  0 Multiplicity = 1

                         Standard orientation:
 ---------------------------------------------------------------------
 Center     Atomic      Atomic             Coordinates (Angstroms)
 Number     Number       Type             X           Y           Z
 ---------------------------------------------------------------------
      1         14           0        1.139236    2.110817    0.320296
      2         14           0       -1.139236    2.110817   -0.320296
      3          6           0       -1.956881    0.422112   -0.167308
      4          1           0       -1.284129    2.524571   -1.738354
      5          1           0       -1.861066    3.109147    0.511379
      6          6           0       -1.922388   -0.278541    1.048050
      7          6           0       -2.600588   -0.193378   -1.248134
      8          6           0       -3.190095   -1.451850   -1.132549
      9          6           0       -3.139393   -2.121369    0.086853
     10          6           0       -2.505718   -1.537877    1.181285
     11          1           0       -2.640424    0.325159   -2.200444
     12          1           0       -3.684535   -1.903540   -1.984600
     13          6           0        1.956881    0.422112    0.167308
     14          1           0        1.284129    2.524571    1.738354
     15          1           0        1.861066    3.109147   -0.511379
     16          6           0        1.922388   -0.278541   -1.048050
     17          6           0        2.600587   -0.193379    1.248134
     18          6           0        3.190095   -1.451850    1.132549
     19          6           0        3.139393   -2.121369   -0.086853
     20          6           0        2.505718   -1.537877   -1.181285
     21          1           0        2.640424    0.325159    2.200444
     22          1           0        3.684534   -1.903541    1.984600
     23          8           0       -1.289269    0.344665    2.092414
     24          8           0        1.289269    0.344666   -2.092414
     25          1           0       -3.592748   -3.100600    0.192871
     26          1           0        3.592748   -3.100600   -0.192871
     27          1           0       -2.465199   -2.058542    2.133936
     28          1           0        2.465199   -2.058542   -2.133936
     29          1           0       -1.263328   -0.239537    2.857118
     30          1           0        1.263328   -0.239537   -2.857118
 ---------------------------------------------------------------------

 SCF Done:  E(RHF) =  -1190.46642176     A.U. after    2 cycles

 The electronic state is 1-A.
 Alpha  occ. eigenvalues --  -69.04799 -69.04799 -20.60990 -20.60989 -11.31800
 Alpha  occ. eigenvalues --  -11.31799 -11.25554 -11.25554 -11.25266 -11.25265
 Alpha  occ. eigenvalues --  -11.24522 -11.24522 -11.23764 -11.23764 -11.22724
 Alpha  occ. eigenvalues --  -11.22723  -6.80147  -6.80138  -3.90890  -3.90889
 Alpha  occ. eigenvalues --   -3.90866  -3.90852  -3.90832  -3.90761  -1.37210
 Alpha  occ. eigenvalues --   -1.37162  -1.13812  -1.13797  -1.01450  -1.01330
 Alpha  occ. eigenvalues --   -1.00191  -1.00145  -0.85519  -0.85409  -0.82925
 Alpha  occ. eigenvalues --   -0.82564  -0.74893  -0.74708  -0.71371  -0.69304
 Alpha  occ. eigenvalues --   -0.67833  -0.66273  -0.64890  -0.63188  -0.61428
 Alpha  occ. eigenvalues --   -0.60867  -0.60787  -0.60701  -0.58948  -0.58722
 Alpha  occ. eigenvalues --   -0.55299  -0.54424  -0.51721  -0.51655  -0.49398
 Alpha  occ. eigenvalues --   -0.49247  -0.47269  -0.46080  -0.44976  -0.44313
 Alpha  occ. eigenvalues --   -0.39347  -0.34656  -0.33726  -0.32133  -0.31824
 Alpha virt. eigenvalues --    0.02709   0.03252   0.03830   0.04165   0.04761
 Alpha virt. eigenvalues --    0.05184   0.05384   0.05848   0.06648   0.06980
 Alpha virt. eigenvalues --    0.07253   0.07358   0.08157   0.08970   0.09405

 Mulliken charges:
               1
     1  Si  -0.439525
     2  Si  -0.439526
     3  C   -0.355458
     4  H    0.124548
     5  H    0.168463
     6  C    0.450766
     7  C    0.779818
     8  C    0.462602
     9  C    0.484112
    10  C    1.062394
    11  H   -0.706267
    12  H   -0.487998
    13  C   -0.355457
    14  H    0.124548
    15  H    0.168463
    16  C    0.450761
    17  C    0.779813
    18  C    0.462606
    19  C    0.484110
    20  C    1.062398
    21  H   -0.706265
    22  H   -0.487998
    23  O   -0.611294
    24  O   -0.611295
    25  H   -0.454244
    26  H   -0.454244
    27  H   -0.662156
    28  H   -0.662156
    29  H    0.184240
    30  H    0.184241
 Sum of Mulliken charges =   0.00000

 Dipole moment (field-independent basis, Debye):
    X=              0.0000    Y=             -4.0027    Z=              0.0000  Tot=              4.0027

 Test job not archived.
 1\1\GINC-SE342\SP\RHF\Aug-CC-pVDZ\C12H14O2Si2\OHZDE\09-Apr-2025\0\\#t
 hf aug-cc-pvdz iop(5/13=1,5/36=2,99/5=2) pseudo=read geom=check guess=
 (read,tcheck) scf=(maxcycle=1)\\title\\0,1\Si,0,-1.139236,2.110817,-0.
 320296\Si,0,1.139236,2.110817,0.320296\C,0,1.956881,0.422112,0.167308\
 H,0,1.284129,2.524571,1.738354\H,0,1.861066,3.109147,-0.511379\C,0,1.9
 22388,-0.278541,-1.04805\C,0,2.600588,-0.193378,1.248134\C,0,3.190095,
 -1.45185,1.132549\C,0,3.139393,-2.121369,-0.086853\C,0,2.505718,-1.537
 877,-1.181285\H,0,2.640424,0.325159,2.200444\H,0,3.684535,-1.90354,1.9

 Normal termination of Gaussian 16 at Wed Apr  9 00:27:32 2025.
