 Gaussian 16, Revision C.01,

 ----------------------------------------------------------------------
 #t hf aug-cc-pvdz symm=none int=(grid=ultrafine) guess=(read,tcheck) s
 table=opt
 ----------------------------------------------------------------------
 -----
 title
 -----
 Symbolic Z-matrix:
 Charge =  0 Multiplicity = 2

 SCF Done:  E(UHF) =  -458.994314451     A.U. after   16 cycles
 Normal termination of Gaussian 16 at Tue Apr  8 23:34:13 2025.
 Gaussian 16:  ES64L-G16RevC.01  3-Jul-2019

 ----------------------------------------------------------------------
 #t hf aug-cc-pvdz iop(5/13=1,5/36=2,99/5=2) pseudo=read geom=check gue
 ss=(read,tcheck) scf=(maxcycle=1)
 ----------------------------------------------------------------------
 -----
 title
 -----
 Structure from the checkpoint file:  "BDE49_nonexpt_1504_mol2.chk"
 Charge =  0 Multiplicity = 2

                         Standard orientation:
 ---------------------------------------------------------------------
 Center     Atomic      Atomic             Coordinates (Angstroms)
 Number     Number       Type             X           Y           Z
 ---------------------------------------------------------------------
      1         15           0       -0.541849   -0.684874   -0.000009
      2          6           0        0.806516    0.602145    0.000016
      3          6           0        2.213338   -0.007281   -0.000003
      4          1           0        0.669769    1.247714    0.877187
      5          1           0        0.669764    1.247758   -0.877121
      6          1           0        2.375443   -0.633204   -0.881989
      7          1           0        2.375440   -0.633267    0.881940
      8          6           0       -2.014802    0.444917    0.000000
      9          1           0       -2.020314    1.089775   -0.885630
     10          1           0       -2.020311    1.089768    0.885636
     11          1           0       -2.931959   -0.147246   -0.000001
     12          1           0        2.979592    0.773122    0.000027
 ---------------------------------------------------------------------

 SCF Done:  E(UHF) =  -459.053542442     A.U. after    2 cycles

 The electronic state is 2-A.
 Alpha  occ. eigenvalues --  -81.24907 -11.23981 -11.23538 -11.23107  -7.75336
 Alpha  occ. eigenvalues --   -4.90069  -4.89002  -4.88663  -1.02709  -0.95890
 Alpha  occ. eigenvalues --   -0.85125  -0.70239  -0.62113  -0.57922  -0.57435
 Alpha  occ. eigenvalues --   -0.57274  -0.51828  -0.50231  -0.44455  -0.36845
 Alpha  occ. eigenvalues --   -0.31864
 Alpha virt. eigenvalues --    0.03598   0.04318   0.05226   0.05403   0.06646
 Alpha virt. eigenvalues --    0.07093   0.07680   0.08971   0.09761   0.11566
 Alpha virt. eigenvalues --    0.13071   0.13307   0.14171   0.15929   0.16146

  Beta  occ. eigenvalues --  -81.24214 -11.24122 -11.23680 -11.23100  -7.74503
  Beta  occ. eigenvalues --   -4.88508  -4.88315  -4.86895  -1.02378  -0.95344
  Beta  occ. eigenvalues --   -0.84753  -0.65310  -0.61172  -0.57387  -0.57231
  Beta  occ. eigenvalues --   -0.56117  -0.51624  -0.49733  -0.44099  -0.34585
  Beta virt. eigenvalues --    0.03619   0.04337   0.04972   0.05435   0.06249
  Beta virt. eigenvalues --    0.06667   0.07168   0.07727   0.09337   0.09934
  Beta virt. eigenvalues --    0.11853   0.13193   0.14208   0.15655   0.16268

 Mulliken charges and spin densities:
               1          2
     1  P    0.590956   1.200082
     2  C   -0.070642  -0.159844
     3  C    0.292342   0.037477
     4  H   -0.145362   0.012819
     5  H   -0.145363   0.012818
     6  H   -0.078567   0.001704
     7  H   -0.078566   0.001704
     8  C    0.218494  -0.129830
     9  H   -0.157963   0.014140
    10  H   -0.157961   0.014140
    11  H   -0.218486  -0.003859
    12  H   -0.048880  -0.001352
 Sum of Mulliken charges =   0.00000   1.00000

 Dipole moment (field-independent basis, Debye):
    X=              0.0008    Y=              1.4856    Z=              0.0000  Tot=              1.4856
                          Isotropic Fermi Contact Couplings
        Atom                 a.u.       MegaHertz       Gauss      10(-4) cm-1
     1  P(31)              0.24093     436.34895     155.70016     145.55034
     2  C(13)             -0.02720     -30.57657     -10.91048     -10.19925
     3  C(13)              0.00071       0.80121       0.28589       0.26725
     4  H(1)               0.00964      43.10624      15.38138      14.37870
     5  H(1)               0.00964      43.10503      15.38095      14.37829
     6  H(1)              -0.00037      -1.67374      -0.59723      -0.55830
     7  H(1)              -0.00037      -1.67377      -0.59724      -0.55831
     8  C(13)             -0.02811     -31.60371     -11.27699     -10.54186

 Normal termination of Gaussian 16 at Tue Apr  8 23:34:16 2025.
