 Gaussian 16, Revision C.01,

 ----------------------------------------------------------------------
 #t hf aug-cc-pvdz symm=none int=(grid=ultrafine) guess=(read,tcheck) s
 table=opt
 ----------------------------------------------------------------------
 -----
 title
 -----
 Symbolic Z-matrix:
 Charge =  0 Multiplicity = 2

 SCF Done:  E(UHF) =  -351.367025374     A.U. after   21 cycles
 Normal termination of Gaussian 16 at Wed Apr  9 00:30:26 2025.
 Gaussian 16:  ES64L-G16RevC.01  3-Jul-2019

 ----------------------------------------------------------------------
 #t hf aug-cc-pvdz iop(5/13=1,5/36=2,99/5=2) pseudo=read geom=check gue
 ss=(read,tcheck) scf=(maxcycle=1)
 ----------------------------------------------------------------------
 -----
 title
 -----
 Structure from the checkpoint file:  "BDE49_nonexpt_378_mol2.chk"
 Charge =  0 Multiplicity = 2

                         Standard orientation:
 ---------------------------------------------------------------------
 Center     Atomic      Atomic             Coordinates (Angstroms)
 Number     Number       Type             X           Y           Z
 ---------------------------------------------------------------------
      1          9           0        2.480180   -0.372452    0.292042
      2          5           0        1.490830   -0.181693   -0.535701
      3          6           0        0.029062    0.266336   -0.136912
      4          8           0       -0.231847    1.434590    0.045536
      5          8           0       -0.869025   -0.734109   -0.122806
      6          6           0       -2.237952   -0.353361    0.144508
      7          1           0       -2.807893   -1.277844    0.100123
      8          1           0       -2.587518    0.353447   -0.609001
      9          1           0       -2.320047    0.103229    1.131594
 ---------------------------------------------------------------------

 SCF Done:  E(UHF) =  -351.491405731     A.U. after    2 cycles

 The electronic state is 2-A.
 Alpha  occ. eigenvalues --  -26.17169 -20.63482 -20.58327 -11.39799 -11.31044
 Alpha  occ. eigenvalues --   -7.73871  -1.71620  -1.43286  -1.34251  -1.00061
 Alpha  occ. eigenvalues --   -0.89034  -0.83426  -0.79737  -0.77164  -0.75209
 Alpha  occ. eigenvalues --   -0.70442  -0.69441  -0.61381  -0.57865  -0.55354
 Alpha  occ. eigenvalues --   -0.50216  -0.49485  -0.38449
 Alpha virt. eigenvalues --    0.03446   0.04365   0.05172   0.05342   0.06074
 Alpha virt. eigenvalues --    0.06887   0.07102   0.09052   0.11851   0.13272
 Alpha virt. eigenvalues --    0.13970   0.14721   0.15890   0.16180   0.17887

  Beta  occ. eigenvalues --  -26.16835 -20.63476 -20.58033 -11.39584 -11.31042
  Beta  occ. eigenvalues --   -7.71910  -1.70676  -1.43032  -1.33747  -0.99710
  Beta  occ. eigenvalues --   -0.87657  -0.82051  -0.77623  -0.77158  -0.73779
  Beta  occ. eigenvalues --   -0.70089  -0.69175  -0.60676  -0.56665  -0.55166
  Beta  occ. eigenvalues --   -0.48986  -0.47862
  Beta virt. eigenvalues --    0.03039   0.03932   0.04906   0.05247   0.06284
  Beta virt. eigenvalues --    0.06685   0.06921   0.08809   0.11455   0.12279
  Beta virt. eigenvalues --    0.13808   0.15026   0.15549   0.16114   0.17108

 Mulliken charges and spin densities:
               1          2
     1  F   -0.270123  -0.049914
     2  B    0.274015   0.981182
     3  C    0.549304   0.005345
     4  O   -0.433387   0.066701
     5  O   -0.506518  -0.002370
     6  C    0.754820  -0.000761
     7  H   -0.226319   0.000465
     8  H   -0.070083   0.000186
     9  H   -0.071709  -0.000834
 Sum of Mulliken charges =  -0.00000   1.00000

 Dipole moment (field-independent basis, Debye):
    X=             -1.6703    Y=             -1.7233    Z=             -0.3261  Tot=              2.4220
                          Isotropic Fermi Contact Couplings
        Atom                 a.u.       MegaHertz       Gauss      10(-4) cm-1
     1  F(19)              0.06648     279.71908      99.81072      93.30424
     2  B(11)              0.35719     512.34681     182.81808     170.90050
     3  C(13)              0.07237      81.35299      29.02877      27.13644
     4  O(17)              0.02422     -14.67953      -5.23802      -4.89656
     5  O(17)             -0.00126       0.76287       0.27221       0.25447
     6  C(13)              0.00011       0.11875       0.04237       0.03961
     7  H(1)               0.00007       0.29116       0.10389       0.09712
     8  H(1)               0.00015       0.65170       0.23254       0.21738

 Normal termination of Gaussian 16 at Wed Apr  9 00:30:29 2025.
