 Gaussian 16, Revision C.01,

 ----------------------------------------------------------------------
 #t hf aug-cc-pvdz symm=none int=(grid=ultrafine) guess=(read,tcheck) s
 table=(opt,rrhf)
 ----------------------------------------------------------------------
 -----
 title
 -----
 Symbolic Z-matrix:
 Charge =  0 Multiplicity = 1

 SCF Done:  E(RHF) =  -251.832488477     A.U. after   13 cycles
 Normal termination of Gaussian 16 at Tue Apr  8 22:59:37 2025.
 Gaussian 16:  ES64L-G16RevC.01  3-Jul-2019

 ----------------------------------------------------------------------
 #t hf aug-cc-pvdz iop(5/13=1,5/36=2,99/5=2) pseudo=read geom=check gue
 ss=(read,tcheck) scf=(maxcycle=1)
 ----------------------------------------------------------------------
 -----
 title
 -----
 Structure from the checkpoint file:  "BDE49_expt_218_mol1.chk"
 Charge =  0 Multiplicity = 1

                         Standard orientation:
 ---------------------------------------------------------------------
 Center     Atomic      Atomic             Coordinates (Angstroms)
 Number     Number       Type             X           Y           Z
 ---------------------------------------------------------------------
      1          6           0       -1.368158   -0.045654   -0.000008
      2          6           0        0.125210   -0.143317   -0.000046
      3          1           0       -1.696652    0.511891    0.879943
      4          1           0       -1.804767   -1.041784   -0.000099
      5          1           0       -1.696685    0.512073   -0.879831
      6          8           0        0.816162   -1.101876   -0.000071
      7          9           0        0.680722    1.107406    0.000098
 ---------------------------------------------------------------------

 SCF Done:  E(RHF) =  -251.919688396     A.U. after    2 cycles

 The electronic state is 1-A.
 Alpha  occ. eigenvalues --  -26.15125 -20.60186 -11.44417 -11.27993  -1.69275
 Alpha  occ. eigenvalues --   -1.40666  -1.05083  -0.88595  -0.77593  -0.77014
 Alpha  occ. eigenvalues --   -0.73984  -0.64829  -0.62284  -0.60084  -0.55190
 Alpha  occ. eigenvalues --   -0.51466
 Alpha virt. eigenvalues --    0.02984   0.05214   0.05532   0.07866   0.11309
 Alpha virt. eigenvalues --    0.11719   0.12015   0.14375   0.14410   0.14537
 Alpha virt. eigenvalues --    0.15425   0.19933   0.23821   0.24517   0.26825

 Mulliken charges:
               1
     1  C    0.264348
     2  C    0.365795
     3  H    0.047147
     4  H   -0.010134
     5  H    0.047139
     6  O   -0.348785
     7  F   -0.365510
 Sum of Mulliken charges =  -0.00000

 Dipole moment (field-independent basis, Debye):
    X=             -3.4585    Y=              0.6178    Z=             -0.0001  Tot=              3.5133

 Test job not archived.
 1\1\GINC-SE097\SP\RHF\Aug-CC-pVDZ\C2H3F1O1\OHZDE\08-Apr-2025\0\\#t hf
 aug-cc-pvdz iop(5/13=1,5/36=2,99/5=2) pseudo=read geom=check guess=(re
 ad,tcheck) scf=(maxcycle=1)\\title\\0,1\C,0,-1.368158,-0.045654,-0.000
 008\C,0,0.12521,-0.143317,-0.000046\H,0,-1.696652,0.511891,0.879943\H,
 0,-1.804767,-1.041784,-0.000099\H,0,-1.696685,0.512073,-0.879831\O,0,0
 .816162,-1.101876,-0.000071\F,0,0.680722,1.107406,0.000098\\Version=ES
 64L-G16RevC.01\State=1-A\HF=-251.9196884\RMSD=5.123e-03\Dipole=-1.3606
 901,0.2430646,-0.0000307\Quadrupole=0.7361903,-2.2892283,1.5530381,0.6

 Normal termination of Gaussian 16 at Tue Apr  8 22:59:38 2025.
