 Gaussian 16, Revision C.01,

 ----------------------------------------------------------------------
 #t hf aug-cc-pvdz symm=none int=(grid=ultrafine) guess=(read,tcheck) s
 table=(opt,rrhf)
 ----------------------------------------------------------------------
 -----
 title
 -----
 Symbolic Z-matrix:
 Charge =  0 Multiplicity = 1

 SCF Done:  E(RHF) =  -903.230161099     A.U. after   12 cycles
 Normal termination of Gaussian 16 at Wed Apr  9 00:00:30 2025.
 Gaussian 16:  ES64L-G16RevC.01  3-Jul-2019

 ----------------------------------------------------------------------
 #t hf aug-cc-pvdz iop(5/13=1,5/36=2,99/5=2) pseudo=read geom=check gue
 ss=(read,tcheck) scf=(maxcycle=1)
 ----------------------------------------------------------------------
 -----
 title
 -----
 Structure from the checkpoint file:  "BDE49_nonexpt_2162_mol1.chk"
 Charge =  0 Multiplicity = 1

                         Standard orientation:
 ---------------------------------------------------------------------
 Center     Atomic      Atomic             Coordinates (Angstroms)
 Number     Number       Type             X           Y           Z
 ---------------------------------------------------------------------
      1          6           0        2.401118   -0.308423   -0.066500
      2          8           0        1.281582    0.548385   -0.280599
      3         14           0       -0.199845    0.421174    0.394809
      4          6           0       -1.254677    1.794639   -0.261289
      5          1           0       -1.326802    1.737006   -1.349742
      6          1           0       -0.821410    2.762230    0.007086
      7          1           0        2.213610   -1.302450   -0.482542
      8          1           0        2.630434   -0.404129    1.000517
      9         17           0       -1.053948   -1.426786   -0.114285
     10          1           0       -2.263083    1.737427    0.156105
     11          1           0        3.258634    0.134799   -0.573583
     12          1           0       -0.107745    0.389671    1.869196
 ---------------------------------------------------------------------

 SCF Done:  E(RHF) =  -903.335501697     A.U. after    2 cycles

 The electronic state is 1-A.
 Alpha  occ. eigenvalues -- -103.64148 -69.13010 -20.57469 -11.29929 -11.22852
 Alpha  occ. eigenvalues --  -10.67601  -8.33286  -8.33082  -8.33074  -6.87447
 Alpha  occ. eigenvalues --   -3.98376  -3.98260  -3.98154  -1.31970  -1.12479
 Alpha  occ. eigenvalues --   -0.96111  -0.93445  -0.72071  -0.65177  -0.64209
 Alpha  occ. eigenvalues --   -0.62123  -0.57925  -0.56390  -0.52093  -0.51172
 Alpha  occ. eigenvalues --   -0.49248  -0.47341  -0.46551  -0.44263
 Alpha virt. eigenvalues --    0.03418   0.04415   0.05262   0.05477   0.06517
 Alpha virt. eigenvalues --    0.07019   0.07713   0.08620   0.09619   0.09801
 Alpha virt. eigenvalues --    0.11849   0.14259   0.15054   0.15431   0.15772

 Mulliken charges:
               1
     1  C    0.804641
     2  O   -0.922854
     3  Si   1.544441
     4  C    0.246235
     5  H   -0.148436
     6  H   -0.171638
     7  H   -0.129275
     8  H   -0.140993
     9  Cl  -0.590320
    10  H   -0.234122
    11  H   -0.238767
    12  H   -0.018912
 Sum of Mulliken charges =  -0.00000

 Dipole moment (field-independent basis, Debye):
    X=              1.1178    Y=              1.2038    Z=              0.6436  Tot=              1.7643

 Test job not archived.
 1\1\GINC-SE457\SP\RHF\Aug-CC-pVDZ\C2H7Cl1O1Si1\OHZDE\09-Apr-2025\0\\#t
  hf aug-cc-pvdz iop(5/13=1,5/36=2,99/5=2) pseudo=read geom=check guess
 =(read,tcheck) scf=(maxcycle=1)\\title\\0,1\C,0,2.401118,-0.308423,-0.
 0665\O,0,1.281582,0.548385,-0.280599\Si,0,-0.199845,0.421174,0.394809\
 C,0,-1.254677,1.794639,-0.261289\H,0,-1.326802,1.737006,-1.349742\H,0,
 -0.82141,2.76223,0.007086\H,0,2.21361,-1.30245,-0.482542\H,0,2.630434,
 -0.404129,1.000517\Cl,0,-1.053948,-1.426786,-0.114285\H,0,-2.263083,1.
 737427,0.156105\H,0,3.258634,0.134799,-0.573583\H,0,-0.107745,0.389671

 Normal termination of Gaussian 16 at Wed Apr  9 00:00:34 2025.
