 Gaussian 16, Revision C.01,

 ----------------------------------------------------------------------
 #t hf aug-cc-pvdz symm=none int=(grid=ultrafine) guess=(read,tcheck) s
 table=(opt,rrhf)
 ----------------------------------------------------------------------
 -----
 title
 -----
 Symbolic Z-matrix:
 Charge =  0 Multiplicity = 1

 SCF Done:  E(RHF) =  -1062.52536413     A.U. after   16 cycles
 Normal termination of Gaussian 16 at Tue Apr  8 23:16:27 2025.
 Gaussian 16:  ES64L-G16RevC.01  3-Jul-2019

 ----------------------------------------------------------------------
 #t hf aug-cc-pvdz iop(5/13=1,5/36=2,99/5=2) pseudo=read geom=check gue
 ss=(read,tcheck) scf=(maxcycle=1)
 ----------------------------------------------------------------------
 -----
 title
 -----
 Structure from the checkpoint file:  "BDE49_expt_500_mol1.chk"
 Charge =  0 Multiplicity = 1

                         Standard orientation:
 ---------------------------------------------------------------------
 Center     Atomic      Atomic             Coordinates (Angstroms)
 Number     Number       Type             X           Y           Z
 ---------------------------------------------------------------------
      1          6           0        3.405452    0.428615    1.025970
      2          6           0        2.391726   -0.479709    0.737188
      3          6           0        3.761265    1.416713    0.109224
      4          6           0        3.084866    1.500013   -1.105235
      5          6           0        2.051035    0.613941   -1.393283
      6          6           0        1.702133   -0.382193   -0.475927
      7          1           0        2.130617   -1.263911    1.434056
      8          1           0        3.933940    0.348975    1.969244
      9          1           0        3.352292    2.262157   -1.828291
     10          1           0        1.511249    0.693346   -2.331350
     11          7           0        0.688095   -1.321300   -0.815743
     12          6           0       -1.589050   -0.057435    0.144783
     13          6           0       -1.342704    0.865302    1.160802
     14          6           0       -2.524429    0.200900   -0.857783
     15          6           0       -3.213827    1.409645   -0.845137
     16          6           0       -2.036824    2.072571    1.159875
     17          6           0       -2.967575    2.345507    0.159157
     18          1           0       -3.508832    3.284685    0.166390
     19          1           0       -3.949541    1.616423   -1.613639
     20          1           0       -2.720613   -0.546790   -1.615716
     21          1           0       -0.632654    0.628904    1.941902
     22          1           0       -1.854919    2.795823    1.946162
     23          1           0        4.561559    2.110956    0.337067
     24         16           0       -0.684266   -1.600147    0.114977
     25          1           0        0.444170   -1.351882   -1.798421
     26          8           0       -0.241207   -1.869896    1.458295
     27          8           0       -1.442303   -2.546411   -0.665124
 ---------------------------------------------------------------------

 SCF Done:  E(RHF) =  -1062.80034192     A.U. after    2 cycles

 The electronic state is 1-A.
 Alpha  occ. eigenvalues --  -93.81097 -20.56518 -20.56476 -15.67393 -11.30525
 Alpha  occ. eigenvalues --  -11.29044 -11.27755 -11.27657 -11.27414 -11.26853
 Alpha  occ. eigenvalues --  -11.26771 -11.25878 -11.25750 -11.25617 -11.25143
 Alpha  occ. eigenvalues --  -11.25002  -9.07358  -6.42051  -6.41895  -6.41743
 Alpha  occ. eigenvalues --   -1.43994  -1.32040  -1.22662  -1.17348  -1.13908
 Alpha  occ. eigenvalues --   -1.05276  -1.03831  -1.02334  -1.01012  -0.90813
 Alpha  occ. eigenvalues --   -0.85797  -0.85228  -0.84623  -0.80776  -0.75590
 Alpha  occ. eigenvalues --   -0.73390  -0.71832  -0.68948  -0.68734  -0.66865
 Alpha  occ. eigenvalues --   -0.64750  -0.64499  -0.63905  -0.62047  -0.61959
 Alpha  occ. eigenvalues --   -0.60332  -0.55822  -0.55366  -0.54489  -0.53196
 Alpha  occ. eigenvalues --   -0.53094  -0.52535  -0.51822  -0.51201  -0.50421
 Alpha  occ. eigenvalues --   -0.47902  -0.46430  -0.37318  -0.36503  -0.35282
 Alpha  occ. eigenvalues --   -0.32955
 Alpha virt. eigenvalues --    0.02555   0.03274   0.03459   0.04346   0.04639
 Alpha virt. eigenvalues --    0.05425   0.05806   0.06500   0.07038   0.07196
 Alpha virt. eigenvalues --    0.07598   0.08536   0.08694   0.09706   0.09852

 Mulliken charges:
               1
     1  C    0.454625
     2  C    0.558537
     3  C    0.671360
     4  C    0.366001
     5  C    0.647881
     6  C    0.650158
     7  H   -0.616526
     8  H   -0.455648
     9  H   -0.447840
    10  H   -0.697681
    11  N   -1.031907
    12  C    0.295308
    13  C    0.236541
    14  C    0.008497
    15  C    0.575740
    16  C    0.443695
    17  C    0.652400
    18  H   -0.445341
    19  H   -0.447243
    20  H   -0.583601
    21  H   -0.616059
    22  H   -0.460810
    23  H   -0.457799
    24  S    2.871840
    25  H   -0.103766
    26  O   -1.079641
    27  O   -0.988720
 Sum of Mulliken charges =   0.00000

 Dipole moment (field-independent basis, Debye):
    X=              0.3323    Y=              5.7975    Z=             -1.8350  Tot=              6.0901

 Test job not archived.
 1\1\GINC-SE105\SP\RHF\Aug-CC-pVDZ\C12H11N1O2S1\OHZDE\08-Apr-2025\0\\#t
  hf aug-cc-pvdz iop(5/13=1,5/36=2,99/5=2) pseudo=read geom=check guess
 =(read,tcheck) scf=(maxcycle=1)\\title\\0,1\C,0,3.405452,0.428615,1.02
 597\C,0,2.391726,-0.479709,0.737188\C,0,3.761265,1.416713,0.109224\C,0
 ,3.084866,1.500013,-1.105235\C,0,2.051035,0.613941,-1.393283\C,0,1.702
 133,-0.382193,-0.475927\H,0,2.130617,-1.263911,1.434056\H,0,3.93394,0.
 348975,1.969244\H,0,3.352292,2.262157,-1.828291\H,0,1.511249,0.693346,
 -2.33135\N,0,0.688095,-1.3213,-0.815743\C,0,-1.58905,-0.057435,0.14478

 Normal termination of Gaussian 16 at Tue Apr  8 23:17:02 2025.
