 Gaussian 16, Revision C.01,

 ----------------------------------------------------------------------
 #t hf aug-cc-pvdz symm=none int=(grid=ultrafine) guess=(read,tcheck) s
 table=(opt,rrhf)
 ----------------------------------------------------------------------
 -----
 title
 -----
 Symbolic Z-matrix:
 Charge =  0 Multiplicity = 1

 SCF Done:  E(RHF) =  -533.849128786     A.U. after   16 cycles
 Normal termination of Gaussian 16 at Wed Apr  9 00:04:30 2025.
 Gaussian 16:  ES64L-G16RevC.01  3-Jul-2019

 ----------------------------------------------------------------------
 #t hf aug-cc-pvdz iop(5/13=1,5/36=2,99/5=2) pseudo=read geom=check gue
 ss=(read,tcheck) scf=(maxcycle=1)
 ----------------------------------------------------------------------
 -----
 title
 -----
 Structure from the checkpoint file:  "BDE49_nonexpt_2241_mol1.chk"
 Charge =  0 Multiplicity = 1

                         Standard orientation:
 ---------------------------------------------------------------------
 Center     Atomic      Atomic             Coordinates (Angstroms)
 Number     Number       Type             X           Y           Z
 ---------------------------------------------------------------------
      1         14           0        1.003026   -0.588500    0.090606
      2          8           0       -0.546789   -0.261625   -0.520151
      3          7           0       -1.563187    0.129823    0.443284
      4          8           0       -2.572076    0.361528   -0.083367
      5          6           0        2.086427    0.924943   -0.023424
      6          1           0        2.154011    1.285577   -1.053045
      7          1           0        3.098641    0.687529    0.319807
      8          1           0        1.700493    1.736306    0.599588
      9          1           0        1.514483   -1.682202   -0.759474
     10          1           0        0.864677   -1.045850    1.490333
 ---------------------------------------------------------------------

 SCF Done:  E(RHF) =  -533.958225700     A.U. after    2 cycles

 The electronic state is 1-A.
 Alpha  occ. eigenvalues --  -69.10437 -20.68324 -20.61480 -15.86427 -11.23084
 Alpha  occ. eigenvalues --   -6.85266  -3.96185  -3.96035  -3.96000  -1.55892
 Alpha  occ. eigenvalues --   -1.32268  -0.95859  -0.92909  -0.78629  -0.73754
 Alpha  occ. eigenvalues --   -0.69205  -0.66830  -0.58717  -0.57787  -0.55539
 Alpha  occ. eigenvalues --   -0.54722  -0.49006  -0.46097  -0.45631
 Alpha virt. eigenvalues --    0.03270   0.04724   0.05255   0.05537   0.07570
 Alpha virt. eigenvalues --    0.07791   0.08245   0.08600   0.10079   0.11812
 Alpha virt. eigenvalues --    0.14262   0.15050   0.15443   0.15961   0.16788

 Mulliken charges:
               1
     1  Si   1.221601
     2  O   -0.870688
     3  N    0.433870
     4  O   -0.290634
     5  C    0.199258
     6  H   -0.162411
     7  H   -0.238269
     8  H   -0.191793
     9  H   -0.026175
    10  H   -0.074758
 Sum of Mulliken charges =  -0.00000

 Dipole moment (field-independent basis, Debye):
    X=              2.3526    Y=              0.2386    Z=              0.9190  Tot=              2.5370

 Test job not archived.
 1\1\GINC-SE419\SP\RHF\Aug-CC-pVDZ\C1H5N1O2Si1\OHZDE\09-Apr-2025\0\\#t
 hf aug-cc-pvdz iop(5/13=1,5/36=2,99/5=2) pseudo=read geom=check guess=
 (read,tcheck) scf=(maxcycle=1)\\title\\0,1\Si,0,1.003026,-0.5885,0.090
 606\O,0,-0.546789,-0.261625,-0.520151\N,0,-1.563187,0.129823,0.443284\
 O,0,-2.572076,0.361528,-0.083367\C,0,2.086427,0.924943,-0.023424\H,0,2
 .154011,1.285577,-1.053045\H,0,3.098641,0.687529,0.319807\H,0,1.700493
 ,1.736306,0.599588\H,0,1.514483,-1.682202,-0.759474\H,0,0.864677,-1.04
 585,1.490333\\Version=ES64L-G16RevC.01\State=1-A\HF=-533.9582257\RMSD=

 Normal termination of Gaussian 16 at Wed Apr  9 00:04:33 2025.
