 Gaussian 16, Revision C.01,

 ----------------------------------------------------------------------
 #t hf aug-cc-pvdz symm=none int=(grid=ultrafine) guess=(read,tcheck) s
 table=(opt,rrhf)
 ----------------------------------------------------------------------
 -----
 title
 -----
 Symbolic Z-matrix:
 Charge =  0 Multiplicity = 1

 SCF Done:  E(RHF) =  -1030.95939921     A.U. after   15 cycles
 Normal termination of Gaussian 16 at Tue Apr  8 23:30:35 2025.
 Gaussian 16:  ES64L-G16RevC.01  3-Jul-2019

 ----------------------------------------------------------------------
 #t hf aug-cc-pvdz iop(5/13=1,5/36=2,99/5=2) pseudo=read geom=check gue
 ss=(read,tcheck) scf=(maxcycle=1)
 ----------------------------------------------------------------------
 -----
 title
 -----
 Structure from the checkpoint file:  "BDE49_nonexpt_1418_mol1.chk"
 Charge =  0 Multiplicity = 1

                         Standard orientation:
 ---------------------------------------------------------------------
 Center     Atomic      Atomic             Coordinates (Angstroms)
 Number     Number       Type             X           Y           Z
 ---------------------------------------------------------------------
      1          6           0       -2.338776   -0.914138    0.000783
      2          6           0       -1.068959   -1.481939    0.012187
      3          6           0        0.088128   -0.689098    0.016302
      4          6           0       -2.482745    0.471233   -0.001881
      5          6           0       -1.353934    1.284245    0.001827
      6          6           0       -0.092236    0.698575    0.002190
      7          1           0       -3.213663   -1.553759    0.001142
      8          1           0       -0.969275   -2.561256    0.024304
      9          1           0       -1.442777    2.362997    0.001831
     10         15           0        1.772547   -1.436613   -0.111994
     11         17           0        1.313990    1.759353   -0.001841
     12          1           0       -3.468098    0.922144   -0.005626
     13          1           0        1.389395   -2.720587    0.351149
     14          1           0        2.269524   -1.022620    1.149968
 ---------------------------------------------------------------------

 SCF Done:  E(RHF) =  -1031.06540268     A.U. after    2 cycles

 The electronic state is 1-A.
 Alpha  occ. eigenvalues -- -103.67030 -81.26748 -11.32041 -11.27377 -11.26570
 Alpha  occ. eigenvalues --  -11.26518 -11.26337 -11.26050 -10.70313  -8.36043
 Alpha  occ. eigenvalues --   -8.35751  -8.35724  -7.77091  -4.91169  -4.91054
 Alpha  occ. eigenvalues --   -4.90729  -1.20318  -1.13807  -1.03518  -1.00835
 Alpha  occ. eigenvalues --   -0.86443  -0.83770  -0.78084  -0.70128  -0.66516
 Alpha  occ. eigenvalues --   -0.64315  -0.60249  -0.57677  -0.55906  -0.52691
 Alpha  occ. eigenvalues --   -0.51159  -0.49724  -0.48286  -0.47152  -0.39633
 Alpha  occ. eigenvalues --   -0.35100  -0.32862
 Alpha virt. eigenvalues --    0.03111   0.03961   0.04513   0.05818   0.06343
 Alpha virt. eigenvalues --    0.07565   0.08091   0.08912   0.09625   0.09887
 Alpha virt. eigenvalues --    0.10321   0.12129   0.12591   0.13159   0.13435

 Mulliken charges:
               1
     1  C    0.367727
     2  C    0.921816
     3  C   -0.219637
     4  C    0.726952
     5  C    0.576084
     6  C   -0.280728
     7  H   -0.442581
     8  H   -0.559371
     9  H   -0.429622
    10  P   -0.097358
    11  Cl  -0.418572
    12  H   -0.417632
    13  H    0.086063
    14  H    0.186860
 Sum of Mulliken charges =   0.00000

 Dipole moment (field-independent basis, Debye):
    X=             -2.1841    Y=             -1.0410    Z=              0.5412  Tot=              2.4793

 Test job not archived.
 1\1\GINC-SE367\SP\RHF\Aug-CC-pVDZ\C6H6Cl1P1\OHZDE\08-Apr-2025\0\\#t hf
  aug-cc-pvdz iop(5/13=1,5/36=2,99/5=2) pseudo=read geom=check guess=(r
 ead,tcheck) scf=(maxcycle=1)\\title\\0,1\C,0,-2.338776,-0.914137,0.000
 783\C,0,-1.06896,-1.481939,0.012187\C,0,0.088128,-0.689098,0.016302\C,
 0,-2.482745,0.471234,-0.001881\C,0,-1.353934,1.284245,0.001827\C,0,-0.
 092236,0.698575,0.00219\H,0,-3.213664,-1.553758,0.001142\H,0,-0.969276
 ,-2.561256,0.024304\H,0,-1.442777,2.362997,0.001831\P,0,1.772546,-1.43
 6613,-0.111994\Cl,0,1.31399,1.759353,-0.001841\H,0,-3.468098,0.922145,

 Normal termination of Gaussian 16 at Tue Apr  8 23:30:41 2025.
