 Gaussian 16, Revision C.01,

 ----------------------------------------------------------------------
 #t hf aug-cc-pvdz symm=none int=(grid=ultrafine) guess=(read,tcheck) s
 table=opt
 ----------------------------------------------------------------------
 -----
 title
 -----
 Symbolic Z-matrix:
 Charge =  0 Multiplicity = 2

 SCF Done:  E(UHF) =  -177.470148649     A.U. after   15 cycles
 Normal termination of Gaussian 16 at Tue Apr  8 22:38:23 2025.
 Gaussian 16:  ES64L-G16RevC.01  3-Jul-2019

 ----------------------------------------------------------------------
 #t hf aug-cc-pvdz iop(5/13=1,5/36=2,99/5=2) pseudo=read geom=check gue
 ss=(read,tcheck) scf=(maxcycle=1)
 ----------------------------------------------------------------------
 -----
 title
 -----
 Structure from the checkpoint file:  "BDE49_expt_127_mol2.chk"
 Charge =  0 Multiplicity = 2

                         Standard orientation:
 ---------------------------------------------------------------------
 Center     Atomic      Atomic             Coordinates (Angstroms)
 Number     Number       Type             X           Y           Z
 ---------------------------------------------------------------------
      1          6           0        1.222759   -0.250935   -0.029215
      2          6           0       -0.032762    0.520938    0.064175
      3          1           0        2.134691    0.218215   -0.374546
      4          1           0        1.262983   -1.251379    0.381317
      5          1           0       -0.097290    1.285012   -0.718678
      6          1           0       -0.133146    1.026896    1.037507
      7          9           0       -1.145247   -0.322084   -0.059484
 ---------------------------------------------------------------------

 SCF Done:  E(UHF) =  -177.531394296     A.U. after    2 cycles

 The electronic state is 2-A.
 Alpha  occ. eigenvalues --  -26.10059 -11.32780 -11.25775  -1.63117  -1.05026
 Alpha  occ. eigenvalues --   -0.87724  -0.74230  -0.73913  -0.69883  -0.60648
 Alpha  occ. eigenvalues --   -0.56158  -0.54852  -0.38101
 Alpha virt. eigenvalues --    0.03503   0.04979   0.05221   0.06071   0.10928
 Alpha virt. eigenvalues --    0.12305   0.12842   0.13511   0.16619   0.16957
 Alpha virt. eigenvalues --    0.18336   0.20673   0.24886   0.25651   0.27760

  Beta  occ. eigenvalues --  -26.09982 -11.33113 -11.23312  -1.62855  -1.01311
  Beta  occ. eigenvalues --   -0.82974  -0.73909  -0.73192  -0.68982  -0.59028
  Beta  occ. eigenvalues --   -0.54370  -0.53614
  Beta virt. eigenvalues --    0.03588   0.05012   0.05243   0.05784   0.07772
  Beta virt. eigenvalues --    0.11269   0.12368   0.13600   0.16281   0.17203
  Beta virt. eigenvalues --    0.18096   0.19043   0.21066   0.25363   0.26485

 Mulliken charges and spin densities:
               1          2
     1  C    0.348544   1.342835
     2  C    0.648412  -0.183168
     3  H   -0.189699  -0.109743
     4  H   -0.183283  -0.101061
     5  H   -0.119119   0.014724
     6  H   -0.083599   0.031754
     7  F   -0.421254   0.004658
 Sum of Mulliken charges =  -0.00000   1.00000

 Dipole moment (field-independent basis, Debye):
    X=              1.9746    Y=              1.3719    Z=              0.2937  Tot=              2.4223
                          Isotropic Fermi Contact Couplings
        Atom                 a.u.       MegaHertz       Gauss      10(-4) cm-1
     1  C(13)              0.21399     240.56602      85.83994      80.24419
     2  C(13)             -0.06357     -71.46332     -25.49989     -23.83760
     3  H(1)              -0.02583    -115.47725     -41.20515     -38.51906
     4  H(1)              -0.02476    -110.67347     -39.49105     -36.91670
     5  H(1)               0.00995      44.45326      15.86203      14.82801
     6  H(1)               0.02339     104.55900      37.30925      34.87713
     7  F(19)              0.01746      73.45995      26.21234      24.50360
 --------------------------------------------------------

 Normal termination of Gaussian 16 at Tue Apr  8 22:38:24 2025.
