 Gaussian 16, Revision C.01,

 ----------------------------------------------------------------------
 #t hf aug-cc-pvdz symm=none int=(grid=ultrafine) guess=(read,tcheck) s
 table=opt
 ----------------------------------------------------------------------
 -----
 title
 -----
 Symbolic Z-matrix:
 Charge =  0 Multiplicity = 2

 SCF Done:  E(UHF) =  -466.027784313     A.U. after   18 cycles
 Normal termination of Gaussian 16 at Wed Apr  9 00:29:11 2025.
 Gaussian 16:  ES64L-G16RevC.01  3-Jul-2019

 ----------------------------------------------------------------------
 #t hf aug-cc-pvdz iop(5/13=1,5/36=2,99/5=2) pseudo=read geom=check gue
 ss=(read,tcheck) scf=(maxcycle=1)
 ----------------------------------------------------------------------
 -----
 title
 -----
 Structure from the checkpoint file:  "BDE49_nonexpt_361_mol2.chk"
 Charge =  0 Multiplicity = 2

                         Standard orientation:
 ---------------------------------------------------------------------
 Center     Atomic      Atomic             Coordinates (Angstroms)
 Number     Number       Type             X           Y           Z
 ---------------------------------------------------------------------
      1          9           0        1.759791   -0.181455   -0.002983
      2          5           0        0.697299    0.586155    0.050418
      3         15           0       -1.106355   -0.069954   -0.119675
      4          1           0       -1.698695    0.877997    0.743404
      5          1           0       -1.030594   -1.126368    0.826477
 ---------------------------------------------------------------------

 SCF Done:  E(UHF) =  -466.097761301     A.U. after    2 cycles

 The electronic state is 2-A.
 Alpha  occ. eigenvalues --  -81.26346 -26.15549  -7.76985  -7.72324  -4.91019
 Alpha  occ. eigenvalues --   -4.90894  -4.90640  -1.69967  -0.87459  -0.82131
 Alpha  occ. eigenvalues --   -0.77733  -0.75729  -0.55843  -0.53037  -0.39930
 Alpha  occ. eigenvalues --   -0.33592
 Alpha virt. eigenvalues --    0.03663   0.04865   0.05374   0.05997   0.07768
 Alpha virt. eigenvalues --    0.08846   0.09278   0.10914   0.12147   0.14208
 Alpha virt. eigenvalues --    0.17737   0.19129   0.21554   0.22689   0.24814

  Beta  occ. eigenvalues --  -81.26240 -26.15209  -7.76847  -7.70486  -4.90838
  Beta  occ. eigenvalues --   -4.90702  -4.90438  -1.69015  -0.86106  -0.80619
  Beta  occ. eigenvalues --   -0.75758  -0.74888  -0.53453  -0.50888  -0.37790
  Beta virt. eigenvalues --    0.02685   0.05311   0.05572   0.05992   0.07423
  Beta virt. eigenvalues --    0.08547   0.09250   0.10690   0.11640   0.13428
  Beta virt. eigenvalues --    0.16070   0.18013   0.20363   0.22019   0.23581

 Mulliken charges and spin densities:
               1          2
     1  F   -0.305936  -0.035986
     2  B    0.391757   0.973120
     3  P   -0.348931   0.090027
     4  H    0.138351  -0.027337
     5  H    0.124759   0.000176
 Sum of Mulliken charges =  -0.00000   1.00000

 Dipole moment (field-independent basis, Debye):
    X=             -0.9893    Y=              0.1092    Z=              0.5924  Tot=              1.1583
                          Isotropic Fermi Contact Couplings
        Atom                 a.u.       MegaHertz       Gauss      10(-4) cm-1
     1  F(19)              0.06192     260.51173      92.95706      86.89736
     2  B(11)              0.31807     456.23189     162.79488     152.18258
     3  P(31)              0.07353     133.16373      47.51613      44.41864
     4  H(1)               0.00062       2.76965       0.98828       0.92386
     5  H(1)               0.00297      13.26390       4.73289       4.42436
 --------------------------------------------------------
       Center         ----  Spin Dipole Couplings  ----
                      3XX-RR        3YY-RR        3ZZ-RR

 Normal termination of Gaussian 16 at Wed Apr  9 00:29:13 2025.
