 Gaussian 16, Revision C.01,

 ----------------------------------------------------------------------
 #t hf aug-cc-pvdz symm=none int=(grid=ultrafine) guess=(read,tcheck) s
 table=(opt,rrhf)
 ----------------------------------------------------------------------
 -----
 title
 -----
 Symbolic Z-matrix:
 Charge =  0 Multiplicity = 1

 SCF Done:  E(RHF) =  -540.363267689     A.U. after   12 cycles
 Normal termination of Gaussian 16 at Wed Apr  9 00:00:16 2025.
 Gaussian 16:  ES64L-G16RevC.01  3-Jul-2019

 ----------------------------------------------------------------------
 #t hf aug-cc-pvdz iop(5/13=1,5/36=2,99/5=2) pseudo=read geom=check gue
 ss=(read,tcheck) scf=(maxcycle=1)
 ----------------------------------------------------------------------
 -----
 title
 -----
 Structure from the checkpoint file:  "BDE49_nonexpt_2128_mol1.chk"
 Charge =  0 Multiplicity = 1

                         Standard orientation:
 ---------------------------------------------------------------------
 Center     Atomic      Atomic             Coordinates (Angstroms)
 Number     Number       Type             X           Y           Z
 ---------------------------------------------------------------------
      1         14           0        0.294352   -1.205542    0.000000
      2          6           0       -0.415735   -0.315156    1.497370
      3          6           0       -0.415735    1.217894    1.295320
      4          6           0       -1.112508    1.673742   -0.000000
      5          6           0       -0.415735    1.217894   -1.295320
      6          6           0       -0.415735   -0.315156   -1.497370
      7          7           0        2.017246   -1.004061   -0.000000
      8          1           0        2.545628   -1.243083    0.828003
      9          1           0        2.545628   -1.243083   -0.828003
     10          1           0        0.125024   -0.581213    2.413107
     11          1           0       -1.445211   -0.667928    1.643443
     12          1           0        0.618009    1.582449    1.285258
     13          1           0       -0.902963    1.701202    2.149952
     14          1           0       -1.172307    2.767576   -0.000000
     15          1           0       -2.149885    1.311851    0.000000
     16          1           0        0.618009    1.582449   -1.285258
     17          1           0       -0.902963    1.701202   -2.149952
     18          1           0       -1.445211   -0.667928   -1.643443
     19          1           0        0.125024   -0.581213   -2.413107
     20          1           0       -0.147742   -2.631573    0.000000
 ---------------------------------------------------------------------

 SCF Done:  E(RHF) =  -540.469944455     A.U. after    2 cycles

 The electronic state is 1-A'.
 Alpha  occ. eigenvalues --  -69.05169 -15.59085 -11.22551 -11.22551 -11.22227
 Alpha  occ. eigenvalues --  -11.20636 -11.20632  -6.80280  -3.91145  -3.91057
 Alpha  occ. eigenvalues --   -3.91029  -1.09247  -1.06471  -0.98629  -0.91786
 Alpha  occ. eigenvalues --   -0.81804  -0.76815  -0.67196  -0.64434  -0.62252
 Alpha  occ. eigenvalues --   -0.59446  -0.58845  -0.56207  -0.53085  -0.50858
 Alpha  occ. eigenvalues --   -0.49191  -0.47987  -0.47545  -0.45722  -0.42799
 Alpha  occ. eigenvalues --   -0.39169  -0.38257
 Alpha virt. eigenvalues --    0.03060   0.04251   0.04268   0.04633   0.06056
 Alpha virt. eigenvalues --    0.06353   0.06695   0.06832   0.06970   0.08901
 Alpha virt. eigenvalues --    0.08973   0.09072   0.09336   0.09797   0.10544

 Mulliken charges:
               1
     1  Si   0.964126
     2  C    0.258018
     3  C    0.127207
     4  C    0.324342
     5  C    0.127207
     6  C    0.258018
     7  N   -0.486455
     8  H   -0.065552
     9  H   -0.065552
    10  H   -0.169391
    11  H   -0.196184
    12  H   -0.114571
    13  H   -0.113847
    14  H   -0.105352
    15  H   -0.100580
    16  H   -0.114571
    17  H   -0.113847
    18  H   -0.196184
    19  H   -0.169391
    20  H   -0.047440
 Sum of Mulliken charges =  -0.00000

 Dipole moment (field-independent basis, Debye):
    X=              0.6533    Y=             -0.1834    Z=              0.0000  Tot=              0.6785

 Test job not archived.
 1\1\GINC-SE403\SP\RHF\Aug-CC-pVDZ\C5H13N1Si1\OHZDE\09-Apr-2025\0\\#t h
 f aug-cc-pvdz iop(5/13=1,5/36=2,99/5=2) pseudo=read geom=check guess=(
 read,tcheck) scf=(maxcycle=1)\\title\\0,1\Si,0,-0.294352,1.205542,0.\C
 ,0,0.415735,0.315156,1.49737\C,0,0.415735,-1.217894,1.29532\C,0,1.1125
 08,-1.673742,0.\C,0,0.415735,-1.217894,-1.29532\C,0,0.415735,0.315156,
 -1.49737\N,0,-2.017246,1.004061,0.\H,0,-2.545628,1.243083,0.828003\H,0
 ,-2.545628,1.243083,-0.828003\H,0,-0.125024,0.581213,2.413107\H,0,1.44
 5211,0.667928,1.643443\H,0,-0.618009,-1.582449,1.285258\H,0,0.902963,-

 Normal termination of Gaussian 16 at Wed Apr  9 00:00:22 2025.
