 Gaussian 16, Revision C.01,

 ----------------------------------------------------------------------
 #t hf aug-cc-pvdz symm=none int=(grid=ultrafine) guess=(read,tcheck) s
 table=(opt,rrhf)
 ----------------------------------------------------------------------
 -----
 title
 -----
 Symbolic Z-matrix:
 Charge =  0 Multiplicity = 1

 SCF Done:  E(RHF) =  -725.764633124     A.U. after   14 cycles
 Normal termination of Gaussian 16 at Wed Apr  9 00:00:41 2025.
 Gaussian 16:  ES64L-G16RevC.01  3-Jul-2019

 ----------------------------------------------------------------------
 #t hf aug-cc-pvdz iop(5/13=1,5/36=2,99/5=2) pseudo=read geom=check gue
 ss=(read,tcheck) scf=(maxcycle=1)
 ----------------------------------------------------------------------
 -----
 title
 -----
 Structure from the checkpoint file:  "BDE49_nonexpt_2125_mol1.chk"
 Charge =  0 Multiplicity = 1

                         Standard orientation:
 ---------------------------------------------------------------------
 Center     Atomic      Atomic             Coordinates (Angstroms)
 Number     Number       Type             X           Y           Z
 ---------------------------------------------------------------------
      1          6           0        2.475047   -1.252888   -0.006174
      2          6           0        1.083299   -1.209470   -0.015781
      3          6           0        0.392882    0.014013   -0.022042
      4         14           0       -1.473108    0.036062    0.005272
      5          8           0       -1.834472    1.593050   -0.402005
      6          7           0       -2.257212   -1.078630   -1.019153
      7          1           0       -2.060000   -1.143701   -2.005089
      8          1           0       -2.653011   -1.925566   -0.642500
      9          6           0        3.207584   -0.066788   -0.006737
     10          6           0        2.543129    1.157907   -0.020566
     11          6           0        1.150158    1.196840   -0.028948
     12          1           0        0.638325    2.152176   -0.051643
     13          1           0        2.988466   -2.208390   -0.002477
     14          1           0        0.525017   -2.140745   -0.029398
     15          1           0        4.291782   -0.097701   -0.001470
     16          1           0        3.110245    2.082546   -0.028253
     17          1           0       -2.767281    1.795621   -0.510264
     18          8           0       -2.063811   -0.395911    1.487101
     19          1           0       -1.575883   -0.083490    2.252069
 ---------------------------------------------------------------------

 SCF Done:  E(RHF) =  -725.943841108     A.U. after    2 cycles

 The electronic state is 1-A.
 Alpha  occ. eigenvalues --  -69.11283 -20.56350 -20.56284 -15.59593 -11.24862
 Alpha  occ. eigenvalues --  -11.24799 -11.24517 -11.24354 -11.24243 -11.22565
 Alpha  occ. eigenvalues --   -6.85650  -3.96635  -3.96577  -3.96465  -1.30655
 Alpha  occ. eigenvalues --   -1.28658  -1.13821  -1.09800  -1.00775  -1.00479
 Alpha  occ. eigenvalues --   -0.82516  -0.82335  -0.76004  -0.72517  -0.69888
 Alpha  occ. eigenvalues --   -0.65532  -0.63563  -0.62504  -0.61217  -0.59415
 Alpha  occ. eigenvalues --   -0.59019  -0.58742  -0.54738  -0.53345  -0.51522
 Alpha  occ. eigenvalues --   -0.50235  -0.49275  -0.46137  -0.40556  -0.33999
 Alpha  occ. eigenvalues --   -0.33868
 Alpha virt. eigenvalues --    0.02928   0.04012   0.04158   0.05022   0.05469
 Alpha virt. eigenvalues --    0.05830   0.06523   0.07833   0.07854   0.08598
 Alpha virt. eigenvalues --    0.09448   0.09937   0.10547   0.11002   0.12031

 Mulliken charges:
               1
     1  C    0.589222
     2  C    0.647573
     3  C   -0.383839
     4  Si   2.139122
     5  O   -0.792952
     6  N   -0.393988
     7  H   -0.087444
     8  H   -0.030345
     9  C    0.751983
    10  C    0.589505
    11  C    0.203918
    12  H   -0.619857
    13  H   -0.453053
    14  H   -0.672591
    15  H   -0.445063
    16  H   -0.453824
    17  H    0.104605
    18  O   -0.804897
    19  H    0.111925
 Sum of Mulliken charges =  -0.00000

 Dipole moment (field-independent basis, Debye):
    X=              0.3405    Y=             -0.6307    Z=             -0.2400  Tot=              0.7558

 Test job not archived.
 1\1\GINC-SE338\SP\RHF\Aug-CC-pVDZ\C6H9N1O2Si1\OHZDE\09-Apr-2025\0\\#t
 hf aug-cc-pvdz iop(5/13=1,5/36=2,99/5=2) pseudo=read geom=check guess=
 (read,tcheck) scf=(maxcycle=1)\\title\\0,1\C,0,2.475047,-1.252888,-0.0
 06174\C,0,1.083299,-1.20947,-0.015781\C,0,0.392882,0.014013,-0.022042\
 Si,0,-1.473108,0.036062,0.005272\O,0,-1.834472,1.59305,-0.402005\N,0,-
 2.257212,-1.07863,-1.019153\H,0,-2.06,-1.143701,-2.005089\H,0,-2.65301
 1,-1.925566,-0.6425\C,0,3.207584,-0.066788,-0.006737\C,0,2.543129,1.15
 7907,-0.020566\C,0,1.150158,1.19684,-0.028948\H,0,0.638325,2.152176,-0

 Normal termination of Gaussian 16 at Wed Apr  9 00:00:50 2025.
