 Gaussian 16, Revision C.01,

 ----------------------------------------------------------------------
 #t hf aug-cc-pvdz symm=none int=(grid=ultrafine) guess=(read,tcheck) s
 table=(opt,rrhf)
 ----------------------------------------------------------------------
 -----
 title
 -----
 Symbolic Z-matrix:
 Charge =  0 Multiplicity = 1

 SCF Done:  E(RHF) =  -424.364615814     A.U. after   11 cycles
 Normal termination of Gaussian 16 at Tue Apr  8 23:55:26 2025.
 Gaussian 16:  ES64L-G16RevC.01  3-Jul-2019

 ----------------------------------------------------------------------
 #t hf aug-cc-pvdz iop(5/13=1,5/36=2,99/5=2) pseudo=read geom=check gue
 ss=(read,tcheck) scf=(maxcycle=1)
 ----------------------------------------------------------------------
 -----
 title
 -----
 Structure from the checkpoint file:  "BDE49_nonexpt_2012_mol1.chk"
 Charge =  0 Multiplicity = 1

                         Standard orientation:
 ---------------------------------------------------------------------
 Center     Atomic      Atomic             Coordinates (Angstroms)
 Number     Number       Type             X           Y           Z
 ---------------------------------------------------------------------
      1          7           0       -0.147668    0.367350   -0.000000
      2         14           0        0.020773   -1.349636    0.000000
      3          6           0        0.020773    1.147203    1.217761
      4          1           0        1.036815    1.559921    1.322609
      5          1           0       -0.184391    0.531787    2.096939
      6          1           0       -0.681667    1.990827    1.231603
      7          6           0        0.020773    1.147203   -1.217761
      8          1           0       -0.184391    0.531787   -2.096939
      9          1           0        1.036815    1.559921   -1.322609
     10          1           0       -0.681667    1.990827   -1.231603
     11          1           0       -0.634944   -1.872300    1.221457
     12          1           0        1.421961   -1.863458    0.000000
     13          1           0       -0.634944   -1.872300   -1.221457
 ---------------------------------------------------------------------

 SCF Done:  E(RHF) =  -424.438604670     A.U. after    2 cycles

 The electronic state is 1-A'.
 Alpha  occ. eigenvalues --  -69.07037 -15.60030 -11.26289 -11.26288  -6.82081
 Alpha  occ. eigenvalues --   -3.92946  -3.92883  -3.92805  -1.16270  -0.95242
 Alpha  occ. eigenvalues --   -0.85109  -0.70336  -0.62514  -0.60936  -0.60709
 Alpha  occ. eigenvalues --   -0.54570  -0.51896  -0.49431  -0.47430  -0.47276
 Alpha  occ. eigenvalues --   -0.34922
 Alpha virt. eigenvalues --    0.03341   0.04670   0.04683   0.04953   0.07134
 Alpha virt. eigenvalues --    0.07170   0.07765   0.07823   0.08579   0.09660
 Alpha virt. eigenvalues --    0.10648   0.10887   0.14002   0.14506   0.14892

 Mulliken charges:
               1
     1  N   -0.463409
     2  Si  -0.043539
     3  C    0.647431
     4  H   -0.060476
     5  H   -0.283773
     6  H   -0.141181
     7  C    0.647431
     8  H   -0.283773
     9  H   -0.060476
    10  H   -0.141181
    11  H    0.058889
    12  H    0.065168
    13  H    0.058889
 Sum of Mulliken charges =  -0.00000

 Dipole moment (field-independent basis, Debye):
    X=              0.1891    Y=              1.0107    Z=              0.0000  Tot=              1.0282

 Test job not archived.
 1\1\GINC-SE329\SP\RHF\Aug-CC-pVDZ\C2H9N1Si1\OHZDE\08-Apr-2025\0\\#t hf
  aug-cc-pvdz iop(5/13=1,5/36=2,99/5=2) pseudo=read geom=check guess=(r
 ead,tcheck) scf=(maxcycle=1)\\title\\0,1\N,0,-0.147668,0.36735,0.\Si,0
 ,0.020773,-1.349636,0.\C,0,0.020773,1.147203,1.217761\H,0,1.036815,1.5
 59921,1.322609\H,0,-0.184391,0.531787,2.096939\H,0,-0.681667,1.990827,
 1.231603\C,0,0.020773,1.147203,-1.217761\H,0,-0.184391,0.531787,-2.096
 939\H,0,1.036815,1.559921,-1.322609\H,0,-0.681667,1.990827,-1.231603\H
 ,0,-0.634944,-1.8723,1.221457\H,0,1.421961,-1.863458,0.\H,0,-0.634944,

 Normal termination of Gaussian 16 at Tue Apr  8 23:55:29 2025.
