 Gaussian 16, Revision C.01,

 ----------------------------------------------------------------------
 #t hf aug-cc-pvdz symm=none int=(grid=ultrafine) guess=(read,tcheck) s
 table=(opt,rrhf)
 ----------------------------------------------------------------------
 -----
 title
 -----
 Symbolic Z-matrix:
 Charge =  0 Multiplicity = 1

 SCF Done:  E(RHF) =  -752.307556217     A.U. after   14 cycles
 Normal termination of Gaussian 16 at Wed Apr  9 00:11:00 2025.
 Gaussian 16:  ES64L-G16RevC.01  3-Jul-2019

 ----------------------------------------------------------------------
 #t hf aug-cc-pvdz iop(5/13=1,5/36=2,99/5=2) pseudo=read geom=check gue
 ss=(read,tcheck) scf=(maxcycle=1)
 ----------------------------------------------------------------------
 -----
 title
 -----
 Structure from the checkpoint file:  "BDE49_nonexpt_2382_mol1.chk"
 Charge =  0 Multiplicity = 1

                         Standard orientation:
 ---------------------------------------------------------------------
 Center     Atomic      Atomic             Coordinates (Angstroms)
 Number     Number       Type             X           Y           Z
 ---------------------------------------------------------------------
      1         14           0        2.319015    0.195947   -0.479506
      2         14           0        0.505211   -0.410585    0.904796
      3          6           0       -1.173015   -0.409084   -0.052577
      4          1           0        0.468797    0.469834    2.098083
      5          1           0        0.720903   -1.800316    1.378180
      6          1           0        2.359092   -0.680631   -1.675430
      7          1           0        3.601074    0.052844    0.253097
      8          7           0       -1.893689    0.598147   -0.343610
      9          1           0        2.188774    1.601843   -0.932807
     10          6           0       -1.656324   -1.772106   -0.504922
     11          1           0       -0.900098   -2.273957   -1.119008
     12          1           0       -2.574161   -1.659766   -1.083748
     13          1           0       -1.845884   -2.423010    0.355044
     14          6           0       -1.505682    1.943440    0.029540
     15          1           0       -1.457343    2.557221   -0.874916
     16          1           0       -0.546005    2.025776    0.559123
     17          1           0       -2.288364    2.374569    0.661349
 ---------------------------------------------------------------------

 SCF Done:  E(RHF) =  -752.401217391     A.U. after    2 cycles

 The electronic state is 1-A.
 Alpha  occ. eigenvalues --  -69.06955 -69.06619 -15.62544 -11.28210 -11.26037
 Alpha  occ. eigenvalues --  -11.23475  -6.82361  -6.82028  -3.93120  -3.93105
 Alpha  occ. eigenvalues --   -3.93076  -3.92780  -3.92779  -3.92749  -1.19412
 Alpha  occ. eigenvalues --   -1.00580  -0.91219  -0.77254  -0.71014  -0.66617
 Alpha  occ. eigenvalues --   -0.62150  -0.60220  -0.59559  -0.56811  -0.53444
 Alpha  occ. eigenvalues --   -0.50337  -0.49729  -0.48692  -0.47429  -0.42467
 Alpha  occ. eigenvalues --   -0.38898  -0.36314
 Alpha virt. eigenvalues --    0.03276   0.03945   0.04385   0.05000   0.06133
 Alpha virt. eigenvalues --    0.06538   0.06867   0.07043   0.07486   0.08825
 Alpha virt. eigenvalues --    0.08887   0.09209   0.09662   0.09876   0.10340

 Mulliken charges:
               1
     1  Si  -0.361131
     2  Si  -0.099205
     3  C   -0.032598
     4  H    0.190378
     5  H    0.018973
     6  H    0.102750
     7  H    0.059303
     8  N   -0.542594
     9  H    0.108558
    10  C    0.305247
    11  H    0.013004
    12  H   -0.102972
    13  H   -0.020585
    14  C    0.832398
    15  H   -0.147817
    16  H   -0.163199
    17  H   -0.160509
 Sum of Mulliken charges =  -0.00000

 Dipole moment (field-independent basis, Debye):
    X=              0.9311    Y=             -0.1279    Z=              0.5777  Tot=              1.1032

 Test job not archived.
 1\1\GINC-SE109\SP\RHF\Aug-CC-pVDZ\C3H11N1Si2\OHZDE\09-Apr-2025\0\\#t h
 f aug-cc-pvdz iop(5/13=1,5/36=2,99/5=2) pseudo=read geom=check guess=(
 read,tcheck) scf=(maxcycle=1)\\title\\0,1\Si,0,2.319015,0.195947,-0.47
 9506\Si,0,0.505211,-0.410585,0.904796\C,0,-1.173015,-0.409084,-0.05257
 7\H,0,0.468797,0.469834,2.098083\H,0,0.720903,-1.800316,1.37818\H,0,2.
 359092,-0.680631,-1.67543\H,0,3.601074,0.052844,0.253097\N,0,-1.893689
 ,0.598147,-0.34361\H,0,2.188774,1.601843,-0.932807\C,0,-1.656324,-1.77
 2106,-0.504922\H,0,-0.900098,-2.273957,-1.119008\H,0,-2.574161,-1.6597

 Normal termination of Gaussian 16 at Wed Apr  9 00:11:07 2025.
