 Gaussian 16, Revision C.01,

 ----------------------------------------------------------------------
 #t hf aug-cc-pvdz symm=none int=(grid=ultrafine) guess=(read,tcheck) s
 table=(opt,rrhf)
 ----------------------------------------------------------------------
 -----
 title
 -----
 Symbolic Z-matrix:
 Charge =  0 Multiplicity = 1

 SCF Done:  E(RHF) =  -1046.23903574     A.U. after   16 cycles
 Normal termination of Gaussian 16 at Wed Apr  9 00:15:36 2025.
 Gaussian 16:  ES64L-G16RevC.01  3-Jul-2019

 ----------------------------------------------------------------------
 #t hf aug-cc-pvdz iop(5/13=1,5/36=2,99/5=2) pseudo=read geom=check gue
 ss=(read,tcheck) scf=(maxcycle=1)
 ----------------------------------------------------------------------
 -----
 title
 -----
 Structure from the checkpoint file:  "BDE49_nonexpt_2559_mol1.chk"
 Charge =  0 Multiplicity = 1

                         Standard orientation:
 ---------------------------------------------------------------------
 Center     Atomic      Atomic             Coordinates (Angstroms)
 Number     Number       Type             X           Y           Z
 ---------------------------------------------------------------------
      1         17           0        1.857580   -0.801612    0.009994
      2         16           0        0.722380    0.963203   -0.081238
      3          8           0       -0.692421    0.598245    0.512045
      4          8           0       -1.641630    0.018713   -0.583458
      5          6           0       -2.628335   -0.684313    0.139358
      6          1           0       -3.297070   -1.066013   -0.638685
      7          1           0       -3.193512   -0.023892    0.805130
      8          1           0       -2.203941   -1.523729    0.698630
 ---------------------------------------------------------------------

 SCF Done:  E(RHF) =  -1046.34936363     A.U. after    2 cycles

 The electronic state is 1-A.
 Alpha  occ. eigenvalues -- -103.67843 -93.65942 -20.69882 -20.67724 -11.31163
 Alpha  occ. eigenvalues --  -10.71040  -8.94697  -8.36758  -8.36428  -8.36391
 Alpha  occ. eigenvalues --   -6.28874  -6.28491  -6.28013  -1.44332  -1.29200
 Alpha  occ. eigenvalues --   -1.15579  -0.94345  -0.90170  -0.71398  -0.70133
 Alpha  occ. eigenvalues --   -0.69398  -0.62564  -0.61146  -0.56456  -0.51600
 Alpha  occ. eigenvalues --   -0.50888  -0.48597  -0.47920  -0.37873
 Alpha virt. eigenvalues --    0.03477   0.04456   0.05509   0.06057   0.07516
 Alpha virt. eigenvalues --    0.08993   0.10284   0.11888   0.12125   0.13865
 Alpha virt. eigenvalues --    0.14410   0.15105   0.16432   0.17446   0.17723

 Mulliken charges:
               1
     1  Cl  -0.332279
     2  S    0.780472
     3  O   -0.525264
     4  O   -0.401761
     5  C    0.792816
     6  H   -0.152932
     7  H   -0.086018
     8  H   -0.075033
 Sum of Mulliken charges =   0.00000

 Dipole moment (field-independent basis, Debye):
    X=             -2.2041    Y=             -0.1854    Z=              0.3103  Tot=              2.2336

 Test job not archived.
 1\1\GINC-SE460\SP\RHF\Aug-CC-pVDZ\C1H3Cl1O2S1\OHZDE\09-Apr-2025\0\\#t
 hf aug-cc-pvdz iop(5/13=1,5/36=2,99/5=2) pseudo=read geom=check guess=
 (read,tcheck) scf=(maxcycle=1)\\title\\0,1\Cl,0,-1.85758,0.801611,0.00
 9994\S,0,-0.72238,-0.963203,-0.081238\O,0,0.692421,-0.598245,0.512045\
 O,0,1.64163,-0.018713,-0.583458\C,0,2.628335,0.684314,0.139358\H,0,3.2
 9707,1.066014,-0.638685\H,0,3.193512,0.023893,0.80513\H,0,2.203941,1.5
 23729,0.69863\\Version=ES64L-G16RevC.01\State=1-A\HF=-1046.3493636\RMS
 D=2.982e-03\Dipole=0.8671739,0.0729339,0.1221006\Quadrupole=3.0106222,

 Normal termination of Gaussian 16 at Wed Apr  9 00:15:39 2025.
