 Gaussian 16, Revision C.01,

 ----------------------------------------------------------------------
 #t hf aug-cc-pvdz symm=none int=(grid=ultrafine) guess=(read,tcheck) s
 table=(opt,rrhf)
 ----------------------------------------------------------------------
 -----
 title
 -----
 Symbolic Z-matrix:
 Charge =  0 Multiplicity = 1

 SCF Done:  E(RHF) =  -218.469634615     A.U. after   12 cycles
 Normal termination of Gaussian 16 at Wed Apr  9 00:24:23 2025.
 Gaussian 16:  ES64L-G16RevC.01  3-Jul-2019

 ----------------------------------------------------------------------
 #t hf aug-cc-pvdz iop(5/13=1,5/36=2,99/5=2) pseudo=read geom=check gue
 ss=(read,tcheck) scf=(maxcycle=1)
 ----------------------------------------------------------------------
 -----
 title
 -----
 Structure from the checkpoint file:  "BDE49_nonexpt_277_mol1.chk"
 Charge =  0 Multiplicity = 1

                         Standard orientation:
 ---------------------------------------------------------------------
 Center     Atomic      Atomic             Coordinates (Angstroms)
 Number     Number       Type             X           Y           Z
 ---------------------------------------------------------------------
      1          6           0       -0.497543   -0.023077   -0.403178
      2          5           0        0.910263   -0.701032   -0.221422
      3          8           0        1.966419    0.033295    0.214727
      4          6           0       -0.561659    1.449799    0.030205
      5          1           0        0.203920    2.049677   -0.467674
      6          1           0       -0.397816    1.548846    1.107796
      7          6           0       -1.611279   -0.862824    0.260997
      8          1           0       -0.682366   -0.068772   -1.490746
      9          1           0       -1.503978   -0.868887    1.350997
     10          1           0       -1.593670   -1.902354   -0.078475
     11          1           0       -2.600689   -0.453204    0.034293
     12          1           0       -1.538393    1.889281   -0.197800
     13          1           0        2.781153   -0.473638    0.276890
     14          1           0        1.072063   -1.865535   -0.474124
 ---------------------------------------------------------------------

 SCF Done:  E(RHF) =  -218.544093106     A.U. after    2 cycles

 The electronic state is 1-A.
 Alpha  occ. eigenvalues --  -20.58770 -11.22256 -11.21340 -11.20850  -7.62535
 Alpha  occ. eigenvalues --   -1.32971  -1.03784  -0.91720  -0.81173  -0.75352
 Alpha  occ. eigenvalues --   -0.65373  -0.61441  -0.60072  -0.55862  -0.54403
 Alpha  occ. eigenvalues --   -0.52767  -0.51581  -0.46934  -0.46597  -0.42433
 Alpha virt. eigenvalues --    0.02920   0.04593   0.04752   0.05099   0.06536
 Alpha virt. eigenvalues --    0.06801   0.07038   0.07618   0.07839   0.09357
 Alpha virt. eigenvalues --    0.10671   0.11689   0.12075   0.13264   0.15012

 Mulliken charges:
               1
     1  C   -0.474075
     2  B    0.285979
     3  O   -0.495106
     4  C    0.480393
     5  H   -0.126384
     6  H   -0.060081
     7  C    0.491298
     8  H   -0.074859
     9  H   -0.099818
    10  H   -0.125666
    11  H   -0.087593
    12  H   -0.086784
    13  H    0.196981
    14  H    0.175714
 Sum of Mulliken charges =  -0.00000

 Dipole moment (field-independent basis, Debye):
    X=              0.7559    Y=             -1.0378    Z=             -0.2057  Tot=              1.3003

 Test job not archived.
 1\1\GINC-SE116\SP\RHF\Aug-CC-pVDZ\C3H9B1O1\OHZDE\09-Apr-2025\0\\#t hf
 aug-cc-pvdz iop(5/13=1,5/36=2,99/5=2) pseudo=read geom=check guess=(re
 ad,tcheck) scf=(maxcycle=1)\\title\\0,1\C,0,-0.497543,-0.023077,-0.403
 178\B,0,0.910263,-0.701032,-0.221422\O,0,1.966419,0.033295,0.214727\C,
 0,-0.561659,1.449799,0.030205\H,0,0.20392,2.049677,-0.467674\H,0,-0.39
 7816,1.548846,1.107796\C,0,-1.611279,-0.862824,0.260997\H,0,-0.682366,
 -0.068772,-1.490746\H,0,-1.503978,-0.868887,1.350997\H,0,-1.59367,-1.9
 02354,-0.078475\H,0,-2.600689,-0.453204,0.034293\H,0,-1.538393,1.88928

 Normal termination of Gaussian 16 at Wed Apr  9 00:24:28 2025.
