 Gaussian 16, Revision C.01,

 ----------------------------------------------------------------------
 #t hf aug-cc-pvdz symm=none int=(grid=ultrafine) guess=(read,tcheck) s
 table=(opt,rrhf)
 ----------------------------------------------------------------------
 -----
 title
 -----
 Symbolic Z-matrix:
 Charge =  0 Multiplicity = 1

 SCF Done:  E(RHF) =  -725.802456861     A.U. after   14 cycles
 Normal termination of Gaussian 16 at Tue Apr  8 22:33:28 2025.
 Gaussian 16:  ES64L-G16RevC.01  3-Jul-2019

 ----------------------------------------------------------------------
 #t hf aug-cc-pvdz iop(5/13=1,5/36=2,99/5=2) pseudo=read geom=check gue
 ss=(read,tcheck) scf=(maxcycle=1)
 ----------------------------------------------------------------------
 -----
 title
 -----
 Structure from the checkpoint file:  "BDE49_expt_1114_mol1.chk"
 Charge =  0 Multiplicity = 1

                         Standard orientation:
 ---------------------------------------------------------------------
 Center     Atomic      Atomic             Coordinates (Angstroms)
 Number     Number       Type             X           Y           Z
 ---------------------------------------------------------------------
      1          6           0       -0.184866    0.517648   -0.382282
      2          6           0        1.117039   -0.245831   -0.075630
      3          8           0        2.166805    0.308161   -0.248015
      4          8           0        1.032744   -1.504513    0.366878
      5          1           0        0.098436   -1.758901    0.436386
      6          6           0       -0.262453    1.828230    0.387669
      7          1           0       -0.316400    1.647923    1.462788
      8          1           0       -1.137015    2.402271    0.081170
      9          1           0        0.639664    2.404006    0.174216
     10         17           0       -1.688229   -0.495340   -0.072177
     11          1           0       -0.199493    0.696023   -1.457000
 ---------------------------------------------------------------------

 SCF Done:  E(RHF) =  -725.905081313     A.U. after    2 cycles

 The electronic state is 1-A.
 Alpha  occ. eigenvalues -- -103.68472 -20.64006 -20.57646 -11.42152 -11.35291
 Alpha  occ. eigenvalues --  -11.26637 -10.71764  -8.37464  -8.37219  -8.37178
 Alpha  occ. eigenvalues --   -1.44066  -1.35108  -1.19622  -1.05006  -0.92043
 Alpha  occ. eigenvalues --   -0.85203  -0.75698  -0.69710  -0.67830  -0.63928
 Alpha  occ. eigenvalues --   -0.62827  -0.58304  -0.56903  -0.54395  -0.51695
 Alpha  occ. eigenvalues --   -0.50771  -0.47818  -0.46667
 Alpha virt. eigenvalues --    0.03201   0.04570   0.04731   0.06089   0.06894
 Alpha virt. eigenvalues --    0.08644   0.10097   0.10902   0.12636   0.12932
 Alpha virt. eigenvalues --    0.13820   0.14685   0.15792   0.16250   0.16503

 Mulliken charges:
               1
     1  C   -0.505229
     2  C    0.671634
     3  O   -0.455775
     4  O   -0.440567
     5  H    0.212381
     6  C    0.555244
     7  H   -0.006849
     8  H   -0.040457
     9  H    0.021392
    10  Cl  -0.154581
    11  H    0.142808
 Sum of Mulliken charges =  -0.00000

 Dipole moment (field-independent basis, Debye):
    X=             -3.0847    Y=              1.0766    Z=             -0.1374  Tot=              3.2701

 Test job not archived.
 1\1\GINC-SE435\SP\RHF\Aug-CC-pVDZ\C3H5Cl1O2\OHZDE\08-Apr-2025\0\\#t hf
  aug-cc-pvdz iop(5/13=1,5/36=2,99/5=2) pseudo=read geom=check guess=(r
 ead,tcheck) scf=(maxcycle=1)\\title\\0,1\C,0,-0.184866,0.517648,-0.382
 282\C,0,1.117039,-0.245831,-0.07563\O,0,2.166805,0.308161,-0.248015\O,
 0,1.032744,-1.504513,0.366878\H,0,0.098436,-1.758901,0.436386\C,0,-0.2
 62453,1.82823,0.387669\H,0,-0.3164,1.647923,1.462788\H,0,-1.137015,2.4
 02271,0.08117\H,0,0.639664,2.404006,0.174216\Cl,0,-1.688229,-0.49534,-
 0.072177\H,0,-0.199493,0.696023,-1.457\\Version=ES64L-G16RevC.01\State

 Normal termination of Gaussian 16 at Tue Apr  8 22:33:32 2025.
