 Gaussian 16, Revision C.01,

 ----------------------------------------------------------------------
 #t hf aug-cc-pvdz symm=none int=(grid=ultrafine) guess=(read,tcheck) s
 table=(opt,rrhf)
 ----------------------------------------------------------------------
 -----
 title
 -----
 Symbolic Z-matrix:
 Charge =  0 Multiplicity = 1

 SCF Done:  E(RHF) =  -1169.09837616     A.U. after   12 cycles
 Normal termination of Gaussian 16 at Tue Apr  8 23:54:06 2025.
 Gaussian 16:  ES64L-G16RevC.01  3-Jul-2019

 ----------------------------------------------------------------------
 #t hf aug-cc-pvdz iop(5/13=1,5/36=2,99/5=2) pseudo=read geom=check gue
 ss=(read,tcheck) scf=(maxcycle=1)
 ----------------------------------------------------------------------
 -----
 title
 -----
 Structure from the checkpoint file:  "BDE49_nonexpt_1952_mol1.chk"
 Charge =  0 Multiplicity = 1

                         Standard orientation:
 ---------------------------------------------------------------------
 Center     Atomic      Atomic             Coordinates (Angstroms)
 Number     Number       Type             X           Y           Z
 ---------------------------------------------------------------------
      1          6           0       -0.863656    0.105516   -1.104710
      2         14           0        0.704904   -0.962940   -1.058287
      3         15           0        2.520677   -0.198472    0.082771
      4          1           0        1.149893   -1.138183   -2.465181
      5          1           0        0.393684   -2.309733   -0.514252
      6         15           0       -1.794305    0.328502    0.494624
      7          6           0        2.458508    1.624401   -0.325629
      8          1           0        1.511037    2.098442   -0.058194
      9          1           0        2.641811    1.766519   -1.393380
     10          1           0        3.262822    2.128655    0.216213
     11          6           0        1.905604   -0.177238    1.845987
     12          1           0        1.747822   -1.204857    2.181574
     13          1           0        0.981114    0.386737    1.983401
     14          1           0        2.687045    0.258332    2.474683
     15          6           0       -2.606370   -1.333376    0.647450
     16          1           0       -1.862229   -2.092178    0.897024
     17          1           0       -3.121305   -1.632063   -0.271310
     18          1           0       -3.333003   -1.299232    1.463036
     19          6           0       -3.245905    1.311753   -0.119607
     20          1           0       -2.915082    2.315747   -0.396194
     21          1           0       -3.980119    1.413041    0.683967
     22          1           0       -3.728851    0.846725   -0.984890
     23          1           0       -1.525817   -0.298480   -1.882564
     24          1           0       -0.562138    1.104913   -1.439785
 ---------------------------------------------------------------------

 SCF Done:  E(RHF) =  -1169.22984734     A.U. after    2 cycles

 The electronic state is 1-A.
 Alpha  occ. eigenvalues --  -81.25265 -81.23565 -69.06257 -11.23595 -11.23454
 Alpha  occ. eigenvalues --  -11.23396 -11.23015 -11.22984  -7.75452  -7.73955
 Alpha  occ. eigenvalues --   -6.81478  -4.89462  -4.89439  -4.89118  -4.87919
 Alpha  occ. eigenvalues --   -4.87878  -4.87603  -3.92226  -3.92208  -3.92203
 Alpha  occ. eigenvalues --   -0.99759  -0.97331  -0.93356  -0.92981  -0.92835
 Alpha  occ. eigenvalues --   -0.72586  -0.68734  -0.63958  -0.60537  -0.58846
 Alpha  occ. eigenvalues --   -0.58286  -0.58069  -0.56418  -0.55663  -0.55628
 Alpha  occ. eigenvalues --   -0.55376  -0.55007  -0.50551  -0.47930  -0.45381
 Alpha  occ. eigenvalues --   -0.44400  -0.42968  -0.40180  -0.32548  -0.30733
 Alpha virt. eigenvalues --    0.03194   0.04209   0.04366   0.04578   0.05730
 Alpha virt. eigenvalues --    0.05846   0.06291   0.06486   0.06804   0.07883
 Alpha virt. eigenvalues --    0.08072   0.08408   0.08729   0.08917   0.09456

 Mulliken charges:
               1
     1  C    0.441031
     2  Si   0.345493
     3  P    0.214048
     4  H    0.069344
     5  H    0.128694
     6  P    0.229849
     7  C    0.319597
     8  H   -0.196214
     9  H   -0.217003
    10  H   -0.211559
    11  C    0.465727
    12  H   -0.208383
    13  H   -0.223882
    14  H   -0.220335
    15  C    0.360181
    16  H   -0.200570
    17  H   -0.170746
    18  H   -0.162298
    19  C    0.409948
    20  H   -0.175086
    21  H   -0.160897
    22  H   -0.139868
    23  H   -0.423513
    24  H   -0.273558
 Sum of Mulliken charges =  -0.00000

 Dipole moment (field-independent basis, Debye):
    X=             -1.9831    Y=              0.9659    Z=             -0.1889  Tot=              2.2139

 Test job not archived.
 1\1\GINC-SE340\SP\RHF\Aug-CC-pVDZ\C5H16P2Si1\OHZDE\08-Apr-2025\0\\#t h
 f aug-cc-pvdz iop(5/13=1,5/36=2,99/5=2) pseudo=read geom=check guess=(
 read,tcheck) scf=(maxcycle=1)\\title\\0,1\C,0,0.863656,-0.105516,-1.10
 471\Si,0,-0.704904,0.96294,-1.058287\P,0,-2.520677,0.198472,0.082771\H
 ,0,-1.149893,1.138183,-2.465181\H,0,-0.393684,2.309733,-0.514252\P,0,1
 .794305,-0.328502,0.494624\C,0,-2.458508,-1.624401,-0.325629\H,0,-1.51
 1037,-2.098442,-0.058194\H,0,-2.641811,-1.766519,-1.39338\H,0,-3.26282
 2,-2.128655,0.216213\C,0,-1.905604,0.177238,1.845987\H,0,-1.747822,1.2

 Normal termination of Gaussian 16 at Tue Apr  8 23:54:18 2025.
