 Gaussian 16, Revision C.01,

 ----------------------------------------------------------------------
 #t hf aug-cc-pvdz symm=none int=(grid=ultrafine) guess=(read,tcheck) s
 table=(opt,rrhf)
 ----------------------------------------------------------------------
 -----
 title
 -----
 Symbolic Z-matrix:
 Charge =  0 Multiplicity = 1

 SCF Done:  E(RHF) =  -1855.81687355     A.U. after   13 cycles
 Normal termination of Gaussian 16 at Tue Apr  8 23:44:19 2025.
 Gaussian 16:  ES64L-G16RevC.01  3-Jul-2019

 ----------------------------------------------------------------------
 #t hf aug-cc-pvdz iop(5/13=1,5/36=2,99/5=2) pseudo=read geom=check gue
 ss=(read,tcheck) scf=(maxcycle=1)
 ----------------------------------------------------------------------
 -----
 title
 -----
 Structure from the checkpoint file:  "BDE49_nonexpt_1765_mol1.chk"
 Charge =  0 Multiplicity = 1

                         Standard orientation:
 ---------------------------------------------------------------------
 Center     Atomic      Atomic             Coordinates (Angstroms)
 Number     Number       Type             X           Y           Z
 ---------------------------------------------------------------------
      1          6           0       -1.661533   -0.359618    0.000025
      2          8           0       -2.027121   -1.500526    0.000006
      3         14           0        0.227828   -0.002176    0.000006
      4          8           0       -2.530690    0.672022   -0.000029
      5         17           0        1.070122   -0.809472    1.675374
      6         17           0        0.524264    2.048521   -0.000035
      7         17           0        1.070104   -0.809539   -1.675339
      8          1           0       -2.054243    1.514528   -0.000046
 ---------------------------------------------------------------------

 SCF Done:  E(RHF) =  -1855.96022152     A.U. after    2 cycles

 The electronic state is 1-A.
 Alpha  occ. eigenvalues -- -103.70568-103.69807-103.69807 -69.24026 -20.65530
 Alpha  occ. eigenvalues --  -20.60038 -11.42341 -10.74000 -10.73263 -10.73250
 Alpha  occ. eigenvalues --   -8.39687  -8.39463  -8.39445  -8.38957  -8.38951
 Alpha  occ. eigenvalues --   -8.38704  -8.38699  -8.38697  -8.38696  -6.97894
 Alpha  occ. eigenvalues --   -4.08749  -4.08733  -4.08604  -1.44869  -1.36549
 Alpha  occ. eigenvalues --   -1.20822  -1.17688  -1.17293  -0.88513  -0.82030
 Alpha  occ. eigenvalues --   -0.70939  -0.70051  -0.67232  -0.62524  -0.60754
 Alpha  occ. eigenvalues --   -0.60542  -0.55279  -0.54338  -0.53656  -0.52549
 Alpha  occ. eigenvalues --   -0.51309  -0.50907  -0.49848  -0.46238
 Alpha virt. eigenvalues --    0.03510   0.05109   0.05151   0.06047   0.06927
 Alpha virt. eigenvalues --    0.07894   0.09333   0.11164   0.11753   0.11927
 Alpha virt. eigenvalues --    0.12299   0.12848   0.15061   0.15963   0.16979

 Mulliken charges:
               1
     1  C    0.436530
     2  O   -0.414378
     3  Si   1.546255
     4  O   -0.435889
     5  Cl  -0.431700
     6  Cl  -0.469983
     7  Cl  -0.431697
     8  H    0.200861
 Sum of Mulliken charges =   0.00000

 Dipole moment (field-independent basis, Debye):
    X=              1.7457    Y=              2.8904    Z=              0.0000  Tot=              3.3767

 Test job not archived.
 1\1\GINC-SE457\SP\RHF\Aug-CC-pVDZ\C1H1Cl3O2Si1\OHZDE\08-Apr-2025\0\\#t
  hf aug-cc-pvdz iop(5/13=1,5/36=2,99/5=2) pseudo=read geom=check guess
 =(read,tcheck) scf=(maxcycle=1)\\title\\0,1\C,0,-1.661533,-0.359617,0.
 000025\O,0,-2.027121,-1.500525,0.000006\Si,0,0.227828,-0.002176,0.0000
 06\O,0,-2.53069,0.672023,-0.000029\Cl,0,1.070122,-0.809472,1.675374\Cl
 ,0,0.524265,2.048521,-0.000035\Cl,0,1.070104,-0.809539,-1.675339\H,0,-
 2.054242,1.514529,-0.000046\\Version=ES64L-G16RevC.01\State=1-A\HF=-18
 55.9602215\RMSD=3.497e-03\Dipole=0.6868306,1.1371882,0.0000053\Quadrup

 Normal termination of Gaussian 16 at Tue Apr  8 23:44:22 2025.
