 Gaussian 16, Revision C.01,

 ----------------------------------------------------------------------
 #t hf aug-cc-pvdz symm=none int=(grid=ultrafine) guess=(read,tcheck) s
 table=(opt,rrhf)
 ----------------------------------------------------------------------
 -----
 title
 -----
 Symbolic Z-matrix:
 Charge =  0 Multiplicity = 1

 SCF Done:  E(RHF) =  -228.972872269     A.U. after   11 cycles
 Normal termination of Gaussian 16 at Tue Apr  8 22:30:39 2025.
 Gaussian 16:  ES64L-G16RevC.01  3-Jul-2019

 ----------------------------------------------------------------------
 #t hf aug-cc-pvdz iop(5/13=1,5/36=2,99/5=2) pseudo=read geom=check gue
 ss=(read,tcheck) scf=(maxcycle=1)
 ----------------------------------------------------------------------
 -----
 title
 -----
 Structure from the checkpoint file:  "BDE49_expt_1069_mol1.chk"
 Charge =  0 Multiplicity = 1

                         Standard orientation:
 ---------------------------------------------------------------------
 Center     Atomic      Atomic             Coordinates (Angstroms)
 Number     Number       Type             X           Y           Z
 ---------------------------------------------------------------------
      1          6           0        0.574196   -0.495930    0.000000
      2          6           0       -0.574196    0.495930    0.000000
      3          8           0        1.779844    0.260933   -0.000001
      4          1           0        0.491959   -1.135399   -0.889189
      5          1           0        0.491961   -1.135397    0.889192
      6          1           0        2.518303   -0.353272   -0.000003
      7          8           0       -1.779844   -0.260933    0.000000
      8          1           0       -0.491960    1.135398   -0.889191
      9          1           0       -0.491960    1.135399    0.889190
     10          1           0       -2.518303    0.353272    0.000007
 ---------------------------------------------------------------------

 SCF Done:  E(RHF) =  -229.047387056     A.U. after    2 cycles

 The electronic state is 1-A.
 Alpha  occ. eigenvalues --  -20.57651 -20.57650 -11.28699 -11.28641  -1.33120
 Alpha  occ. eigenvalues --   -1.31879  -0.99798  -0.83423  -0.73675  -0.68174
 Alpha  occ. eigenvalues --   -0.67626  -0.59656  -0.59248  -0.55767  -0.49013
 Alpha  occ. eigenvalues --   -0.47417  -0.45338
 Alpha virt. eigenvalues --    0.03550   0.04135   0.05361   0.05641   0.07034
 Alpha virt. eigenvalues --    0.07707   0.11691   0.12800   0.13869   0.14950
 Alpha virt. eigenvalues --    0.15410   0.17639   0.17705   0.19766   0.21307

 Mulliken charges:
               1
     1  C    0.583973
     2  C    0.583972
     3  O   -0.532778
     4  H   -0.092206
     5  H   -0.092205
     6  H    0.133216
     7  O   -0.532778
     8  H   -0.092205
     9  H   -0.092206
    10  H    0.133216
 Sum of Mulliken charges =  -0.00000

 Dipole moment (field-independent basis, Debye):
    X=             -0.0000    Y=             -0.0000    Z=              0.0000  Tot=              0.0000

 Test job not archived.
 1\1\GINC-SE099\SP\RHF\Aug-CC-pVDZ\C2H6O2\OHZDE\08-Apr-2025\0\\#t hf au
 g-cc-pvdz iop(5/13=1,5/36=2,99/5=2) pseudo=read geom=check guess=(read
 ,tcheck) scf=(maxcycle=1)\\title\\0,1\C,0,-0.574196,0.49593,0.\C,0,0.5
 74196,-0.49593,0.\O,0,-1.779844,-0.260932,-0.000001\H,0,-0.491959,1.13
 5399,-0.889189\H,0,-0.491961,1.135397,0.889192\H,0,-2.518303,0.353273,
 -0.000003\O,0,1.779844,0.260932,0.\H,0,0.49196,-1.135398,-0.889191\H,0
 ,0.49196,-1.135399,0.88919\H,0,2.518303,-0.353273,0.000007\\Version=ES
 64L-G16RevC.01\State=1-A\HF=-229.0473871\RMSD=3.812e-03\Dipole=0.,0.00

 Normal termination of Gaussian 16 at Tue Apr  8 22:30:42 2025.
