 Gaussian 16, Revision C.01,

 ----------------------------------------------------------------------
 #t hf aug-cc-pvdz symm=none int=(grid=ultrafine) guess=(read,tcheck) s
 table=(opt,rrhf)
 ----------------------------------------------------------------------
 -----
 title
 -----
 Symbolic Z-matrix:
 Charge =  0 Multiplicity = 1

 SCF Done:  E(RHF) =  -1396.84068438     A.U. after   14 cycles
 Normal termination of Gaussian 16 at Tue Apr  8 23:44:16 2025.
 Gaussian 16:  ES64L-G16RevC.01  3-Jul-2019

 ----------------------------------------------------------------------
 #t hf aug-cc-pvdz iop(5/13=1,5/36=2,99/5=2) pseudo=read geom=check gue
 ss=(read,tcheck) scf=(maxcycle=1)
 ----------------------------------------------------------------------
 -----
 title
 -----
 Structure from the checkpoint file:  "BDE49_nonexpt_1761_mol1.chk"
 Charge =  0 Multiplicity = 1

                         Standard orientation:
 ---------------------------------------------------------------------
 Center     Atomic      Atomic             Coordinates (Angstroms)
 Number     Number       Type             X           Y           Z
 ---------------------------------------------------------------------
      1          6           0        1.560056   -0.052807    0.039569
      2          8           0        2.283313   -0.888180    0.510463
      3         14           0       -0.283611   -0.103128    0.560495
      4          8           0        2.018271    0.881576   -0.819227
      5         17           0       -1.210408   -1.657062   -0.412638
      6         17           0       -1.183973    1.693356    0.026753
      7          1           0        1.304895    1.488808   -1.061754
      8          1           0       -0.402870   -0.292344    2.007567
 ---------------------------------------------------------------------

 SCF Done:  E(RHF) =  -1396.96347078     A.U. after    2 cycles

 The electronic state is 1-A.
 Alpha  occ. eigenvalues -- -103.69566-103.68871 -69.19701 -20.65034 -20.59598
 Alpha  occ. eigenvalues --  -11.41540 -10.73001 -10.72320  -8.38687  -8.38466
 Alpha  occ. eigenvalues --   -8.38452  -8.38015  -8.37769  -8.37767  -6.94068
 Alpha  occ. eigenvalues --   -4.04931  -4.04843  -4.04723  -1.44313  -1.35955
 Alpha  occ. eigenvalues --   -1.18788  -1.16529  -0.87947  -0.81719  -0.70442
 Alpha  occ. eigenvalues --   -0.69691  -0.66656  -0.61321  -0.58763  -0.58528
 Alpha  occ. eigenvalues --   -0.54099  -0.52612  -0.51459  -0.50503  -0.49929
 Alpha  occ. eigenvalues --   -0.45540
 Alpha virt. eigenvalues --    0.03543   0.04545   0.04971   0.05683   0.07248
 Alpha virt. eigenvalues --    0.08043   0.08812   0.10769   0.11480   0.11855
 Alpha virt. eigenvalues --    0.13241   0.13517   0.14980   0.15697   0.16655

 Mulliken charges:
               1
     1  C    0.422022
     2  O   -0.437554
     3  Si   1.193466
     4  O   -0.429228
     5  Cl  -0.458036
     6  Cl  -0.486532
     7  H    0.191931
     8  H    0.003930
 Sum of Mulliken charges =  -0.00000

 Dipole moment (field-independent basis, Debye):
    X=             -2.5543    Y=              1.9654    Z=              0.1676  Tot=              3.2273

 Test job not archived.
 1\1\GINC-SE335\SP\RHF\Aug-CC-pVDZ\C1H2Cl2O2Si1\OHZDE\08-Apr-2025\0\\#t
  hf aug-cc-pvdz iop(5/13=1,5/36=2,99/5=2) pseudo=read geom=check guess
 =(read,tcheck) scf=(maxcycle=1)\\title\\0,1\C,0,1.560056,-0.052806,0.0
 39569\O,0,2.283314,-0.888179,0.510463\Si,0,-0.283611,-0.103128,0.56049
 5\O,0,2.018271,0.881577,-0.819227\Cl,0,-1.210407,-1.657063,-0.412638\C
 l,0,-1.183974,1.693355,0.026753\H,0,1.304894,1.488808,-1.061754\H,0,-0
 .40287,-0.292344,2.007567\\Version=ES64L-G16RevC.01\State=1-A\HF=-1396
 .9634708\RMSD=3.885e-03\Dipole=-1.0049258,0.7732595,0.0659311\Quadrupo

 Normal termination of Gaussian 16 at Tue Apr  8 23:44:19 2025.
