 Gaussian 16, Revision C.01,

 ----------------------------------------------------------------------
 #t hf aug-cc-pvdz symm=none int=(grid=ultrafine) guess=(read,tcheck) s
 table=(opt,rrhf)
 ----------------------------------------------------------------------
 -----
 title
 -----
 Symbolic Z-matrix:
 Charge =  0 Multiplicity = 1

 SCF Done:  E(RHF) =  -650.765294669     A.U. after   16 cycles
 Normal termination of Gaussian 16 at Wed Apr  9 00:02:40 2025.
 Gaussian 16:  ES64L-G16RevC.01  3-Jul-2019

 ----------------------------------------------------------------------
 #t hf aug-cc-pvdz iop(5/13=1,5/36=2,99/5=2) pseudo=read geom=check gue
 ss=(read,tcheck) scf=(maxcycle=1)
 ----------------------------------------------------------------------
 -----
 title
 -----
 Structure from the checkpoint file:  "BDE49_nonexpt_2190_mol1.chk"
 Charge =  0 Multiplicity = 1

                         Standard orientation:
 ---------------------------------------------------------------------
 Center     Atomic      Atomic             Coordinates (Angstroms)
 Number     Number       Type             X           Y           Z
 ---------------------------------------------------------------------
      1          6           0        2.602195   -0.837555    0.036277
      2          6           0        2.297989    0.521833    0.045791
      3          6           0        0.972046    0.965682    0.005457
      4          6           0        1.585337   -1.784694   -0.013417
      5          6           0        0.255963   -1.360193   -0.058581
      6          6           0       -0.048615   -0.005446   -0.049521
      7          1           0        3.639028   -1.151969    0.069248
      8          1           0        1.814009   -2.843378   -0.020322
      9          1           0       -0.544900   -2.090421   -0.109984
     10          8           0       -1.336518    0.485482   -0.109606
     11         14           0       -2.790413   -0.299365    0.054115
     12          1           0        3.094776    1.257310    0.093961
     13          7           0        0.630401    2.312194    0.074926
     14          1           0        1.322895    2.952567   -0.282778
     15          1           0       -0.305084    2.514679   -0.245929
     16          1           0       -3.801958    0.771650    0.002063
     17          1           0       -2.854896   -1.024575    1.342767
     18          1           0       -3.008244   -1.261725   -1.050308
 ---------------------------------------------------------------------

 SCF Done:  E(RHF) =  -650.905688094     A.U. after    2 cycles

 The electronic state is 1-A.
 Alpha  occ. eigenvalues --  -69.10424 -20.58877 -15.62650 -11.30727 -11.28652
 Alpha  occ. eigenvalues --  -11.24613 -11.24057 -11.23780 -11.23604  -6.85223
 Alpha  occ. eigenvalues --   -3.96137  -3.95991  -3.95959  -1.34439  -1.19078
 Alpha  occ. eigenvalues --   -1.11615  -1.00430  -0.98124  -0.85630  -0.82148
 Alpha  occ. eigenvalues --   -0.75153  -0.70693  -0.69905  -0.65313  -0.62423
 Alpha  occ. eigenvalues --   -0.61820  -0.61664  -0.60190  -0.56569  -0.52527
 Alpha  occ. eigenvalues --   -0.51857  -0.50470  -0.47892  -0.47271  -0.44843
 Alpha  occ. eigenvalues --   -0.33374  -0.29037
 Alpha virt. eigenvalues --    0.03176   0.03740   0.04121   0.05100   0.05676
 Alpha virt. eigenvalues --    0.06201   0.06686   0.07421   0.08877   0.09087
 Alpha virt. eigenvalues --    0.10080   0.10998   0.11433   0.12561   0.12891

 Mulliken charges:
               1
     1  C    0.382760
     2  C    1.189513
     3  C   -0.123177
     4  C    0.450796
     5  C    0.765754
     6  C    0.282104
     7  H   -0.448951
     8  H   -0.438800
     9  H   -0.671406
    10  O   -0.910829
    11  Si   0.146453
    12  H   -0.564575
    13  N   -0.298397
    14  H   -0.038349
    15  H   -0.007408
    16  H    0.061403
    17  H    0.106631
    18  H    0.116479
 Sum of Mulliken charges =  -0.00000

 Dipole moment (field-independent basis, Debye):
    X=             -0.2431    Y=              0.2771    Z=             -0.8086  Tot=              0.8887

 Test job not archived.
 1\1\GINC-SE069\SP\RHF\Aug-CC-pVDZ\C6H9N1O1Si1\OHZDE\09-Apr-2025\0\\#t
 hf aug-cc-pvdz iop(5/13=1,5/36=2,99/5=2) pseudo=read geom=check guess=
 (read,tcheck) scf=(maxcycle=1)\\title\\0,1\C,0,2.602195,-0.837555,0.03
 6277\C,0,2.297989,0.521833,0.045791\C,0,0.972046,0.965682,0.005457\C,0
 ,1.585337,-1.784694,-0.013417\C,0,0.255963,-1.360193,-0.058581\C,0,-0.
 048615,-0.005446,-0.049521\H,0,3.639028,-1.151969,0.069248\H,0,1.81400
 9,-2.843378,-0.020322\H,0,-0.5449,-2.090421,-0.109984\O,0,-1.336518,0.
 485482,-0.109606\Si,0,-2.790413,-0.299366,0.054115\H,0,3.094776,1.2573

 Normal termination of Gaussian 16 at Wed Apr  9 00:02:49 2025.
