 Gaussian 16, Revision C.01,

 ----------------------------------------------------------------------
 #t hf aug-cc-pvdz symm=none int=(grid=ultrafine) guess=(read,tcheck) s
 table=(opt,rrhf)
 ----------------------------------------------------------------------
 -----
 title
 -----
 Symbolic Z-matrix:
 Charge =  0 Multiplicity = 1

 SCF Done:  E(RHF) =  -1283.78588652     A.U. after   15 cycles
 Normal termination of Gaussian 16 at Wed Apr  9 00:03:50 2025.
 Gaussian 16:  ES64L-G16RevC.01  3-Jul-2019

 ----------------------------------------------------------------------
 #t hf aug-cc-pvdz iop(5/13=1,5/36=2,99/5=2) pseudo=read geom=check gue
 ss=(read,tcheck) scf=(maxcycle=1)
 ----------------------------------------------------------------------
 -----
 title
 -----
 Structure from the checkpoint file:  "BDE49_nonexpt_222_mol1.chk"
 Charge =  0 Multiplicity = 1

                         Standard orientation:
 ---------------------------------------------------------------------
 Center     Atomic      Atomic             Coordinates (Angstroms)
 Number     Number       Type             X           Y           Z
 ---------------------------------------------------------------------
      1         17           0       -1.957172    1.561105   -0.498704
      2          5           0       -1.340574    0.010025    0.014866
      3         17           0       -2.328515   -1.427898   -0.064090
      4          6           0        0.122865   -0.078535    0.628722
      5          8           0        0.341452   -0.075171    1.804094
      6          8           0        1.083525   -0.206233   -0.359037
      7          6           0        2.450678    0.082054   -0.130881
      8          8           0        2.814806    0.878625    0.670582
      9          6           0        3.290280   -0.721874   -1.080255
     10          1           0        3.186750   -1.784305   -0.845312
     11          1           0        4.331358   -0.420014   -0.987806
     12          1           0        2.940221   -0.577965   -2.104324
 ---------------------------------------------------------------------

 SCF Done:  E(RHF) =  -1283.93665545     A.U. after    2 cycles

 The electronic state is 1-A.
 Alpha  occ. eigenvalues -- -103.69694-103.69655 -20.65424 -20.60144 -20.59586
 Alpha  occ. eigenvalues --  -11.42805 -11.41759 -11.27478 -10.73173 -10.73122
 Alpha  occ. eigenvalues --   -8.38864  -8.38824  -8.38631  -8.38593  -8.38591
 Alpha  occ. eigenvalues --   -8.38555  -7.76895  -1.46220  -1.39939  -1.35280
 Alpha  occ. eigenvalues --   -1.20975  -1.17378  -1.05158  -0.93629  -0.79916
 Alpha  occ. eigenvalues --   -0.76059  -0.72649  -0.71091  -0.69125  -0.65493
 Alpha  occ. eigenvalues --   -0.63902  -0.61507  -0.60470  -0.59229  -0.55687
 Alpha  occ. eigenvalues --   -0.55299  -0.53729  -0.52021  -0.50772  -0.50311
 Alpha  occ. eigenvalues --   -0.49490  -0.45817
 Alpha virt. eigenvalues --    0.02892   0.04572   0.04892   0.05193   0.05536
 Alpha virt. eigenvalues --    0.06239   0.06428   0.07189   0.09523   0.10251
 Alpha virt. eigenvalues --    0.11751   0.12335   0.12755   0.12879   0.14015

 Mulliken charges:
               1
     1  Cl  -0.241877
     2  B    0.545150
     3  Cl  -0.267530
     4  C    0.452560
     5  O   -0.362603
     6  O   -0.509978
     7  C    0.405158
     8  O   -0.366228
     9  C    0.270970
    10  H    0.045265
    11  H   -0.006403
    12  H    0.035515
 Sum of Mulliken charges =  -0.00000

 Dipole moment (field-independent basis, Debye):
    X=              0.2596    Y=             -1.9164    Z=             -3.8388  Tot=              4.2984

 Test job not archived.
 1\1\GINC-SE457\SP\RHF\Aug-CC-pVDZ\C3H3B1Cl2O3\OHZDE\09-Apr-2025\0\\#t
 hf aug-cc-pvdz iop(5/13=1,5/36=2,99/5=2) pseudo=read geom=check guess=
 (read,tcheck) scf=(maxcycle=1)\\title\\0,1\Cl,0,-1.957172,1.561105,-0.
 498704\B,0,-1.340574,0.010025,0.014866\Cl,0,-2.328515,-1.427898,-0.064
 09\C,0,0.122865,-0.078535,0.628722\O,0,0.341452,-0.075171,1.804094\O,0
 ,1.083525,-0.206233,-0.359037\C,0,2.450678,0.082054,-0.130881\O,0,2.81
 4806,0.878625,0.670582\C,0,3.29028,-0.721874,-1.080255\H,0,3.18675,-1.
 784305,-0.845312\H,0,4.331358,-0.420014,-0.987806\H,0,2.940221,-0.5779

 Normal termination of Gaussian 16 at Wed Apr  9 00:03:56 2025.
