 Gaussian 16, Revision C.01,

 ----------------------------------------------------------------------
 #t hf aug-cc-pvdz symm=none int=(grid=ultrafine) guess=(read,tcheck) s
 table=(opt,rrhf)
 ----------------------------------------------------------------------
 -----
 title
 -----
 Symbolic Z-matrix:
 Charge =  0 Multiplicity = 1

 SCF Done:  E(RHF) =  -1814.28541051     A.U. after   13 cycles
 Normal termination of Gaussian 16 at Tue Apr  8 23:39:48 2025.
 Gaussian 16:  ES64L-G16RevC.01  3-Jul-2019

 ----------------------------------------------------------------------
 #t hf aug-cc-pvdz iop(5/13=1,5/36=2,99/5=2) pseudo=read geom=check gue
 ss=(read,tcheck) scf=(maxcycle=1)
 ----------------------------------------------------------------------
 -----
 title
 -----
 Structure from the checkpoint file:  "BDE49_nonexpt_1641_mol1.chk"
 Charge =  0 Multiplicity = 1

                         Standard orientation:
 ---------------------------------------------------------------------
 Center     Atomic      Atomic             Coordinates (Angstroms)
 Number     Number       Type             X           Y           Z
 ---------------------------------------------------------------------
      1         14           0       -0.767048    0.012717    0.323167
      2         15           0        1.490156   -0.061978    0.051715
      3          8           0        2.131748   -1.089197    0.889163
      4          8           0        1.883278    1.469901    0.307948
      5          6           0       -1.233841    0.039585    2.115525
      6          1           0       -0.773881   -0.808649    2.628095
      7          1           0       -2.319054   -0.019733    2.226347
      8          1           0       -0.881572    0.964803    2.578495
      9         17           0       -1.577303    1.633400   -0.672921
     10         17           0       -1.460529   -1.722968   -0.580159
     11          8           0        1.811800   -0.207955   -1.525090
     12          1           0        1.959270   -1.130026   -1.772148
     13          1           0        2.833143    1.648394    0.272192
 ---------------------------------------------------------------------

 SCF Done:  E(RHF) =  -1814.49573750     A.U. after    2 cycles

 The electronic state is 1-A.
 Alpha  occ. eigenvalues -- -103.67268-103.67262 -81.42269 -69.17643 -20.62935
 Alpha  occ. eigenvalues --  -20.62566 -20.53744 -11.25182 -10.70690 -10.70680
 Alpha  occ. eigenvalues --   -8.36383  -8.36376  -8.36156  -8.36150  -8.36145
 Alpha  occ. eigenvalues --   -8.36141  -7.90736  -6.92020  -5.05362  -5.05256
 Alpha  occ. eigenvalues --   -5.04841  -4.02852  -4.02763  -4.02649  -1.38979
 Alpha  occ. eigenvalues --   -1.35622  -1.26849  -1.16818  -1.14545  -0.97608
 Alpha  occ. eigenvalues --   -0.86568  -0.77644  -0.71817  -0.68745  -0.66124
 Alpha  occ. eigenvalues --   -0.63170  -0.60619  -0.59902  -0.59677  -0.58411
 Alpha  occ. eigenvalues --   -0.55665  -0.55184  -0.53233  -0.51504  -0.49999
 Alpha  occ. eigenvalues --   -0.49413  -0.48276  -0.47914  -0.43061
 Alpha virt. eigenvalues --    0.03117   0.04159   0.04630   0.05990   0.06259
 Alpha virt. eigenvalues --    0.07053   0.07926   0.08997   0.09734   0.10529
 Alpha virt. eigenvalues --    0.11108   0.11996   0.12539   0.13943   0.14412

 Mulliken charges:
               1
     1  Si   1.312510
     2  P    2.061751
     3  O   -0.965362
     4  O   -0.692638
     5  C    0.249698
     6  H   -0.114079
     7  H   -0.195060
     8  H   -0.127374
     9  Cl  -0.549973
    10  Cl  -0.550534
    11  O   -0.732798
    12  H    0.149475
    13  H    0.154383
 Sum of Mulliken charges =  -0.00000

 Dipole moment (field-independent basis, Debye):
    X=              0.0795    Y=              1.1528    Z=              0.1951  Tot=              1.1719

 Test job not archived.
 1\1\GINC-SE458\SP\RHF\Aug-CC-pVDZ\C1H5Cl2O3P1Si1\OHZDE\08-Apr-2025\0\\
 #t hf aug-cc-pvdz iop(5/13=1,5/36=2,99/5=2) pseudo=read geom=check gue
 ss=(read,tcheck) scf=(maxcycle=1)\\title\\0,1\Si,0,-0.767048,0.012717,
 0.323167\P,0,1.490156,-0.061978,0.051715\O,0,2.131748,-1.089197,0.8891
 63\O,0,1.883278,1.469901,0.307948\C,0,-1.233841,0.039585,2.115525\H,0,
 -0.773881,-0.808649,2.628095\H,0,-2.319054,-0.019733,2.226347\H,0,-0.8
 81572,0.964803,2.578495\Cl,0,-1.577303,1.6334,-0.672921\Cl,0,-1.460529
 ,-1.722968,-0.580159\O,0,1.8118,-0.207955,-1.52509\H,0,1.95927,-1.1300

 Normal termination of Gaussian 16 at Tue Apr  8 23:39:54 2025.
