 Gaussian 16, Revision C.01,

 ----------------------------------------------------------------------
 #t hf aug-cc-pvdz symm=none int=(grid=ultrafine) guess=(read,tcheck) s
 table=(opt,rrhf)
 ----------------------------------------------------------------------
 -----
 title
 -----
 Symbolic Z-matrix:
 Charge =  0 Multiplicity = 1

 SCF Done:  E(RHF) =  -614.977864878     A.U. after   12 cycles
 Normal termination of Gaussian 16 at Tue Apr  8 22:55:37 2025.
 Gaussian 16:  ES64L-G16RevC.01  3-Jul-2019

 ----------------------------------------------------------------------
 #t hf aug-cc-pvdz iop(5/13=1,5/36=2,99/5=2) pseudo=read geom=check gue
 ss=(read,tcheck) scf=(maxcycle=1)
 ----------------------------------------------------------------------
 -----
 title
 -----
 Structure from the checkpoint file:  "BDE49_expt_1931_mol1.chk"
 Charge =  0 Multiplicity = 1

                         Standard orientation:
 ---------------------------------------------------------------------
 Center     Atomic      Atomic             Coordinates (Angstroms)
 Number     Number       Type             X           Y           Z
 ---------------------------------------------------------------------
      1         14           0        0.013735    0.001133    0.001238
      2          9           0       -0.144656   -0.937254    1.280498
      3          8           0        0.025367    1.579090    0.380374
      4          8           0       -1.274966   -0.255934   -0.963738
      5          8           0        1.451927   -0.406684   -0.628598
      6          1           0       -0.818495    2.026793    0.475412
      7          1           0       -1.572300   -1.157663   -1.105637
      8          1           0        1.881781    0.218508   -1.215896
 ---------------------------------------------------------------------

 SCF Done:  E(RHF) =  -615.149965867     A.U. after    2 cycles

 The electronic state is 1-A.
 Alpha  occ. eigenvalues --  -69.18350 -26.11164 -20.59037 -20.59033 -20.58702
 Alpha  occ. eigenvalues --   -6.92050  -4.03161  -4.03103  -4.03091  -1.64279
 Alpha  occ. eigenvalues --   -1.34606  -1.31693  -1.31499  -0.83104  -0.76722
 Alpha  occ. eigenvalues --   -0.75641  -0.75162  -0.71985  -0.70201  -0.61369
 Alpha  occ. eigenvalues --   -0.59733  -0.59241  -0.57139  -0.55685  -0.53914
 Alpha virt. eigenvalues --    0.02879   0.05014   0.05153   0.06623   0.07639
 Alpha virt. eigenvalues --    0.08016   0.11314   0.17283   0.18154   0.18533
 Alpha virt. eigenvalues --    0.19842   0.20142   0.22001   0.23881   0.24693

 Mulliken charges:
               1
     1  Si   2.690123
     2  F   -0.811465
     3  O   -0.752422
     4  O   -0.745074
     5  O   -0.779110
     6  H    0.138514
     7  H    0.122573
     8  H    0.136862
 Sum of Mulliken charges =  -0.00000

 Dipole moment (field-independent basis, Debye):
    X=             -1.1504    Y=              0.7847    Z=             -1.7896  Tot=              2.2675

 Test job not archived.
 1\1\GINC-SE073\SP\RHF\Aug-CC-pVDZ\F1H3O3Si1\OHZDE\08-Apr-2025\0\\#t hf
  aug-cc-pvdz iop(5/13=1,5/36=2,99/5=2) pseudo=read geom=check guess=(r
 ead,tcheck) scf=(maxcycle=1)\\title\\0,1\Si,0,0.013735,0.001133,0.0012
 38\F,0,-0.144661,-0.937253,1.280498\O,0,0.025376,1.57909,0.380374\O,0,
 -1.274967,-0.255927,-0.963738\O,0,1.451925,-0.406692,-0.628598\H,0,-0.
 818484,2.026797,0.475412\H,0,-1.572306,-1.157655,-1.105637\H,0,1.88178
 2,0.218498,-1.215896\\Version=ES64L-G16RevC.01\State=1-A\HF=-615.14996
 59\RMSD=4.043e-03\Dipole=-0.4526056,0.308712,-0.7040692\Quadrupole=0.8

 Normal termination of Gaussian 16 at Tue Apr  8 22:55:39 2025.
