 Gaussian 16, Revision C.01,

 ----------------------------------------------------------------------
 #t hf aug-cc-pvdz symm=none int=(grid=ultrafine) guess=(read,tcheck) s
 table=(opt,rrhf)
 ----------------------------------------------------------------------
 -----
 title
 -----
 Symbolic Z-matrix:
 Charge =  0 Multiplicity = 1

 SCF Done:  E(RHF) =  -877.506339478     A.U. after   14 cycles
 Normal termination of Gaussian 16 at Tue Apr  8 23:53:24 2025.
 Gaussian 16:  ES64L-G16RevC.01  3-Jul-2019

 ----------------------------------------------------------------------
 #t hf aug-cc-pvdz iop(5/13=1,5/36=2,99/5=2) pseudo=read geom=check gue
 ss=(read,tcheck) scf=(maxcycle=1)
 ----------------------------------------------------------------------
 -----
 title
 -----
 Structure from the checkpoint file:  "BDE49_nonexpt_1965_mol1.chk"
 Charge =  0 Multiplicity = 1

                         Standard orientation:
 ---------------------------------------------------------------------
 Center     Atomic      Atomic             Coordinates (Angstroms)
 Number     Number       Type             X           Y           Z
 ---------------------------------------------------------------------
      1         14           0       -1.893657   -0.003841   -0.267643
      2          6           0       -0.494761   -0.348410    0.982315
      3          1           0       -2.211943    1.436162   -0.301477
      4          1           0       -3.077019   -0.736641    0.244679
      5          1           0       -1.555808   -0.505303   -1.611688
      6         16           0        1.133189    0.178312    0.374132
      7          8           0        0.890522    1.373093   -0.455930
      8          8           0        1.251471   -1.191512   -0.621441
      9          1           0        2.144663   -1.183356   -0.991632
     10          1           0       -0.422773   -1.403654    1.251500
     11          1           0       -0.664332    0.231389    1.894583
 ---------------------------------------------------------------------

 SCF Done:  E(RHF) =  -877.637796073     A.U. after    2 cycles

 The electronic state is 1-A.
 Alpha  occ. eigenvalues --  -93.71965 -69.07306 -20.62384 -20.55092 -11.27077
 Alpha  occ. eigenvalues --   -8.99624  -6.82535  -6.33909  -6.33685  -6.33340
 Alpha  occ. eigenvalues --   -3.93340  -3.93306  -3.93291  -1.38513  -1.31055
 Alpha  occ. eigenvalues --   -1.02602  -0.85927  -0.73511  -0.70051  -0.66028
 Alpha  occ. eigenvalues --   -0.63144  -0.61275  -0.59509  -0.53919  -0.49299
 Alpha  occ. eigenvalues --   -0.48929  -0.47831  -0.47350  -0.40203
 Alpha virt. eigenvalues --    0.03233   0.04203   0.04780   0.05316   0.06959
 Alpha virt. eigenvalues --    0.07765   0.08422   0.08852   0.09690   0.10903
 Alpha virt. eigenvalues --    0.11405   0.12174   0.13988   0.15584   0.15935

 Mulliken charges:
               1
     1  Si   0.343378
     2  C   -0.341871
     3  H    0.056798
     4  H   -0.011360
     5  H    0.015191
     6  S    1.553843
     7  O   -0.962342
     8  O   -0.686153
     9  H    0.167732
    10  H   -0.076354
    11  H   -0.058863
 Sum of Mulliken charges =  -0.00000

 Dipole moment (field-independent basis, Debye):
    X=              0.4866    Y=             -2.3502    Z=              2.0309  Tot=              3.1440

 Test job not archived.
 1\1\GINC-SE334\SP\RHF\Aug-CC-pVDZ\C1H6O2S1Si1\OHZDE\08-Apr-2025\0\\#t
 hf aug-cc-pvdz iop(5/13=1,5/36=2,99/5=2) pseudo=read geom=check guess=
 (read,tcheck) scf=(maxcycle=1)\\title\\0,1\Si,0,-1.893657,-0.003841,-0
 .267643\C,0,-0.494761,-0.34841,0.982315\H,0,-2.211943,1.436162,-0.3014
 77\H,0,-3.077019,-0.736642,0.244679\H,0,-1.555808,-0.505303,-1.611688\
 S,0,1.133189,0.178312,0.374132\O,0,0.890522,1.373093,-0.45593\O,0,1.25
 1471,-1.191512,-0.621441\H,0,2.144663,-1.183355,-0.991632\H,0,-0.42277
 3,-1.403654,1.2515\H,0,-0.664332,0.231389,1.894583\\Version=ES64L-G16R

 Normal termination of Gaussian 16 at Tue Apr  8 23:53:27 2025.
