 Gaussian 16, Revision C.01,

 ----------------------------------------------------------------------
 #t hf aug-cc-pvdz symm=none int=(grid=ultrafine) guess=(read,tcheck) s
 table=(opt,rrhf)
 ----------------------------------------------------------------------
 -----
 title
 -----
 Symbolic Z-matrix:
 Charge =  0 Multiplicity = 1

 SCF Done:  E(RHF) =  -540.261691445     A.U. after   11 cycles
 Normal termination of Gaussian 16 at Tue Apr  8 23:31:59 2025.
 Gaussian 16:  ES64L-G16RevC.01  3-Jul-2019

 ----------------------------------------------------------------------
 #t hf aug-cc-pvdz iop(5/13=1,5/36=2,99/5=2) pseudo=read geom=check gue
 ss=(read,tcheck) scf=(maxcycle=1)
 ----------------------------------------------------------------------
 -----
 title
 -----
 Structure from the checkpoint file:  "BDE49_nonexpt_1449_mol1.chk"
 Charge =  0 Multiplicity = 1

                         Standard orientation:
 ---------------------------------------------------------------------
 Center     Atomic      Atomic             Coordinates (Angstroms)
 Number     Number       Type             X           Y           Z
 ---------------------------------------------------------------------
      1         15           0       -0.041579    0.544729    0.000000
      2          9           0       -0.041579   -0.495334    1.232238
      3          9           0       -0.041579   -0.495334   -1.232238
      4          1           0        1.372105    0.745074    0.000000
 ---------------------------------------------------------------------

 SCF Done:  E(RHF) =  -540.371192554     A.U. after    2 cycles

 The electronic state is 1-A'.
 Alpha  occ. eigenvalues --  -81.40676 -26.14544 -26.14541  -7.89380  -5.03486
 Alpha  occ. eigenvalues --   -5.03188  -5.02722  -1.67810  -1.66513  -0.90460
 Alpha  occ. eigenvalues --   -0.79957  -0.78228  -0.77377  -0.74422  -0.71811
 Alpha  occ. eigenvalues --   -0.62531  -0.41673
 Alpha virt. eigenvalues --    0.04049   0.05824   0.06512   0.08952   0.15090
 Alpha virt. eigenvalues --    0.15759   0.16336   0.23680   0.24108   0.26131
 Alpha virt. eigenvalues --    0.26332   0.26633   0.31804   0.34347   0.35329

 Mulliken charges:
               1
     1  P    1.210714
     2  F   -0.604518
     3  F   -0.604518
     4  H   -0.001678
 Sum of Mulliken charges =  -0.00000

 Dipole moment (field-independent basis, Debye):
    X=              0.7383    Y=              1.9170    Z=             -0.0000  Tot=              2.0542

 Test job not archived.
 1\1\GINC-SE086\SP\RHF\Aug-CC-pVDZ\F2H1P1\OHZDE\08-Apr-2025\0\\#t hf au
 g-cc-pvdz iop(5/13=1,5/36=2,99/5=2) pseudo=read geom=check guess=(read
 ,tcheck) scf=(maxcycle=1)\\title\\0,1\P,0,-0.041579,0.544729,0.\F,0,-0
 .041579,-0.495334,1.232238\F,0,-0.041579,-0.495334,-1.232238\H,0,1.372
 105,0.745074,0.\\Version=ES64L-G16RevC.01\State=1-A'\HF=-540.3711926\R
 MSD=7.846e-03\Dipole=0.290462,0.7541944,0.\Quadrupole=1.0761329,0.3607
 504,-1.4368833,1.0349906,0.,0.\PG=CS [SG(H1P1),X(F2)]\\@

 Normal termination of Gaussian 16 at Tue Apr  8 23:32:00 2025.
