 Gaussian 16, Revision C.01,

 ----------------------------------------------------------------------
 #t hf aug-cc-pvdz symm=none int=(grid=ultrafine) guess=(read,tcheck) s
 table=(opt,rrhf)
 ----------------------------------------------------------------------
 -----
 title
 -----
 Symbolic Z-matrix:
 Charge =  0 Multiplicity = 1

 SCF Done:  E(RHF) =  -1191.16499422     A.U. after   19 cycles
 Normal termination of Gaussian 16 at Tue Apr  8 23:04:43 2025.
 Gaussian 16:  ES64L-G16RevC.01  3-Jul-2019

 ----------------------------------------------------------------------
 #t hf aug-cc-pvdz iop(5/13=1,5/36=2,99/5=2) pseudo=read geom=check gue
 ss=(read,tcheck) scf=(maxcycle=1)
 ----------------------------------------------------------------------
 -----
 title
 -----
 Structure from the checkpoint file:  "BDE49_expt_1764_mol1.chk"
 Charge =  0 Multiplicity = 1

                         Standard orientation:
 ---------------------------------------------------------------------
 Center     Atomic      Atomic             Coordinates (Angstroms)
 Number     Number       Type             X           Y           Z
 ---------------------------------------------------------------------
      1          7           0        0.667145   -1.022312    0.325791
      2          7           0        0.468029   -1.753844    1.499039
      3          8           0        1.307238   -1.584745    2.337077
      4         16           0       -0.597253   -1.197919   -0.847873
      5          8           0       -1.145765   -2.508596   -0.651845
      6          6           0       -1.799953    0.014081   -0.340121
      7          6           0        1.717739   -0.055797    0.170231
      8          6           0        1.686932    1.121628    0.918439
      9          6           0        2.719371    2.044528    0.785241
     10          6           0        3.771536    1.793755   -0.093862
     11          6           0        3.795546    0.615441   -0.837729
     12          6           0        2.771239   -0.316781   -0.704432
     13          1           0        2.701629    2.958358    1.367545
     14          1           0        4.612945    0.419776   -1.521724
     15          1           0        2.775147   -1.236167   -1.274883
     16          6           0       -2.731689   -0.329387    0.639906
     17          6           0       -1.796299    1.271134   -0.942067
     18          1           0        0.865504    1.303952    1.599919
     19          8           0       -0.008403   -0.771573   -2.088259
     20          6           0       -2.746010    2.208144   -0.542094
     21          6           0       -3.672157    0.618258    1.030011
     22          6           0       -3.678137    1.883551    0.441778
     23          1           0       -2.759966    3.188168   -1.004150
     24          1           0       -4.416472    2.615923    0.747463
     25          1           0       -1.073165    1.496270   -1.714714
     26          1           0       -2.717927   -1.320449    1.074796
     27          1           0       -4.404755    0.366450    1.787609
     28          1           0        4.573631    2.515507   -0.197308
 ---------------------------------------------------------------------

 SCF Done:  E(RHF) =  -1191.47740031     A.U. after    2 cycles

 The electronic state is 1-A.
 Alpha  occ. eigenvalues --  -93.82811 -20.64353 -20.58205 -20.58043 -15.82711
 Alpha  occ. eigenvalues --  -15.71771 -11.30527 -11.30093 -11.28580 -11.28561
 Alpha  occ. eigenvalues --  -11.28196 -11.27524 -11.27512 -11.26685 -11.26452
 Alpha  occ. eigenvalues --  -11.26368 -11.26041 -11.25914  -9.09032  -6.43718
 Alpha  occ. eigenvalues --   -6.43578  -6.43416  -1.50400  -1.45474  -1.33681
 Alpha  occ. eigenvalues --   -1.25178  -1.18259  -1.15540  -1.06355  -1.04648
 Alpha  occ. eigenvalues --   -1.03667  -1.03026  -0.95370  -0.90530  -0.86613
 Alpha  occ. eigenvalues --   -0.85786  -0.84906  -0.80298  -0.77108  -0.75340
 Alpha  occ. eigenvalues --   -0.74318  -0.70306  -0.70146  -0.68339  -0.67338
 Alpha  occ. eigenvalues --   -0.66315  -0.65654  -0.65337  -0.63591  -0.63003
 Alpha  occ. eigenvalues --   -0.62809  -0.61076  -0.56597  -0.56004  -0.54860
 Alpha  occ. eigenvalues --   -0.54753  -0.53385  -0.53244  -0.52823  -0.52433
 Alpha  occ. eigenvalues --   -0.51572  -0.49140  -0.45546  -0.44370  -0.38094
 Alpha  occ. eigenvalues --   -0.37298  -0.35615  -0.35496
 Alpha virt. eigenvalues --    0.02386   0.03107   0.03905   0.04122   0.04805
 Alpha virt. eigenvalues --    0.05219   0.05867   0.06310   0.06654   0.06973
 Alpha virt. eigenvalues --    0.07268   0.07761   0.08584   0.09708   0.10006

 Mulliken charges:
               1
     1  N   -0.572807
     2  N   -0.049143
     3  O   -0.440651
     4  S    2.690004
     5  O   -0.992558
     6  C    0.501391
     7  C    0.347164
     8  C    0.497553
     9  C    0.419699
    10  C    0.869175
    11  C    0.548278
    12  C    0.696702
    13  H   -0.468011
    14  H   -0.456178
    15  H   -0.637241
    16  C   -0.020653
    17  C    0.250502
    18  H   -0.715289
    19  O   -1.030107
    20  C    0.423654
    21  C    0.592716
    22  C    0.592496
    23  H   -0.454082
    24  H   -0.446816
    25  H   -0.638507
    26  H   -0.601556
    27  H   -0.440957
    28  H   -0.464779
 Sum of Mulliken charges =  -0.00000

 Dipole moment (field-independent basis, Debye):
    X=             -1.3085    Y=              5.6644    Z=              0.7697  Tot=              5.8643

 Test job not archived.
 1\1\GINC-SE329\SP\RHF\Aug-CC-pVDZ\C12H10N2O3S1\OHZDE\08-Apr-2025\0\\#t
  hf aug-cc-pvdz iop(5/13=1,5/36=2,99/5=2) pseudo=read geom=check guess
 =(read,tcheck) scf=(maxcycle=1)\\title\\0,1\N,0,0.667145,-1.022312,0.3
 25791\N,0,0.468029,-1.753844,1.499039\O,0,1.307238,-1.584745,2.337077\
 S,0,-0.597253,-1.197919,-0.847873\O,0,-1.145765,-2.508596,-0.651845\C,
 0,-1.799953,0.014081,-0.340121\C,0,1.717739,-0.055797,0.170231\C,0,1.6
 86932,1.121628,0.918439\C,0,2.719371,2.044528,0.785241\C,0,3.771536,1.
 793755,-0.093862\C,0,3.795546,0.615441,-0.837729\C,0,2.771239,-0.31678

 Normal termination of Gaussian 16 at Tue Apr  8 23:05:21 2025.
