 Gaussian 16, Revision C.01,

 ----------------------------------------------------------------------
 #t hf aug-cc-pvdz symm=none int=(grid=ultrafine) guess=(read,tcheck) s
 table=(opt,rrhf)
 ----------------------------------------------------------------------
 -----
 title
 -----
 Symbolic Z-matrix:
 Charge =  0 Multiplicity = 1

 SCF Done:  E(RHF) =  -428.529699321     A.U. after   12 cycles
 Normal termination of Gaussian 16 at Tue Apr  8 22:35:23 2025.
 Gaussian 16:  ES64L-G16RevC.01  3-Jul-2019

 ----------------------------------------------------------------------
 #t hf aug-cc-pvdz iop(5/13=1,5/36=2,99/5=2) pseudo=read geom=check gue
 ss=(read,tcheck) scf=(maxcycle=1)
 ----------------------------------------------------------------------
 -----
 title
 -----
 Structure from the checkpoint file:  "BDE49_expt_1147_mol1.chk"
 Charge =  0 Multiplicity = 1

                         Standard orientation:
 ---------------------------------------------------------------------
 Center     Atomic      Atomic             Coordinates (Angstroms)
 Number     Number       Type             X           Y           Z
 ---------------------------------------------------------------------
      1          6           0       -1.158172   -0.000001    0.000024
      2          6           0        0.321325    0.000040    0.000001
      3          7           0       -2.307798    0.000012    0.000003
      4          9           0        0.784291   -0.626547    1.086788
      5          9           0        0.784255   -0.628027   -1.085947
      6          9           0        0.784305    1.254539   -0.000861
 ---------------------------------------------------------------------

 SCF Done:  E(RHF) =  -428.680578626     A.U. after    2 cycles

 The electronic state is 1-A.
 Alpha  occ. eigenvalues --  -26.21392 -26.21392 -26.21377 -15.70882 -11.60702
 Alpha  occ. eigenvalues --  -11.34323  -1.81339  -1.74078  -1.74077  -1.25291
 Alpha  occ. eigenvalues --   -1.10630  -0.96068  -0.93150  -0.93149  -0.81844
 Alpha  occ. eigenvalues --   -0.81843  -0.77541  -0.77540  -0.76269  -0.73650
 Alpha  occ. eigenvalues --   -0.60406  -0.53250  -0.53250
 Alpha virt. eigenvalues --    0.06679   0.07189   0.08439   0.08440   0.11302
 Alpha virt. eigenvalues --    0.11302   0.12141   0.13122   0.13122   0.19624
 Alpha virt. eigenvalues --    0.22384   0.22385   0.23503   0.24256   0.24256

 Mulliken charges:
               1
     1  C   -0.532120
     2  C    1.362657
     3  N   -0.034870
     4  F   -0.265206
     5  F   -0.265209
     6  F   -0.265252
 Sum of Mulliken charges =  -0.00000

 Dipole moment (field-independent basis, Debye):
    X=              0.9119    Y=              0.0002    Z=              0.0000  Tot=              0.9119

 Test job not archived.
 1\1\GINC-SE070\SP\RHF\Aug-CC-pVDZ\C2F3N1\OHZDE\08-Apr-2025\0\\#t hf au
 g-cc-pvdz iop(5/13=1,5/36=2,99/5=2) pseudo=read geom=check guess=(read
 ,tcheck) scf=(maxcycle=1)\\title\\0,1\C,0,-1.158172,-0.000001,0.000024
 \C,0,0.321325,0.00004,0.000001\N,0,-2.307798,0.000012,0.000003\F,0,0.7
 84291,-0.62709,1.086475\F,0,0.784255,-0.627484,-1.086261\F,0,0.784305,
 1.254539,-0.000234\\Version=ES64L-G16RevC.01\State=1-A\HF=-428.6805786
 \RMSD=7.245e-03\Dipole=0.3587594,0.0000841,0.0000134\Quadrupole=-2.770
 7774,1.3852646,1.3855128,0.0000737,-0.0000225,0.0000015\PG=C01 [X(C2F3

 Normal termination of Gaussian 16 at Tue Apr  8 22:35:25 2025.
