 Gaussian 16, Revision C.01,

 ----------------------------------------------------------------------
 #t hf aug-cc-pvdz symm=none int=(grid=ultrafine) guess=(read,tcheck) s
 table=(opt,rrhf)
 ----------------------------------------------------------------------
 -----
 title
 -----
 Symbolic Z-matrix:
 Charge =  0 Multiplicity = 1

 SCF Done:  E(RHF) =  -746.427812713     A.U. after   15 cycles
 Normal termination of Gaussian 16 at Tue Apr  8 23:18:55 2025.
 Gaussian 16:  ES64L-G16RevC.01  3-Jul-2019

 ----------------------------------------------------------------------
 #t hf aug-cc-pvdz iop(5/13=1,5/36=2,99/5=2) pseudo=read geom=check gue
 ss=(read,tcheck) scf=(maxcycle=1)
 ----------------------------------------------------------------------
 -----
 title
 -----
 Structure from the checkpoint file:  "BDE49_nonexpt_1133_mol1.chk"
 Charge =  0 Multiplicity = 1

                         Standard orientation:
 ---------------------------------------------------------------------
 Center     Atomic      Atomic             Coordinates (Angstroms)
 Number     Number       Type             X           Y           Z
 ---------------------------------------------------------------------
      1          9           0        2.142765   -0.361106   -0.000000
      2          8           0        0.766027   -0.764280   -0.000000
      3          6           0       -0.000366    0.363007   -0.000000
      4          8           0        0.323769    1.489481    0.000001
      5         17           0       -1.647121   -0.278217   -0.000000
 ---------------------------------------------------------------------

 SCF Done:  E(RHF) =  -746.544636075     A.U. after    2 cycles

 The electronic state is 1-A.
 Alpha  occ. eigenvalues -- -103.72554 -26.22496 -20.77945 -20.64487 -11.51045
 Alpha  occ. eigenvalues --  -10.75841  -8.41566  -8.41220  -8.41214  -1.72815
 Alpha  occ. eigenvalues --   -1.48237  -1.39533  -1.21355  -0.91547  -0.83332
 Alpha  occ. eigenvalues --   -0.82267  -0.78364  -0.72429  -0.70551  -0.68645
 Alpha  occ. eigenvalues --   -0.59034  -0.55420  -0.52582  -0.52282
 Alpha virt. eigenvalues --    0.04592   0.06593   0.09458   0.09720   0.09859
 Alpha virt. eigenvalues --    0.10858   0.11322   0.14825   0.15411   0.18559
 Alpha virt. eigenvalues --    0.20462   0.21430   0.22388   0.25484   0.27621

 Mulliken charges:
               1
     1  F   -0.280259
     2  O   -0.005060
     3  C    0.502991
     4  O   -0.206478
     5  Cl  -0.011193
 Sum of Mulliken charges =  -0.00000

 Dipole moment (field-independent basis, Debye):
    X=             -1.4693    Y=             -1.2388    Z=             -0.0000  Tot=              1.9219

 Test job not archived.
 1\1\GINC-SE367\SP\RHF\Aug-CC-pVDZ\C1Cl1F1O2\OHZDE\08-Apr-2025\0\\#t hf
  aug-cc-pvdz iop(5/13=1,5/36=2,99/5=2) pseudo=read geom=check guess=(r
 ead,tcheck) scf=(maxcycle=1)\\title\\0,1\F,0,-2.142765,-0.361106,0.\O,
 0,-0.766027,-0.76428,0.\C,0,0.000366,0.363007,0.\O,0,-0.323769,1.48948
 1,-0.000001\Cl,0,1.647121,-0.278217,0.\\Version=ES64L-G16RevC.01\State
 =1-A\HF=-746.5446361\RMSD=3.984e-03\Dipole=0.5780856,-0.4873666,0.0000
 007\Quadrupole=0.581143,-2.0606278,1.4794848,-0.1822292,-0.0000006,0.0
 000023\PG=C01 [X(C1Cl1F1O2)]\\@

 Normal termination of Gaussian 16 at Tue Apr  8 23:18:57 2025.
