 Gaussian 16, Revision C.01,

 ----------------------------------------------------------------------
 #t hf aug-cc-pvdz symm=none int=(grid=ultrafine) guess=(read,tcheck) s
 table=(opt,rrhf)
 ----------------------------------------------------------------------
 -----
 title
 -----
 Symbolic Z-matrix:
 Charge =  0 Multiplicity = 1

 SCF Done:  E(RHF) =  -494.762945287     A.U. after   14 cycles
 Normal termination of Gaussian 16 at Tue Apr  8 23:55:18 2025.
 Gaussian 16:  ES64L-G16RevC.01  3-Jul-2019

 ----------------------------------------------------------------------
 #t hf aug-cc-pvdz iop(5/13=1,5/36=2,99/5=2) pseudo=read geom=check gue
 ss=(read,tcheck) scf=(maxcycle=1)
 ----------------------------------------------------------------------
 -----
 title
 -----
 Structure from the checkpoint file:  "BDE49_nonexpt_2013_mol1.chk"
 Charge =  0 Multiplicity = 1

                         Standard orientation:
 ---------------------------------------------------------------------
 Center     Atomic      Atomic             Coordinates (Angstroms)
 Number     Number       Type             X           Y           Z
 ---------------------------------------------------------------------
      1          7           0        0.598314    0.006842   -0.000102
      2         14           0       -1.269060    0.026755   -0.000017
      3          8           0        1.226420    1.058588    0.000044
      4          8           0        1.097719   -1.115834    0.000075
      5          1           0       -1.709647    1.429705   -0.000002
      6          1           0       -1.652361   -0.697099    1.221803
      7          1           0       -1.652459   -0.697102   -1.221803
 ---------------------------------------------------------------------

 SCF Done:  E(RHF) =  -494.851166159     A.U. after    2 cycles

 The electronic state is 1-A.
 Alpha  occ. eigenvalues --  -69.14380 -20.62653 -20.62327 -15.89024  -6.89435
 Alpha  occ. eigenvalues --   -4.00308  -4.00132  -4.00124  -1.53894  -1.36305
 Alpha  occ. eigenvalues --   -0.94738  -0.80440  -0.73600  -0.71478  -0.69478
 Alpha  occ. eigenvalues --   -0.55231  -0.53584  -0.51243  -0.48366  -0.47504
 Alpha virt. eigenvalues --    0.02606   0.04786   0.04859   0.05360   0.05826
 Alpha virt. eigenvalues --    0.08270   0.08781   0.11209   0.14384   0.14696
 Alpha virt. eigenvalues --    0.15697   0.16859   0.17076   0.17912   0.23145

 Mulliken charges:
               1
     1  N    0.359764
     2  Si   0.768762
     3  O   -0.512730
     4  O   -0.541404
     5  H    0.011486
     6  H   -0.042954
     7  H   -0.042923
 Sum of Mulliken charges =   0.00000

 Dipole moment (field-independent basis, Debye):
    X=             -4.5983    Y=              0.2384    Z=             -0.0003  Tot=              4.6045

 Test job not archived.
 1\1\GINC-SE423\SP\RHF\Aug-CC-pVDZ\H3N1O2Si1\OHZDE\08-Apr-2025\0\\#t hf
  aug-cc-pvdz iop(5/13=1,5/36=2,99/5=2) pseudo=read geom=check guess=(r
 ead,tcheck) scf=(maxcycle=1)\\title\\0,1\N,0,0.598314,0.006842,-0.0001
 02\Si,0,-1.26906,0.026756,-0.000017\O,0,1.22642,1.058587,0.000044\O,0,
 1.097718,-1.115835,0.000075\H,0,-1.709646,1.429706,-0.000002\H,0,-1.65
 2361,-0.697098,1.221803\H,0,-1.652459,-0.697101,-1.221803\\Version=ES6
 4L-G16RevC.01\State=1-A\HF=-494.8511662\RMSD=4.956e-03\Dipole=-1.80911
 93,0.0938002,-0.000134\Quadrupole=0.1832635,-2.1565365,1.973273,-0.062

 Normal termination of Gaussian 16 at Tue Apr  8 23:55:21 2025.
