 Gaussian 16, Revision C.01,

 ----------------------------------------------------------------------
 #t hf aug-cc-pvdz symm=none int=(grid=ultrafine) guess=(read,tcheck) s
 table=opt
 ----------------------------------------------------------------------
 -----
 title
 -----
 Symbolic Z-matrix:
 Charge =  0 Multiplicity = 2

 SCF Done:  E(UHF) =  -365.190053405     A.U. after   26 cycles
 Normal termination of Gaussian 16 at Tue Apr  8 23:36:35 2025.
 Gaussian 16:  ES64L-G16RevC.01  3-Jul-2019

 ----------------------------------------------------------------------
 #t hf aug-cc-pvdz iop(5/13=1,5/36=2,99/5=2) pseudo=read geom=check gue
 ss=(read,tcheck) scf=(maxcycle=1)
 ----------------------------------------------------------------------
 -----
 title
 -----
 Structure from the checkpoint file:  "BDE49_nonexpt_154_mol2.chk"
 Charge =  0 Multiplicity = 2

                         Standard orientation:
 ---------------------------------------------------------------------
 Center     Atomic      Atomic             Coordinates (Angstroms)
 Number     Number       Type             X           Y           Z
 ---------------------------------------------------------------------
      1          5           0        2.495189   -0.793402   -0.545460
      2          6           0        1.314778   -0.104556    0.081571
      3          8           0        1.559913    0.947715    0.639193
      4          8           0        0.054966   -0.673902   -0.003633
      5          6           0       -1.096131    0.118550   -0.139344
      6          8           0       -1.074166    1.233202   -0.554645
      7          6           0       -2.300474   -0.680486    0.270953
      8          1           0       -2.316364   -1.635671   -0.257419
      9          1           0       -3.202539   -0.111704    0.056050
     10          1           0       -2.242842   -0.898441    1.340360
     11          1           0        3.451063   -1.444336   -0.338087
 ---------------------------------------------------------------------

 SCF Done:  E(UHF) =  -365.305962790     A.U. after    2 cycles

 The electronic state is 2-A.
 Alpha  occ. eigenvalues --  -20.64382 -20.60190 -20.58603 -11.42052 -11.39428
 Alpha  occ. eigenvalues --  -11.26864  -7.68461  -1.45271  -1.39235  -1.34572
 Alpha  occ. eigenvalues --   -1.04412  -0.92891  -0.80711  -0.75234  -0.72053
 Alpha  occ. eigenvalues --   -0.70486  -0.67068  -0.63582  -0.62678  -0.59692
 Alpha  occ. eigenvalues --   -0.59104  -0.56795  -0.52131  -0.51082  -0.47194
 Alpha  occ. eigenvalues --   -0.36225
 Alpha virt. eigenvalues --    0.02304   0.03494   0.04540   0.04866   0.05760
 Alpha virt. eigenvalues --    0.06079   0.06666   0.08003   0.09860   0.10820
 Alpha virt. eigenvalues --    0.12364   0.13034   0.13682   0.14844   0.14999

  Beta  occ. eigenvalues --  -20.64464 -20.58670 -20.58617 -11.42045 -11.40054
  Beta  occ. eigenvalues --  -11.26864  -7.66760  -1.45126  -1.37884  -1.33206
  Beta  occ. eigenvalues --   -1.04361  -0.92237  -0.78800  -0.74790  -0.71746
  Beta  occ. eigenvalues --   -0.70069  -0.65667  -0.62257  -0.61576  -0.59518
  Beta  occ. eigenvalues --   -0.57605  -0.53860  -0.50540  -0.48700  -0.46127
  Beta virt. eigenvalues --    0.02737   0.03451   0.03976   0.04613   0.05636
  Beta virt. eigenvalues --    0.05900   0.06771   0.07331   0.08992   0.10434
  Beta virt. eigenvalues --    0.10956   0.12643   0.13233   0.14204   0.14993

 Mulliken charges and spin densities:
               1          2
     1  B   -0.523448   0.955019
     2  C    0.768261  -0.255400
     3  O   -0.443555   0.342402
     4  O   -0.569106  -0.010226
     5  C    0.372204   0.004442
     6  O   -0.376913   0.000410
     7  C    0.274360  -0.002452
     8  H    0.032117   0.000037
     9  H   -0.004360  -0.000171
    10  H    0.043085  -0.000087
    11  H    0.427356  -0.033974
 Sum of Mulliken charges =  -0.00000   1.00000

 Dipole moment (field-independent basis, Debye):
    X=             -0.7337    Y=             -4.5816    Z=              0.0297  Tot=              4.6400
                          Isotropic Fermi Contact Couplings
        Atom                 a.u.       MegaHertz       Gauss      10(-4) cm-1
     1  B(11)              0.20444     293.24513     104.63715      97.81605
     2  C(13)             -0.06944     -78.06662     -27.85611     -26.04022
     3  O(17)              0.12619     -76.49578     -27.29560     -25.51625
     4  O(17)             -0.01422       8.62181       3.07648       2.87593
     5  C(13)              0.00024       0.26578       0.09484       0.08866
     6  O(17)             -0.00089       0.54237       0.19353       0.18091
     7  C(13)             -0.00002      -0.02424      -0.00865      -0.00808
     8  H(1)               0.00000       0.01732       0.00618       0.00578

 Normal termination of Gaussian 16 at Tue Apr  8 23:36:40 2025.
