 Gaussian 16, Revision C.01,

 ----------------------------------------------------------------------
 #t hf aug-cc-pvdz symm=none int=(grid=ultrafine) guess=(read,tcheck) s
 table=(opt,rrhf)
 ----------------------------------------------------------------------
 -----
 title
 -----
 Symbolic Z-matrix:
 Charge =  0 Multiplicity = 1

 SCF Done:  E(RHF) =  -971.398973213     A.U. after   18 cycles
 Normal termination of Gaussian 16 at Tue Apr  8 23:14:48 2025.
 Gaussian 16:  ES64L-G16RevC.01  3-Jul-2019

 ----------------------------------------------------------------------
 #t hf aug-cc-pvdz iop(5/13=1,5/36=2,99/5=2) pseudo=read geom=check gue
 ss=(read,tcheck) scf=(maxcycle=1)
 ----------------------------------------------------------------------
 -----
 title
 -----
 Structure from the checkpoint file:  "BDE49_nonexpt_1017_mol1.chk"
 Charge =  0 Multiplicity = 1

                         Standard orientation:
 ---------------------------------------------------------------------
 Center     Atomic      Atomic             Coordinates (Angstroms)
 Number     Number       Type             X           Y           Z
 ---------------------------------------------------------------------
      1         17           0        1.864291    0.279176   -0.112947
      2         16           0       -1.053100   -0.602886   -0.267685
      3          8           0        0.232875   -0.624050    0.626716
      4          6           0       -1.805031    0.996503    0.112559
      5          1           0       -2.773150    1.017183   -0.394066
      6          1           0       -1.168174    1.791439   -0.280760
      7          1           0       -1.934824    1.104939    1.188790
 ---------------------------------------------------------------------

 SCF Done:  E(RHF) =  -971.482645190     A.U. after    2 cycles

 The electronic state is 1-A.
 Alpha  occ. eigenvalues -- -103.68825 -93.62530 -20.70137 -11.28935 -10.71519
 Alpha  occ. eigenvalues --   -8.91731  -8.37204  -8.36859  -8.36847  -6.26024
 Alpha  occ. eigenvalues --   -6.25523  -6.25272  -1.38330  -1.10891  -1.03385
 Alpha  occ. eigenvalues --   -0.86229  -0.67130  -0.66257  -0.63764  -0.59110
 Alpha  occ. eigenvalues --   -0.58541  -0.48562  -0.47239  -0.45715  -0.36313
 Alpha virt. eigenvalues --   -0.02924   0.03212   0.05309   0.05907   0.07377
 Alpha virt. eigenvalues --    0.09755   0.11654   0.12685   0.14220   0.14331
 Alpha virt. eigenvalues --    0.15544   0.16059   0.17492   0.17889   0.20981

 Mulliken charges:
               1
     1  Cl  -0.010787
     2  S    0.797997
     3  O   -0.685120
     4  C   -0.011514
     5  H   -0.028661
     6  H   -0.023259
     7  H   -0.038656
 Sum of Mulliken charges =  -0.00000

 Dipole moment (field-independent basis, Debye):
    X=             -3.1716    Y=              1.3822    Z=             -0.4441  Tot=              3.4880

 Test job not archived.
 1\1\GINC-SE099\SP\RHF\Aug-CC-pVDZ\C1H3Cl1O1S1\OHZDE\08-Apr-2025\0\\#t
 hf aug-cc-pvdz iop(5/13=1,5/36=2,99/5=2) pseudo=read geom=check guess=
 (read,tcheck) scf=(maxcycle=1)\\title\\0,1\Cl,0,1.864291,0.279176,-0.1
 12947\S,0,-1.0531,-0.602886,-0.267685\O,0,0.232875,-0.62405,0.626716\C
 ,0,-1.805031,0.996503,0.112559\H,0,-2.77315,1.017183,-0.394066\H,0,-1.
 168174,1.791439,-0.28076\H,0,-1.934824,1.104939,1.18879\\Version=ES64L
 -G16RevC.01\State=1-A\HF=-971.4826452\RMSD=3.465e-03\Dipole=-1.2477933
 ,0.5437836,-0.1747067\Quadrupole=1.7515029,-0.3181645,-1.4333384,-1.29

 Normal termination of Gaussian 16 at Tue Apr  8 23:14:51 2025.
