 Gaussian 16, Revision C.01,

 ----------------------------------------------------------------------
 #t hf aug-cc-pvdz symm=none int=(grid=ultrafine) guess=(read,tcheck) s
 table=(opt,rrhf)
 ----------------------------------------------------------------------
 -----
 title
 -----
 Symbolic Z-matrix:
 Charge =  0 Multiplicity = 1

 SCF Done:  E(RHF) =  -1100.52882699     A.U. after   12 cycles
 Normal termination of Gaussian 16 at Tue Apr  8 23:47:52 2025.
 Gaussian 16:  ES64L-G16RevC.01  3-Jul-2019

 ----------------------------------------------------------------------
 #t hf aug-cc-pvdz iop(5/13=1,5/36=2,99/5=2) pseudo=read geom=check gue
 ss=(read,tcheck) scf=(maxcycle=1)
 ----------------------------------------------------------------------
 -----
 title
 -----
 Structure from the checkpoint file:  "BDE49_nonexpt_182_mol1.chk"
 Charge =  0 Multiplicity = 1

                         Standard orientation:
 ---------------------------------------------------------------------
 Center     Atomic      Atomic             Coordinates (Angstroms)
 Number     Number       Type             X           Y           Z
 ---------------------------------------------------------------------
      1         17           0       -0.926119    1.683439    0.095284
      2         17           0       -2.513821   -0.825929   -0.435603
      3          5           0       -1.031303   -0.080205    0.180304
      4          6           0        0.083241   -0.954802    0.835903
      5          6           0        1.526781   -0.419733    0.840797
      6          1           0       -0.259802   -1.084736    1.876582
      7          6           0        2.178427   -0.415441   -0.547688
      8          1           0        2.131301   -1.037451    1.514467
      9          1           0        1.544818    0.593780    1.255006
     10          6           0        3.620254    0.098622   -0.530733
     11          1           0        1.581956    0.201315   -1.230399
     12          1           0        2.156824   -1.432860   -0.956884
     13          1           0        3.668194    1.127763   -0.162168
     14          1           0        4.060051    0.083441   -1.531384
     15          1           0        4.251572   -0.515677    0.118868
     16          1           0        0.048368   -1.964088    0.410142
 ---------------------------------------------------------------------

 SCF Done:  E(RHF) =  -1100.62023490     A.U. after    2 cycles

 The electronic state is 1-A.
 Alpha  occ. eigenvalues -- -103.66717-103.66599 -11.24046 -11.23559 -11.23431
 Alpha  occ. eigenvalues --  -11.22743 -10.70200 -10.70069  -8.35891  -8.35764
 Alpha  occ. eigenvalues --   -8.35678  -8.35644  -8.35551  -8.35515  -7.72751
 Alpha  occ. eigenvalues --   -1.18016  -1.14177  -1.07179  -0.99034  -0.87934
 Alpha  occ. eigenvalues --   -0.80321  -0.68609  -0.64711  -0.60764  -0.60200
 Alpha  occ. eigenvalues --   -0.58680  -0.56843  -0.53421  -0.52342  -0.51100
 Alpha  occ. eigenvalues --   -0.49085  -0.47999  -0.47513  -0.47198  -0.46354
 Alpha  occ. eigenvalues --   -0.45273
 Alpha virt. eigenvalues --    0.03316   0.04127   0.04550   0.04749   0.06271
 Alpha virt. eigenvalues --    0.06472   0.06679   0.07109   0.07721   0.08864
 Alpha virt. eigenvalues --    0.08971   0.09135   0.09790   0.12003   0.12611

 Mulliken charges:
               1
     1  Cl  -0.338936
     2  Cl  -0.395961
     3  B    0.641003
     4  C    0.357803
     5  C    0.223253
     6  H    0.012323
     7  C    0.084181
     8  H   -0.099641
     9  H   -0.183300
    10  C    0.436845
    11  H   -0.155166
    12  H   -0.149846
    13  H   -0.066117
    14  H   -0.063428
    15  H   -0.078442
    16  H   -0.224571
 Sum of Mulliken charges =  -0.00000

 Dipole moment (field-independent basis, Debye):
    X=              1.5639    Y=             -0.9252    Z=              0.7149  Tot=              1.9526

 Test job not archived.
 1\1\GINC-SE070\SP\RHF\Aug-CC-pVDZ\C4H9B1Cl2\OHZDE\08-Apr-2025\0\\#t hf
  aug-cc-pvdz iop(5/13=1,5/36=2,99/5=2) pseudo=read geom=check guess=(r
 ead,tcheck) scf=(maxcycle=1)\\title\\0,1\Cl,0,-0.926119,1.683439,0.095
 284\Cl,0,-2.513821,-0.825929,-0.435603\B,0,-1.031303,-0.080205,0.18030
 4\C,0,0.083241,-0.954802,0.835903\C,0,1.526781,-0.419733,0.840797\H,0,
 -0.259802,-1.084736,1.876582\C,0,2.178427,-0.415441,-0.547688\H,0,2.13
 1301,-1.037451,1.514467\H,0,1.544818,0.59378,1.255006\C,0,3.620254,0.0
 98622,-0.530733\H,0,1.581956,0.201315,-1.230399\H,0,2.156824,-1.43286,

 Normal termination of Gaussian 16 at Tue Apr  8 23:47:58 2025.
