 Gaussian 16, Revision C.01,

 ----------------------------------------------------------------------
 #t hf aug-cc-pvdz symm=none int=(grid=ultrafine) guess=(read,tcheck) s
 table=opt
 ----------------------------------------------------------------------
 -----
 title
 -----
 Symbolic Z-matrix:
 Charge =  0 Multiplicity = 2

 SCF Done:  E(UHF) =  -178.831409255     A.U. after   15 cycles
 Normal termination of Gaussian 16 at Tue Apr  8 23:53:24 2025.
 Gaussian 16:  ES64L-G16RevC.01  3-Jul-2019

 ----------------------------------------------------------------------
 #t hf aug-cc-pvdz iop(5/13=1,5/36=2,99/5=2) pseudo=read geom=check gue
 ss=(read,tcheck) scf=(maxcycle=1)
 ----------------------------------------------------------------------
 -----
 title
 -----
 Structure from the checkpoint file:  "BDE49_nonexpt_1961_mol2.chk"
 Charge =  0 Multiplicity = 2

                         Standard orientation:
 ---------------------------------------------------------------------
 Center     Atomic      Atomic             Coordinates (Angstroms)
 Number     Number       Type             X           Y           Z
 ---------------------------------------------------------------------
      1          6           0       -1.130093   -1.070120    0.000050
      2          5           0       -0.043354    0.030118   -0.000005
      3          8           0       -0.397281    1.355224   -0.000013
      4          6           0        1.495050   -0.306668   -0.000010
      5          1           0       -1.349361    1.495179    0.000004
      6          1           0        1.763338   -0.912310   -0.874194
      7          1           0        1.763356   -0.912257    0.874207
      8          1           0        2.120968    0.588380   -0.000043
      9          1           0       -0.893710   -2.130635   -0.000048
     10          1           0       -2.199311   -0.860013   -0.000044
 ---------------------------------------------------------------------

 SCF Done:  E(UHF) =  -178.891619097     A.U. after    2 cycles

 The electronic state is 2-A.
 Alpha  occ. eigenvalues --  -20.57815 -11.24112 -11.19560  -7.62334  -1.32097
 Alpha  occ. eigenvalues --   -0.96143  -0.92066  -0.75289  -0.64209  -0.60265
 Alpha  occ. eigenvalues --   -0.57260  -0.54167  -0.52779  -0.52511  -0.46292
 Alpha  occ. eigenvalues --   -0.39588
 Alpha virt. eigenvalues --    0.02918   0.04677   0.05281   0.05356   0.07132
 Alpha virt. eigenvalues --    0.07482   0.08325   0.08944   0.10083   0.10624
 Alpha virt. eigenvalues --    0.12653   0.15893   0.16923   0.17095   0.17834

  Beta  occ. eigenvalues --  -20.57616 -11.22073 -11.19565  -7.62427  -1.31586
  Beta  occ. eigenvalues --   -0.93741  -0.85960  -0.75152  -0.63419  -0.59083
  Beta  occ. eigenvalues --   -0.55691  -0.53445  -0.52143  -0.51922  -0.45491
  Beta virt. eigenvalues --    0.03007   0.03972   0.04700   0.05314   0.06667
  Beta virt. eigenvalues --    0.07138   0.07499   0.08584   0.09069   0.10095
  Beta virt. eigenvalues --    0.10698   0.14013   0.16029   0.17022   0.17161

 Mulliken charges and spin densities:
               1          2
     1  C    0.379594   1.179501
     2  B    0.731242  -0.070406
     3  O   -0.562656   0.040855
     4  C    0.474377  -0.000051
     5  H    0.206909  -0.007215
     6  H   -0.119882   0.005171
     7  H   -0.119872   0.005172
     8  H   -0.319138   0.000329
     9  H   -0.288814  -0.077407
    10  H   -0.381758  -0.075949
 Sum of Mulliken charges =  -0.00000   1.00000

 Dipole moment (field-independent basis, Debye):
    X=             -1.5494    Y=             -0.9689    Z=             -0.0001  Tot=              1.8275
                          Isotropic Fermi Contact Couplings
        Atom                 a.u.       MegaHertz       Gauss      10(-4) cm-1
     1  C(13)              0.15776     177.35690      63.28535      59.15990
     2  B(11)             -0.01893     -27.15212      -9.68855      -9.05697
     3  O(17)              0.02087     -12.64934      -4.51360      -4.21937
     4  C(13)             -0.00317      -3.56115      -1.27071      -1.18787
     5  H(1)              -0.00124      -5.54330      -1.97799      -1.84905
     6  H(1)               0.00152       6.77383       2.41707       2.25951
     7  H(1)               0.00152       6.77351       2.41696       2.25940
     8  H(1)              -0.00047      -2.10036      -0.74946      -0.70061

 Normal termination of Gaussian 16 at Tue Apr  8 23:53:27 2025.
