 Gaussian 16, Revision C.01,

 ----------------------------------------------------------------------
 #t hf aug-cc-pvdz symm=none int=(grid=ultrafine) guess=(read,tcheck) s
 table=(opt,rrhf)
 ----------------------------------------------------------------------
 -----
 title
 -----
 Symbolic Z-matrix:
 Charge =  0 Multiplicity = 1

 SCF Done:  E(RHF) =  -776.585427627     A.U. after   11 cycles
 Normal termination of Gaussian 16 at Tue Apr  8 23:11:10 2025.
 Gaussian 16:  ES64L-G16RevC.01  3-Jul-2019

 ----------------------------------------------------------------------
 #t hf aug-cc-pvdz iop(5/13=1,5/36=2,99/5=2) pseudo=read geom=check gue
 ss=(read,tcheck) scf=(maxcycle=1)
 ----------------------------------------------------------------------
 -----
 title
 -----
 Structure from the checkpoint file:  "BDE49_expt_803_mol1.chk"
 Charge =  0 Multiplicity = 1

                         Standard orientation:
 ---------------------------------------------------------------------
 Center     Atomic      Atomic             Coordinates (Angstroms)
 Number     Number       Type             X           Y           Z
 ---------------------------------------------------------------------
      1         14           0        0.239954   -0.983273   -0.000000
      2         14           0       -0.758296    1.168294    0.000000
      3          6           0       -0.298472   -1.943062    1.539306
      4          6           0        2.127851   -0.839861   -0.000000
      5          6           0       -0.298472   -1.943062   -1.539306
      6          6           0       -0.298472    2.158448   -1.546501
      7          6           0       -0.298472    2.158448    1.546501
      8          1           0       -2.240220    0.989865    0.000000
      9          1           0       -1.385618   -2.058934   -1.577402
     10          1           0        0.143253   -2.945292   -1.545551
     11          1           0        0.014610   -1.437983   -2.457877
     12          1           0        0.014610   -1.437983    2.457877
     13          1           0        0.143253   -2.945292    1.545551
     14          1           0       -1.385618   -2.058934    1.577402
     15          1           0        0.780765    2.329420    1.602390
     16          1           0       -0.601974    1.636605    2.458316
     17          1           0       -0.790723    3.135802    1.543259
     18          1           0        0.780765    2.329420   -1.602390
     19          1           0       -0.790723    3.135802   -1.543259
     20          1           0       -0.601974    1.636605   -2.458316
     21          1           0        2.490738   -0.306259    0.883519
     22          1           0        2.490738   -0.306259   -0.883519
     23          1           0        2.591119   -1.832342   -0.000000
 ---------------------------------------------------------------------

 SCF Done:  E(RHF) =  -776.698665670     A.U. after    2 cycles

 The electronic state is 1-A'.
 Alpha  occ. eigenvalues --  -69.03899 -69.03853 -11.21090 -11.21086 -11.20902
 Alpha  occ. eigenvalues --  -11.20809 -11.20805  -6.79170  -6.79152  -3.89932
 Alpha  occ. eigenvalues --   -3.89924  -3.89923  -3.89917  -3.89913  -3.89830
 Alpha  occ. eigenvalues --   -0.95791  -0.94232  -0.91703  -0.91566  -0.91472
 Alpha  occ. eigenvalues --   -0.65979  -0.59636  -0.57330  -0.56475  -0.56255
 Alpha  occ. eigenvalues --   -0.56085  -0.55119  -0.54677  -0.54264  -0.54003
 Alpha  occ. eigenvalues --   -0.53624  -0.53010  -0.44517  -0.43864  -0.42474
 Alpha  occ. eigenvalues --   -0.42223  -0.35277
 Alpha virt. eigenvalues --    0.03178   0.04034   0.04393   0.04538   0.06070
 Alpha virt. eigenvalues --    0.06134   0.06196   0.06472   0.06628   0.08056
 Alpha virt. eigenvalues --    0.08352   0.08473   0.08812   0.09140   0.09231

 Mulliken charges:
               1
     1  Si   1.769498
     2  Si   0.773846
     3  C    0.399952
     4  C    0.466753
     5  C    0.399952
     6  C    0.339191
     7  C    0.339191
     8  H    0.050658
     9  H   -0.331031
    10  H   -0.307340
    11  H   -0.327346
    12  H   -0.327346
    13  H   -0.307340
    14  H   -0.331031
    15  H   -0.194559
    16  H   -0.317314
    17  H   -0.306913
    18  H   -0.194559
    19  H   -0.306913
    20  H   -0.317314
    21  H   -0.326423
    22  H   -0.326423
    23  H   -0.317190
 Sum of Mulliken charges =  -0.00000

 Dipole moment (field-independent basis, Debye):
    X=              0.5601    Y=             -0.0411    Z=              0.0000  Tot=              0.5616

 Test job not archived.
 1\1\GINC-SE273\SP\RHF\Aug-CC-pVDZ\C5H16Si2\OHZDE\08-Apr-2025\0\\#t hf
 aug-cc-pvdz iop(5/13=1,5/36=2,99/5=2) pseudo=read geom=check guess=(re
 ad,tcheck) scf=(maxcycle=1)\\title\\0,1\Si,0,0.239954,-0.983273,0.\Si,
 0,-0.758296,1.168294,0.\C,0,-0.298472,-1.943062,1.539306\C,0,2.127851,
 -0.839861,0.\C,0,-0.298472,-1.943062,-1.539306\C,0,-0.298472,2.158448,
 -1.546501\C,0,-0.298472,2.158448,1.546501\H,0,-2.24022,0.989865,0.\H,0
 ,-1.385618,-2.058934,-1.577402\H,0,0.143253,-2.945292,-1.545551\H,0,0.
 01461,-1.437983,-2.457877\H,0,0.01461,-1.437983,2.457877\H,0,0.143253,

 Normal termination of Gaussian 16 at Tue Apr  8 23:11:18 2025.
