 Gaussian 16, Revision C.01,

 ----------------------------------------------------------------------
 #t hf aug-cc-pvdz symm=none int=(grid=ultrafine) guess=(read,tcheck) s
 table=(opt,rrhf)
 ----------------------------------------------------------------------
 -----
 title
 -----
 Symbolic Z-matrix:
 Charge =  0 Multiplicity = 1

 SCF Done:  E(RHF) =  -3083.97436054     A.U. after   12 cycles
 Normal termination of Gaussian 16 at Tue Apr  8 23:47:27 2025.
 Gaussian 16:  ES64L-G16RevC.01  3-Jul-2019

 ----------------------------------------------------------------------
 #t hf aug-cc-pvdz iop(5/13=1,5/36=2,99/5=2) pseudo=read geom=check gue
 ss=(read,tcheck) scf=(maxcycle=1)
 ----------------------------------------------------------------------
 -----
 title
 -----
 Structure from the checkpoint file:  "BDE49_nonexpt_1815_mol1.chk"
 Charge =  0 Multiplicity = 1

                         Standard orientation:
 ---------------------------------------------------------------------
 Center     Atomic      Atomic             Coordinates (Angstroms)
 Number     Number       Type             X           Y           Z
 ---------------------------------------------------------------------
      1          6           0       -1.053879    0.000003   -0.000022
      2         14           0        0.867989    0.000003   -0.000038
      3         17           0       -1.646674    0.023507   -1.694436
      4         17           0       -1.646460    1.455698    0.867618
      5         17           0       -1.646457   -1.479208    0.826891
      6         17           0        1.532274   -1.657798   -0.987975
      7         17           0        1.532183   -0.026712    1.929660
      8         17           0        1.532276    1.684510   -0.941718
 ---------------------------------------------------------------------

 SCF Done:  E(RHF) =  -3084.12307515     A.U. after    2 cycles

 The electronic state is 1-A.
 Alpha  occ. eigenvalues -- -103.70457-103.70457-103.70456-103.69186-103.69186
 Alpha  occ. eigenvalues -- -103.69185 -69.23787 -11.45402 -10.73734 -10.73734
 Alpha  occ. eigenvalues --  -10.73711 -10.72647 -10.72632 -10.72632  -8.39446
 Alpha  occ. eigenvalues --   -8.39446  -8.39439  -8.39108  -8.39107  -8.39106
 Alpha  occ. eigenvalues --   -8.39101  -8.39099  -8.39099  -8.38342  -8.38333
 Alpha  occ. eigenvalues --   -8.38333  -8.38090  -8.38089  -8.38089  -8.38082
 Alpha  occ. eigenvalues --   -8.38082  -8.38077  -6.97553  -4.08412  -4.08412
 Alpha  occ. eigenvalues --   -4.08283  -1.27191  -1.19921  -1.17248  -1.17248
 Alpha  occ. eigenvalues --   -1.16607  -1.16607  -0.89170  -0.73437  -0.65361
 Alpha  occ. eigenvalues --   -0.65361  -0.64869  -0.60132  -0.60132  -0.53543
 Alpha  occ. eigenvalues --   -0.53542  -0.53085  -0.52418  -0.52418  -0.50881
 Alpha  occ. eigenvalues --   -0.50881  -0.49233  -0.48399  -0.48399  -0.47565
 Alpha  occ. eigenvalues --   -0.45872
 Alpha virt. eigenvalues --    0.04818   0.05589   0.05987   0.05987   0.07654
 Alpha virt. eigenvalues --    0.08701   0.08701   0.10048   0.11195   0.11195
 Alpha virt. eigenvalues --    0.12632   0.12632   0.13912   0.15668   0.16214

 Mulliken charges:
               1
     1  C   -0.424563
     2  Si   1.836619
     3  Cl  -0.020666
     4  Cl  -0.020691
     5  Cl  -0.020691
     6  Cl  -0.450004
     7  Cl  -0.450000
     8  Cl  -0.450005
 Sum of Mulliken charges =  -0.00000

 Dipole moment (field-independent basis, Debye):
    X=              0.1681    Y=              0.0000    Z=             -0.0001  Tot=              0.1681

 Test job not archived.
 1\1\GINC-SE393\SP\RHF\Aug-CC-pVDZ\C1Cl6Si1\OHZDE\08-Apr-2025\0\\#t hf
 aug-cc-pvdz iop(5/13=1,5/36=2,99/5=2) pseudo=read geom=check guess=(re
 ad,tcheck) scf=(maxcycle=1)\\title\\0,1\C,0,-1.053879,0.000003,-0.0000
 22\Si,0,0.867989,0.000002,-0.000038\Cl,0,-1.646674,0.001696,-1.694598\
 Cl,0,-1.64646,1.466745,0.848809\Cl,0,-1.646457,-1.468442,0.845861\Cl,0
 ,1.532274,-1.670377,-0.966555\Cl,0,1.532183,-0.001873,1.929844\Cl,0,1.
 532276,1.672249,-0.963321\\Version=ES64L-G16RevC.01\State=1-A\HF=-3084
 .1230752\RMSD=3.938e-03\Dipole=0.0661295,0.0000026,-0.0000411\Quadrupo

 Normal termination of Gaussian 16 at Tue Apr  8 23:47:32 2025.
