 Gaussian 16, Revision C.01,

 ----------------------------------------------------------------------
 #t hf aug-cc-pvdz symm=none int=(grid=ultrafine) guess=(read,tcheck) s
 table=(opt,rrhf)
 ----------------------------------------------------------------------
 -----
 title
 -----
 Symbolic Z-matrix:
 Charge =  0 Multiplicity = 1

 SCF Done:  E(RHF) =  -896.126062217     A.U. after   16 cycles
 Normal termination of Gaussian 16 at Tue Apr  8 23:54:29 2025.
 Gaussian 16:  ES64L-G16RevC.01  3-Jul-2019

 ----------------------------------------------------------------------
 #t hf aug-cc-pvdz iop(5/13=1,5/36=2,99/5=2) pseudo=read geom=check gue
 ss=(read,tcheck) scf=(maxcycle=1)
 ----------------------------------------------------------------------
 -----
 title
 -----
 Structure from the checkpoint file:  "BDE49_nonexpt_1997_mol1.chk"
 Charge =  0 Multiplicity = 1

                         Standard orientation:
 ---------------------------------------------------------------------
 Center     Atomic      Atomic             Coordinates (Angstroms)
 Number     Number       Type             X           Y           Z
 ---------------------------------------------------------------------
      1          9           0       -0.068905    1.461383    1.290888
      2         14           0        0.000000    0.578538   -0.000000
      3          7           0       -1.458216   -0.509781   -0.131314
      4          7           0        1.458212   -0.509788    0.131306
      5          8           0        2.431317   -0.365580   -0.584870
      6          8           0        1.315946   -1.338638    1.029322
      7          8           0       -1.315946   -1.338638   -1.029322
      8          8           0       -2.431317   -0.365581    0.584871
      9          9           0        0.068908    1.461390   -1.290882
 ---------------------------------------------------------------------

 SCF Done:  E(RHF) =  -896.372193011     A.U. after    2 cycles

 The electronic state is 1-A.
 Alpha  occ. eigenvalues --  -69.32071 -26.21678 -26.21676 -20.68093 -20.68093
 Alpha  occ. eigenvalues --  -20.67518 -20.67518 -15.94869 -15.94869  -7.05642
 Alpha  occ. eigenvalues --   -4.16665  -4.16612  -4.16555  -1.75472  -1.74225
 Alpha  occ. eigenvalues --   -1.59707  -1.59230  -1.42145  -1.41953  -1.03777
 Alpha  occ. eigenvalues --   -0.98743  -0.91267  -0.87366  -0.85723  -0.85322
 Alpha  occ. eigenvalues --   -0.82205  -0.81560  -0.80686  -0.80307  -0.78621
 Alpha  occ. eigenvalues --   -0.78481  -0.76921  -0.75754  -0.58175  -0.57930
 Alpha  occ. eigenvalues --   -0.55268  -0.53168  -0.52339  -0.51744
 Alpha virt. eigenvalues --    0.00232   0.00963   0.03467   0.04767   0.05202
 Alpha virt. eigenvalues --    0.06747   0.12074   0.13103   0.13264   0.14161
 Alpha virt. eigenvalues --    0.15128   0.17109   0.18226   0.18612   0.19095

 Mulliken charges:
               1
     1  F   -0.771091
     2  Si   2.778699
     3  N    0.367122
     4  N    0.367121
     5  O   -0.464030
     6  O   -0.521350
     7  O   -0.521349
     8  O   -0.464031
     9  F   -0.771091
 Sum of Mulliken charges =  -0.00000

 Dipole moment (field-independent basis, Debye):
    X=             -0.0000    Y=              2.5869    Z=             -0.0000  Tot=              2.5869

 Test job not archived.
 1\1\GINC-SE334\SP\RHF\Aug-CC-pVDZ\F2N2O4Si1\OHZDE\08-Apr-2025\0\\#t hf
  aug-cc-pvdz iop(5/13=1,5/36=2,99/5=2) pseudo=read geom=check guess=(r
 ead,tcheck) scf=(maxcycle=1)\\title\\0,1\F,0,0.068905,1.461383,-1.2908
 88\Si,0,0.,0.578538,0.\N,0,1.458216,-0.509781,0.131314\N,0,-1.458212,-
 0.509788,-0.131306\O,0,-2.431317,-0.36558,0.58487\O,0,-1.315946,-1.338
 638,-1.029322\O,0,1.315946,-1.338638,1.029322\O,0,2.431317,-0.365581,-
 0.584871\F,0,-0.068908,1.46139,1.290882\\Version=ES64L-G16RevC.01\Stat
 e=1-A\HF=-896.372193\RMSD=4.387e-03\Dipole=0.0000011,1.0177576,0.00001

 Normal termination of Gaussian 16 at Tue Apr  8 23:54:34 2025.
