 Gaussian 16, Revision C.01,

 ----------------------------------------------------------------------
 #t hf aug-cc-pvdz symm=none int=(grid=ultrafine) guess=(read,tcheck) s
 table=(opt,rrhf)
 ----------------------------------------------------------------------
 -----
 title
 -----
 Symbolic Z-matrix:
 Charge =  0 Multiplicity = 1

 SCF Done:  E(RHF) =  -788.178353963     A.U. after   13 cycles
 Normal termination of Gaussian 16 at Wed Apr  9 00:09:55 2025.
 Gaussian 16:  ES64L-G16RevC.01  3-Jul-2019

 ----------------------------------------------------------------------
 #t hf aug-cc-pvdz iop(5/13=1,5/36=2,99/5=2) pseudo=read geom=check gue
 ss=(read,tcheck) scf=(maxcycle=1)
 ----------------------------------------------------------------------
 -----
 title
 -----
 Structure from the checkpoint file:  "BDE49_nonexpt_2372_mol1.chk"
 Charge =  0 Multiplicity = 1

                         Standard orientation:
 ---------------------------------------------------------------------
 Center     Atomic      Atomic             Coordinates (Angstroms)
 Number     Number       Type             X           Y           Z
 ---------------------------------------------------------------------
      1         14           0       -2.527894   -0.467107   -0.402406
      2         14           0       -0.795866    0.938386    0.351638
      3          6           0        0.847707   -0.065123    0.307889
      4          1           0       -1.014614    1.348386    1.758070
      5          1           0       -0.701889    2.168719   -0.483017
      6          8           0        0.877666   -1.135552    0.903239
      7          7           0        1.908723    0.439250   -0.385960
      8          1           0       -2.209884   -0.966219   -1.762066
      9          6           0        3.191810   -0.245130   -0.481448
     10          1           0        3.096978   -1.190036    0.050654
     11          1           0        3.989055    0.345299   -0.021108
     12          1           0        3.452360   -0.444248   -1.524509
     13          1           0       -3.800112    0.293405   -0.467629
     14          1           0       -2.699294   -1.616499    0.513230
     15          1           0        1.800548    1.334482   -0.835706
 ---------------------------------------------------------------------

 SCF Done:  E(RHF) =  -788.285640097     A.U. after    2 cycles

 The electronic state is 1-A.
 Alpha  occ. eigenvalues --  -69.07391 -69.06434 -20.53943 -15.65804 -11.35230
 Alpha  occ. eigenvalues --  -11.27443  -6.82821  -6.81843  -3.93590  -3.93559
 Alpha  occ. eigenvalues --   -3.93520  -3.92601  -3.92594  -3.92580  -1.34190
 Alpha  occ. eigenvalues --   -1.19697  -0.95762  -0.79967  -0.76372  -0.70199
 Alpha  occ. eigenvalues --   -0.65240  -0.63763  -0.62642  -0.56471  -0.55284
 Alpha  occ. eigenvalues --   -0.54931  -0.49979  -0.48460  -0.47526  -0.41628
 Alpha  occ. eigenvalues --   -0.39805  -0.39647
 Alpha virt. eigenvalues --    0.02878   0.03908   0.04238   0.05084   0.05790
 Alpha virt. eigenvalues --    0.06839   0.06920   0.07525   0.07984   0.08549
 Alpha virt. eigenvalues --    0.09370   0.09635   0.09967   0.10395   0.10758

 Mulliken charges:
               1
     1  Si  -0.177225
     2  Si   0.157701
     3  C    0.383150
     4  H    0.071541
     5  H    0.002012
     6  O   -0.551973
     7  N   -0.315971
     8  H    0.058502
     9  C    0.795518
    10  H   -0.159233
    11  H   -0.112131
    12  H   -0.119491
    13  H    0.018996
    14  H    0.051634
    15  H   -0.103031
 Sum of Mulliken charges =  -0.00000

 Dipole moment (field-independent basis, Debye):
    X=              1.0770    Y=              3.0137    Z=             -2.1922  Tot=              3.8792

 Test job not archived.
 1\1\GINC-SE423\SP\RHF\Aug-CC-pVDZ\C2H9N1O1Si2\OHZDE\09-Apr-2025\0\\#t
 hf aug-cc-pvdz iop(5/13=1,5/36=2,99/5=2) pseudo=read geom=check guess=
 (read,tcheck) scf=(maxcycle=1)\\title\\0,1\Si,0,-2.527894,-0.467107,-0
 .402406\Si,0,-0.795866,0.938386,0.351638\C,0,0.847707,-0.065123,0.3078
 89\H,0,-1.014614,1.348386,1.75807\H,0,-0.701889,2.168719,-0.483017\O,0
 ,0.877666,-1.135552,0.903239\N,0,1.908723,0.43925,-0.38596\H,0,-2.2098
 84,-0.966219,-1.762066\C,0,3.19181,-0.24513,-0.481448\H,0,3.096978,-1.
 190036,0.050654\H,0,3.989055,0.345299,-0.021108\H,0,3.45236,-0.444248,

 Normal termination of Gaussian 16 at Wed Apr  9 00:10:20 2025.
