 Gaussian 16, Revision C.01,

 ----------------------------------------------------------------------
 #t hf aug-cc-pvdz symm=none int=(grid=ultrafine) guess=(read,tcheck) s
 table=(opt,rrhf)
 ----------------------------------------------------------------------
 -----
 title
 -----
 Symbolic Z-matrix:
 Charge =  0 Multiplicity = 1

 SCF Done:  E(RHF) =  -951.669957200     A.U. after   15 cycles
 Normal termination of Gaussian 16 at Wed Apr  9 00:14:34 2025.
 Gaussian 16:  ES64L-G16RevC.01  3-Jul-2019

 ----------------------------------------------------------------------
 #t hf aug-cc-pvdz iop(5/13=1,5/36=2,99/5=2) pseudo=read geom=check gue
 ss=(read,tcheck) scf=(maxcycle=1)
 ----------------------------------------------------------------------
 -----
 title
 -----
 Structure from the checkpoint file:  "BDE49_nonexpt_2528_mol1.chk"
 Charge =  0 Multiplicity = 1

                         Standard orientation:
 ---------------------------------------------------------------------
 Center     Atomic      Atomic             Coordinates (Angstroms)
 Number     Number       Type             X           Y           Z
 ---------------------------------------------------------------------
      1         17           0        1.665216   -0.516683    0.044932
      2          7           0       -1.293157    0.262927    0.446267
      3         16           0        0.055579    0.927395   -0.177748
      4          6           0       -2.023838   -0.817399   -0.220352
      5          1           0       -1.356643    0.259219    1.458006
      6          1           0       -2.071806   -0.602783   -1.287543
      7          1           0       -3.038256   -0.860495    0.182276
      8          1           0       -1.536118   -1.786747   -0.074377
 ---------------------------------------------------------------------

 SCF Done:  E(RHF) =  -951.744515627     A.U. after    2 cycles

 The electronic state is 1-A.
 Alpha  occ. eigenvalues -- -103.64910 -93.62586 -15.68433 -11.28938 -10.68078
 Alpha  occ. eigenvalues --   -8.91494  -8.33779  -8.33488  -8.33459  -6.25614
 Alpha  occ. eigenvalues --   -6.25295  -6.24848  -1.23088  -1.11884  -0.97690
 Alpha  occ. eigenvalues --   -0.86015  -0.69138  -0.63198  -0.62604  -0.56460
 Alpha  occ. eigenvalues --   -0.51894  -0.48645  -0.45313  -0.41027  -0.37273
 Alpha virt. eigenvalues --    0.02987   0.04502   0.04631   0.06023   0.06823
 Alpha virt. eigenvalues --    0.09180   0.10917   0.11905   0.13253   0.15326
 Alpha virt. eigenvalues --    0.15543   0.16139   0.16408   0.17870   0.18438

 Mulliken charges:
               1
     1  Cl  -0.393916
     2  N   -0.643471
     3  S    0.694508
     4  C    0.746342
     5  H   -0.041275
     6  H   -0.155189
     7  H   -0.138805
     8  H   -0.068194
 Sum of Mulliken charges =  -0.00000

 Dipole moment (field-independent basis, Debye):
    X=             -3.5646    Y=             -0.2125    Z=              0.7654  Tot=              3.6520

 Test job not archived.
 1\1\GINC-SE335\SP\RHF\Aug-CC-pVDZ\C1H4Cl1N1S1\OHZDE\09-Apr-2025\0\\#t
 hf aug-cc-pvdz iop(5/13=1,5/36=2,99/5=2) pseudo=read geom=check guess=
 (read,tcheck) scf=(maxcycle=1)\\title\\0,1\Cl,0,1.665216,-0.516682,0.0
 44932\N,0,-1.293157,0.262927,0.446267\S,0,0.055579,0.927395,-0.177748\
 C,0,-2.023838,-0.817399,-0.220352\H,0,-1.356643,0.259219,1.458006\H,0,
 -2.071806,-0.602783,-1.287543\H,0,-3.038256,-0.860495,0.182276\H,0,-1.
 536118,-1.786747,-0.074377\\Version=ES64L-G16RevC.01\State=1-A\HF=-951
 .7445156\RMSD=3.321e-03\Dipole=-1.4024185,-0.0836237,0.3011281\Quadrup

 Normal termination of Gaussian 16 at Wed Apr  9 00:14:36 2025.
