 Gaussian 16, Revision C.01,

 ----------------------------------------------------------------------
 #t hf aug-cc-pvdz symm=none int=(grid=ultrafine) guess=(read,tcheck) s
 table=(opt,rrhf)
 ----------------------------------------------------------------------
 -----
 title
 -----
 Symbolic Z-matrix:
 Charge =  0 Multiplicity = 1

 SCF Done:  E(RHF) =  -1081.84164829     A.U. after   13 cycles
 Normal termination of Gaussian 16 at Tue Apr  8 23:43:04 2025.
 Gaussian 16:  ES64L-G16RevC.01  3-Jul-2019

 ----------------------------------------------------------------------
 #t hf aug-cc-pvdz iop(5/13=1,5/36=2,99/5=2) pseudo=read geom=check gue
 ss=(read,tcheck) scf=(maxcycle=1)
 ----------------------------------------------------------------------
 -----
 title
 -----
 Structure from the checkpoint file:  "BDE49_nonexpt_1709_mol1.chk"
 Charge =  0 Multiplicity = 1

                         Standard orientation:
 ---------------------------------------------------------------------
 Center     Atomic      Atomic             Coordinates (Angstroms)
 Number     Number       Type             X           Y           Z
 ---------------------------------------------------------------------
      1          6           0       -1.765928    0.085508    0.309065
      2         16           0       -0.436409   -0.818834   -0.650647
      3         15           0        1.279949    0.050958    0.204513
      4          8           0        1.174950    0.342410    1.633928
      5          8           0        2.425113   -0.974024   -0.270483
      6          6           0       -2.016081    1.481254   -0.257118
      7          1           0       -2.363130    1.427897   -1.292668
      8          1           0       -1.114956    2.095612   -0.227354
      9          6           0       -3.015862   -0.794707    0.290326
     10          1           0       -1.370275    0.154196    1.322895
     11          1           0       -3.810414   -0.308382    0.863917
     12          1           0       -2.824205   -1.773445    0.733717
     13          1           0       -3.384488   -0.943864   -0.728815
     14          1           0       -2.786459    1.985451    0.335729
     15          1           0        2.428953   -1.785719    0.252253
     16          8           0        1.669029    1.339616   -0.658383
     17          1           0        1.642767    1.188886   -1.611163
 ---------------------------------------------------------------------

 SCF Done:  E(RHF) =  -1082.03686499     A.U. after    2 cycles

 The electronic state is 1-A.
 Alpha  occ. eigenvalues --  -93.54718 -81.43781 -20.62609 -20.62266 -20.53238
 Alpha  occ. eigenvalues --  -11.29332 -11.24600 -11.24153  -8.84652  -7.91938
 Alpha  occ. eigenvalues --   -6.18781  -6.18564  -6.18280  -5.06582  -5.06468
 Alpha  occ. eigenvalues --   -5.06139  -1.38910  -1.35416  -1.26824  -1.09474
 Alpha  occ. eigenvalues --   -0.95700  -0.94869  -0.84643  -0.79289  -0.77594
 Alpha  occ. eigenvalues --   -0.69249  -0.66649  -0.64052  -0.62116  -0.60652
 Alpha  occ. eigenvalues --   -0.60148  -0.58548  -0.57754  -0.55761  -0.53843
 Alpha  occ. eigenvalues --   -0.51229  -0.50415  -0.49443  -0.46637  -0.43623
 Alpha  occ. eigenvalues --   -0.38096
 Alpha virt. eigenvalues --    0.03045   0.04125   0.04382   0.05210   0.05784
 Alpha virt. eigenvalues --    0.06739   0.07446   0.07855   0.08358   0.09656
 Alpha virt. eigenvalues --    0.11287   0.11748   0.12130   0.13299   0.13969

 Mulliken charges:
               1
     1  C   -0.825457
     2  S   -0.105175
     3  P    2.214216
     4  O   -0.956315
     5  O   -0.691849
     6  C    0.495539
     7  H   -0.042776
     8  H   -0.150852
     9  C    0.690610
    10  H   -0.137234
    11  H   -0.010005
    12  H   -0.082766
    13  H   -0.025609
    14  H   -0.023607
    15  H    0.160871
    16  O   -0.708681
    17  H    0.199091
 Sum of Mulliken charges =  -0.00000

 Dipole moment (field-independent basis, Debye):
    X=             -2.1053    Y=             -1.4155    Z=             -2.6485  Tot=              3.6675

 Test job not archived.
 1\1\GINC-SE364\SP\RHF\Aug-CC-pVDZ\C3H9O3P1S1\OHZDE\08-Apr-2025\0\\#t h
 f aug-cc-pvdz iop(5/13=1,5/36=2,99/5=2) pseudo=read geom=check guess=(
 read,tcheck) scf=(maxcycle=1)\\title\\0,1\C,0,-1.765928,0.085508,0.309
 065\S,0,-0.436409,-0.818834,-0.650647\P,0,1.279949,0.050958,0.204513\O
 ,0,1.17495,0.34241,1.633928\O,0,2.425113,-0.974024,-0.270483\C,0,-2.01
 6081,1.481254,-0.257118\H,0,-2.36313,1.427897,-1.292668\H,0,-1.114956,
 2.095612,-0.227354\C,0,-3.015862,-0.794707,0.290326\H,0,-1.370275,0.15
 4196,1.322895\H,0,-3.810414,-0.308382,0.863917\H,0,-2.824205,-1.773445

 Normal termination of Gaussian 16 at Tue Apr  8 23:43:12 2025.
