 Gaussian 16, Revision C.01,

 ----------------------------------------------------------------------
 #t hf aug-cc-pvdz symm=none int=(grid=ultrafine) guess=(read,tcheck) s
 table=opt
 ----------------------------------------------------------------------
 -----
 title
 -----
 Symbolic Z-matrix:
 Charge =  0 Multiplicity = 2

 SCF Done:  E(UHF) =  -142.940339523     A.U. after   14 cycles
 Normal termination of Gaussian 16 at Wed Apr  9 00:26:21 2025.
 Gaussian 16:  ES64L-G16RevC.01  3-Jul-2019

 ----------------------------------------------------------------------
 #t hf aug-cc-pvdz iop(5/13=1,5/36=2,99/5=2) pseudo=read geom=check gue
 ss=(read,tcheck) scf=(maxcycle=1)
 ----------------------------------------------------------------------
 -----
 title
 -----
 Structure from the checkpoint file:  "BDE49_nonexpt_312_mol2.chk"
 Charge =  0 Multiplicity = 2

                         Standard orientation:
 ---------------------------------------------------------------------
 Center     Atomic      Atomic             Coordinates (Angstroms)
 Number     Number       Type             X           Y           Z
 ---------------------------------------------------------------------
      1          6           0       -1.366007   -0.725405   -0.006707
      2          5           0        0.000000    0.064003   -0.000062
      3          1           0       -1.312217   -1.672051   -0.554958
      4          1           0       -2.220825   -0.151366   -0.376197
      5          1           0       -1.601269   -1.001722    1.033113
      6          6           0        1.366002   -0.725411    0.006705
      7          1           0        1.312165   -1.672058    0.554949
      8          1           0        2.220794   -0.151377    0.376268
      9          1           0        1.601348   -1.001722   -1.033097
     10          6           0        0.000003    1.605696    0.000046
     11          1           0       -0.911068    2.200503   -0.036059
     12          1           0        0.911084    2.200496    0.036029
 ---------------------------------------------------------------------

 SCF Done:  E(UHF) =  -142.986669940     A.U. after    2 cycles

 The electronic state is 2-A.
 Alpha  occ. eigenvalues --  -11.23706 -11.19697 -11.19677  -7.59230  -0.97576
 Alpha  occ. eigenvalues --   -0.91540  -0.91093  -0.62663  -0.59165  -0.57145
 Alpha  occ. eigenvalues --   -0.55498  -0.52539  -0.52130  -0.46528  -0.44235
 Alpha  occ. eigenvalues --   -0.39093
 Alpha virt. eigenvalues --    0.03185   0.04943   0.04960   0.05013   0.06818
 Alpha virt. eigenvalues --    0.06972   0.07633   0.08539   0.08742   0.09686
 Alpha virt. eigenvalues --    0.10494   0.10709   0.14656   0.15703   0.16021

  Beta  occ. eigenvalues --  -11.21789 -11.19713 -11.19693  -7.59240  -0.95773
  Beta  occ. eigenvalues --   -0.91034  -0.84954  -0.61460  -0.58025  -0.57051
  Beta  occ. eigenvalues --   -0.54852  -0.52247  -0.51897  -0.45362  -0.44224
  Beta virt. eigenvalues --    0.03261   0.03628   0.04985   0.05003   0.05703
  Beta virt. eigenvalues --    0.06835   0.06985   0.07649   0.08898   0.09415
  Beta virt. eigenvalues --    0.09885   0.10637   0.10732   0.15827   0.15874

 Mulliken charges and spin densities:
               1          2
     1  C    0.463212  -0.004308
     2  B    0.676300  -0.014103
     3  H   -0.233884   0.003302
     4  H   -0.312538  -0.001669
     5  H   -0.093700   0.010232
     6  C    0.463194  -0.004306
     7  H   -0.233873   0.003302
     8  H   -0.312520  -0.001669
     9  H   -0.093680   0.010232
    10  C    0.419719   1.150938
    11  H   -0.371098  -0.075976
    12  H   -0.371132  -0.075976
 Sum of Mulliken charges =  -0.00000   1.00000

 Dipole moment (field-independent basis, Debye):
    X=              0.0000    Y=              0.3380    Z=             -0.0002  Tot=              0.3380
                          Isotropic Fermi Contact Couplings
        Atom                 a.u.       MegaHertz       Gauss      10(-4) cm-1
     1  C(13)             -0.00451      -5.07044      -1.80926      -1.69132
     2  B(11)             -0.00988     -14.16730      -5.05524      -4.72570
     3  H(1)               0.00083       3.68961       1.31655       1.23072
     4  H(1)               0.00022       1.00044       0.35698       0.33371
     5  H(1)               0.00350      15.64473       5.58243       5.21852
     6  C(13)             -0.00451      -5.07042      -1.80925      -1.69131
     7  H(1)               0.00083       3.69057       1.31689       1.23104
     8  H(1)               0.00022       1.00017       0.35689       0.33362

 Normal termination of Gaussian 16 at Wed Apr  9 00:26:25 2025.
