 Gaussian 16, Revision C.01,

 ----------------------------------------------------------------------
 #t hf aug-cc-pvdz symm=none int=(grid=ultrafine) guess=(read,tcheck) s
 table=(opt,rrhf)
 ----------------------------------------------------------------------
 -----
 title
 -----
 Symbolic Z-matrix:
 Charge =  0 Multiplicity = 1

 SCF Done:  E(RHF) =  -721.125661193     A.U. after   17 cycles
 Normal termination of Gaussian 16 at Wed Apr  9 00:41:28 2025.
 Gaussian 16:  ES64L-G16RevC.01  3-Jul-2019

 ----------------------------------------------------------------------
 #t hf aug-cc-pvdz iop(5/13=1,5/36=2,99/5=2) pseudo=read geom=check gue
 ss=(read,tcheck) scf=(maxcycle=1)
 ----------------------------------------------------------------------
 -----
 title
 -----
 Structure from the checkpoint file:  "BDE49_nonexpt_723_mol1.chk"
 Charge =  0 Multiplicity = 1

                         Standard orientation:
 ---------------------------------------------------------------------
 Center     Atomic      Atomic             Coordinates (Angstroms)
 Number     Number       Type             X           Y           Z
 ---------------------------------------------------------------------
      1         15           0        0.087441   -1.038307   -0.449192
      2          7           0        1.477438    0.097985    0.049883
      3          5           0       -1.432529    0.114989    0.043026
      4          8           0        1.370151    1.288739   -0.265626
      5          8           0        2.458899   -0.387303    0.571036
      6          8           0       -2.574988   -0.567990    0.299692
      7          8           0       -1.362449    1.457997    0.033473
      8          1           0       -0.458416    1.773182   -0.145595
      9          1           0       -3.325220    0.013030    0.476776
     10          1           0        0.159694   -1.803995    0.733787
 ---------------------------------------------------------------------

 SCF Done:  E(RHF) =  -721.270869156     A.U. after    2 cycles

 The electronic state is 1-A.
 Alpha  occ. eigenvalues --  -81.32498 -20.64137 -20.63072 -20.61667 -20.60559
 Alpha  occ. eigenvalues --  -15.91728  -7.82780  -7.71172  -4.96879  -4.96571
 Alpha  occ. eigenvalues --   -4.96305  -1.55733  -1.38134  -1.37368  -1.34133
 Alpha  occ. eigenvalues --   -0.97943  -0.84602  -0.81968  -0.77968  -0.75058
 Alpha  occ. eigenvalues --   -0.73362  -0.71272  -0.66122  -0.62383  -0.62145
 Alpha  occ. eigenvalues --   -0.55177  -0.54490  -0.51653  -0.49317  -0.48567
 Alpha  occ. eigenvalues --   -0.40755
 Alpha virt. eigenvalues --    0.02762   0.04435   0.04919   0.05510   0.06189
 Alpha virt. eigenvalues --    0.07066   0.07761   0.08559   0.09083   0.09880
 Alpha virt. eigenvalues --    0.12067   0.13584   0.14547   0.15603   0.16628

 Mulliken charges:
               1
     1  P    0.237819
     2  N    0.386000
     3  B    0.692626
     4  O   -0.611983
     5  O   -0.519271
     6  O   -0.441914
     7  O   -0.451900
     8  H    0.323312
     9  H    0.208349
    10  H    0.176961
 Sum of Mulliken charges =   0.00000

 Dipole moment (field-independent basis, Debye):
    X=             -3.3103    Y=             -1.3423    Z=             -0.1582  Tot=              3.5756

 Test job not archived.
 1\1\GINC-SE041\SP\RHF\Aug-CC-pVDZ\B1H3N1O4P1\OHZDE\09-Apr-2025\0\\#t h
 f aug-cc-pvdz iop(5/13=1,5/36=2,99/5=2) pseudo=read geom=check guess=(
 read,tcheck) scf=(maxcycle=1)\\title\\0,1\P,0,0.087441,-1.038307,-0.44
 9192\N,0,1.477438,0.097985,0.049883\B,0,-1.432529,0.114989,0.043026\O,
 0,1.370151,1.288739,-0.265626\O,0,2.458899,-0.387303,0.571036\O,0,-2.5
 74988,-0.567989,0.299692\O,0,-1.362449,1.457997,0.033473\H,0,-0.458416
 ,1.773182,-0.145595\H,0,-3.32522,0.013031,0.476776\H,0,0.159694,-1.803
 995,0.733787\\Version=ES64L-G16RevC.01\State=1-A\HF=-721.2708692\RMSD=

 Normal termination of Gaussian 16 at Wed Apr  9 00:41:33 2025.
