 Gaussian 16, Revision C.01,

 ----------------------------------------------------------------------
 #t hf aug-cc-pvdz symm=none int=(grid=ultrafine) guess=(read,tcheck) s
 table=opt
 ----------------------------------------------------------------------
 -----
 title
 -----
 Symbolic Z-matrix:
 Charge =  0 Multiplicity = 2

 SCF Done:  E(UHF) =  -375.204676709     A.U. after   16 cycles
 Normal termination of Gaussian 16 at Tue Apr  8 22:37:25 2025.
 Gaussian 16:  ES64L-G16RevC.01  3-Jul-2019

 ----------------------------------------------------------------------
 #t hf aug-cc-pvdz iop(5/13=1,5/36=2,99/5=2) pseudo=read geom=check gue
 ss=(read,tcheck) scf=(maxcycle=1)
 ----------------------------------------------------------------------
 -----
 title
 -----
 Structure from the checkpoint file:  "BDE49_expt_122_mol2.chk"
 Charge =  0 Multiplicity = 2

                         Standard orientation:
 ---------------------------------------------------------------------
 Center     Atomic      Atomic             Coordinates (Angstroms)
 Number     Number       Type             X           Y           Z
 ---------------------------------------------------------------------
      1          6           0        0.430829    0.000133    0.309486
      2          9           0        1.420867   -0.898004    0.024566
      3          6           0       -0.819405   -0.442860   -0.344629
      4          9           0        0.852109    1.222618   -0.178569
      5          1           0        0.323916    0.099320    1.392338
      6          9           0       -1.952931    0.043279    0.176071
      7          1           0       -0.872871   -0.754004   -1.380087
 ---------------------------------------------------------------------

 SCF Done:  E(UHF) =  -375.338259924     A.U. after    2 cycles

 The electronic state is 2-A.
 Alpha  occ. eigenvalues --  -26.16717 -26.15396 -26.14604 -11.44598 -11.36702
 Alpha  occ. eigenvalues --   -1.71459  -1.70862  -1.66732  -1.09572  -0.95284
 Alpha  occ. eigenvalues --   -0.84294  -0.83484  -0.83382  -0.80073  -0.78709
 Alpha  occ. eigenvalues --   -0.74256  -0.72390  -0.70715  -0.66569  -0.57487
 Alpha  occ. eigenvalues --   -0.43965
 Alpha virt. eigenvalues --    0.03874   0.04301   0.07960   0.09243   0.11475
 Alpha virt. eigenvalues --    0.11810   0.12054   0.15038   0.16710   0.19582
 Alpha virt. eigenvalues --    0.22350   0.23861   0.25520   0.27569   0.28630

  Beta  occ. eigenvalues --  -26.16227 -26.15363 -26.14286 -11.44852 -11.33994
  Beta  occ. eigenvalues --   -1.70902  -1.69624  -1.66043  -1.06016  -0.92537
  Beta  occ. eigenvalues --   -0.83881  -0.82965  -0.81626  -0.78338  -0.74518
  Beta  occ. eigenvalues --   -0.73570  -0.70476  -0.70342  -0.65778  -0.56645
  Beta virt. eigenvalues --    0.03900   0.04335   0.05734   0.08132   0.11278
  Beta virt. eigenvalues --    0.11693   0.11980   0.13476   0.15412   0.17110
  Beta virt. eigenvalues --    0.20217   0.22552   0.24223   0.26028   0.28846

 Mulliken charges and spin densities:
               1          2
     1  C    0.929107  -0.123667
     2  F   -0.342233   0.000302
     3  C    0.390406   1.174096
     4  F   -0.374702   0.022570
     5  H   -0.151570   0.002821
     6  F   -0.329887   0.018237
     7  H   -0.121121  -0.094358
 Sum of Mulliken charges =  -0.00000   1.00000

 Dipole moment (field-independent basis, Debye):
    X=             -0.7723    Y=             -0.9618    Z=              0.2344  Tot=              1.2556
                          Isotropic Fermi Contact Couplings
        Atom                 a.u.       MegaHertz       Gauss      10(-4) cm-1
     1  C(13)             -0.03898     -43.82266     -15.63702     -14.61767
     2  F(19)              0.00405      17.06100       6.08779       5.69094
     3  C(13)              0.28316     318.32204     113.58522     106.18080
     4  F(19)              0.05922     249.16872      88.90959      83.11374
     5  H(1)               0.00260      11.64197       4.15415       3.88334
     6  F(19)              0.05919     249.02309      88.85763      83.06516
     7  H(1)              -0.02319    -103.65981     -36.98840     -34.57719
 --------------------------------------------------------

 Normal termination of Gaussian 16 at Tue Apr  8 22:37:27 2025.
