 Gaussian 16, Revision C.01,

 ----------------------------------------------------------------------
 #t hf aug-cc-pvdz symm=none int=(grid=ultrafine) guess=(read,tcheck) s
 table=(opt,rrhf)
 ----------------------------------------------------------------------
 -----
 title
 -----
 Symbolic Z-matrix:
 Charge =  0 Multiplicity = 1

 SCF Done:  E(RHF) =  -1605.44717764     A.U. after   14 cycles
 Normal termination of Gaussian 16 at Tue Apr  8 23:59:38 2025.
 Gaussian 16:  ES64L-G16RevC.01  3-Jul-2019

 ----------------------------------------------------------------------
 #t hf aug-cc-pvdz iop(5/13=1,5/36=2,99/5=2) pseudo=read geom=check gue
 ss=(read,tcheck) scf=(maxcycle=1)
 ----------------------------------------------------------------------
 -----
 title
 -----
 Structure from the checkpoint file:  "BDE49_nonexpt_212_mol1.chk"
 Charge =  0 Multiplicity = 1

                         Standard orientation:
 ---------------------------------------------------------------------
 Center     Atomic      Atomic             Coordinates (Angstroms)
 Number     Number       Type             X           Y           Z
 ---------------------------------------------------------------------
      1         17           0        2.343372   -0.742211   -0.344517
      2         17           0        1.001917    1.936003    0.223734
      3          5           0        0.942446    0.213676    0.008389
      4         16           0       -0.699005   -0.728123    0.167662
      5          8           0       -0.611573   -1.485367    1.386922
      6          8           0       -1.812405    0.407855    0.460440
      7          6           0       -2.506365    1.025257   -0.652276
      8          1           0       -3.372656    1.509536   -0.206599
      9          1           0       -2.818182    0.269901   -1.371363
     10          1           0       -1.869602    1.771749   -1.131551
     11          8           0       -0.988451   -1.349440   -1.103370
 ---------------------------------------------------------------------

 SCF Done:  E(RHF) =  -1605.65506237     A.U. after    2 cycles

 The electronic state is 1-A.
 Alpha  occ. eigenvalues -- -103.71556-103.71034 -93.82952 -20.64495 -20.58722
 Alpha  occ. eigenvalues --  -20.58273 -11.32483 -10.75030 -10.74495  -9.09204
 Alpha  occ. eigenvalues --   -8.40726  -8.40489  -8.40448  -8.40195  -8.39950
 Alpha  occ. eigenvalues --   -8.39914  -7.79861  -6.43871  -6.43791  -6.43499
 Alpha  occ. eigenvalues --   -1.47719  -1.36191  -1.33722  -1.22671  -1.19109
 Alpha  occ. eigenvalues --   -1.00346  -0.89500  -0.78798  -0.73817  -0.70824
 Alpha  occ. eigenvalues --   -0.70580  -0.66418  -0.64939  -0.63241  -0.58509
 Alpha  occ. eigenvalues --   -0.57485  -0.56576  -0.54808  -0.53926  -0.52987
 Alpha  occ. eigenvalues --   -0.51860  -0.51501  -0.50702  -0.46995
 Alpha virt. eigenvalues --    0.02534   0.03155   0.04502   0.05149   0.05563
 Alpha virt. eigenvalues --    0.06636   0.07044   0.07575   0.11121   0.11435
 Alpha virt. eigenvalues --    0.13010   0.13317   0.13744   0.14969   0.15577

 Mulliken charges:
               1
     1  Cl  -0.252194
     2  Cl  -0.189125
     3  B    0.636782
     4  S    2.435398
     5  O   -0.972131
     6  O   -0.993275
     7  C    0.700708
     8  H   -0.190817
     9  H   -0.034546
    10  H   -0.108264
    11  O   -1.032537
 Sum of Mulliken charges =   0.00000

 Dipole moment (field-independent basis, Debye):
    X=              0.2571    Y=              4.1416    Z=             -1.6884  Tot=              4.4799

 Test job not archived.
 1\1\GINC-SE333\SP\RHF\Aug-CC-pVDZ\C1H3B1Cl2O3S1\OHZDE\08-Apr-2025\0\\#
 t hf aug-cc-pvdz iop(5/13=1,5/36=2,99/5=2) pseudo=read geom=check gues
 s=(read,tcheck) scf=(maxcycle=1)\\title\\0,1\Cl,0,2.343372,-0.742211,-
 0.344517\Cl,0,1.001917,1.936003,0.223734\B,0,0.942446,0.213676,0.00838
 9\S,0,-0.699005,-0.728123,0.167662\O,0,-0.611573,-1.485367,1.386922\O,
 0,-1.812405,0.407855,0.46044\C,0,-2.506365,1.025257,-0.652276\H,0,-3.3
 72656,1.509535,-0.206599\H,0,-2.818182,0.269901,-1.371363\H,0,-1.86960
 2,1.771749,-1.131551\O,0,-0.988451,-1.34944,-1.10337\\Version=ES64L-G1

 Normal termination of Gaussian 16 at Tue Apr  8 23:59:44 2025.
