 Gaussian 16, Revision C.01,

 ----------------------------------------------------------------------
 #t hf aug-cc-pvdz symm=none int=(grid=ultrafine) guess=(read,tcheck) s
 table=(opt,rrhf)
 ----------------------------------------------------------------------
 -----
 title
 -----
 Symbolic Z-matrix:
 Charge =  0 Multiplicity = 1

 SCF Done:  E(RHF) =  -1203.60727074     A.U. after   15 cycles
 Normal termination of Gaussian 16 at Tue Apr  8 22:50:22 2025.
 Gaussian 16:  ES64L-G16RevC.01  3-Jul-2019

 ----------------------------------------------------------------------
 #t hf aug-cc-pvdz iop(5/13=1,5/36=2,99/5=2) pseudo=read geom=check gue
 ss=(read,tcheck) scf=(maxcycle=1)
 ----------------------------------------------------------------------
 -----
 title
 -----
 Structure from the checkpoint file:  "BDE49_expt_1735_mol1.chk"
 Charge =  0 Multiplicity = 1

                         Standard orientation:
 ---------------------------------------------------------------------
 Center     Atomic      Atomic             Coordinates (Angstroms)
 Number     Number       Type             X           Y           Z
 ---------------------------------------------------------------------
      1          6           0       -2.237780   -0.000005    1.300051
      2          6           0       -0.863752   -0.000004    1.104786
      3          6           0       -3.076745   -0.000001    0.186919
      4          6           0       -2.498915    0.000004   -1.078043
      5          7           0       -1.176798    0.000004   -1.280251
      6          6           0       -0.385560    0.000000   -0.207012
      7          1           0       -2.649341   -0.000009    2.302690
      8          1           0       -0.174790   -0.000008    1.939963
      9          6           0        1.087716    0.000001   -0.530924
     10         17           0        1.910654    1.480365    0.098418
     11          1           0        1.220431    0.000004   -1.606114
     12         17           0        1.910655   -1.480365    0.098410
     13          1           0       -4.154481   -0.000001    0.295633
     14          1           0       -3.116275    0.000007   -1.971152
 ---------------------------------------------------------------------

 SCF Done:  E(RHF) =  -1203.72461842     A.U. after    2 cycles

 The electronic state is 1-A.
 Alpha  occ. eigenvalues -- -103.67206-103.67206 -15.65178 -11.38326 -11.31722
 Alpha  occ. eigenvalues --  -11.30107 -11.28383 -11.26870 -11.26779 -10.70471
 Alpha  occ. eigenvalues --  -10.70468  -8.36188  -8.36186  -8.35878  -8.35877
 Alpha  occ. eigenvalues --   -8.35873  -8.35871  -1.26182  -1.20987  -1.13657
 Alpha  occ. eigenvalues --   -1.09530  -1.05611  -0.93499  -0.87863  -0.83460
 Alpha  occ. eigenvalues --   -0.72948  -0.70148  -0.66874  -0.63087  -0.61277
 Alpha  occ. eigenvalues --   -0.61147  -0.59018  -0.55011  -0.54936  -0.48440
 Alpha  occ. eigenvalues --   -0.48276  -0.46145  -0.45626  -0.43489  -0.40095
 Alpha  occ. eigenvalues --   -0.36173
 Alpha virt. eigenvalues --    0.02797   0.03823   0.04627   0.05971   0.06368
 Alpha virt. eigenvalues --    0.07281   0.08057   0.08464   0.09176   0.10749
 Alpha virt. eigenvalues --    0.11193   0.11786   0.12462   0.12943   0.13891

 Mulliken charges:
               1
     1  C   -0.375042
     2  C    0.865597
     3  C    0.905879
     4  C    0.473360
     5  N   -0.383363
     6  C    0.449426
     7  H   -0.387229
     8  H   -0.485376
     9  C   -0.080752
    10  Cl  -0.067064
    11  H   -0.077547
    12  Cl  -0.067065
    13  H   -0.402567
    14  H   -0.368257
 Sum of Mulliken charges =  -0.00000

 Dipole moment (field-independent basis, Debye):
    X=             -3.1566    Y=             -0.0000    Z=              0.9821  Tot=              3.3058

 Test job not archived.
 1\1\GINC-SE118\SP\RHF\Aug-CC-pVDZ\C6H5Cl2N1\OHZDE\08-Apr-2025\0\\#t hf
  aug-cc-pvdz iop(5/13=1,5/36=2,99/5=2) pseudo=read geom=check guess=(r
 ead,tcheck) scf=(maxcycle=1)\\title\\0,1\C,0,2.23778,0.000005,1.300051
 \C,0,0.863752,0.000004,1.104786\C,0,3.076745,0.000001,0.186919\C,0,2.4
 98915,-0.000004,-1.078043\N,0,1.176798,-0.000004,-1.280251\C,0,0.38556
 ,0.,-0.207012\H,0,2.649341,0.000009,2.30269\H,0,0.17479,0.000008,1.939
 963\C,0,-1.087716,-0.000001,-0.530924\Cl,0,-1.910654,-1.480365,0.09841
 8\H,0,-1.220431,-0.000004,-1.606114\Cl,0,-1.910655,1.480365,0.09841\H,

 Normal termination of Gaussian 16 at Tue Apr  8 22:50:29 2025.
