 Gaussian 16, Revision C.01,

 ----------------------------------------------------------------------
 #t hf aug-cc-pvdz symm=none int=(grid=ultrafine) guess=(read,tcheck) s
 table=(opt,rrhf)
 ----------------------------------------------------------------------
 -----
 title
 -----
 Symbolic Z-matrix:
 Charge =  0 Multiplicity = 1

 SCF Done:  E(RHF) =  -1764.93936476     A.U. after   18 cycles
 Normal termination of Gaussian 16 at Wed Apr  9 00:52:40 2025.
 Gaussian 16:  ES64L-G16RevC.01  3-Jul-2019

 ----------------------------------------------------------------------
 #t hf aug-cc-pvdz iop(5/13=1,5/36=2,99/5=2) pseudo=read geom=check gue
 ss=(read,tcheck) scf=(maxcycle=1)
 ----------------------------------------------------------------------
 -----
 title
 -----
 Structure from the checkpoint file:  "BDE49_nonexpt_903_mol1.chk"
 Charge =  0 Multiplicity = 1

                         Standard orientation:
 ---------------------------------------------------------------------
 Center     Atomic      Atomic             Coordinates (Angstroms)
 Number     Number       Type             X           Y           Z
 ---------------------------------------------------------------------
      1          6           0       -3.507753   -0.082520    0.000044
      2          6           0       -3.035420    1.225235   -0.000031
      3          6           0       -1.664460    1.434344   -0.000102
      4          6           0       -2.655434   -1.179380    0.000051
      5          6           0       -1.283803   -0.958843   -0.000021
      6          6           0       -0.778626    0.347166   -0.000099
      7          1           0       -3.737860    2.046684   -0.000034
      8          1           0       -1.258811    2.437245   -0.000161
      9          1           0       -3.070211   -2.177301    0.000113
     10          1           0       -0.615385   -1.809135   -0.000014
     11          6           0        0.687010    0.673761   -0.000178
     12         16           0        1.780565   -0.776614   -0.000215
     13          5           0        3.536795   -0.207168   -0.000126
     14         16           0        4.661003   -1.641039   -0.000028
     15          8           0        1.073779    1.818322   -0.000187
     16          7           0       -4.974094   -0.315478    0.000120
     17          8           0       -5.359210   -1.475258    0.000185
     18          8           0       -5.698966    0.668261    0.000113
     19         16           0        4.202021    1.463665    0.000271
     20          1           0        5.810357   -0.941936    0.000186
     21          1           0        3.015249    2.103261    0.000378
 ---------------------------------------------------------------------

 SCF Done:  E(RHF) =  -1765.16110428     A.U. after    2 cycles

 The electronic state is 1-A.
 Alpha  occ. eigenvalues --  -93.57421 -93.55659 -93.54885 -20.63501 -20.63483
 Alpha  occ. eigenvalues --  -20.61435 -15.93713 -11.42288 -11.34629 -11.31111
 Alpha  occ. eigenvalues --  -11.30289 -11.30170 -11.30086 -11.29741  -8.87462
 Alpha  occ. eigenvalues --   -8.85616  -8.84912  -7.71890  -6.21648  -6.21368
 Alpha  occ. eigenvalues --   -6.21127  -6.19802  -6.19558  -6.19291  -6.19093
 Alpha  occ. eigenvalues --   -6.18878  -6.18618  -1.56756  -1.41259  -1.38384
 Alpha  occ. eigenvalues --   -1.21292  -1.11739  -1.07020  -1.04573  -1.00765
 Alpha  occ. eigenvalues --   -0.97162  -0.96177  -0.89108  -0.87244  -0.81095
 Alpha  occ. eigenvalues --   -0.80698  -0.75761  -0.74360  -0.73071  -0.71998
 Alpha  occ. eigenvalues --   -0.67941  -0.67413  -0.64949  -0.62533  -0.62182
 Alpha  occ. eigenvalues --   -0.60911  -0.59343  -0.55448  -0.55432  -0.53968
 Alpha  occ. eigenvalues --   -0.53168  -0.52772  -0.49005  -0.47831  -0.46610
 Alpha  occ. eigenvalues --   -0.45601  -0.44462  -0.41209  -0.39317  -0.38825
 Alpha  occ. eigenvalues --   -0.37930
 Alpha virt. eigenvalues --   -0.00670   0.02881   0.03543   0.04208   0.05168
 Alpha virt. eigenvalues --    0.05747   0.05831   0.06314   0.06674   0.07201
 Alpha virt. eigenvalues --    0.07452   0.07963   0.09179   0.09371   0.09669

 Mulliken charges:
               1
     1  C    0.974621
     2  C    0.408533
     3  C   -0.210357
     4  C    0.368183
     5  C    0.649360
     6  C    1.937868
     7  H   -0.436673
     8  H   -0.657090
     9  H   -0.457946
    10  H   -0.536440
    11  C   -1.136487
    12  S    0.302688
    13  B    0.620271
    14  S   -0.246843
    15  O   -0.518876
    16  N    0.093777
    17  O   -0.540282
    18  O   -0.542634
    19  S   -0.184632
    20  H    0.001388
    21  H    0.111572
 Sum of Mulliken charges =  -0.00000

 Dipole moment (field-independent basis, Debye):
    X=              2.6316    Y=             -0.0412    Z=             -0.0000  Tot=              2.6319

 Test job not archived.
 1\1\GINC-SE343\SP\RHF\Aug-CC-pVDZ\C7H6B1N1O3S3\OHZDE\09-Apr-2025\0\\#t
  hf aug-cc-pvdz iop(5/13=1,5/36=2,99/5=2) pseudo=read geom=check guess
 =(read,tcheck) scf=(maxcycle=1)\\title\\0,1\C,0,-3.507753,-0.08252,0.0
 00044\C,0,-3.03542,1.225235,-0.000031\C,0,-1.66446,1.434344,-0.000102\
 C,0,-2.655434,-1.17938,0.000051\C,0,-1.283803,-0.958843,-0.000021\C,0,
 -0.778626,0.347166,-0.000099\H,0,-3.73786,2.046684,-0.000034\H,0,-1.25
 8811,2.437245,-0.000161\H,0,-3.070211,-2.177301,0.000113\H,0,-0.615385
 ,-1.809135,-0.000014\C,0,0.68701,0.673761,-0.000178\S,0,1.780565,-0.77

 Normal termination of Gaussian 16 at Wed Apr  9 00:52:59 2025.
