 Gaussian 16, Revision C.01,

 ----------------------------------------------------------------------
 #t hf aug-cc-pvdz symm=none int=(grid=ultrafine) guess=(read,tcheck) s
 table=(opt,rrhf)
 ----------------------------------------------------------------------
 -----
 title
 -----
 Symbolic Z-matrix:
 Charge =  0 Multiplicity = 1

 SCF Done:  E(RHF) =  -2832.71273265     A.U. after   12 cycles
 Normal termination of Gaussian 16 at Tue Apr  8 22:27:28 2025.
 Gaussian 16:  ES64L-G16RevC.01  3-Jul-2019

 ----------------------------------------------------------------------
 #t hf aug-cc-pvdz iop(5/13=1,5/36=2,99/5=2) pseudo=read geom=check gue
 ss=(read,tcheck) scf=(maxcycle=1)
 ----------------------------------------------------------------------
 -----
 title
 -----
 Structure from the checkpoint file:  "BDE49_expt_1011_mol1.chk"
 Charge =  0 Multiplicity = 1

                         Standard orientation:
 ---------------------------------------------------------------------
 Center     Atomic      Atomic             Coordinates (Angstroms)
 Number     Number       Type             X           Y           Z
 ---------------------------------------------------------------------
      1          6           0        0.795513   -0.000004   -0.000020
      2          6           0       -0.795513    0.000004    0.000020
      3         17           0        1.406392    0.729108    1.514357
      4         17           0        1.406234    0.947080   -1.388614
      5         17           0        1.406442   -1.676022   -0.125892
      6         17           0       -1.406234   -0.947051    1.388633
      7         17           0       -1.406393   -0.729139   -1.514342
      8         17           0       -1.406441    1.676024    0.125858
 ---------------------------------------------------------------------

 SCF Done:  E(RHF) =  -2832.84362360     A.U. after    2 cycles

 The electronic state is 1-A.
 Alpha  occ. eigenvalues -- -103.70374-103.70373-103.70373-103.70373-103.70372
 Alpha  occ. eigenvalues -- -103.70372 -11.48403 -11.48359 -10.73688 -10.73687
 Alpha  occ. eigenvalues --  -10.73681 -10.73680 -10.73657 -10.73647  -8.39397
 Alpha  occ. eigenvalues --   -8.39396  -8.39395  -8.39394  -8.39387  -8.39385
 Alpha  occ. eigenvalues --   -8.39050  -8.39048  -8.39048  -8.39046  -8.39046
 Alpha  occ. eigenvalues --   -8.39044  -8.39043  -8.39040  -8.39039  -8.39039
 Alpha  occ. eigenvalues --   -8.39036  -8.39036  -1.30975  -1.25130  -1.18186
 Alpha  occ. eigenvalues --   -1.18185  -1.16355  -1.16355  -0.96872  -0.81204
 Alpha  occ. eigenvalues --   -0.70187  -0.68520  -0.68519  -0.62635  -0.62635
 Alpha  occ. eigenvalues --   -0.53554  -0.53553  -0.52388  -0.52009  -0.52009
 Alpha  occ. eigenvalues --   -0.50350  -0.50350  -0.49103  -0.48647  -0.47026
 Alpha  occ. eigenvalues --   -0.47025  -0.46611
 Alpha virt. eigenvalues --    0.05132   0.06534   0.07137   0.07137   0.08888
 Alpha virt. eigenvalues --    0.09376   0.09376   0.10362   0.11197   0.11197
 Alpha virt. eigenvalues --    0.14168   0.14168   0.15058   0.15880   0.17163

 Mulliken charges:
               1
     1  C   -0.177092
     2  C   -0.177092
     3  Cl   0.059033
     4  Cl   0.059028
     5  Cl   0.059031
     6  Cl   0.059028
     7  Cl   0.059033
     8  Cl   0.059031
 Sum of Mulliken charges =  -0.00000

 Dipole moment (field-independent basis, Debye):
    X=             -0.0000    Y=              0.0000    Z=             -0.0000  Tot=              0.0000

 Test job not archived.
 1\1\GINC-SE435\SP\RHF\Aug-CC-pVDZ\C2Cl6\OHZDE\08-Apr-2025\0\\#t hf aug
 -cc-pvdz iop(5/13=1,5/36=2,99/5=2) pseudo=read geom=check guess=(read,
 tcheck) scf=(maxcycle=1)\\title\\0,1\C,0,-0.795513,0.000004,-0.00002\C
 ,0,0.795513,-0.000004,0.00002\Cl,0,-1.406393,-0.726962,1.515388\Cl,0,-
 1.406233,-0.949046,-1.387271\Cl,0,-1.406442,1.675842,-0.128267\Cl,0,1.
 406233,0.949018,1.387291\Cl,0,1.406394,0.726993,-1.515373\Cl,0,1.40644
 1,-1.675844,0.128233\\Version=ES64L-G16RevC.01\State=1-A\HF=-2832.8436
 236\RMSD=5.130e-03\Dipole=0.,-0.0000016,-0.0000004\Quadrupole=-1.26673

 Normal termination of Gaussian 16 at Tue Apr  8 22:27:33 2025.
