 Gaussian 16, Revision C.01,

 ----------------------------------------------------------------------
 #t hf aug-cc-pvdz symm=none int=(grid=ultrafine) guess=(read,tcheck) s
 table=(opt,rrhf)
 ----------------------------------------------------------------------
 -----
 title
 -----
 Symbolic Z-matrix:
 Charge =  0 Multiplicity = 1

 SCF Done:  E(RHF) =  -1030.44711940     A.U. after   13 cycles

 1\1\GINC-SE038\Stability\RHF\Aug-CC-pVDZ\C6H14S2\OHZDE\08-Apr-2025\0\\
 #t hf aug-cc-pvdz symm=none int=(grid=ultrafine) guess=(read,tcheck) s
 table=(opt,rrhf)\\title\\0,1\C,0,1.970373,-1.192644,-0.337392\S,0,1.27
 0028,0.368092,-0.991309\C,0,0.26498,0.971246,0.432795\C,0,-0.203923,2.
 39134,0.112187\H,0,-0.789589,2.787162,0.944136\H,0,-0.824241,2.415827,
 -0.786285\H,0,0.655552,3.045182,-0.056923\S,0,-1.088921,-0.155248,0.96
 7543\H,0,0.910296,0.996658,1.312645\C,0,-2.194036,-0.175736,-0.497029\
 C,0,-3.220335,-1.298476,-0.356203\H,0,-1.569288,-0.324865,-1.379939\H,

 Normal termination of Gaussian 16 at Tue Apr  8 23:04:16 2025.
 Gaussian 16:  ES64L-G16RevC.01  3-Jul-2019

 ----------------------------------------------------------------------
 #t hf aug-cc-pvdz iop(5/13=1,5/36=2,99/5=2) pseudo=read geom=check gue
 ss=(read,tcheck) scf=(maxcycle=1)
 ----------------------------------------------------------------------
 -----
 title
 -----
 Structure from the checkpoint file:  "BDE49_expt_377_mol1.chk"
 Charge =  0 Multiplicity = 1

                         Standard orientation:
 ---------------------------------------------------------------------
 Center     Atomic      Atomic             Coordinates (Angstroms)
 Number     Number       Type             X           Y           Z
 ---------------------------------------------------------------------
      1          6           0        1.970373   -1.192644   -0.337392
      2         16           0        1.270028    0.368092   -0.991309
      3          6           0        0.264980    0.971246    0.432795
      4          6           0       -0.203923    2.391340    0.112187
      5          1           0       -0.789589    2.787162    0.944136
      6          1           0       -0.824241    2.415827   -0.786285
      7          1           0        0.655552    3.045182   -0.056923
      8         16           0       -1.088921   -0.155248    0.967543
      9          1           0        0.910296    0.996658    1.312645
     10          6           0       -2.194036   -0.175736   -0.497029
     11          6           0       -3.220335   -1.298476   -0.356203
     12          1           0       -1.569288   -0.324865   -1.379939
     13          1           0       -2.695735    0.790089   -0.581692
     14          1           0       -2.734196   -2.275140   -0.301244
     15          1           0       -3.891330   -1.300127   -1.219748
     16          1           0       -3.831663   -1.173306    0.541208
     17          6           0        3.092314   -1.018255    0.683311
     18          1           0        2.333904   -1.711326   -1.227816
     19          1           0        1.142854   -1.777933    0.069713
     20          1           0        3.914689   -0.431581    0.268515
     21          1           0        3.483719   -1.995602    0.984074
     22          1           0        2.741065   -0.515397    1.587611
 ---------------------------------------------------------------------

 SCF Done:  E(RHF) =  -1030.56202666     A.U. after    2 cycles

 The electronic state is 1-A.
 Alpha  occ. eigenvalues --  -93.52410 -93.52384 -11.30268 -11.26467 -11.26419
 Alpha  occ. eigenvalues --  -11.23962 -11.23522 -11.23332  -8.82139  -8.82120
 Alpha  occ. eigenvalues --   -6.16314  -6.16276  -6.16078  -6.16044  -6.15786
 Alpha  occ. eigenvalues --   -6.15763  -1.09436  -1.04862  -1.02584  -0.92918
 Alpha  occ. eigenvalues --   -0.91855  -0.84845  -0.81023  -0.74228  -0.63503
 Alpha  occ. eigenvalues --   -0.62746  -0.62436  -0.60927  -0.57530  -0.57141
 Alpha  occ. eigenvalues --   -0.54132  -0.53644  -0.53101  -0.52181  -0.51008
 Alpha  occ. eigenvalues --   -0.47195  -0.46695  -0.44540  -0.40630  -0.34209
 Alpha  occ. eigenvalues --   -0.32993
 Alpha virt. eigenvalues --    0.03551   0.04094   0.04250   0.04984   0.05856
 Alpha virt. eigenvalues --    0.05977   0.06189   0.06574   0.07596   0.07959
 Alpha virt. eigenvalues --    0.08526   0.09099   0.09709   0.10000   0.11145

 Mulliken charges:
               1
     1  C   -0.084659
     2  S    0.322830
     3  C   -0.332269
     4  C    0.562142
     5  H   -0.036904
     6  H   -0.112000
     7  H   -0.084547
     8  S    0.272680
     9  H   -0.197302
    10  C   -0.103308
    11  C    0.353378
    12  H   -0.120326
    13  H   -0.174831
    14  H   -0.064652
    15  H   -0.026089
    16  H   -0.049536
    17  C    0.306917
    18  H   -0.084106
    19  H   -0.073097
    20  H   -0.059300
    21  H   -0.055733
    22  H   -0.159289
 Sum of Mulliken charges =   0.00000

 Dipole moment (field-independent basis, Debye):
    X=             -0.1428    Y=             -0.1526    Z=             -0.1025  Tot=              0.2328

 Test job not archived.
 1\1\GINC-SE038\SP\RHF\Aug-CC-pVDZ\C6H14S2\OHZDE\08-Apr-2025\0\\#t hf a
 ug-cc-pvdz iop(5/13=1,5/36=2,99/5=2) pseudo=read geom=check guess=(rea
 d,tcheck) scf=(maxcycle=1)\\title\\0,1\C,0,1.970373,-1.192644,-0.33739
 2\S,0,1.270028,0.368092,-0.991309\C,0,0.26498,0.971246,0.432795\C,0,-0
 .203923,2.39134,0.112187\H,0,-0.789589,2.787162,0.944136\H,0,-0.824241
 ,2.415827,-0.786285\H,0,0.655552,3.045182,-0.056923\S,0,-1.088921,-0.1
 55248,0.967543\H,0,0.910296,0.996658,1.312645\C,0,-2.194036,-0.175736,
 -0.497029\C,0,-3.220335,-1.298476,-0.356203\H,0,-1.569288,-0.324865,-1

 Normal termination of Gaussian 16 at Tue Apr  8 23:04:29 2025.
