 Gaussian 16, Revision C.01,

 ----------------------------------------------------------------------
 #t hf aug-cc-pvdz symm=none int=(grid=ultrafine) guess=(read,tcheck) s
 table=(opt,rrhf)
 ----------------------------------------------------------------------
 -----
 title
 -----
 Symbolic Z-matrix:
 Charge =  0 Multiplicity = 1

 SCF Done:  E(RHF) =  -701.112760866     A.U. after   15 cycles
 Normal termination of Gaussian 16 at Tue Apr  8 23:32:49 2025.
 Gaussian 16:  ES64L-G16RevC.01  3-Jul-2019

 ----------------------------------------------------------------------
 #t hf aug-cc-pvdz iop(5/13=1,5/36=2,99/5=2) pseudo=read geom=check gue
 ss=(read,tcheck) scf=(maxcycle=1)
 ----------------------------------------------------------------------
 -----
 title
 -----
 Structure from the checkpoint file:  "BDE49_nonexpt_1448_mol1.chk"
 Charge =  0 Multiplicity = 1

                         Standard orientation:
 ---------------------------------------------------------------------
 Center     Atomic      Atomic             Coordinates (Angstroms)
 Number     Number       Type             X           Y           Z
 ---------------------------------------------------------------------
      1          6           0        1.608559   -0.213513   -0.270711
      2          8           0        1.080182   -0.926248   -1.097246
      3          7           0        0.965937    0.903229    0.249462
      4          6           0       -1.537237   -0.292170    0.357595
      5          6           0        2.995578   -0.473505    0.285131
      6          6           0       -2.701617   -0.711910   -0.510208
      7          8           0       -1.181014   -0.897058    1.337246
      8          1           0        3.530766   -1.130502   -0.397703
      9          1           0        2.901510   -0.975966    1.252449
     10          1           0        3.562862    0.448480    0.432788
     11          1           0       -3.303109    0.147740   -0.820576
     12          1           0       -3.320531   -1.433396    0.024339
     13          1           0       -2.297986   -1.179298   -1.413908
     14         15           0       -0.667322    1.332346   -0.092424
     15          1           0        1.446712    1.431973    0.961500
     16          1           0       -0.656999    1.116210   -1.489601
 ---------------------------------------------------------------------

 SCF Done:  E(RHF) =  -701.250883267     A.U. after    2 cycles

 The electronic state is 1-A.
 Alpha  occ. eigenvalues --  -81.29719 -20.57201 -20.55137 -15.65846 -11.37858
 Alpha  occ. eigenvalues --  -11.35014 -11.25575 -11.24996  -7.79818  -4.93978
 Alpha  occ. eigenvalues --   -4.93704  -4.93473  -1.36531  -1.35930  -1.18249
 Alpha  occ. eigenvalues --   -1.01405  -1.00522  -0.85063  -0.79733  -0.73907
 Alpha  occ. eigenvalues --   -0.69469  -0.66959  -0.64973  -0.62894  -0.61804
 Alpha  occ. eigenvalues --   -0.60785  -0.58601  -0.56545  -0.55084  -0.53625
 Alpha  occ. eigenvalues --   -0.51646  -0.45626  -0.44574  -0.41100  -0.36285
 Alpha virt. eigenvalues --    0.03089   0.03818   0.04781   0.05224   0.06280
 Alpha virt. eigenvalues --    0.06581   0.07038   0.07943   0.08784   0.09654
 Alpha virt. eigenvalues --    0.10579   0.11388   0.12308   0.13257   0.13290

 Mulliken charges:
               1
     1  C    0.402334
     2  O   -0.500630
     3  N   -0.567374
     4  C    0.024941
     5  C    0.292907
     6  C    0.202293
     7  O   -0.576416
     8  H   -0.029137
     9  H    0.071541
    10  H   -0.043041
    11  H    0.001483
    12  H   -0.036773
    13  H    0.069166
    14  P    0.614277
    15  H   -0.081281
    16  H    0.155711
 Sum of Mulliken charges =  -0.00000

 Dipole moment (field-independent basis, Debye):
    X=              1.0381    Y=              2.7863    Z=             -0.1141  Tot=              2.9756

 Test job not archived.
 1\1\GINC-SE212\SP\RHF\Aug-CC-pVDZ\C4H8N1O2P1\OHZDE\08-Apr-2025\0\\#t h
 f aug-cc-pvdz iop(5/13=1,5/36=2,99/5=2) pseudo=read geom=check guess=(
 read,tcheck) scf=(maxcycle=1)\\title\\0,1\C,0,1.608559,-0.213513,-0.27
 0711\O,0,1.080182,-0.926248,-1.097246\N,0,0.965937,0.903229,0.249462\C
 ,0,-1.537237,-0.29217,0.357595\C,0,2.995578,-0.473505,0.285131\C,0,-2.
 701617,-0.71191,-0.510208\O,0,-1.181014,-0.897058,1.337246\H,0,3.53076
 6,-1.130502,-0.397703\H,0,2.90151,-0.975966,1.252449\H,0,3.562862,0.44
 848,0.432788\H,0,-3.303109,0.14774,-0.820576\H,0,-3.320531,-1.433396,0

 Normal termination of Gaussian 16 at Tue Apr  8 23:32:56 2025.
