 Gaussian 16, Revision C.01,

 ----------------------------------------------------------------------
 #t hf aug-cc-pvdz symm=none int=(grid=ultrafine) guess=(read,tcheck) s
 table=(opt,rrhf)
 ----------------------------------------------------------------------
 -----
 title
 -----
 Symbolic Z-matrix:
 Charge =  0 Multiplicity = 1

 SCF Done:  E(RHF) =  -941.014773054     A.U. after   13 cycles
 Normal termination of Gaussian 16 at Wed Apr  9 00:01:14 2025.
 Gaussian 16:  ES64L-G16RevC.01  3-Jul-2019

 ----------------------------------------------------------------------
 #t hf aug-cc-pvdz iop(5/13=1,5/36=2,99/5=2) pseudo=read geom=check gue
 ss=(read,tcheck) scf=(maxcycle=1)
 ----------------------------------------------------------------------
 -----
 title
 -----
 Structure from the checkpoint file:  "BDE49_nonexpt_2170_mol1.chk"
 Charge =  0 Multiplicity = 1

                         Standard orientation:
 ---------------------------------------------------------------------
 Center     Atomic      Atomic             Coordinates (Angstroms)
 Number     Number       Type             X           Y           Z
 ---------------------------------------------------------------------
      1          6           0        2.746220    0.483769   -0.000006
      2          8           0        1.405915    0.742225    0.000004
      3         14           0        0.118880   -0.313719    0.000005
      4          6           0       -1.394978    0.801045   -0.000005
      5          6           0        3.325100   -0.713269   -0.000003
      6          1           0        3.321535    1.403586   -0.000017
      7          1           0        2.764108   -1.640764    0.000009
      8          1           0        4.404337   -0.782560   -0.000012
      9         17           0       -2.871440   -0.264797   -0.000001
     10          1           0       -1.454496    1.431056   -0.886547
     11          1           0       -1.454499    1.431067    0.886529
     12          1           0        0.131895   -1.157919    1.212360
     13          1           0        0.131904   -1.157931   -1.212340
 ---------------------------------------------------------------------

 SCF Done:  E(RHF) =  -941.127792674     A.U. after    2 cycles

 The electronic state is 1-A.
 Alpha  occ. eigenvalues -- -103.65881 -69.11117 -20.59529 -11.32171 -11.29676
 Alpha  occ. eigenvalues --  -11.23667 -10.69098  -8.34816  -8.34532  -8.34519
 Alpha  occ. eigenvalues --   -6.85912  -3.96841  -3.96690  -3.96637  -1.35077
 Alpha  occ. eigenvalues --   -1.15972  -1.02957  -0.92596  -0.84311  -0.70786
 Alpha  occ. eigenvalues --   -0.69533  -0.64803  -0.63714  -0.61112  -0.56622
 Alpha  occ. eigenvalues --   -0.56256  -0.53661  -0.50451  -0.48258  -0.45466
 Alpha  occ. eigenvalues --   -0.43439  -0.36691
 Alpha virt. eigenvalues --    0.03262   0.04297   0.04744   0.05249   0.06030
 Alpha virt. eigenvalues --    0.06784   0.07762   0.08422   0.09728   0.09943
 Alpha virt. eigenvalues --    0.10803   0.11766   0.12974   0.14501   0.14863

 Mulliken charges:
               1
     1  C    0.523216
     2  O   -0.690673
     3  Si   0.897740
     4  C   -0.113034
     5  C    0.632379
     6  H   -0.418443
     7  H   -0.335726
     8  H   -0.275123
     9  Cl  -0.212675
    10  H   -0.079206
    11  H   -0.079207
    12  H    0.075375
    13  H    0.075377
 Sum of Mulliken charges =  -0.00000

 Dipole moment (field-independent basis, Debye):
    X=              1.7988    Y=              0.8661    Z=             -0.0000  Tot=              1.9964

 Test job not archived.
 1\1\GINC-SE273\SP\RHF\Aug-CC-pVDZ\C3H7Cl1O1Si1\OHZDE\09-Apr-2025\0\\#t
  hf aug-cc-pvdz iop(5/13=1,5/36=2,99/5=2) pseudo=read geom=check guess
 =(read,tcheck) scf=(maxcycle=1)\\title\\0,1\C,0,2.74622,0.483769,-0.00
 0006\O,0,1.405915,0.742225,0.000004\Si,0,0.11888,-0.313719,0.000005\C,
 0,-1.394978,0.801045,-0.000005\C,0,3.3251,-0.713269,-0.000003\H,0,3.32
 1535,1.403586,-0.000017\H,0,2.764108,-1.640764,0.000009\H,0,4.404337,-
 0.78256,-0.000012\Cl,0,-2.87144,-0.264797,-0.000001\H,0,-1.454496,1.43
 1056,-0.886547\H,0,-1.454499,1.431067,0.886529\H,0,0.131895,-1.157919,

 Normal termination of Gaussian 16 at Wed Apr  9 00:01:19 2025.
