 Gaussian 16, Revision C.01,

 ----------------------------------------------------------------------
 #t hf aug-cc-pvdz symm=none int=(grid=ultrafine) guess=(read,tcheck) s
 table=(opt,rrhf)
 ----------------------------------------------------------------------
 -----
 title
 -----
 Symbolic Z-matrix:
 Charge =  0 Multiplicity = 1

 SCF Done:  E(RHF) =  -392.017802096     A.U. after   14 cycles
 Normal termination of Gaussian 16 at Wed Apr  9 00:32:15 2025.
 Gaussian 16:  ES64L-G16RevC.01  3-Jul-2019

 ----------------------------------------------------------------------
 #t hf aug-cc-pvdz iop(5/13=1,5/36=2,99/5=2) pseudo=read geom=check gue
 ss=(read,tcheck) scf=(maxcycle=1)
 ----------------------------------------------------------------------
 -----
 title
 -----
 Structure from the checkpoint file:  "BDE49_nonexpt_411_mol1.chk"
 Charge =  0 Multiplicity = 1

                         Standard orientation:
 ---------------------------------------------------------------------
 Center     Atomic      Atomic             Coordinates (Angstroms)
 Number     Number       Type             X           Y           Z
 ---------------------------------------------------------------------
      1          9           0       -2.053218   -0.906045   -0.000027
      2          5           0       -1.062850   -0.021725    0.000040
      3          9           0       -1.393425    1.257724   -0.000019
      4          6           0        0.404701   -0.512492    0.000019
      5          7           0        1.333269    0.370275    0.000014
      6          1           0        0.660952   -1.573780    0.000012
      7          8           0        2.591491   -0.195943   -0.000000
      8          1           0        3.180054    0.567868   -0.000000
 ---------------------------------------------------------------------

 SCF Done:  E(RHF) =  -392.159830536     A.U. after    2 cycles

 The electronic state is 1-A.
 Alpha  occ. eigenvalues --  -26.14679 -26.14294 -20.64415 -15.73900 -11.28697
 Alpha  occ. eigenvalues --   -7.75238  -1.69828  -1.67575  -1.41921  -1.16002
 Alpha  occ. eigenvalues --   -0.89543  -0.85363  -0.82834  -0.77523  -0.77477
 Alpha  occ. eigenvalues --   -0.75296  -0.72746  -0.72084  -0.67895  -0.63522
 Alpha  occ. eigenvalues --   -0.58713  -0.47189  -0.43211
 Alpha virt. eigenvalues --    0.03529   0.04202   0.04763   0.05871   0.07165
 Alpha virt. eigenvalues --    0.07335   0.08231   0.13801   0.13882   0.14525
 Alpha virt. eigenvalues --    0.17038   0.18465   0.18672   0.20062   0.22456

 Mulliken charges:
               1
     1  F   -0.449170
     2  B    1.009990
     3  F   -0.385042
     4  C    0.459705
     5  N   -0.068515
     6  H   -0.303437
     7  O   -0.457368
     8  H    0.193838
 Sum of Mulliken charges =  -0.00000

 Dipole moment (field-independent basis, Debye):
    X=              1.8714    Y=             -0.3911    Z=              0.0002  Tot=              1.9118

 Test job not archived.
 1\1\GINC-SE059\SP\RHF\Aug-CC-pVDZ\C1H2B1F2N1O1\OHZDE\09-Apr-2025\0\\#t
  hf aug-cc-pvdz iop(5/13=1,5/36=2,99/5=2) pseudo=read geom=check guess
 =(read,tcheck) scf=(maxcycle=1)\\title\\0,1\F,0,-2.053218,-0.906045,-0
 .000027\B,0,-1.06285,-0.021725,0.00004\F,0,-1.393425,1.257724,-0.00001
 9\C,0,0.404701,-0.512492,0.000019\N,0,1.333269,0.370275,0.000014\H,0,0
 .660952,-1.57378,0.000012\O,0,2.591491,-0.195943,0.\H,0,3.180054,0.567
 868,0.\\Version=ES64L-G16RevC.01\State=1-A\HF=-392.1598305\RMSD=4.928e
 -03\Dipole=0.7362496,-0.1538712,0.0000973\Quadrupole=0.4639912,-1.3462

 Normal termination of Gaussian 16 at Wed Apr  9 00:32:18 2025.
