 Gaussian 16, Revision C.01,

 ----------------------------------------------------------------------
 #t hf aug-cc-pvdz symm=none int=(grid=ultrafine) guess=(read,tcheck) s
 table=(opt,rrhf)
 ----------------------------------------------------------------------
 -----
 title
 -----
 Symbolic Z-matrix:
 Charge =  0 Multiplicity = 1

 SCF Done:  E(RHF) =  -581.025842466     A.U. after   15 cycles
 Normal termination of Gaussian 16 at Wed Apr  9 00:41:37 2025.
 Gaussian 16:  ES64L-G16RevC.01  3-Jul-2019

 ----------------------------------------------------------------------
 #t hf aug-cc-pvdz iop(5/13=1,5/36=2,99/5=2) pseudo=read geom=check gue
 ss=(read,tcheck) scf=(maxcycle=1)
 ----------------------------------------------------------------------
 -----
 title
 -----
 Structure from the checkpoint file:  "BDE49_nonexpt_673_mol1.chk"
 Charge =  0 Multiplicity = 1

                         Standard orientation:
 ---------------------------------------------------------------------
 Center     Atomic      Atomic             Coordinates (Angstroms)
 Number     Number       Type             X           Y           Z
 ---------------------------------------------------------------------
      1          8           0       -2.503835    0.103304   -0.671540
      2          8           0        1.072789    2.847743    0.477657
      3          8           0       -2.407480   -1.751752    0.724817
      4          8           0       -1.098409    2.373461   -0.225816
      5          6           0        0.654530    0.419545   -0.015247
      6          6           0        0.470680   -2.005063   -0.102181
      7          6           0        2.648479   -0.998210   -0.136410
      8          6           0        2.049799    0.254871   -0.051095
      9          6           0        1.853649   -2.138897   -0.166617
     10          6           0       -0.157330   -0.747173   -0.036222
     11          5           0       -1.724561   -0.792953    0.026437
     12          5           0        0.146646    1.918353    0.074290
     13          1           0       -0.137230   -2.905449   -0.132501
     14          1           0        3.729093   -1.082724   -0.176042
     15          1           0        2.672426    1.140390   -0.009958
     16          1           0        2.303298   -3.123344   -0.236411
     17          1           0       -3.445227   -0.051184   -0.530202
     18          1           0       -1.836238   -2.315281    1.253809
     19          1           0       -1.708465    1.687295   -0.539259
     20          1           0        0.688548    3.730798    0.472616
 ---------------------------------------------------------------------

 SCF Done:  E(RHF) =  -581.211438374     A.U. after    2 cycles

 The electronic state is 1-A.
 Alpha  occ. eigenvalues --  -20.60218 -20.59701 -20.56688 -20.56025 -11.25536
 Alpha  occ. eigenvalues --  -11.25380 -11.25063 -11.24558 -11.24103 -11.23483
 Alpha  occ. eigenvalues --   -7.67718  -7.64915  -1.36583  -1.33198  -1.32418
 Alpha  occ. eigenvalues --   -1.29030  -1.14249  -1.01442  -1.01176  -0.84471
 Alpha  occ. eigenvalues --   -0.82982  -0.79704  -0.77795  -0.76420  -0.73679
 Alpha  occ. eigenvalues --   -0.69929  -0.65814  -0.63574  -0.63041  -0.61341
 Alpha  occ. eigenvalues --   -0.60690  -0.60286  -0.57814  -0.57279  -0.56119
 Alpha  occ. eigenvalues --   -0.54647  -0.53949  -0.50631  -0.50474  -0.48612
 Alpha  occ. eigenvalues --   -0.46429  -0.34748  -0.34421
 Alpha virt. eigenvalues --    0.02812   0.03784   0.04210   0.04960   0.05307
 Alpha virt. eigenvalues --    0.05832   0.06733   0.07116   0.07327   0.07747
 Alpha virt. eigenvalues --    0.07891   0.08352   0.09329   0.09889   0.10317

 Mulliken charges:
               1
     1  O   -0.674520
     2  O   -0.547946
     3  O   -0.507671
     4  O   -0.511688
     5  C    0.124027
     6  C    0.720363
     7  C    0.571574
     8  C    0.462294
     9  C    0.510149
    10  C   -0.128444
    11  B    0.662673
    12  B    0.669667
    13  H   -0.742247
    14  H   -0.437031
    15  H   -0.674292
    16  H   -0.443869
    17  H    0.223200
    18  H    0.216572
    19  H    0.299027
    20  H    0.208160
 Sum of Mulliken charges =  -0.00000

 Dipole moment (field-independent basis, Debye):
    X=             -0.5185    Y=             -2.3552    Z=              0.4104  Tot=              2.4463

 Test job not archived.
 1\1\GINC-SE127\SP\RHF\Aug-CC-pVDZ\C6H8B2O4\OHZDE\09-Apr-2025\0\\#t hf
 aug-cc-pvdz iop(5/13=1,5/36=2,99/5=2) pseudo=read geom=check guess=(re
 ad,tcheck) scf=(maxcycle=1)\\title\\0,1\O,0,-2.503835,0.103299,-0.6715
 4\O,0,1.072784,2.847745,0.477657\O,0,-2.407477,-1.751756,0.724817\O,0,
 -1.098413,2.373459,-0.225816\C,0,0.654529,0.419546,-0.015247\C,0,0.470
 684,-2.005062,-0.102181\C,0,2.648481,-0.998205,-0.13641\C,0,2.049799,0
 .254875,-0.051095\C,0,1.853653,-2.138894,-0.166617\C,0,-0.157329,-0.74
 7173,-0.036222\B,0,-1.72456,-0.792956,0.026437\B,0,0.146643,1.918353,0

 Normal termination of Gaussian 16 at Wed Apr  9 00:41:52 2025.
