 Gaussian 16, Revision C.01,

 ----------------------------------------------------------------------
 #t hf aug-cc-pvdz symm=none int=(grid=ultrafine) guess=(read,tcheck) s
 table=(opt,rrhf)
 ----------------------------------------------------------------------
 -----
 title
 -----
 Symbolic Z-matrix:
 Charge =  0 Multiplicity = 1

 SCF Done:  E(RHF) =  -780.561111339     A.U. after   12 cycles
 Normal termination of Gaussian 16 at Tue Apr  8 23:56:20 2025.
 Gaussian 16:  ES64L-G16RevC.01  3-Jul-2019

 ----------------------------------------------------------------------
 #t hf aug-cc-pvdz iop(5/13=1,5/36=2,99/5=2) pseudo=read geom=check gue
 ss=(read,tcheck) scf=(maxcycle=1)
 ----------------------------------------------------------------------
 -----
 title
 -----
 Structure from the checkpoint file:  "BDE49_nonexpt_2053_mol1.chk"
 Charge =  0 Multiplicity = 1

                         Standard orientation:
 ---------------------------------------------------------------------
 Center     Atomic      Atomic             Coordinates (Angstroms)
 Number     Number       Type             X           Y           Z
 ---------------------------------------------------------------------
      1         14           0       -2.172662    0.000002    0.000003
      2          7           0       -0.452849   -0.000002   -0.000007
      3          6           0        0.738682   -0.000013   -0.000014
      4         16           0        2.317535    0.000003    0.000005
      5          1           0       -2.641801    1.389720   -0.163567
      6          1           0       -2.641813   -0.553196    1.285315
      7          1           0       -2.641829   -0.836514   -1.121731
 ---------------------------------------------------------------------

 SCF Done:  E(RHF) =  -780.638828990     A.U. after    2 cycles

 The electronic state is 1-A.
 Alpha  occ. eigenvalues --  -93.53680 -69.12299 -15.66438 -11.39837  -8.83621
 Alpha  occ. eigenvalues --   -6.87173  -6.17938  -6.17229  -6.17229  -3.98141
 Alpha  occ. eigenvalues --   -3.97907  -3.97907  -1.24407  -1.02781  -0.83554
 Alpha  occ. eigenvalues --   -0.64969  -0.59174  -0.58465  -0.58465  -0.50209
 Alpha  occ. eigenvalues --   -0.50209  -0.36710  -0.36710
 Alpha virt. eigenvalues --    0.03085   0.04578   0.05268   0.05268   0.07789
 Alpha virt. eigenvalues --    0.08237   0.08237   0.10960   0.10960   0.12668
 Alpha virt. eigenvalues --    0.13617   0.13617   0.13758   0.14316   0.15970

 Mulliken charges:
               1
     1  Si   0.715333
     2  N   -0.348011
     3  C   -0.402628
     4  S    0.184232
     5  H   -0.049641
     6  H   -0.049641
     7  H   -0.049644
 Sum of Mulliken charges =  -0.00000

 Dipole moment (field-independent basis, Debye):
    X=             -2.6847    Y=             -0.0000    Z=              0.0000  Tot=              2.6847

 Test job not archived.
 1\1\GINC-SE460\SP\RHF\Aug-CC-pVDZ\C1H3N1S1Si1\OHZDE\08-Apr-2025\0\\#t
 hf aug-cc-pvdz iop(5/13=1,5/36=2,99/5=2) pseudo=read geom=check guess=
 (read,tcheck) scf=(maxcycle=1)\\title\\0,1\Si,0,2.172662,0.000002,-0.0
 00003\N,0,0.452849,-0.000002,0.000007\C,0,-0.738682,-0.000013,0.000014
 \S,0,-2.317535,0.000003,-0.000005\H,0,2.641801,1.38574,0.194425\H,0,2.
 641813,-0.524483,-1.297296\H,0,2.641829,-0.861247,1.102856\\Version=ES
 64L-G16RevC.01\State=1-A\HF=-780.638829\RMSD=8.411e-03\Dipole=1.056226
 4,-0.0000031,-0.0000005\Quadrupole=0.7402061,-0.370105,-0.3701011,-0.0

 Normal termination of Gaussian 16 at Tue Apr  8 23:56:22 2025.
