 Gaussian 16, Revision C.01,

 ----------------------------------------------------------------------
 #t hf aug-cc-pvdz symm=none int=(grid=ultrafine) guess=(read,tcheck) s
 table=(opt,rrhf)
 ----------------------------------------------------------------------
 -----
 title
 -----
 Symbolic Z-matrix:
 Charge =  0 Multiplicity = 1

 SCF Done:  E(RHF) =  -1465.04616151     A.U. after   13 cycles
 Normal termination of Gaussian 16 at Tue Apr  8 23:35:08 2025.
 Gaussian 16:  ES64L-G16RevC.01  3-Jul-2019

 ----------------------------------------------------------------------
 #t hf aug-cc-pvdz iop(5/13=1,5/36=2,99/5=2) pseudo=read geom=check gue
 ss=(read,tcheck) scf=(maxcycle=1)
 ----------------------------------------------------------------------
 -----
 title
 -----
 Structure from the checkpoint file:  "BDE49_nonexpt_1513_mol1.chk"
 Charge =  0 Multiplicity = 1

                         Standard orientation:
 ---------------------------------------------------------------------
 Center     Atomic      Atomic             Coordinates (Angstroms)
 Number     Number       Type             X           Y           Z
 ---------------------------------------------------------------------
      1         15           0        0.218944    0.112645   -0.813622
      2          7           0       -1.095060   -0.796029   -0.108197
      3          8           0       -1.117730   -0.851117    1.294967
      4          8           0       -2.264085   -0.109972   -0.555689
      5         17           0        0.318162    1.851400    0.360944
      6         17           0        1.768869   -1.017357    0.021007
      7          1           0       -2.808604   -0.816081   -0.926461
      8          1           0       -1.235125   -1.791413    1.480784
 ---------------------------------------------------------------------

 SCF Done:  E(RHF) =  -1465.17300500     A.U. after    2 cycles

 The electronic state is 1-A.
 Alpha  occ. eigenvalues -- -103.67598-103.66885 -81.40152 -20.65012 -20.64602
 Alpha  occ. eigenvalues --  -15.77249 -10.70964 -10.70232  -8.36663  -8.36373
 Alpha  occ. eigenvalues --   -8.36359  -8.35929  -8.35639  -8.35625  -7.89274
 Alpha  occ. eigenvalues --   -5.03042  -5.02873  -5.02573  -1.44913  -1.34751
 Alpha  occ. eigenvalues --   -1.17270  -1.13906  -1.04921  -0.79785  -0.76070
 Alpha  occ. eigenvalues --   -0.75213  -0.67176  -0.65503  -0.58007  -0.55903
 Alpha  occ. eigenvalues --   -0.55257  -0.52333  -0.49691  -0.48971  -0.46823
 Alpha  occ. eigenvalues --   -0.44393  -0.39811
 Alpha virt. eigenvalues --    0.02754   0.04390   0.06517   0.07334   0.08182
 Alpha virt. eigenvalues --    0.10756   0.11421   0.12649   0.13083   0.14649
 Alpha virt. eigenvalues --    0.15116   0.16374   0.16796   0.17329   0.18455

 Mulliken charges:
               1
     1  P    1.231432
     2  N    0.000029
     3  O   -0.420915
     4  O   -0.415347
     5  Cl  -0.415390
     6  Cl  -0.402636
     7  H    0.211947
     8  H    0.210881
 Sum of Mulliken charges =   0.00000

 Dipole moment (field-independent basis, Debye):
    X=             -1.9090    Y=             -2.9991    Z=             -1.1502  Tot=              3.7366

 Test job not archived.
 1\1\GINC-SE179\SP\RHF\Aug-CC-pVDZ\Cl2H2N1O2P1\OHZDE\08-Apr-2025\0\\#t
 hf aug-cc-pvdz iop(5/13=1,5/36=2,99/5=2) pseudo=read geom=check guess=
 (read,tcheck) scf=(maxcycle=1)\\title\\0,1\P,0,0.218944,0.112645,-0.81
 3622\N,0,-1.09506,-0.796029,-0.108197\O,0,-1.11773,-0.851117,1.294967\
 O,0,-2.264085,-0.109972,-0.555689\Cl,0,0.318162,1.8514,0.360944\Cl,0,1
 .768869,-1.017357,0.021007\H,0,-2.808604,-0.816081,-0.926461\H,0,-1.23
 5125,-1.791413,1.480784\\Version=ES64L-G16RevC.01\State=1-A\HF=-1465.1
 73005\RMSD=4.178e-03\Dipole=-0.7510471,-1.1799461,-0.4525188\Quadrupol

 Normal termination of Gaussian 16 at Tue Apr  8 23:35:11 2025.
