 Gaussian 16, Revision C.01,

 ----------------------------------------------------------------------
 #t hf aug-cc-pvdz symm=none int=(grid=ultrafine) guess=(read,tcheck) s
 table=(opt,rrhf)
 ----------------------------------------------------------------------
 -----
 title
 -----
 Symbolic Z-matrix:
 Charge =  0 Multiplicity = 1

 SCF Done:  E(RHF) =  -351.477836727     A.U. after   12 cycles
 Normal termination of Gaussian 16 at Wed Apr  9 00:33:19 2025.
 Gaussian 16:  ES64L-G16RevC.01  3-Jul-2019

 ----------------------------------------------------------------------
 #t hf aug-cc-pvdz iop(5/13=1,5/36=2,99/5=2) pseudo=read geom=check gue
 ss=(read,tcheck) scf=(maxcycle=1)
 ----------------------------------------------------------------------
 -----
 title
 -----
 Structure from the checkpoint file:  "BDE49_nonexpt_441_mol1.chk"
 Charge =  0 Multiplicity = 1

                         Standard orientation:
 ---------------------------------------------------------------------
 Center     Atomic      Atomic             Coordinates (Angstroms)
 Number     Number       Type             X           Y           Z
 ---------------------------------------------------------------------
      1          9           0        2.410098    0.000000   -0.097316
      2          7           0        0.354814   -1.224767    0.040960
      3          7           0        0.354814    1.224767    0.040961
      4          6           0       -1.095244   -1.273061    0.193902
      5          6           0       -1.724991   -0.000000   -0.384547
      6          6           0       -1.095244    1.273061    0.193901
      7          5           0        1.056930    0.000000   -0.002994
      8          1           0        0.848811   -2.101453    0.059316
      9          1           0        0.848811    2.101453    0.059319
     10          1           0       -1.497673    2.144760   -0.332571
     11          1           0       -1.382954    1.378237    1.250715
     12          1           0       -2.800967   -0.000000   -0.186656
     13          1           0       -1.585456   -0.000001   -1.470433
     14          1           0       -1.382952   -1.378235    1.250716
     15          1           0       -1.497674   -2.144760   -0.332568
 ---------------------------------------------------------------------

 SCF Done:  E(RHF) =  -351.596719028     A.U. after    2 cycles

 The electronic state is 1-A.
 Alpha  occ. eigenvalues --  -26.08873 -15.59904 -15.59902 -11.27018 -11.27012
 Alpha  occ. eigenvalues --  -11.23765  -7.65432  -1.62451  -1.18225  -1.12572
 Alpha  occ. eigenvalues --   -1.01280  -0.89536  -0.82313  -0.76833  -0.73137
 Alpha  occ. eigenvalues --   -0.71267  -0.70280  -0.65156  -0.62195  -0.59104
 Alpha  occ. eigenvalues --   -0.58812  -0.57837  -0.52275  -0.50712  -0.47214
 Alpha  occ. eigenvalues --   -0.41367  -0.35510
 Alpha virt. eigenvalues --    0.03178   0.03965   0.04318   0.04528   0.06713
 Alpha virt. eigenvalues --    0.06756   0.07187   0.07248   0.07922   0.09326
 Alpha virt. eigenvalues --    0.09858   0.11575   0.13572   0.13871   0.14710

 Mulliken charges:
               1
     1  F   -0.471946
     2  N   -0.320441
     3  N   -0.320441
     4  C    0.769840
     5  C   -0.041389
     6  C    0.769837
     7  B    0.637983
     8  H   -0.137413
     9  H   -0.137413
    10  H   -0.162327
    11  H   -0.122428
    12  H   -0.061997
    13  H   -0.117108
    14  H   -0.122430
    15  H   -0.162329
 Sum of Mulliken charges =  -0.00000

 Dipole moment (field-independent basis, Debye):
    X=             -2.6577    Y=             -0.0000    Z=              0.3145  Tot=              2.6762

 Test job not archived.
 1\1\GINC-SE455\SP\RHF\Aug-CC-pVDZ\C3H8B1F1N2\OHZDE\09-Apr-2025\0\\#t h
 f aug-cc-pvdz iop(5/13=1,5/36=2,99/5=2) pseudo=read geom=check guess=(
 read,tcheck) scf=(maxcycle=1)\\title\\0,1\F,0,-2.410098,0.,-0.097316\N
 ,0,-0.354814,1.224767,0.04096\N,0,-0.354814,-1.224767,0.040961\C,0,1.0
 95244,1.273061,0.193902\C,0,1.724991,0.,-0.384547\C,0,1.095244,-1.2730
 61,0.193901\B,0,-1.05693,0.,-0.002994\H,0,-0.848811,2.101453,0.059316\
 H,0,-0.848811,-2.101453,0.059319\H,0,1.497673,-2.14476,-0.332571\H,0,1
 .382954,-1.378237,1.250715\H,0,2.800967,0.,-0.186656\H,0,1.585456,0.00

 Normal termination of Gaussian 16 at Wed Apr  9 00:33:23 2025.
