 Gaussian 16, Revision C.01,

 ----------------------------------------------------------------------
 #t hf aug-cc-pvdz symm=none int=(grid=ultrafine) guess=(read,tcheck) s
 table=(opt,rrhf)
 ----------------------------------------------------------------------
 -----
 title
 -----
 Symbolic Z-matrix:
 Charge =  0 Multiplicity = 1

 SCF Done:  E(RHF) =  -251.641899700     A.U. after   14 cycles
 Normal termination of Gaussian 16 at Tue Apr  8 23:18:49 2025.
 Gaussian 16:  ES64L-G16RevC.01  3-Jul-2019

 ----------------------------------------------------------------------
 #t hf aug-cc-pvdz iop(5/13=1,5/36=2,99/5=2) pseudo=read geom=check gue
 ss=(read,tcheck) scf=(maxcycle=1)
 ----------------------------------------------------------------------
 -----
 title
 -----
 Structure from the checkpoint file:  "BDE49_nonexpt_1136_mol1.chk"
 Charge =  0 Multiplicity = 1

                         Standard orientation:
 ---------------------------------------------------------------------
 Center     Atomic      Atomic             Coordinates (Angstroms)
 Number     Number       Type             X           Y           Z
 ---------------------------------------------------------------------
      1          9           0       -0.362262   -1.371192    0.000000
      2          8           0       -0.977924   -0.074120    0.000000
      3          6           0        0.000000    0.883695    0.000000
      4          6           0        1.315073    0.736078    0.000000
      5          1           0       -0.527140    1.834286    0.000000
      6          1           0        1.781386   -0.237383    0.000000
      7          1           0        1.939068    1.618146    0.000000
 ---------------------------------------------------------------------

 SCF Done:  E(RHF) =  -251.728176413     A.U. after    2 cycles

 The electronic state is 1-A'.
 Alpha  occ. eigenvalues --  -26.17884 -20.72580 -11.33610 -11.25264  -1.68452
 Alpha  occ. eigenvalues --   -1.35881  -1.04487  -0.85834  -0.79190  -0.78668
 Alpha  occ. eigenvalues --   -0.72035  -0.66872  -0.62136  -0.61283  -0.56958
 Alpha  occ. eigenvalues --   -0.38828
 Alpha virt. eigenvalues --    0.03435   0.04652   0.05696   0.09490   0.10327
 Alpha virt. eigenvalues --    0.11101   0.11199   0.13166   0.14462   0.16619
 Alpha virt. eigenvalues --    0.18405   0.19404   0.21622   0.22711   0.24781

 Mulliken charges:
               1
     1  F   -0.343688
     2  O   -0.107819
     3  C    0.578314
     4  C    0.572998
     5  H   -0.253790
     6  H   -0.204926
     7  H   -0.241087
 Sum of Mulliken charges =  -0.00000

 Dipole moment (field-independent basis, Debye):
    X=              0.8500    Y=              2.2423    Z=              0.0000  Tot=              2.3980

 Test job not archived.
 1\1\GINC-SE435\SP\RHF\Aug-CC-pVDZ\C2H3F1O1\OHZDE\08-Apr-2025\0\\#t hf
 aug-cc-pvdz iop(5/13=1,5/36=2,99/5=2) pseudo=read geom=check guess=(re
 ad,tcheck) scf=(maxcycle=1)\\title\\0,1\F,0,-0.362262,-1.371192,0.\O,0
 ,-0.977924,-0.07412,0.\C,0,0.,0.883695,0.\C,0,1.315073,0.736078,0.\H,0
 ,-0.52714,1.834286,0.\H,0,1.781386,-0.237383,0.\H,0,1.939068,1.618146,
 0.\\Version=ES64L-G16RevC.01\State=1-A'\HF=-251.7281764\RMSD=6.149e-03
 \Dipole=0.3344343,0.8821904,0.\Quadrupole=0.6759587,1.0504326,-1.72639
 13,-0.9522341,0.,0.\PG=CS [SG(C2H3F1O1)]\\@

 Normal termination of Gaussian 16 at Tue Apr  8 23:18:51 2025.
