 Gaussian 16, Revision C.01,

 ----------------------------------------------------------------------
 #t hf aug-cc-pvdz symm=none int=(grid=ultrafine) guess=(read,tcheck) s
 table=(opt,rrhf)
 ----------------------------------------------------------------------
 -----
 title
 -----
 Symbolic Z-matrix:
 Charge =  0 Multiplicity = 1

 SCF Done:  E(RHF) =  -1283.99325188     A.U. after   14 cycles
 Normal termination of Gaussian 16 at Tue Apr  8 23:14:48 2025.
 Gaussian 16:  ES64L-G16RevC.01  3-Jul-2019

 ----------------------------------------------------------------------
 #t hf aug-cc-pvdz iop(5/13=1,5/36=2,99/5=2) pseudo=read geom=check gue
 ss=(read,tcheck) scf=(maxcycle=1)
 ----------------------------------------------------------------------
 -----
 title
 -----
 Structure from the checkpoint file:  "BDE49_nonexpt_1026_mol1.chk"
 Charge =  0 Multiplicity = 1

                         Standard orientation:
 ---------------------------------------------------------------------
 Center     Atomic      Atomic             Coordinates (Angstroms)
 Number     Number       Type             X           Y           Z
 ---------------------------------------------------------------------
      1         17           0        1.942223   -0.526771    0.107138
      2          8           0        0.908707    0.682260   -0.561947
      3         14           0       -0.564311    0.899645    0.196525
      4         17           0       -1.816969   -0.719968   -0.070010
      5          1           0       -0.394248    1.085927    1.643395
      6          1           0       -1.104376    2.055526   -0.530350
 ---------------------------------------------------------------------

 SCF Done:  E(RHF) =  -1284.08768906     A.U. after    2 cycles

 The electronic state is 1-A.
 Alpha  occ. eigenvalues -- -103.73461-103.66610 -69.16324 -20.65365 -10.76094
 Alpha  occ. eigenvalues --  -10.70095  -8.41860  -8.41428  -8.41405  -8.35785
 Alpha  occ. eigenvalues --   -8.35558  -8.35548  -6.90729  -4.01651  -4.01532
 Alpha  occ. eigenvalues --   -4.01423  -1.36863  -1.15200  -1.11188  -0.75525
 Alpha  occ. eigenvalues --   -0.65084  -0.64532  -0.63959  -0.54122  -0.53960
 Alpha  occ. eigenvalues --   -0.49396  -0.48653  -0.47463  -0.47225
 Alpha virt. eigenvalues --    0.03636   0.04475   0.05472   0.05590   0.06397
 Alpha virt. eigenvalues --    0.09373   0.10582   0.13110   0.14153   0.14984
 Alpha virt. eigenvalues --    0.15576   0.15927   0.16424   0.17589   0.18913

 Mulliken charges:
               1
     1  Cl   0.298309
     2  O   -0.913397
     3  Si   1.178979
     4  Cl  -0.478406
     5  H   -0.045924
     6  H   -0.039562
 Sum of Mulliken charges =   0.00000

 Dipole moment (field-independent basis, Debye):
    X=             -0.0540    Y=              0.9796    Z=              1.0563  Tot=              1.4416

 Test job not archived.
 1\1\GINC-SE393\SP\RHF\Aug-CC-pVDZ\Cl2H2O1Si1\OHZDE\08-Apr-2025\0\\#t h
 f aug-cc-pvdz iop(5/13=1,5/36=2,99/5=2) pseudo=read geom=check guess=(
 read,tcheck) scf=(maxcycle=1)\\title\\0,1\Cl,0,1.942223,-0.526771,0.10
 7138\O,0,0.908707,0.68226,-0.561947\Si,0,-0.564311,0.899645,0.196525\C
 l,0,-1.816969,-0.719968,-0.07001\H,0,-0.394248,1.085927,1.643395\H,0,-
 1.104376,2.055526,-0.53035\\Version=ES64L-G16RevC.01\State=1-A\HF=-128
 4.0876891\RMSD=4.083e-03\Dipole=-0.0212262,0.3853848,0.4155961\Quadrup
 ole=-0.8302714,1.234599,-0.4043276,-2.4978342,0.6744662,0.4603586\PG=C

 Normal termination of Gaussian 16 at Tue Apr  8 23:14:51 2025.
