 Gaussian 16, Revision C.01,

 ----------------------------------------------------------------------
 #t hf aug-cc-pvdz symm=none int=(grid=ultrafine) guess=(read,tcheck) s
 table=(opt,rrhf)
 ----------------------------------------------------------------------
 -----
 title
 -----
 Symbolic Z-matrix:
 Charge =  0 Multiplicity = 1

 SCF Done:  E(RHF) =  -404.459937219     A.U. after   15 cycles
 Normal termination of Gaussian 16 at Tue Apr  8 23:09:12 2025.
 Gaussian 16:  ES64L-G16RevC.01  3-Jul-2019

 ----------------------------------------------------------------------
 #t hf aug-cc-pvdz iop(5/13=1,5/36=2,99/5=2) pseudo=read geom=check gue
 ss=(read,tcheck) scf=(maxcycle=1)
 ----------------------------------------------------------------------
 -----
 title
 -----
 Structure from the checkpoint file:  "BDE49_expt_723_mol1.chk"
 Charge =  0 Multiplicity = 1

                         Standard orientation:
 ---------------------------------------------------------------------
 Center     Atomic      Atomic             Coordinates (Angstroms)
 Number     Number       Type             X           Y           Z
 ---------------------------------------------------------------------
      1          6           0       -1.914514   -0.610023    0.000001
      2          6           0       -0.741552   -1.366253    0.000000
      3          6           0        0.484881   -0.728596    0.000000
      4          6           0       -1.835937    0.778577    0.000000
      5          6           0       -0.593617    1.412347    0.000000
      6          6           0        0.585187    0.667161    0.000000
      7          1           0       -2.738870    1.377398    0.000000
      8          1           0       -0.532757    2.496837    0.000000
      9          8           0        1.832962    1.211323   -0.000001
     10          1           0        1.755980    2.170799   -0.000001
     11          1           0       -2.876417   -1.107456    0.000001
     12          9           0        1.620257   -1.455348    0.000000
     13          1           0       -0.760631   -2.449308    0.000001
 ---------------------------------------------------------------------

 SCF Done:  E(RHF) =  -404.588004999     A.U. after    2 cycles

 The electronic state is 1-A.
 Alpha  occ. eigenvalues --  -26.13247 -20.61711 -11.33744 -11.32833 -11.26086
 Alpha  occ. eigenvalues --  -11.26033 -11.25913 -11.25368  -1.67096  -1.38098
 Alpha  occ. eigenvalues --   -1.15645  -1.03199  -1.02037  -0.88342  -0.86402
 Alpha  occ. eigenvalues --   -0.77286  -0.75897  -0.74824  -0.74446  -0.66942
 Alpha  occ. eigenvalues --   -0.64777  -0.62393  -0.61615  -0.59572  -0.54095
 Alpha  occ. eigenvalues --   -0.52657  -0.50230  -0.35674  -0.33283
 Alpha virt. eigenvalues --    0.02895   0.03699   0.04451   0.05804   0.06727
 Alpha virt. eigenvalues --    0.09522   0.10122   0.11299   0.11974   0.12281
 Alpha virt. eigenvalues --    0.13120   0.13863   0.14250   0.14376   0.14428

 Mulliken charges:
               1
     1  C    0.531830
     2  C    0.487387
     3  C    0.176520
     4  C    0.306141
     5  C    0.653386
     6  C    0.431570
     7  H   -0.419191
     8  H   -0.572617
     9  O   -0.578682
    10  H    0.129588
    11  H   -0.423120
    12  F   -0.288223
    13  H   -0.434590
 Sum of Mulliken charges =  -0.00000

 Dipole moment (field-independent basis, Debye):
    X=             -2.5596    Y=              2.2616    Z=              0.0000  Tot=              3.4157

 Test job not archived.
 1\1\GINC-SE253\SP\RHF\Aug-CC-pVDZ\C6H5F1O1\OHZDE\08-Apr-2025\0\\#t hf
 aug-cc-pvdz iop(5/13=1,5/36=2,99/5=2) pseudo=read geom=check guess=(re
 ad,tcheck) scf=(maxcycle=1)\\title\\0,1\C,0,-1.914514,-0.610024,0.0000
 01\C,0,-0.741551,-1.366253,0.\C,0,0.484881,-0.728596,0.\C,0,-1.835937,
 0.778576,0.\C,0,-0.593618,1.412347,0.\C,0,0.585187,0.667161,0.\H,0,-2.
 738871,1.377397,0.\H,0,-0.532758,2.496837,0.\O,0,1.832961,1.211324,-0.
 000001\H,0,1.755979,2.1708,-0.000001\H,0,-2.876416,-1.107457,0.000001\
 F,0,1.620258,-1.455347,0.\H,0,-0.76063,-2.449308,0.000001\\Version=ES6

 Normal termination of Gaussian 16 at Tue Apr  8 23:09:17 2025.
