 Gaussian 16, Revision C.01,

 ----------------------------------------------------------------------
 #t hf aug-cc-pvdz symm=none int=(grid=ultrafine) guess=(read,tcheck) s
 table=(opt,rrhf)
 ----------------------------------------------------------------------
 -----
 title
 -----
 Symbolic Z-matrix:
 Charge =  0 Multiplicity = 1

 SCF Done:  E(RHF) =  -1067.95672052     A.U. after   15 cycles
 Normal termination of Gaussian 16 at Tue Apr  8 23:41:12 2025.
 Gaussian 16:  ES64L-G16RevC.01  3-Jul-2019

 ----------------------------------------------------------------------
 #t hf aug-cc-pvdz iop(5/13=1,5/36=2,99/5=2) pseudo=read geom=check gue
 ss=(read,tcheck) scf=(maxcycle=1)
 ----------------------------------------------------------------------
 -----
 title
 -----
 Structure from the checkpoint file:  "BDE49_nonexpt_1669_mol1.chk"
 Charge =  0 Multiplicity = 1

                         Standard orientation:
 ---------------------------------------------------------------------
 Center     Atomic      Atomic             Coordinates (Angstroms)
 Number     Number       Type             X           Y           Z
 ---------------------------------------------------------------------
      1         14           0       -1.704626   -0.785274    0.068763
      2         15           0       -0.549416    1.157758   -0.243846
      3          6           0        1.113798    0.707315    0.308703
      4         16           0        1.918074   -0.655033   -0.080433
      5          1           0        1.626135    1.494883    0.867591
      6          1           0       -0.971824    1.872295    0.904903
      7          1           0       -1.547146   -1.632392   -1.128305
      8          1           0       -3.121386   -0.373378    0.203633
      9          1           0       -1.251732   -1.497307    1.281901
 ---------------------------------------------------------------------

 SCF Done:  E(RHF) =  -1068.02753461     A.U. after    2 cycles

 The electronic state is 1-A.
 Alpha  occ. eigenvalues --  -93.52985 -81.27343 -69.08888 -11.33906  -8.82832
 Alpha  occ. eigenvalues --   -7.77982  -6.84119  -6.16945  -6.16634  -6.16368
 Alpha  occ. eigenvalues --   -4.91977  -4.91867  -4.91611  -3.94894  -3.94850
 Alpha  occ. eigenvalues --   -3.94830  -1.05773  -0.85392  -0.76079  -0.68500
 Alpha  occ. eigenvalues --   -0.60352  -0.52519  -0.51023  -0.49431  -0.45663
 Alpha  occ. eigenvalues --   -0.44182  -0.34986  -0.33488
 Alpha virt. eigenvalues --    0.02704   0.03384   0.04263   0.05555   0.06056
 Alpha virt. eigenvalues --    0.07092   0.07814   0.08762   0.09047   0.09922
 Alpha virt. eigenvalues --    0.10353   0.10984   0.12926   0.14633   0.14837

 Mulliken charges:
               1
     1  Si   0.309399
     2  P   -0.138148
     3  C   -0.157531
     4  S    0.077278
     5  H   -0.275700
     6  H    0.183452
     7  H    0.000271
     8  H   -0.018062
     9  H    0.019042
 Sum of Mulliken charges =   0.00000

 Dipole moment (field-independent basis, Debye):
    X=             -1.6880    Y=              1.2709    Z=              1.0024  Tot=              2.3387

 Test job not archived.
 1\1\GINC-SE125\SP\RHF\Aug-CC-pVDZ\C1H5P1S1Si1\OHZDE\08-Apr-2025\0\\#t
 hf aug-cc-pvdz iop(5/13=1,5/36=2,99/5=2) pseudo=read geom=check guess=
 (read,tcheck) scf=(maxcycle=1)\\title\\0,1\Si,0,-1.704626,-0.785275,0.
 068763\P,0,-0.549417,1.157758,-0.243846\C,0,1.113798,0.707315,0.308703
 \S,0,1.918074,-0.655032,-0.080433\H,0,1.626134,1.494884,0.867591\H,0,-
 0.971825,1.872295,0.904903\H,0,-1.547145,-1.632393,-1.128305\H,0,-3.12
 1386,-0.373379,0.203633\H,0,-1.251731,-1.497308,1.281901\\Version=ES64
 L-G16RevC.01\State=1-A\HF=-1068.0275346\RMSD=9.811e-03\Dipole=-0.66411

 Normal termination of Gaussian 16 at Tue Apr  8 23:41:16 2025.
