 Gaussian 16, Revision C.01,

 ----------------------------------------------------------------------
 #t hf aug-cc-pvdz symm=none int=(grid=ultrafine) guess=(read,tcheck) s
 table=(opt,rrhf)
 ----------------------------------------------------------------------
 -----
 title
 -----
 Symbolic Z-matrix:
 Charge =  0 Multiplicity = 1

 SCF Done:  E(RHF) =  -986.784054919     A.U. after   15 cycles
 Normal termination of Gaussian 16 at Wed Apr  9 00:20:39 2025.
 Gaussian 16:  ES64L-G16RevC.01  3-Jul-2019

 ----------------------------------------------------------------------
 #t hf aug-cc-pvdz iop(5/13=1,5/36=2,99/5=2) pseudo=read geom=check gue
 ss=(read,tcheck) scf=(maxcycle=1)
 ----------------------------------------------------------------------
 -----
 title
 -----
 Structure from the checkpoint file:  "BDE49_nonexpt_2655_mol1.chk"
 Charge =  0 Multiplicity = 1

                         Standard orientation:
 ---------------------------------------------------------------------
 Center     Atomic      Atomic             Coordinates (Angstroms)
 Number     Number       Type             X           Y           Z
 ---------------------------------------------------------------------
      1          9           0        1.852636    0.878088   -0.607654
      2         16           0        1.184241   -0.088444    0.578946
      3          6           0       -1.704508    0.228027   -0.003273
      4          7           0       -2.597236    0.943459    0.171269
      5         16           0       -0.450868   -0.903754   -0.310843
 ---------------------------------------------------------------------

 SCF Done:  E(RHF) =  -986.892617406     A.U. after    2 cycles

 The electronic state is 1-A.
 Alpha  occ. eigenvalues --  -93.69000 -93.65927 -26.16348 -15.68086 -11.33460
 Alpha  occ. eigenvalues --   -8.97672  -8.95415  -6.31760  -6.31436  -6.30955
 Alpha  occ. eigenvalues --   -6.29546  -6.29249  -6.28889  -1.67356  -1.22788
 Alpha  occ. eigenvalues --   -1.12110  -0.96070  -0.77658  -0.76630  -0.74878
 Alpha  occ. eigenvalues --   -0.66282  -0.57716  -0.56563  -0.55096  -0.48070
 Alpha  occ. eigenvalues --   -0.43929  -0.43450
 Alpha virt. eigenvalues --    0.03014   0.03725   0.05306   0.08106   0.08918
 Alpha virt. eigenvalues --    0.10476   0.10755   0.12005   0.12382   0.13637
 Alpha virt. eigenvalues --    0.14151   0.14711   0.16549   0.17037   0.18662

 Mulliken charges:
               1
     1  F   -0.571793
     2  S    0.627471
     3  C   -0.284816
     4  N   -0.158755
     5  S    0.387893
 Sum of Mulliken charges =  -0.00000

 Dipole moment (field-independent basis, Debye):
    X=              1.3550    Y=             -2.6968    Z=              0.7651  Tot=              3.1135

 Test job not archived.
 1\1\GINC-SE212\SP\RHF\Aug-CC-pVDZ\C1F1N1S2\OHZDE\09-Apr-2025\0\\#t hf
 aug-cc-pvdz iop(5/13=1,5/36=2,99/5=2) pseudo=read geom=check guess=(re
 ad,tcheck) scf=(maxcycle=1)\\title\\0,1\F,0,-1.852636,-0.878088,-0.607
 654\S,0,-1.184241,0.088444,0.578946\C,0,1.704508,-0.228027,-0.003273\N
 ,0,2.597236,-0.943459,0.171269\S,0,0.450868,0.903754,-0.310843\\Versio
 n=ES64L-G16RevC.01\State=1-A\HF=-986.8926174\RMSD=5.107e-03\Dipole=-0.
 5331088,1.0609934,0.3010276\Quadrupole=-3.8079605,1.1585768,2.6493837,
 2.1443869,-2.7250454,-0.495039\PG=C01 [X(C1F1N1S2)]\\@

 Normal termination of Gaussian 16 at Wed Apr  9 00:20:41 2025.
