 Gaussian 16, Revision C.01,

 ----------------------------------------------------------------------
 #t hf aug-cc-pvdz symm=none int=(grid=ultrafine) guess=(read,tcheck) s
 table=(opt,rrhf)
 ----------------------------------------------------------------------
 -----
 title
 -----
 Symbolic Z-matrix:
 Charge =  0 Multiplicity = 1

 SCF Done:  E(RHF) =  -1350.83751863     A.U. after   15 cycles
 Normal termination of Gaussian 16 at Tue Apr  8 23:52:59 2025.
 Gaussian 16:  ES64L-G16RevC.01  3-Jul-2019

 ----------------------------------------------------------------------
 #t hf aug-cc-pvdz iop(5/13=1,5/36=2,99/5=2) pseudo=read geom=check gue
 ss=(read,tcheck) scf=(maxcycle=1)
 ----------------------------------------------------------------------
 -----
 title
 -----
 Structure from the checkpoint file:  "BDE49_nonexpt_1942_mol1.chk"
 Charge =  0 Multiplicity = 1

                         Standard orientation:
 ---------------------------------------------------------------------
 Center     Atomic      Atomic             Coordinates (Angstroms)
 Number     Number       Type             X           Y           Z
 ---------------------------------------------------------------------
      1          6           0        1.130884   -1.034692    0.831976
      2         14           0       -0.571528   -1.235855   -0.055991
      3          6           0       -1.650960    0.324831    0.054516
      4          1           0       -1.253672   -2.340578    0.638633
      5          1           0       -0.316360   -1.563891   -1.473674
      6         16           0       -3.239793    0.035976   -0.223371
      7          8           0       -1.184303    1.536744    0.322350
      8          6           0        2.092999   -0.190028    0.070380
      9         16           0        1.962392    1.446064   -0.093311
     10          8           0        3.090282   -0.821022   -0.556666
     11          1           0       -0.194519    1.548631    0.345900
     12          1           0        3.077455   -1.765452   -0.350450
     13          1           0        1.526123   -2.039786    1.024198
     14          1           0        0.915416   -0.576033    1.799467
 ---------------------------------------------------------------------

 SCF Done:  E(RHF) =  -1350.97893933     A.U. after    2 cycles

 The electronic state is 1-A.
 Alpha  occ. eigenvalues --  -93.52851 -93.51023 -69.11518 -20.67736 -20.63359
 Alpha  occ. eigenvalues --  -11.43193 -11.37882 -11.29004  -8.82872  -8.80973
 Alpha  occ. eigenvalues --   -6.86650  -6.17093  -6.16637  -6.16517  -6.15139
 Alpha  occ. eigenvalues --   -6.14737  -6.14553  -3.97457  -3.97405  -3.97378
 Alpha  occ. eigenvalues --   -1.44778  -1.40106  -1.09984  -1.02950  -0.99286
 Alpha  occ. eigenvalues --   -0.85756  -0.81676  -0.78986  -0.75074  -0.68613
 Alpha  occ. eigenvalues --   -0.67652  -0.65641  -0.62393  -0.60441  -0.59098
 Alpha  occ. eigenvalues --   -0.54731  -0.51634  -0.51232  -0.48047  -0.39221
 Alpha  occ. eigenvalues --   -0.37692  -0.37427  -0.33870
 Alpha virt. eigenvalues --    0.01312   0.03424   0.04409   0.04633   0.05070
 Alpha virt. eigenvalues --    0.05780   0.06731   0.07178   0.07302   0.07691
 Alpha virt. eigenvalues --    0.08949   0.10189   0.10581   0.11599   0.12665

 Mulliken charges:
               1
     1  C    0.121836
     2  Si   0.587525
     3  C   -0.162355
     4  H    0.107165
     5  H    0.122457
     6  S   -0.015375
     7  O   -0.427267
     8  C    0.235377
     9  S   -0.037807
    10  O   -0.525326
    11  H    0.198723
    12  H    0.191087
    13  H   -0.307407
    14  H   -0.088633
 Sum of Mulliken charges =  -0.00000

 Dipole moment (field-independent basis, Debye):
    X=              3.8925    Y=             -5.0093    Z=              1.6816  Tot=              6.5629

 Test job not archived.
 1\1\GINC-SE396\SP\RHF\Aug-CC-pVDZ\C3H6O2S2Si1\OHZDE\08-Apr-2025\0\\#t
 hf aug-cc-pvdz iop(5/13=1,5/36=2,99/5=2) pseudo=read geom=check guess=
 (read,tcheck) scf=(maxcycle=1)\\title\\0,1\C,0,1.130884,-1.034692,0.83
 1976\Si,0,-0.571528,-1.235855,-0.055991\C,0,-1.65096,0.324831,0.054516
 \H,0,-1.253672,-2.340578,0.638633\H,0,-0.31636,-1.563891,-1.473674\S,0
 ,-3.239793,0.035976,-0.223371\O,0,-1.184303,1.536744,0.32235\C,0,2.092
 999,-0.190028,0.07038\S,0,1.962392,1.446064,-0.093311\O,0,3.090282,-0.
 821022,-0.556666\H,0,-0.194519,1.548631,0.3459\H,0,3.077455,-1.765452,

 Normal termination of Gaussian 16 at Tue Apr  8 23:53:05 2025.
