 Gaussian 16, Revision C.01,

 ----------------------------------------------------------------------
 #t hf aug-cc-pvdz symm=none int=(grid=ultrafine) guess=(read,tcheck) s
 table=opt
 ----------------------------------------------------------------------
 -----
 title
 -----
 Symbolic Z-matrix:
 Charge =  0 Multiplicity = 2

 SCF Done:  E(UHF) =  -312.342504853     A.U. after   21 cycles
 Normal termination of Gaussian 16 at Wed Apr  9 00:30:00 2025.
 Gaussian 16:  ES64L-G16RevC.01  3-Jul-2019

 ----------------------------------------------------------------------
 #t hf aug-cc-pvdz iop(5/13=1,5/36=2,99/5=2) pseudo=read geom=check gue
 ss=(read,tcheck) scf=(maxcycle=1)
 ----------------------------------------------------------------------
 -----
 title
 -----
 Structure from the checkpoint file:  "BDE49_nonexpt_377_mol2.chk"
 Charge =  0 Multiplicity = 2

                         Standard orientation:
 ---------------------------------------------------------------------
 Center     Atomic      Atomic             Coordinates (Angstroms)
 Number     Number       Type             X           Y           Z
 ---------------------------------------------------------------------
      1          9           0       -2.023847   -0.088945   -0.220141
      2          5           0       -0.969556   -0.126295    0.543801
      3          6           0        0.521232    0.099665    0.074192
      4          8           0        0.960832    1.218800   -0.056322
      5          8           0        1.260224   -1.021338   -0.057090
      6          1           0        2.166557   -0.745710   -0.275590
 ---------------------------------------------------------------------

 SCF Done:  E(UHF) =  -312.453418609     A.U. after    2 cycles

 The electronic state is 2-A.
 Alpha  occ. eigenvalues --  -26.17797 -20.64787 -20.59320 -11.40992  -7.74653
 Alpha  occ. eigenvalues --   -1.72274  -1.44460  -1.35141  -0.92875  -0.87670
 Alpha  occ. eigenvalues --   -0.81044  -0.77791  -0.74340  -0.73791  -0.66593
 Alpha  occ. eigenvalues --   -0.62542  -0.53533  -0.50532  -0.39234
 Alpha virt. eigenvalues --    0.03377   0.04462   0.05193   0.05672   0.07286
 Alpha virt. eigenvalues --    0.08678   0.11839   0.12539   0.13301   0.15117
 Alpha virt. eigenvalues --    0.19262   0.19930   0.21057   0.21431   0.24640

  Beta  occ. eigenvalues --  -26.17466 -20.64794 -20.58996 -11.40789  -7.72681
  Beta  occ. eigenvalues --   -1.71340  -1.44212  -1.34602  -0.91289  -0.86856
  Beta  occ. eigenvalues --   -0.78250  -0.77753  -0.73684  -0.72794  -0.65964
  Beta  occ. eigenvalues --   -0.61478  -0.51608  -0.48862
  Beta virt. eigenvalues --    0.02992   0.03720   0.05166   0.05614   0.06724
  Beta virt. eigenvalues --    0.08827   0.10864   0.12552   0.12941   0.15104
  Beta virt. eigenvalues --    0.16463   0.19710   0.20171   0.21197   0.21719

 Mulliken charges and spin densities:
               1          2
     1  F   -0.224934  -0.052822
     2  B    0.294856   0.982329
     3  C    0.633851  -0.004137
     4  O   -0.443335   0.072872
     5  O   -0.417048   0.002144
     6  H    0.156609  -0.000386
 Sum of Mulliken charges =  -0.00000   1.00000

 Dipole moment (field-independent basis, Debye):
    X=              0.7032    Y=             -1.6907    Z=              0.2653  Tot=              1.8502
                          Isotropic Fermi Contact Couplings
        Atom                 a.u.       MegaHertz       Gauss      10(-4) cm-1
     1  F(19)              0.06542     275.22966      98.20879      91.80673
     2  B(11)              0.35934     515.42338     183.91588     171.92673
     3  C(13)              0.07184      80.76520      28.81903      26.94037
     4  O(17)              0.02656     -16.09898      -5.74451      -5.37004
     5  O(17)             -0.00214       1.29704       0.46282       0.43265
     6  H(1)               0.00017       0.74550       0.26601       0.24867
 --------------------------------------------------------
       Center         ----  Spin Dipole Couplings  ----

 Normal termination of Gaussian 16 at Wed Apr  9 00:30:03 2025.
