 Gaussian 16, Revision C.01,

 ----------------------------------------------------------------------
 #t hf aug-cc-pvdz symm=none int=(grid=ultrafine) guess=(read,tcheck) s
 table=(opt,rrhf)
 ----------------------------------------------------------------------
 -----
 title
 -----
 Symbolic Z-matrix:
 Charge =  0 Multiplicity = 1

 SCF Done:  E(RHF) =  -1508.66218315     A.U. after   13 cycles

 1\1\GINC-SE088\Stability\RHF\Aug-CC-pVDZ\C2Cl3N1\OHZDE\08-Apr-2025\0\\
 #t hf aug-cc-pvdz symm=none int=(grid=ultrafine) guess=(read,tcheck) s
 table=(opt,rrhf)\\title\\0,1\C,0,-1.495632,0.001309,0.000776\C,0,-0.04
 0814,0.000065,0.00005\N,0,-2.647639,0.002235,0.001236\Cl,0,0.543048,-1
 .580582,0.61659\Cl,0,0.545893,1.323812,1.059696\Cl,0,0.543538,0.255365
 ,-1.677087\\Version=ES64L-G16RevC.01\HF=-1508.6621831\RMSD=3.871e-09\D
 ipole=0.9058904,-0.0007077,-0.0003764\Quadrupole=-5.1734209,2.5867732,
 2.5866477,0.0066225,0.0035883,0.0000857\PG=Unknown\\@

 Normal termination of Gaussian 16 at Tue Apr  8 22:48:32 2025.
 Gaussian 16:  ES64L-G16RevC.01  3-Jul-2019

 ----------------------------------------------------------------------
 #t hf aug-cc-pvdz iop(5/13=1,5/36=2,99/5=2) pseudo=read geom=check gue
 ss=(read,tcheck) scf=(maxcycle=1)
 ----------------------------------------------------------------------
 -----
 title
 -----
 Structure from the checkpoint file:  "BDE49_expt_1706_mol1.chk"
 Charge =  0 Multiplicity = 1

                         Standard orientation:
 ---------------------------------------------------------------------
 Center     Atomic      Atomic             Coordinates (Angstroms)
 Number     Number       Type             X           Y           Z
 ---------------------------------------------------------------------
      1          6           0       -1.495632   -0.001305   -0.000782
      2          6           0       -0.040814   -0.000065   -0.000050
      3          7           0       -2.647639   -0.002229   -0.001246
      4         17           0        0.543050    1.582730   -0.611055
      5         17           0        0.545893   -1.320096   -1.064322
      6         17           0        0.543536   -0.261232    1.676184
 ---------------------------------------------------------------------

 SCF Done:  E(RHF) =  -1508.75555265     A.U. after    2 cycles

 The electronic state is 1-A.
 Alpha  occ. eigenvalues -- -103.72115-103.72115-103.72115 -15.69084 -11.50607
 Alpha  occ. eigenvalues --  -11.33564 -10.75373 -10.75373 -10.75353  -8.41090
 Alpha  occ. eigenvalues --   -8.41090  -8.41080  -8.40730  -8.40729  -8.40729
 Alpha  occ. eigenvalues --   -8.40727  -8.40724  -8.40724  -1.30563  -1.22931
 Alpha  occ. eigenvalues --   -1.18751  -1.18750  -0.98619  -0.75633  -0.68131
 Alpha  occ. eigenvalues --   -0.68130  -0.59385  -0.55386  -0.55386  -0.52273
 Alpha  occ. eigenvalues --   -0.51185  -0.51185  -0.49320  -0.49319  -0.49189
 Alpha virt. eigenvalues --    0.04732   0.06398   0.06398   0.06535   0.08458
 Alpha virt. eigenvalues --    0.09296   0.09296   0.12636   0.12636   0.13738
 Alpha virt. eigenvalues --    0.14459   0.14459   0.15787   0.17878   0.17879

 Mulliken charges:
               1
     1  C    0.230775
     2  C   -0.445266
     3  N   -0.095452
     4  Cl   0.103312
     5  Cl   0.103310
     6  Cl   0.103321
 Sum of Mulliken charges =  -0.00000

 Dipole moment (field-independent basis, Debye):
    X=              2.1025    Y=              0.0016    Z=              0.0009  Tot=              2.1025

 Test job not archived.
 1\1\GINC-SE088\SP\RHF\Aug-CC-pVDZ\C2Cl3N1\OHZDE\08-Apr-2025\0\\#t hf a
 ug-cc-pvdz iop(5/13=1,5/36=2,99/5=2) pseudo=read geom=check guess=(rea
 d,tcheck) scf=(maxcycle=1)\\title\\0,1\C,0,-1.495632,0.001309,0.000776
 \C,0,-0.040814,0.000065,0.00005\N,0,-2.647639,0.002235,0.001236\Cl,0,0
 .543048,-1.580582,0.61659\Cl,0,0.545893,1.323812,1.059696\Cl,0,0.54353
 8,0.255365,-1.677087\\Version=ES64L-G16RevC.01\State=1-A\HF=-1508.7555
 527\RMSD=7.095e-03\Dipole=0.8271764,-0.0006409,-0.0003416\Quadrupole=-
 4.9259555,2.4630382,2.4629172,0.0063128,0.003421,0.0000877\PG=C01 [X(C

 Normal termination of Gaussian 16 at Tue Apr  8 22:48:35 2025.
