 Gaussian 16, Revision C.01,

 ----------------------------------------------------------------------
 #t hf aug-cc-pvdz symm=none int=(grid=ultrafine) guess=(read,tcheck) s
 table=(opt,rrhf)
 ----------------------------------------------------------------------
 -----
 title
 -----
 Symbolic Z-matrix:
 Charge =  0 Multiplicity = 1

 SCF Done:  E(RHF) =  -1025.31686817     A.U. after   15 cycles
 Normal termination of Gaussian 16 at Wed Apr  9 00:16:58 2025.
 Gaussian 16:  ES64L-G16RevC.01  3-Jul-2019

 ----------------------------------------------------------------------
 #t hf aug-cc-pvdz iop(5/13=1,5/36=2,99/5=2) pseudo=read geom=check gue
 ss=(read,tcheck) scf=(maxcycle=1)
 ----------------------------------------------------------------------
 -----
 title
 -----
 Structure from the checkpoint file:  "BDE49_nonexpt_2583_mol1.chk"
 Charge =  0 Multiplicity = 1

                         Standard orientation:
 ---------------------------------------------------------------------
 Center     Atomic      Atomic             Coordinates (Angstroms)
 Number     Number       Type             X           Y           Z
 ---------------------------------------------------------------------
      1         17           0        2.094930   -0.580030   -0.089808
      2         16           0        0.620365    0.896530    0.062193
      3          6           0       -0.798773   -0.096699    0.330098
      4          7           0       -1.826534    0.185467   -0.370367
      5          1           0       -0.793409   -0.842194    1.123793
      6          8           0       -2.942825   -0.514271    0.071671
      7          1           0       -3.625260   -0.245685   -0.553522
 ---------------------------------------------------------------------

 SCF Done:  E(RHF) =  -1025.40853905     A.U. after    2 cycles

 The electronic state is 1-A.
 Alpha  occ. eigenvalues -- -103.69004 -93.61836 -20.64320 -15.73210 -11.34014
 Alpha  occ. eigenvalues --  -10.72136  -8.91212  -8.37866  -8.37517  -8.37485
 Alpha  occ. eigenvalues --   -6.25288  -6.25041  -6.24597  -1.41614  -1.19555
 Alpha  occ. eigenvalues --   -1.15988  -0.97088  -0.80213  -0.75750  -0.69371
 Alpha  occ. eigenvalues --   -0.64101  -0.59909  -0.54776  -0.52567  -0.48904
 Alpha  occ. eigenvalues --   -0.46557  -0.44812  -0.37466
 Alpha virt. eigenvalues --    0.03158   0.03595   0.04984   0.07166   0.09870
 Alpha virt. eigenvalues --    0.10296   0.11414   0.13216   0.13800   0.14474
 Alpha virt. eigenvalues --    0.15904   0.16276   0.17339   0.17620   0.18308

 Mulliken charges:
               1
     1  Cl  -0.283350
     2  S    0.455109
     3  C    0.288761
     4  N   -0.059381
     5  H   -0.135789
     6  O   -0.467266
     7  H    0.201916
 Sum of Mulliken charges =   0.00000

 Dipole moment (field-independent basis, Debye):
    X=             -1.6623    Y=              0.0940    Z=              0.1933  Tot=              1.6761

 Test job not archived.
 1\1\GINC-SE132\SP\RHF\Aug-CC-pVDZ\C1H2Cl1N1O1S1\OHZDE\09-Apr-2025\0\\#
 t hf aug-cc-pvdz iop(5/13=1,5/36=2,99/5=2) pseudo=read geom=check gues
 s=(read,tcheck) scf=(maxcycle=1)\\title\\0,1\Cl,0,2.09493,-0.58003,-0.
 089808\S,0,0.620365,0.89653,0.062193\C,0,-0.798773,-0.096699,0.330098\
 N,0,-1.826534,0.185467,-0.370367\H,0,-0.793409,-0.842194,1.123793\O,0,
 -2.942825,-0.514271,0.071671\H,0,-3.62526,-0.245685,-0.553522\\Version
 =ES64L-G16RevC.01\State=1-A\HF=-1025.4085391\RMSD=3.799e-03\Dipole=-0.
 654001,0.036967,0.0760641\Quadrupole=2.4110273,-0.9073932,-1.503634,-0

 Normal termination of Gaussian 16 at Wed Apr  9 00:17:01 2025.
