 Gaussian 16, Revision C.01,

 ----------------------------------------------------------------------
 #t hf aug-cc-pvdz symm=none int=(grid=ultrafine) guess=(read,tcheck) s
 table=opt
 ----------------------------------------------------------------------
 -----
 title
 -----
 Symbolic Z-matrix:
 Charge =  0 Multiplicity = 2

 SCF Done:  E(UHF) =  -957.411117809     A.U. after   16 cycles

 1\1\GINC-SE252\Stability\UHF\Aug-CC-pVDZ\C1H1Cl2\OHZDE\08-Apr-2025\0\\
 #t hf aug-cc-pvdz symm=none int=(grid=ultrafine) guess=(read,tcheck) s
 table=opt\\title\\0,2\C,0,-0.000046,0.688699,-0.095737\H,0,0.000181,1.
 707156,0.263058\Cl,0,-1.479314,-0.171743,0.009159\Cl,0,1.47932,-0.1717
 48,0.009156\\Version=ES64L-G16RevC.01\HF=-957.4111178\S2=0.767743\S2-1
 =0.\S2A=0.750258\RMSD=9.027e-09\Dipole=-0.0001752,0.464797,0.1031291\Q
 uadrupole=-0.5833713,1.4092312,-0.8258599,0.000403,0.0000773,0.3813696
 \PG=Unknown\\@

 Normal termination of Gaussian 16 at Tue Apr  8 22:27:36 2025.
 Gaussian 16:  ES64L-G16RevC.01  3-Jul-2019

 ----------------------------------------------------------------------
 #t hf aug-cc-pvdz iop(5/13=1,5/36=2,99/5=2) pseudo=read geom=check gue
 ss=(read,tcheck) scf=(maxcycle=1)
 ----------------------------------------------------------------------
 -----
 title
 -----
 Structure from the checkpoint file:  "BDE49_expt_1015_mol2.chk"
 Charge =  0 Multiplicity = 2

                         Standard orientation:
 ---------------------------------------------------------------------
 Center     Atomic      Atomic             Coordinates (Angstroms)
 Number     Number       Type             X           Y           Z
 ---------------------------------------------------------------------
      1          6           0       -0.000046    0.688699   -0.095737
      2          1           0        0.000180    1.707156    0.263058
      3         17           0       -1.479314   -0.171744    0.009159
      4         17           0        1.479320   -0.171748    0.009156
 ---------------------------------------------------------------------

 SCF Done:  E(UHF) =  -957.463389099     A.U. after    2 cycles

 The electronic state is 2-A.
 Alpha  occ. eigenvalues -- -103.69247-103.69244 -11.37725 -10.72558 -10.72550
 Alpha  occ. eigenvalues --   -8.38220  -8.38216  -8.38060  -8.38055  -8.37945
 Alpha  occ. eigenvalues --   -8.37942  -1.24793  -1.16772  -0.90099  -0.67219
 Alpha  occ. eigenvalues --   -0.62754  -0.61058  -0.50797  -0.49186  -0.48055
 Alpha  occ. eigenvalues --   -0.38298
 Alpha virt. eigenvalues --    0.03820   0.07116   0.07874   0.11377   0.12472
 Alpha virt. eigenvalues --    0.13944   0.15357   0.16023   0.16068   0.16755
 Alpha virt. eigenvalues --    0.18306   0.20568   0.24084   0.27872   0.30043

  Beta  occ. eigenvalues -- -103.69205-103.69203 -11.34813 -10.72511 -10.72503
  Beta  occ. eigenvalues --   -8.38387  -8.38380  -8.37917  -8.37915  -8.37717
  Beta  occ. eigenvalues --   -8.37715  -1.22517  -1.16332  -0.83464  -0.65436
  Beta  occ. eigenvalues --   -0.61520  -0.53186  -0.49009  -0.48440  -0.47851
  Beta virt. eigenvalues --    0.03856   0.06625   0.07582   0.07989   0.12939
  Beta virt. eigenvalues --    0.13434   0.14066   0.15426   0.16079   0.17092
  Beta virt. eigenvalues --    0.17937   0.18330   0.22680   0.25605   0.27928

 Mulliken charges and spin densities:
               1          2
     1  C    0.064992   1.136708
     2  H    0.001335  -0.103026
     3  Cl  -0.033113  -0.016825
     4  Cl  -0.033215  -0.016857
 Sum of Mulliken charges =  -0.00000   1.00000

 Dipole moment (field-independent basis, Debye):
    X=             -0.0004    Y=              1.2231    Z=              0.2591  Tot=              1.2502
                          Isotropic Fermi Contact Couplings
        Atom                 a.u.       MegaHertz       Gauss      10(-4) cm-1
     1  C(13)              0.35005     393.51919     140.41743     131.26387
     2  H(1)              -0.02023     -90.41324     -32.26169     -30.15861
     3  Cl(35)             0.04083      17.90306       6.38826       5.97182
     4  Cl(35)             0.04082      17.89897       6.38680       5.97045
 --------------------------------------------------------
       Center         ----  Spin Dipole Couplings  ----
                      3XX-RR        3YY-RR        3ZZ-RR
 --------------------------------------------------------

 Normal termination of Gaussian 16 at Tue Apr  8 22:27:38 2025.
