 Gaussian 16, Revision C.01,

 ----------------------------------------------------------------------
 #t hf aug-cc-pvdz symm=none int=(grid=ultrafine) guess=(read,tcheck) s
 table=opt
 ----------------------------------------------------------------------
 -----
 title
 -----
 Symbolic Z-matrix:
 Charge =  0 Multiplicity = 2

 SCF Done:  E(UHF) =  -156.683789364     A.U. after   16 cycles
 Normal termination of Gaussian 16 at Tue Apr  8 22:30:32 2025.
 Gaussian 16:  ES64L-G16RevC.01  3-Jul-2019

 ----------------------------------------------------------------------
 #t hf aug-cc-pvdz iop(5/13=1,5/36=2,99/5=2) pseudo=read geom=check gue
 ss=(read,tcheck) scf=(maxcycle=1)
 ----------------------------------------------------------------------
 -----
 title
 -----
 Structure from the checkpoint file:  "BDE49_expt_1059_mol2.chk"
 Charge =  0 Multiplicity = 2

                         Standard orientation:
 ---------------------------------------------------------------------
 Center     Atomic      Atomic             Coordinates (Angstroms)
 Number     Number       Type             X           Y           Z
 ---------------------------------------------------------------------
      1          6           0        1.538954   -0.547170    0.153168
      2          6           0        0.644400    0.600499   -0.324080
      3          1           0        2.527822   -0.499670   -0.311041
      4          1           0        1.099551   -1.518641   -0.089334
      5          1           0        1.678484   -0.510123    1.238367
      6          6           0       -0.767926    0.574612    0.289362
      7          1           0        0.556260    0.569357   -1.416801
      8          1           0        1.118044    1.558332   -0.082945
      9          6           0       -1.597047   -0.589210   -0.132781
     10          1           0       -1.279867    1.512886    0.010339
     11          1           0       -0.694492    0.604939    1.384031
     12          1           0       -2.387147   -0.976659    0.498534
     13          1           0       -1.528935   -0.972810   -1.145165
 ---------------------------------------------------------------------

 SCF Done:  E(UHF) =  -156.734861326     A.U. after    2 cycles

 The electronic state is 2-A.
 Alpha  occ. eigenvalues --  -11.23543 -11.23038 -11.22908 -11.21964  -1.06673
 Alpha  occ. eigenvalues --   -0.97490  -0.86861  -0.77937  -0.63378  -0.61407
 Alpha  occ. eigenvalues --   -0.58825  -0.54656  -0.52630  -0.49121  -0.47527
 Alpha  occ. eigenvalues --   -0.46738  -0.34865
 Alpha virt. eigenvalues --    0.03718   0.04661   0.04805   0.04943   0.06806
 Alpha virt. eigenvalues --    0.07142   0.07464   0.07957   0.08296   0.13281
 Alpha virt. eigenvalues --    0.14720   0.14953   0.15106   0.15322   0.16042

  Beta  occ. eigenvalues --  -11.23365 -11.22830 -11.21958 -11.21085  -1.05462
  Beta  occ. eigenvalues --   -0.94951  -0.83548  -0.75870  -0.62770  -0.59914
  Beta  occ. eigenvalues --   -0.57960  -0.53912  -0.51915  -0.47749  -0.47096
  Beta  occ. eigenvalues --   -0.46560
  Beta virt. eigenvalues --    0.03753   0.04696   0.04833   0.04914   0.06805
  Beta virt. eigenvalues --    0.07161   0.07409   0.07636   0.08171   0.10916
  Beta virt. eigenvalues --    0.13548   0.14775   0.15143   0.15227   0.16112

 Mulliken charges and spin densities:
               1          2
     1  C    0.349516   0.003901
     2  C    0.136746   0.028116
     3  H   -0.076862  -0.001028
     4  H   -0.082991  -0.010640
     5  H   -0.074097   0.002674
     6  C    0.132383  -0.243128
     7  H   -0.128510  -0.004230
     8  H   -0.091612  -0.002497
     9  C    0.570539   1.400836
    10  H   -0.040786   0.045079
    11  H   -0.127871   0.007543
    12  H   -0.263006  -0.114702
    13  H   -0.303448  -0.111925
 Sum of Mulliken charges =  -0.00000   1.00000

 Dipole moment (field-independent basis, Debye):
    X=              0.0380    Y=              0.2466    Z=              0.0031  Tot=              0.2495
                          Isotropic Fermi Contact Couplings
        Atom                 a.u.       MegaHertz       Gauss      10(-4) cm-1
     1  C(13)             -0.00091      -1.02496      -0.36573      -0.34189
     2  C(13)              0.01830      20.57240       7.34075       6.86222
     3  H(1)              -0.00025      -1.13260      -0.40414      -0.37780
     4  H(1)               0.00008       0.34868       0.12442       0.11631
     5  H(1)               0.00005       0.20529       0.07325       0.06848
     6  C(13)             -0.06138     -68.99755     -24.62004     -23.01511
     7  H(1)              -0.00084      -3.77598      -1.34736      -1.25953
     8  H(1)              -0.00106      -4.75916      -1.69819      -1.58749

 Normal termination of Gaussian 16 at Tue Apr  8 22:30:35 2025.
