 Gaussian 16, Revision C.01,

 ----------------------------------------------------------------------
 #t hf aug-cc-pvdz symm=none int=(grid=ultrafine) guess=(read,tcheck) s
 table=(opt,rrhf)
 ----------------------------------------------------------------------
 -----
 title
 -----
 Symbolic Z-matrix:
 Charge =  0 Multiplicity = 1

 SCF Done:  E(RHF) =  -666.126227935     A.U. after   15 cycles
 Normal termination of Gaussian 16 at Tue Apr  8 23:38:31 2025.
 Gaussian 16:  ES64L-G16RevC.01  3-Jul-2019

 ----------------------------------------------------------------------
 #t hf aug-cc-pvdz iop(5/13=1,5/36=2,99/5=2) pseudo=read geom=check gue
 ss=(read,tcheck) scf=(maxcycle=1)
 ----------------------------------------------------------------------
 -----
 title
 -----
 Structure from the checkpoint file:  "BDE49_nonexpt_1573_mol1.chk"
 Charge =  0 Multiplicity = 1

                         Standard orientation:
 ---------------------------------------------------------------------
 Center     Atomic      Atomic             Coordinates (Angstroms)
 Number     Number       Type             X           Y           Z
 ---------------------------------------------------------------------
      1         15           0        2.474966   -0.289469   -0.410841
      2          7           0        0.929662   -1.004114   -0.192931
      3          6           0       -0.354251   -0.448107   -0.103635
      4          6           0       -1.434355   -1.273485    0.252493
      5          6           0       -0.609986    0.903566   -0.375223
      6          6           0       -1.906390    1.404821   -0.290221
      7          6           0       -2.972516    0.582267    0.062582
      8          6           0       -2.723704   -0.763458    0.330497
      9          1           0       -3.978108    0.980077    0.127151
     10          1           0       -3.539377   -1.423450    0.605082
     11          1           0       -1.253276   -2.322482    0.467291
     12          1           0        0.198525    1.560830   -0.667578
     13          1           0       -2.079880    2.453339   -0.506872
     14          6           0        2.637042    0.923470    0.986372
     15          1           0        1.749113    1.535926    1.147651
     16          1           0        3.484833    1.578582    0.762457
     17          1           0        2.864707    0.378418    1.904695
     18          1           0        2.152982    0.662164   -1.415007
     19          1           0        0.953318   -2.007007   -0.088934
 ---------------------------------------------------------------------

 SCF Done:  E(RHF) =  -666.251194317     A.U. after    2 cycles

 The electronic state is 1-A.
 Alpha  occ. eigenvalues --  -81.28144 -15.63440 -11.29542 -11.24779 -11.24754
 Alpha  occ. eigenvalues --  -11.23803 -11.23608 -11.23554 -11.23240  -7.78057
 Alpha  occ. eigenvalues --   -4.92254  -4.91928  -4.91713  -1.19669  -1.11733
 Alpha  occ. eigenvalues --   -1.01066  -0.98792  -0.95888  -0.83856  -0.82496
 Alpha  occ. eigenvalues --   -0.75169  -0.71444  -0.66982  -0.63569  -0.61123
 Alpha  occ. eigenvalues --   -0.59397  -0.59158  -0.57299  -0.54759  -0.54286
 Alpha  occ. eigenvalues --   -0.51350  -0.49362  -0.49034  -0.42999  -0.34983
 Alpha  occ. eigenvalues --   -0.34261  -0.29691
 Alpha virt. eigenvalues --    0.03407   0.03724   0.04158   0.05114   0.05470
 Alpha virt. eigenvalues --    0.05865   0.07208   0.07624   0.08320   0.08549
 Alpha virt. eigenvalues --    0.09858   0.10705   0.11539   0.12333   0.12375

 Mulliken charges:
               1
     1  P    0.637340
     2  N   -0.729262
     3  C    0.403967
     4  C    0.492563
     5  C    0.662696
     6  C    0.550081
     7  C    0.492980
     8  C    0.534000
     9  H   -0.455993
    10  H   -0.436581
    11  H   -0.607702
    12  H   -0.785568
    13  H   -0.452633
    14  C    0.158398
    15  H   -0.176074
    16  H   -0.135431
    17  H   -0.130507
    18  H    0.120647
    19  H   -0.142922
 Sum of Mulliken charges =   0.00000

 Dipole moment (field-independent basis, Debye):
    X=              0.0064    Y=              0.0895    Z=              0.6185  Tot=              0.6250

 Test job not archived.
 1\1\GINC-SE284\SP\RHF\Aug-CC-pVDZ\C7H10N1P1\OHZDE\08-Apr-2025\0\\#t hf
  aug-cc-pvdz iop(5/13=1,5/36=2,99/5=2) pseudo=read geom=check guess=(r
 ead,tcheck) scf=(maxcycle=1)\\title\\0,1\P,0,2.474966,-0.289469,-0.410
 841\N,0,0.929662,-1.004114,-0.192931\C,0,-0.354251,-0.448107,-0.103635
 \C,0,-1.434355,-1.273485,0.252493\C,0,-0.609986,0.903566,-0.375223\C,0
 ,-1.90639,1.404821,-0.290221\C,0,-2.972516,0.582267,0.062582\C,0,-2.72
 3704,-0.763458,0.330497\H,0,-3.978108,0.980077,0.127151\H,0,-3.539377,
 -1.42345,0.605082\H,0,-1.253276,-2.322482,0.467291\H,0,0.198525,1.5608

 Normal termination of Gaussian 16 at Tue Apr  8 23:38:41 2025.
