 Gaussian 16, Revision C.01,

 ----------------------------------------------------------------------
 #t hf aug-cc-pvdz symm=none int=(grid=ultrafine) guess=(read,tcheck) s
 table=(opt,rrhf)
 ----------------------------------------------------------------------
 -----
 title
 -----
 Symbolic Z-matrix:
 Charge =  0 Multiplicity = 1

 SCF Done:  E(RHF) =  -663.970462859     A.U. after   17 cycles
 Normal termination of Gaussian 16 at Tue Apr  8 23:18:50 2025.
 Gaussian 16:  ES64L-G16RevC.01  3-Jul-2019

 ----------------------------------------------------------------------
 #t hf aug-cc-pvdz iop(5/13=1,5/36=2,99/5=2) pseudo=read geom=check gue
 ss=(read,tcheck) scf=(maxcycle=1)
 ----------------------------------------------------------------------
 -----
 title
 -----
 Structure from the checkpoint file:  "BDE49_nonexpt_1138_mol1.chk"
 Charge =  0 Multiplicity = 1

                         Standard orientation:
 ---------------------------------------------------------------------
 Center     Atomic      Atomic             Coordinates (Angstroms)
 Number     Number       Type             X           Y           Z
 ---------------------------------------------------------------------
      1          9           0       -1.810954   -0.911253   -0.289246
      2          8           0       -1.108010    0.096375    0.636497
      3          6           0        1.387883   -0.154692   -0.008934
      4          7           0        2.351567   -0.791873    0.064984
      5         16           0        0.023400    0.868846   -0.180628
 ---------------------------------------------------------------------

 SCF Done:  E(RHF) =  -664.085861925     A.U. after    2 cycles

 The electronic state is 1-A.
 Alpha  occ. eigenvalues --  -93.70289 -26.19448 -20.78265 -15.69589 -11.34257
 Alpha  occ. eigenvalues --   -8.99303  -6.33579  -6.33175  -6.32752  -1.67415
 Alpha  occ. eigenvalues --   -1.41381  -1.23646  -1.04391  -0.82195  -0.78945
 Alpha  occ. eigenvalues --   -0.76922  -0.70924  -0.67417  -0.61377  -0.56610
 Alpha  occ. eigenvalues --   -0.55876  -0.51546  -0.44105
 Alpha virt. eigenvalues --   -0.00845   0.04630   0.05224   0.07917   0.09616
 Alpha virt. eigenvalues --    0.10906   0.11790   0.12141   0.12754   0.15361
 Alpha virt. eigenvalues --    0.17121   0.19272   0.19845   0.21853   0.22260

 Mulliken charges:
               1
     1  F   -0.301915
     2  O   -0.340373
     3  C   -0.370728
     4  N   -0.126323
     5  S    1.139338
 Sum of Mulliken charges =  -0.00000

 Dipole moment (field-independent basis, Debye):
    X=             -0.2403    Y=              2.9468    Z=             -0.2714  Tot=              2.9690

 Test job not archived.
 1\1\GINC-SE461\SP\RHF\Aug-CC-pVDZ\C1F1N1O1S1\OHZDE\08-Apr-2025\0\\#t h
 f aug-cc-pvdz iop(5/13=1,5/36=2,99/5=2) pseudo=read geom=check guess=(
 read,tcheck) scf=(maxcycle=1)\\title\\0,1\F,0,-1.810954,-0.911253,-0.2
 89246\O,0,-1.10801,0.096375,0.636497\C,0,1.387883,-0.154692,-0.008934\
 N,0,2.351567,-0.791873,0.064984\S,0,0.0234,0.868846,-0.180628\\Version
 =ES64L-G16RevC.01\State=1-A\HF=-664.0858619\RMSD=4.603e-03\Dipole=-0.0
 945295,1.1593707,-0.1067641\Quadrupole=-4.1616095,2.1071729,2.0544366,
 1.0124074,-0.5941633,-0.4880714\PG=C01 [X(C1F1N1O1S1)]\\@

 Normal termination of Gaussian 16 at Tue Apr  8 23:18:52 2025.
