 Gaussian 16, Revision C.01,

 ----------------------------------------------------------------------
 #t hf aug-cc-pvdz symm=none int=(grid=ultrafine) guess=(read,tcheck) s
 table=(opt,rrhf)
 ----------------------------------------------------------------------
 -----
 title
 -----
 Symbolic Z-matrix:
 Charge =  0 Multiplicity = 1

 SCF Done:  E(RHF) =  -952.346975646     A.U. after   13 cycles
 Normal termination of Gaussian 16 at Tue Apr  8 23:57:31 2025.
 Gaussian 16:  ES64L-G16RevC.01  3-Jul-2019

 ----------------------------------------------------------------------
 #t hf aug-cc-pvdz iop(5/13=1,5/36=2,99/5=2) pseudo=read geom=check gue
 ss=(read,tcheck) scf=(maxcycle=1)
 ----------------------------------------------------------------------
 -----
 title
 -----
 Structure from the checkpoint file:  "BDE49_nonexpt_2058_mol1.chk"
 Charge =  0 Multiplicity = 1

                         Standard orientation:
 ---------------------------------------------------------------------
 Center     Atomic      Atomic             Coordinates (Angstroms)
 Number     Number       Type             X           Y           Z
 ---------------------------------------------------------------------
      1         14           0        1.961832   -0.568758   -0.000007
      2         16           0       -0.037676    0.429637    0.000003
      3          8           0       -0.265384    1.126393   -1.248733
      4          8           0       -0.918762   -0.953340   -0.000003
      5          6           0       -2.359958   -0.796069   -0.000001
      6          1           0       -2.756817   -1.808770   -0.000007
      7          1           0       -2.680738   -0.264318   -0.897021
      8          1           0       -2.680737   -0.264328    0.897025
      9          8           0       -0.265377    1.126378    1.248749
     10          1           0        2.051789   -1.377058   -1.227585
     11          1           0        2.051793   -1.377073    1.227560
     12          1           0        2.907813    0.560919   -0.000002
 ---------------------------------------------------------------------

 SCF Done:  E(RHF) =  -952.531286541     A.U. after    2 cycles

 The electronic state is 1-A.
 Alpha  occ. eigenvalues --  -93.80472 -69.12608 -20.63085 -20.56893 -20.56892
 Alpha  occ. eigenvalues --  -11.31297  -9.06904  -6.87822  -6.41503  -6.41442
 Alpha  occ. eigenvalues --   -6.41142  -3.98651  -3.98527  -3.98523  -1.45396
 Alpha  occ. eigenvalues --   -1.34583  -1.31447  -0.99192  -0.86259  -0.77590
 Alpha  occ. eigenvalues --   -0.72084  -0.69822  -0.68331  -0.64473  -0.62787
 Alpha  occ. eigenvalues --   -0.58751  -0.54179  -0.53561  -0.53240  -0.51687
 Alpha  occ. eigenvalues --   -0.51154  -0.48738  -0.45529
 Alpha virt. eigenvalues --    0.02789   0.03817   0.05386   0.05710   0.05929
 Alpha virt. eigenvalues --    0.06857   0.07017   0.08294   0.08779   0.10516
 Alpha virt. eigenvalues --    0.11718   0.13153   0.13927   0.14677   0.14937

 Mulliken charges:
               1
     1  Si   0.373985
     2  S    2.252643
     3  O   -1.038669
     4  O   -0.868124
     5  C    0.642862
     6  H   -0.230904
     7  H   -0.051709
     8  H   -0.051710
     9  O   -1.038669
    10  H    0.017247
    11  H    0.017248
    12  H   -0.024202
 Sum of Mulliken charges =  -0.00000

 Dipole moment (field-independent basis, Debye):
    X=              1.1969    Y=             -3.7204    Z=             -0.0000  Tot=              3.9082

 Test job not archived.
 1\1\GINC-SE094\SP\RHF\Aug-CC-pVDZ\C1H6O3S1Si1\OHZDE\08-Apr-2025\0\\#t
 hf aug-cc-pvdz iop(5/13=1,5/36=2,99/5=2) pseudo=read geom=check guess=
 (read,tcheck) scf=(maxcycle=1)\\title\\0,1\Si,0,1.961832,-0.568758,-0.
 000007\S,0,-0.037676,0.429637,0.000003\O,0,-0.265384,1.126393,-1.24873
 3\O,0,-0.918762,-0.95334,-0.000003\C,0,-2.359958,-0.796069,-0.000001\H
 ,0,-2.756817,-1.80877,-0.000007\H,0,-2.680738,-0.264318,-0.897021\H,0,
 -2.680737,-0.264328,0.897025\O,0,-0.265377,1.126378,1.248749\H,0,2.051
 789,-1.377058,-1.227585\H,0,2.051793,-1.377073,1.22756\H,0,2.907813,0.

 Normal termination of Gaussian 16 at Tue Apr  8 23:57:36 2025.
