 Gaussian 16, Revision C.01,

 ----------------------------------------------------------------------
 #t hf aug-cc-pvdz symm=none int=(grid=ultrafine) guess=(read,tcheck) s
 table=(opt,rrhf)
 ----------------------------------------------------------------------
 -----
 title
 -----
 Symbolic Z-matrix:
 Charge =  0 Multiplicity = 1

 SCF Done:  E(RHF) =  -584.229739369     A.U. after   12 cycles
 Normal termination of Gaussian 16 at Tue Apr  8 23:54:58 2025.
 Gaussian 16:  ES64L-G16RevC.01  3-Jul-2019

 ----------------------------------------------------------------------
 #t hf aug-cc-pvdz iop(5/13=1,5/36=2,99/5=2) pseudo=read geom=check gue
 ss=(read,tcheck) scf=(maxcycle=1)
 ----------------------------------------------------------------------
 -----
 title
 -----
 Structure from the checkpoint file:  "BDE49_nonexpt_1992_mol1.chk"
 Charge =  0 Multiplicity = 1

                         Standard orientation:
 ---------------------------------------------------------------------
 Center     Atomic      Atomic             Coordinates (Angstroms)
 Number     Number       Type             X           Y           Z
 ---------------------------------------------------------------------
      1         14           0       -0.597404    0.955649    0.000000
      2          6           0        0.155929    0.116948    1.491033
      3          9           0       -0.261868    2.542312    0.000000
      4          6           0        0.155929    0.116948   -1.491033
      5          6           0        0.155929   -1.420451    1.294555
      6          1           0       -0.367021    0.387348    2.413740
      7          1           0        1.188114    0.472526    1.602715
      8          6           0        0.848821   -1.882731   -0.000000
      9          1           0       -0.877446   -1.790635    1.293780
     10          1           0        0.642844   -1.896457    2.152257
     11          6           0        0.155929   -1.420451   -1.294555
     12          1           0        0.899362   -2.976654   -0.000000
     13          1           0        1.888011   -1.528354   -0.000000
     14          1           0        1.188114    0.472526   -1.602715
     15          1           0       -0.367021    0.387348   -2.413740
     16          1           0        0.642844   -1.896457   -2.152257
     17          1           0       -0.877446   -1.790635   -1.293780
     18          1           0       -2.075104    0.837976    0.000000
 ---------------------------------------------------------------------

 SCF Done:  E(RHF) =  -584.356783471     A.U. after    2 cycles

 The electronic state is 1-A'.
 Alpha  occ. eigenvalues --  -69.09168 -26.09157 -11.24141 -11.24139 -11.23544
 Alpha  occ. eigenvalues --  -11.21983 -11.21980  -6.83983  -3.94923  -3.94708
 Alpha  occ. eigenvalues --   -3.94699  -1.61625  -1.08285  -1.00113  -0.93488
 Alpha  occ. eigenvalues --   -0.83340  -0.79321  -0.76172  -0.70436  -0.70108
 Alpha  occ. eigenvalues --   -0.65912  -0.63014  -0.60583  -0.57354  -0.55168
 Alpha  occ. eigenvalues --   -0.54588  -0.50404  -0.49100  -0.48121  -0.47292
 Alpha  occ. eigenvalues --   -0.43730  -0.40720
 Alpha virt. eigenvalues --    0.03199   0.04249   0.04418   0.04523   0.06179
 Alpha virt. eigenvalues --    0.06413   0.06701   0.06740   0.06998   0.08850
 Alpha virt. eigenvalues --    0.09046   0.09660   0.10073   0.11219   0.13025

 Mulliken charges:
               1
     1  Si   1.084957
     2  C    0.162356
     3  F   -0.844836
     4  C    0.162356
     5  C    0.118845
     6  H   -0.199931
     7  H   -0.114018
     8  C    0.266906
     9  H   -0.088520
    10  H   -0.116255
    11  C    0.118845
    12  H   -0.102088
    13  H   -0.101008
    14  H   -0.114018
    15  H   -0.199931
    16  H   -0.116255
    17  H   -0.088520
    18  H    0.171114
 Sum of Mulliken charges =  -0.00000

 Dipole moment (field-independent basis, Debye):
    X=              0.3060    Y=             -2.3566    Z=              0.0000  Tot=              2.3764

 Test job not archived.
 1\1\GINC-SE402\SP\RHF\Aug-CC-pVDZ\C5H11F1Si1\OHZDE\08-Apr-2025\0\\#t h
 f aug-cc-pvdz iop(5/13=1,5/36=2,99/5=2) pseudo=read geom=check guess=(
 read,tcheck) scf=(maxcycle=1)\\title\\0,1\Si,0,-1.072584,0.,0.346004\C
 ,0,-0.075339,1.491033,-0.179763\F,0,-2.52931,0.,-0.36676\C,0,-0.075339
 ,-1.491033,-0.179763\C,0,1.415535,1.294555,0.195592\H,0,-0.465234,2.41
 374,0.261343\H,0,-0.168149,1.602715,-1.267526\C,0,2.032994,0.,-0.36346
 6\H,0,1.522218,1.29378,1.288075\H,0,1.996016,2.152257,-0.160371\C,0,1.
 415535,-1.294555,0.195592\H,0,3.106152,0.,-0.145397\H,0,1.943059,0.,-1

 Normal termination of Gaussian 16 at Tue Apr  8 23:55:04 2025.
