 Gaussian 16, Revision C.01,

 ----------------------------------------------------------------------
 #t hf aug-cc-pvdz symm=none int=(grid=ultrafine) guess=(read,tcheck) s
 table=(opt,rrhf)
 ----------------------------------------------------------------------
 -----
 title
 -----
 Symbolic Z-matrix:
 Charge =  0 Multiplicity = 1

 SCF Done:  E(RHF) =  -510.510194573     A.U. after   12 cycles
 Normal termination of Gaussian 16 at Wed Apr  9 00:44:42 2025.
 Gaussian 16:  ES64L-G16RevC.01  3-Jul-2019

 ----------------------------------------------------------------------
 #t hf aug-cc-pvdz iop(5/13=1,5/36=2,99/5=2) pseudo=read geom=check gue
 ss=(read,tcheck) scf=(maxcycle=1)
 ----------------------------------------------------------------------
 -----
 title
 -----
 Structure from the checkpoint file:  "BDE49_nonexpt_806_mol1.chk"
 Charge =  0 Multiplicity = 1

                         Standard orientation:
 ---------------------------------------------------------------------
 Center     Atomic      Atomic             Coordinates (Angstroms)
 Number     Number       Type             X           Y           Z
 ---------------------------------------------------------------------
      1          5           0       -2.636659    0.000198    1.309556
      2          6           0        0.059816   -0.000104   -0.620001
      3          6           0        0.749898   -1.203302    0.060635
      4          6           0        0.749877    1.203332    0.060243
      5          6           0        2.232121    0.778381    0.202518
      6          1           0        0.315240    1.367838    1.053566
      7          1           0        0.630845    2.134063   -0.500041
      8          6           0        2.232147   -0.778313    0.202571
      9          1           0        2.684406    1.191367    1.107257
     10          1           0        2.813967    1.157463   -0.641829
     11          1           0        2.813788   -1.157419   -0.641910
     12          1           0        2.684672   -1.191241    1.107217
     13          1           0        0.630789   -2.134252   -0.499271
     14          1           0        0.315364   -1.367402    1.054073
     15         14           0       -1.831754   -0.000100   -0.539931
     16          1           0        0.341289   -0.000283   -1.682591
     17          1           0       -2.361747   -1.193276   -1.261745
     18          1           0       -2.361755    1.192858   -1.262101
     19          1           0       -1.997976    0.000503    2.317082
     20          1           0       -3.824194    0.000232    1.425750
 ---------------------------------------------------------------------

 SCF Done:  E(RHF) =  -510.598248306     A.U. after    2 cycles

 The electronic state is 1-A.
 Alpha  occ. eigenvalues --  -69.03895 -11.23007 -11.23000 -11.22584 -11.22540
 Alpha  occ. eigenvalues --  -11.21905  -7.62166  -6.79397  -3.90176  -3.90145
 Alpha  occ. eigenvalues --   -3.90109  -1.10341  -0.95583  -0.95115  -0.78058
 Alpha  occ. eigenvalues --   -0.77383  -0.71993  -0.65373  -0.64825  -0.59961
 Alpha  occ. eigenvalues --   -0.57625  -0.56852  -0.49628  -0.48942  -0.48050
 Alpha  occ. eigenvalues --   -0.47366  -0.46872  -0.45586  -0.44685  -0.41569
 Alpha  occ. eigenvalues --   -0.39794
 Alpha virt. eigenvalues --    0.03371   0.03428   0.03969   0.04154   0.04974
 Alpha virt. eigenvalues --    0.05621   0.05863   0.06659   0.06680   0.07586
 Alpha virt. eigenvalues --    0.08039   0.08851   0.08967   0.09387   0.09462

 Mulliken charges:
               1
     1  B   -0.737422
     2  C    0.347997
     3  C    0.284762
     4  C    0.284768
     5  C    0.285557
     6  H   -0.262764
     7  H   -0.188048
     8  C    0.285628
     9  H   -0.095531
    10  H   -0.124182
    11  H   -0.124239
    12  H   -0.095586
    13  H   -0.188032
    14  H   -0.262729
    15  Si  -0.410755
    16  H   -0.242386
    17  H    0.173684
    18  H    0.173691
    19  H    0.447739
    20  H    0.447849
 Sum of Mulliken charges =  -0.00000

 Dipole moment (field-independent basis, Debye):
    X=              0.8333    Y=             -0.0001    Z=              0.2931  Tot=              0.8833

 Test job not archived.
 1\1\GINC-SE459\SP\RHF\Aug-CC-pVDZ\C5H13B1Si1\OHZDE\09-Apr-2025\0\\#t h
 f aug-cc-pvdz iop(5/13=1,5/36=2,99/5=2) pseudo=read geom=check guess=(
 read,tcheck) scf=(maxcycle=1)\\title\\0,1\B,0,-2.636659,0.000198,1.309
 556\C,0,0.059816,-0.000104,-0.620001\C,0,0.749898,-1.203302,0.060635\C
 ,0,0.749877,1.203332,0.060243\C,0,2.232121,0.778381,0.202518\H,0,0.315
 24,1.367838,1.053566\H,0,0.630845,2.134063,-0.500041\C,0,2.232147,-0.7
 78313,0.202571\H,0,2.684406,1.191367,1.107257\H,0,2.813967,1.157463,-0
 .641829\H,0,2.813788,-1.157419,-0.64191\H,0,2.684672,-1.191241,1.10721

 Normal termination of Gaussian 16 at Wed Apr  9 00:44:51 2025.
