 Gaussian 16, Revision C.01,

 ----------------------------------------------------------------------
 #t hf aug-cc-pvdz symm=none int=(grid=ultrafine) guess=(read,tcheck) s
 table=opt
 ----------------------------------------------------------------------
 -----
 title
 -----
 Symbolic Z-matrix:
 Charge =  0 Multiplicity = 2

 SCF Done:  E(UHF) =  -117.649025136     A.U. after   15 cycles
 Normal termination of Gaussian 16 at Tue Apr  8 22:29:40 2025.
 Gaussian 16:  ES64L-G16RevC.01  3-Jul-2019

 ----------------------------------------------------------------------
 #t hf aug-cc-pvdz iop(5/13=1,5/36=2,99/5=2) pseudo=read geom=check gue
 ss=(read,tcheck) scf=(maxcycle=1)
 ----------------------------------------------------------------------
 -----
 title
 -----
 Structure from the checkpoint file:  "BDE49_expt_1039_mol2.chk"
 Charge =  0 Multiplicity = 2

                         Standard orientation:
 ---------------------------------------------------------------------
 Center     Atomic      Atomic             Coordinates (Angstroms)
 Number     Number       Type             X           Y           Z
 ---------------------------------------------------------------------
      1          6           0        0.000000    0.533370   -0.045291
      2          6           0        1.297865   -0.197759    0.002780
      3          1           0        1.306988   -1.049192   -0.689561
      4          1           0        1.499564   -0.617961    1.003188
      5          1           0        2.142480    0.449646   -0.245934
      6          6           0       -1.297865   -0.197759    0.002780
      7          1           0        0.000000    1.607910    0.102995
      8          1           0       -1.306990   -1.049189   -0.689565
      9          1           0       -2.142480    0.449648   -0.245929
     10          1           0       -1.499562   -0.617966    1.003187
 ---------------------------------------------------------------------

 SCF Done:  E(UHF) =  -117.688447794     A.U. after    2 cycles

 The electronic state is 2-A.
 Alpha  occ. eigenvalues --  -11.23480 -11.22503 -11.22496  -1.05478  -0.93196
 Alpha  occ. eigenvalues --   -0.79022  -0.62114  -0.60037  -0.56693  -0.53764
 Alpha  occ. eigenvalues --   -0.50096  -0.49393  -0.32743
 Alpha virt. eigenvalues --    0.03656   0.04861   0.04966   0.05650   0.07432
 Alpha virt. eigenvalues --    0.07504   0.08216   0.12178   0.13314   0.15368
 Alpha virt. eigenvalues --    0.15641   0.15751   0.17199   0.17482   0.17573

  Beta  occ. eigenvalues --  -11.22839 -11.22836 -11.20961  -1.01647  -0.93178
  Beta  occ. eigenvalues --   -0.74134  -0.61273  -0.56014  -0.55756  -0.52664
  Beta  occ. eigenvalues --   -0.49609  -0.48629
  Beta virt. eigenvalues --    0.03696   0.04873   0.05006   0.05671   0.07442
  Beta virt. eigenvalues --    0.07512   0.08225   0.10301   0.12618   0.14605
  Beta virt. eigenvalues --    0.15388   0.15676   0.17125   0.17470   0.17640

 Mulliken charges and spin densities:
               1          2
     1  C    0.084069   1.446486
     2  C    0.260431  -0.239181
     3  H   -0.044319   0.017430
     4  H    0.007410   0.047049
     5  H   -0.083551   0.005632
     6  C    0.260429  -0.239182
     7  H   -0.364010  -0.108345
     8  H   -0.044318   0.017430
     9  H   -0.083552   0.005631
    10  H    0.007411   0.047050
 Sum of Mulliken charges =  -0.00000   1.00000

 Dipole moment (field-independent basis, Debye):
    X=              0.0000    Y=             -0.0577    Z=              0.1501  Tot=              0.1608
                          Isotropic Fermi Contact Couplings
        Atom                 a.u.       MegaHertz       Gauss      10(-4) cm-1
     1  C(13)              0.23443     263.53960      94.03748      87.90735
     2  C(13)             -0.06363     -71.53524     -25.52555     -23.86159
     3  H(1)               0.01150      51.40887      18.34396      17.14815
     4  H(1)               0.02568     114.78506      40.95817      38.28818
     5  H(1)               0.00430      19.21844       6.85762       6.41058
     6  C(13)             -0.06363     -71.53532     -25.52558     -23.86161
     7  H(1)              -0.02559    -114.37122     -40.81049     -38.15013
     8  H(1)               0.01150      51.40942      18.34416      17.14834

 Normal termination of Gaussian 16 at Tue Apr  8 22:29:43 2025.
