 Gaussian 16, Revision C.01,

 ----------------------------------------------------------------------
 #t hf aug-cc-pvdz symm=none int=(grid=ultrafine) guess=(read,tcheck) s
 table=(opt,rrhf)
 ----------------------------------------------------------------------
 -----
 title
 -----
 Symbolic Z-matrix:
 Charge =  0 Multiplicity = 1

 SCF Done:  E(RHF) =  -1163.88669725     A.U. after   16 cycles
 Normal termination of Gaussian 16 at Wed Apr  9 00:48:47 2025.
 Gaussian 16:  ES64L-G16RevC.01  3-Jul-2019

 ----------------------------------------------------------------------
 #t hf aug-cc-pvdz iop(5/13=1,5/36=2,99/5=2) pseudo=read geom=check gue
 ss=(read,tcheck) scf=(maxcycle=1)
 ----------------------------------------------------------------------
 -----
 title
 -----
 Structure from the checkpoint file:  "BDE49_nonexpt_876_mol1.chk"
 Charge =  0 Multiplicity = 1

                         Standard orientation:
 ---------------------------------------------------------------------
 Center     Atomic      Atomic             Coordinates (Angstroms)
 Number     Number       Type             X           Y           Z
 ---------------------------------------------------------------------
      1          5           0        1.790057   -0.171474    0.002978
      2         16           0        3.034126    1.040782    0.540449
      3         16           0        2.148891   -1.897844   -0.441854
      4          8           0       -4.363212   -0.852537    0.306470
      5          6           0        0.304076    0.303501   -0.082336
      6          6           0       -0.762628   -0.581666    0.152364
      7          6           0       -2.090072   -0.159248    0.082655
      8          6           0       -2.383618    1.172217   -0.237303
      9          6           0       -1.348675    2.064372   -0.478243
     10          6           0       -0.023731    1.635625   -0.396640
     11          6           0       -3.185779   -1.122961    0.346968
     12          1           0       -0.558423   -1.616622    0.410896
     13          1           0       -3.422395    1.476640   -0.289276
     14          1           0       -1.566437    3.095986   -0.729969
     15          1           0        0.770600    2.346492   -0.596496
     16          1           0       -2.844909   -2.151509    0.594165
     17          1           0        3.445548   -1.946129   -0.094116
     18          1           0        4.145716    0.314758    0.335838
 ---------------------------------------------------------------------

 SCF Done:  E(RHF) =  -1164.02966156     A.U. after    2 cycles

 The electronic state is 1-A.
 Alpha  occ. eigenvalues --  -93.55268 -93.55240 -20.57534 -11.35213 -11.27998
 Alpha  occ. eigenvalues --  -11.27788 -11.27435 -11.26596 -11.26387 -11.25427
 Alpha  occ. eigenvalues --   -8.85228  -8.85188  -7.68419  -6.19427  -6.19397
 Alpha  occ. eigenvalues --   -6.19157  -6.19128  -6.18929  -6.18894  -1.36253
 Alpha  occ. eigenvalues --   -1.16887  -1.05263  -1.04252  -0.99826  -0.95848
 Alpha  occ. eigenvalues --   -0.89867  -0.85592  -0.80370  -0.73530  -0.69344
 Alpha  occ. eigenvalues --   -0.67885  -0.65636  -0.63708  -0.62257  -0.58299
 Alpha  occ. eigenvalues --   -0.56892  -0.56838  -0.53734  -0.53361  -0.51561
 Alpha  occ. eigenvalues --   -0.49443  -0.44740  -0.44140  -0.43558  -0.38114
 Alpha  occ. eigenvalues --   -0.36549  -0.35852
 Alpha virt. eigenvalues --    0.02871   0.03673   0.03986   0.04322   0.05447
 Alpha virt. eigenvalues --    0.05476   0.05949   0.06499   0.06987   0.07765
 Alpha virt. eigenvalues --    0.08101   0.08793   0.09664   0.09912   0.10363

 Mulliken charges:
               1
     1  B    0.441083
     2  S   -0.184690
     3  S   -0.181958
     4  O   -0.514098
     5  C   -0.090429
     6  C    0.144998
     7  C    0.781782
     8  C    0.583724
     9  C    0.435460
    10  C    0.421906
    11  C    0.825734
    12  H   -0.676793
    13  H   -0.557673
    14  H   -0.442625
    15  H   -0.658208
    16  H   -0.269397
    17  H   -0.025737
    18  H   -0.033076
 Sum of Mulliken charges =   0.00000

 Dipole moment (field-independent basis, Debye):
    X=              3.9876    Y=              0.3971    Z=             -0.1834  Tot=              4.0116

 Test job not archived.
 1\1\GINC-SE344\SP\RHF\Aug-CC-pVDZ\C7H7B1O1S2\OHZDE\09-Apr-2025\0\\#t h
 f aug-cc-pvdz iop(5/13=1,5/36=2,99/5=2) pseudo=read geom=check guess=(
 read,tcheck) scf=(maxcycle=1)\\title\\0,1\B,0,1.790057,-0.171474,0.002
 978\S,0,3.034126,1.040782,0.540449\S,0,2.148891,-1.897844,-0.441854\O,
 0,-4.363212,-0.852537,0.30647\C,0,0.304076,0.303501,-0.082336\C,0,-0.7
 62628,-0.581666,0.152364\C,0,-2.090072,-0.159248,0.082655\C,0,-2.38361
 8,1.172217,-0.237303\C,0,-1.348675,2.064372,-0.478243\C,0,-0.023731,1.
 635625,-0.39664\C,0,-3.185779,-1.122961,0.346968\H,0,-0.558423,-1.6166

 Normal termination of Gaussian 16 at Wed Apr  9 00:48:58 2025.
