 Gaussian 16, Revision C.01,

 ----------------------------------------------------------------------
 #t hf aug-cc-pvdz symm=none int=(grid=ultrafine) guess=(read,tcheck) s
 table=(opt,rrhf)
 ----------------------------------------------------------------------
 -----
 title
 -----
 Symbolic Z-matrix:
 Charge =  0 Multiplicity = 1

 SCF Done:  E(RHF) =  -554.848474483     A.U. after   12 cycles

 1\1\GINC-SE174\Stability\RHF\Aug-CC-pVDZ\C4H10S1\OHZDE\08-Apr-2025\0\\
 #t hf aug-cc-pvdz symm=none int=(grid=ultrafine) guess=(read,tcheck) s
 table=(opt,rrhf)\\title\\0,1\C,0,-3.019064,-0.407732,-0.031372\C,0,-1.
 794186,0.509576,0.031146\H,0,-3.024261,-0.997656,-0.952873\H,0,-3.9481
 58,0.167425,0.000599\H,0,-3.03222,-1.107744,0.809623\C,0,-0.467592,-0.
 261352,-0.015463\H,0,-1.834241,1.110708,0.94738\H,0,-1.827882,1.221117
 ,-0.802549\C,0,0.750746,0.658316,0.055318\H,0,-0.414498,-0.856647,-0.9
 32915\H,0,-0.432074,-0.974461,0.81676\H,0,0.747416,1.25332,0.970992\H,

 Normal termination of Gaussian 16 at Tue Apr  8 23:12:02 2025.
 Gaussian 16:  ES64L-G16RevC.01  3-Jul-2019

 ----------------------------------------------------------------------
 #t hf aug-cc-pvdz iop(5/13=1,5/36=2,99/5=2) pseudo=read geom=check gue
 ss=(read,tcheck) scf=(maxcycle=1)
 ----------------------------------------------------------------------
 -----
 title
 -----
 Structure from the checkpoint file:  "BDE49_expt_830_mol1.chk"
 Charge =  0 Multiplicity = 1

                         Standard orientation:
 ---------------------------------------------------------------------
 Center     Atomic      Atomic             Coordinates (Angstroms)
 Number     Number       Type             X           Y           Z
 ---------------------------------------------------------------------
      1          6           0       -3.019064   -0.407732   -0.031372
      2          6           0       -1.794186    0.509576    0.031146
      3          1           0       -3.024261   -0.997656   -0.952873
      4          1           0       -3.948158    0.167425    0.000599
      5          1           0       -3.032220   -1.107744    0.809623
      6          6           0       -0.467592   -0.261352   -0.015463
      7          1           0       -1.834241    1.110708    0.947380
      8          1           0       -1.827882    1.221117   -0.802549
      9          6           0        0.750746    0.658316    0.055318
     10          1           0       -0.414498   -0.856647   -0.932915
     11          1           0       -0.432074   -0.974461    0.816760
     12          1           0        0.747416    1.253320    0.970992
     13          1           0        0.752839    1.358954   -0.784029
     14         16           0        2.370656   -0.202257   -0.084408
     15          1           0        2.263163   -0.931746    1.039772
 ---------------------------------------------------------------------

 SCF Done:  E(RHF) =  -554.919453484     A.U. after    2 cycles

 The electronic state is 1-A.
 Alpha  occ. eigenvalues --  -93.53006 -11.27140 -11.23861 -11.23681 -11.22867
 Alpha  occ. eigenvalues --   -8.82732  -6.16897  -6.16689  -6.16342  -1.08223
 Alpha  occ. eigenvalues --   -1.01560  -0.92558  -0.83377  -0.80071  -0.65998
 Alpha  occ. eigenvalues --   -0.60186  -0.59898  -0.56737  -0.52851  -0.51812
 Alpha  occ. eigenvalues --   -0.50056  -0.48340  -0.47636  -0.43622  -0.35207
 Alpha virt. eigenvalues --    0.03449   0.04427   0.04602   0.04953   0.06426
 Alpha virt. eigenvalues --    0.06748   0.07158   0.07601   0.09073   0.09894
 Alpha virt. eigenvalues --    0.10796   0.11307   0.13572   0.14433   0.14950

 Mulliken charges:
               1
     1  C    0.389260
     2  C    0.159498
     3  H   -0.070566
     4  H   -0.062703
     5  H   -0.076671
     6  C    0.105193
     7  H   -0.131755
     8  H   -0.130886
     9  C   -0.098498
    10  H   -0.121914
    11  H   -0.152795
    12  H   -0.120884
    13  H   -0.075186
    14  S    0.349401
    15  H    0.038506
 Sum of Mulliken charges =  -0.00000

 Dipole moment (field-independent basis, Debye):
    X=             -1.7779    Y=              0.3309    Z=              0.6982  Tot=              1.9385

 Test job not archived.
 1\1\GINC-SE174\SP\RHF\Aug-CC-pVDZ\C4H10S1\OHZDE\08-Apr-2025\0\\#t hf a
 ug-cc-pvdz iop(5/13=1,5/36=2,99/5=2) pseudo=read geom=check guess=(rea
 d,tcheck) scf=(maxcycle=1)\\title\\0,1\C,0,-3.019064,-0.407732,-0.0313
 72\C,0,-1.794186,0.509576,0.031146\H,0,-3.024261,-0.997656,-0.952873\H
 ,0,-3.948158,0.167425,0.000599\H,0,-3.03222,-1.107744,0.809623\C,0,-0.
 467592,-0.261352,-0.015463\H,0,-1.834241,1.110708,0.94738\H,0,-1.82788
 2,1.221117,-0.802549\C,0,0.750746,0.658316,0.055318\H,0,-0.414498,-0.8
 56647,-0.932915\H,0,-0.432074,-0.974461,0.81676\H,0,0.747416,1.25332,0

 Normal termination of Gaussian 16 at Tue Apr  8 23:12:07 2025.
