 Gaussian 16, Revision C.01,

 ----------------------------------------------------------------------
 #t hf aug-cc-pvdz symm=none int=(grid=ultrafine) guess=(read,tcheck) s
 table=(opt,rrhf)
 ----------------------------------------------------------------------
 -----
 title
 -----
 Symbolic Z-matrix:
 Charge =  0 Multiplicity = 1

 SCF Done:  E(RHF) =  -1914.91256366     A.U. after   12 cycles

 1\1\GINC-SE105\Stability\RHF\Aug-CC-pVDZ\C2H2Cl4\OHZDE\08-Apr-2025\0\\
 #t hf aug-cc-pvdz symm=none int=(grid=ultrafine) guess=(read,tcheck) s
 table=(opt,rrhf)\\title\\0,1\C,0,0.231256,-0.730765,-0.490486\C,0,-0.2
 31256,0.730765,-0.490486\Cl,0,-1.19089,-1.811758,-0.690872\Cl,0,1.1908
 9,-1.175853,0.943834\H,0,0.864676,-0.894047,-1.357434\H,0,-0.864676,0.
 894047,-1.357434\Cl,0,1.19089,1.811758,-0.690872\Cl,0,-1.19089,1.17585
 3,0.943834\\Version=ES64L-G16RevC.01\HF=-1914.9125637\RMSD=5.301e-09\D
 ipole=0.,0.,-0.7334613\Quadrupole=-0.0537691,-1.8631933,1.9169624,-0.8

 Normal termination of Gaussian 16 at Tue Apr  8 22:27:43 2025.
 Gaussian 16:  ES64L-G16RevC.01  3-Jul-2019

 ----------------------------------------------------------------------
 #t hf aug-cc-pvdz iop(5/13=1,5/36=2,99/5=2) pseudo=read geom=check gue
 ss=(read,tcheck) scf=(maxcycle=1)
 ----------------------------------------------------------------------
 -----
 title
 -----
 Structure from the checkpoint file:  "BDE49_expt_1015_mol1.chk"
 Charge =  0 Multiplicity = 1

                         Standard orientation:
 ---------------------------------------------------------------------
 Center     Atomic      Atomic             Coordinates (Angstroms)
 Number     Number       Type             X           Y           Z
 ---------------------------------------------------------------------
      1          6           0       -0.231256    0.730765   -0.490486
      2          6           0        0.231256   -0.730765   -0.490486
      3         17           0        1.190890    1.811758   -0.690872
      4         17           0       -1.190890    1.175853    0.943834
      5          1           0       -0.864676    0.894047   -1.357434
      6          1           0        0.864676   -0.894047   -1.357434
      7         17           0       -1.190890   -1.811758   -0.690872
      8         17           0        1.190890   -1.175853    0.943834
 ---------------------------------------------------------------------

 SCF Done:  E(RHF) =  -1915.00913779     A.U. after    2 cycles

 The electronic state is 1-A.
 Alpha  occ. eigenvalues -- -103.69060-103.69060-103.68715-103.68715 -11.41012
 Alpha  occ. eigenvalues --  -11.40957 -10.72342 -10.72341 -10.72013 -10.72009
 Alpha  occ. eigenvalues --   -8.38062  -8.38060  -8.37745  -8.37743  -8.37735
 Alpha  occ. eigenvalues --   -8.37735  -8.37731  -8.37729  -8.37407  -8.37405
 Alpha  occ. eigenvalues --   -8.37399  -8.37395  -1.26428  -1.20966  -1.16020
 Alpha  occ. eigenvalues --   -1.15384  -0.99606  -0.84909  -0.71715  -0.67048
 Alpha  occ. eigenvalues --   -0.65221  -0.59942  -0.58663  -0.51626  -0.50411
 Alpha  occ. eigenvalues --   -0.49652  -0.49007  -0.47750  -0.47469  -0.47200
 Alpha  occ. eigenvalues --   -0.46819
 Alpha virt. eigenvalues --    0.03651   0.05204   0.06637   0.06989   0.08976
 Alpha virt. eigenvalues --    0.09484   0.11379   0.11812   0.13124   0.14211
 Alpha virt. eigenvalues --    0.14953   0.15064   0.15713   0.16260   0.16637

 Mulliken charges:
               1
     1  C   -0.121081
     2  C   -0.121081
     3  Cl  -0.029725
     4  Cl  -0.003702
     5  H    0.154509
     6  H    0.154509
     7  Cl  -0.029725
     8  Cl  -0.003702
 Sum of Mulliken charges =  -0.00000

 Dipole moment (field-independent basis, Debye):
    X=              0.0000    Y=             -0.0000    Z=             -1.9356  Tot=              1.9356

 Test job not archived.
 1\1\GINC-SE105\SP\RHF\Aug-CC-pVDZ\C2H2Cl4\OHZDE\08-Apr-2025\0\\#t hf a
 ug-cc-pvdz iop(5/13=1,5/36=2,99/5=2) pseudo=read geom=check guess=(rea
 d,tcheck) scf=(maxcycle=1)\\title\\0,1\C,0,0.231256,-0.730765,-0.49048
 6\C,0,-0.231256,0.730765,-0.490486\Cl,0,-1.19089,-1.811758,-0.690872\C
 l,0,1.19089,-1.175853,0.943834\H,0,0.864676,-0.894047,-1.357434\H,0,-0
 .864676,0.894047,-1.357434\Cl,0,1.19089,1.811758,-0.690872\Cl,0,-1.190
 89,1.175853,0.943834\\Version=ES64L-G16RevC.01\State=1-A\HF=-1915.0091
 378\RMSD=4.080e-03\Dipole=0.,0.,-0.7615396\Quadrupole=-0.0351212,-1.92

 Normal termination of Gaussian 16 at Tue Apr  8 22:27:45 2025.
