 Gaussian 16, Revision C.01,

 ----------------------------------------------------------------------
 #t hf aug-cc-pvdz symm=none int=(grid=ultrafine) guess=(read,tcheck) s
 table=(opt,rrhf)
 ----------------------------------------------------------------------
 -----
 title
 -----
 Symbolic Z-matrix:
 Charge =  0 Multiplicity = 1

 SCF Done:  E(RHF) =  -1119.20496139     A.U. after   18 cycles
 Normal termination of Gaussian 16 at Tue Apr  8 22:58:35 2025.
 Gaussian 16:  ES64L-G16RevC.01  3-Jul-2019

 ----------------------------------------------------------------------
 #t hf aug-cc-pvdz iop(5/13=1,5/36=2,99/5=2) pseudo=read geom=check gue
 ss=(read,tcheck) scf=(maxcycle=1)
 ----------------------------------------------------------------------
 -----
 title
 -----
 Structure from the checkpoint file:  "BDE49_expt_1758_mol1.chk"
 Charge =  0 Multiplicity = 1

                         Standard orientation:
 ---------------------------------------------------------------------
 Center     Atomic      Atomic             Coordinates (Angstroms)
 Number     Number       Type             X           Y           Z
 ---------------------------------------------------------------------
      1          7           0        0.489639   -0.114524    0.479087
      2          7           0        0.833560    0.521630    1.665301
      3          8           0       -0.095351    0.922341    2.311197
      4          6           0        1.553566   -0.836881   -0.185204
      5          8           0        1.355011   -1.970057   -0.576801
      6          7           0        2.728624   -0.168121   -0.302377
      7          6           0       -0.880132   -0.397380    0.166202
      8          6           0       -1.697312    0.594565   -0.383939
      9          6           0       -3.035724    0.339602   -0.663415
     10          6           0       -3.563014   -0.920003   -0.397417
     11          6           0       -2.758185   -1.917828    0.146936
     12          6           0       -1.423415   -1.654815    0.431939
     13          1           0       -3.649613    1.123826   -1.086428
     14          1           0       -4.605444   -1.117656   -0.618172
     15          1           0       -3.167506   -2.899706    0.351219
     16          1           0       -0.778577   -2.418380    0.843118
     17          6           0        3.896452   -0.922902   -0.746985
     18          1           0        4.744428   -0.704754   -0.091509
     19          1           0        4.166668   -0.650636   -1.773120
     20          1           0        3.669293   -1.984857   -0.714530
     21          6           0        2.923056    1.271681   -0.148904
     22          1           0        3.553995    1.622509   -0.970607
     23          1           0        3.410538    1.510999    0.800047
     24          1           0        1.974133    1.797463   -0.198902
     25         17           0       -1.049983    2.181988   -0.742685
 ---------------------------------------------------------------------

 SCF Done:  E(RHF) =  -1119.42139882     A.U. after    2 cycles

 The electronic state is 1-A.
 Alpha  occ. eigenvalues -- -103.67644 -20.63972 -20.55183 -15.82286 -15.71146
 Alpha  occ. eigenvalues --  -15.66960 -11.41845 -11.32693 -11.31019 -11.28496
 Alpha  occ. eigenvalues --  -11.27776 -11.26794 -11.26619 -11.26602 -11.26009
 Alpha  occ. eigenvalues --  -10.70905  -8.36645  -8.36351  -8.36321  -1.49949
 Alpha  occ. eigenvalues --   -1.38294  -1.25950  -1.22930  -1.19765  -1.14114
 Alpha  occ. eigenvalues --   -1.04254  -1.01480  -0.98108  -0.96637  -0.92245
 Alpha  occ. eigenvalues --   -0.86197  -0.83493  -0.78650  -0.75365  -0.73204
 Alpha  occ. eigenvalues --   -0.70198  -0.69592  -0.67266  -0.66746  -0.65598
 Alpha  occ. eigenvalues --   -0.63842  -0.63374  -0.60839  -0.60654  -0.57979
 Alpha  occ. eigenvalues --   -0.57327  -0.57056  -0.55521  -0.54996  -0.54444
 Alpha  occ. eigenvalues --   -0.53011  -0.48897  -0.48327  -0.47486  -0.44426
 Alpha  occ. eigenvalues --   -0.43495  -0.39115  -0.36095  -0.35033
 Alpha virt. eigenvalues --    0.03085   0.03278   0.03857   0.04873   0.05050
 Alpha virt. eigenvalues --    0.05454   0.06874   0.07242   0.07800   0.08194
 Alpha virt. eigenvalues --    0.08861   0.09174   0.09472   0.09980   0.10931

 Mulliken charges:
               1
     1  N   -0.237174
     2  N   -0.001538
     3  O   -0.495721
     4  C    0.051780
     5  O   -0.485239
     6  N   -0.454176
     7  C    0.352223
     8  C   -0.354376
     9  C    0.877297
    10  C    0.762521
    11  C    0.499392
    12  C    1.049539
    13  H   -0.448563
    14  H   -0.443146
    15  H   -0.448505
    16  H   -0.679065
    17  C    0.740332
    18  H   -0.058861
    19  H   -0.098366
    20  H   -0.228746
    21  C    0.965686
    22  H   -0.140190
    23  H   -0.087931
    24  H   -0.259888
    25  Cl  -0.377286
 Sum of Mulliken charges =  -0.00000

 Dipole moment (field-independent basis, Debye):
    X=              1.0287    Y=              0.1599    Z=             -1.2514  Tot=              1.6278

 Test job not archived.
 1\1\GINC-SE455\SP\RHF\Aug-CC-pVDZ\C9H10Cl1N3O2\OHZDE\08-Apr-2025\0\\#t
  hf aug-cc-pvdz iop(5/13=1,5/36=2,99/5=2) pseudo=read geom=check guess
 =(read,tcheck) scf=(maxcycle=1)\\title\\0,1\N,0,0.489639,-0.114524,0.4
 79087\N,0,0.83356,0.52163,1.665301\O,0,-0.095351,0.922341,2.311197\C,0
 ,1.553566,-0.836881,-0.185204\O,0,1.355011,-1.970057,-0.576801\N,0,2.7
 28624,-0.168121,-0.302377\C,0,-0.880132,-0.39738,0.166202\C,0,-1.69731
 2,0.594565,-0.383939\C,0,-3.035724,0.339602,-0.663415\C,0,-3.563014,-0
 .920003,-0.397417\C,0,-2.758185,-1.917828,0.146936\C,0,-1.423415,-1.65

 Normal termination of Gaussian 16 at Tue Apr  8 22:59:00 2025.
