 Gaussian 16, Revision C.01,

 ----------------------------------------------------------------------
 #t hf aug-cc-pvdz symm=none int=(grid=ultrafine) guess=(read,tcheck) s
 table=(opt,rrhf)
 ----------------------------------------------------------------------
 -----
 title
 -----
 Symbolic Z-matrix:
 Charge =  0 Multiplicity = 1

 SCF Done:  E(RHF) =  -857.375379726     A.U. after   17 cycles
 Normal termination of Gaussian 16 at Tue Apr  8 23:08:59 2025.
 Gaussian 16:  ES64L-G16RevC.01  3-Jul-2019

 ----------------------------------------------------------------------
 #t hf aug-cc-pvdz iop(5/13=1,5/36=2,99/5=2) pseudo=read geom=check gue
 ss=(read,tcheck) scf=(maxcycle=1)
 ----------------------------------------------------------------------
 -----
 title
 -----
 Structure from the checkpoint file:  "BDE49_expt_678_mol1.chk"
 Charge =  0 Multiplicity = 1

                         Standard orientation:
 ---------------------------------------------------------------------
 Center     Atomic      Atomic             Coordinates (Angstroms)
 Number     Number       Type             X           Y           Z
 ---------------------------------------------------------------------
      1          6           0       -1.565937   -0.901695    0.000000
      2          6           0       -1.311069    0.466130    0.000000
      3          6           0       -0.494503   -1.786484    0.000000
      4          6           0        0.821597   -1.324659    0.000000
      5          6           0        1.063050    0.040537    0.000000
      6          6           0        0.000000    0.958024    0.000000
      7          1           0       -2.144762    1.160076    0.000000
      8          1           0       -2.580870   -1.277112    0.000000
      9          1           0        1.641263   -2.031492    0.000000
     10          1           0        2.079745    0.412480    0.000000
     11          6           0        0.218907    2.406130    0.000000
     12          7           0        1.394159    2.904578    0.000000
     13          1           0       -0.653161    3.062437    0.000000
     14          8           0        1.353300    4.299412    0.000000
     15          1           0        2.285249    4.540600    0.000000
     16         17           0       -0.800309   -3.514249    0.000000
 ---------------------------------------------------------------------

 SCF Done:  E(RHF) =  -857.509975573     A.U. after    2 cycles

 The electronic state is 1-A'.
 Alpha  occ. eigenvalues -- -103.67289 -20.62102 -15.69914 -11.32434 -11.30056
 Alpha  occ. eigenvalues --  -11.27463 -11.27243 -11.26882 -11.26848 -11.26711
 Alpha  occ. eigenvalues --  -10.70556  -8.36293  -8.35986  -8.35970  -1.39036
 Alpha  occ. eigenvalues --   -1.20777  -1.17040  -1.12770  -1.03838  -1.01740
 Alpha  occ. eigenvalues --   -0.87469  -0.85857  -0.79264  -0.74309  -0.70284
 Alpha  occ. eigenvalues --   -0.67853  -0.65922  -0.63916  -0.61712  -0.61694
 Alpha  occ. eigenvalues --   -0.59812  -0.55982  -0.53343  -0.52825  -0.49827
 Alpha  occ. eigenvalues --   -0.47414  -0.45444  -0.42947  -0.36541  -0.33069
 Alpha virt. eigenvalues --    0.03369   0.03646   0.04162   0.05349   0.06178
 Alpha virt. eigenvalues --    0.06305   0.07707   0.08399   0.09530   0.09621
 Alpha virt. eigenvalues --    0.10633   0.12519   0.12576   0.13598   0.13655

 Mulliken charges:
               1
     1  C    0.724829
     2  C    0.664444
     3  C   -0.608809
     4  C    0.767610
     5  C    0.168689
     6  C    0.786846
     7  H   -0.591133
     8  H   -0.446452
     9  H   -0.443374
    10  H   -0.614716
    11  C    0.873216
    12  N   -0.242890
    13  H   -0.382972
    14  O   -0.498941
    15  H    0.193942
    16  Cl  -0.350289
 Sum of Mulliken charges =  -0.00000

 Dipole moment (field-independent basis, Debye):
    X=              0.0402    Y=              1.0550    Z=              0.0000  Tot=              1.0558

 Test job not archived.
 1\1\GINC-SE073\SP\RHF\Aug-CC-pVDZ\C7H6Cl1N1O1\OHZDE\08-Apr-2025\0\\#t
 hf aug-cc-pvdz iop(5/13=1,5/36=2,99/5=2) pseudo=read geom=check guess=
 (read,tcheck) scf=(maxcycle=1)\\title\\0,1\C,0,-1.565937,-0.901695,0.\
 C,0,-1.311069,0.46613,0.\C,0,-0.494503,-1.786484,0.\C,0,0.821597,-1.32
 4659,0.\C,0,1.06305,0.040537,0.\C,0,0.,0.958024,0.\H,0,-2.144762,1.160
 076,0.\H,0,-2.58087,-1.277112,0.\H,0,1.641263,-2.031492,0.\H,0,2.07974
 5,0.41248,0.\C,0,0.218907,2.40613,0.\N,0,1.394159,2.904578,0.\H,0,-0.6
 53161,3.062437,0.\O,0,1.3533,4.299412,0.\H,0,2.285249,4.5406,0.\Cl,0,-

 Normal termination of Gaussian 16 at Tue Apr  8 23:09:07 2025.
