 Gaussian 16, Revision C.01,

 ----------------------------------------------------------------------
 #t hf aug-cc-pvdz symm=none int=(grid=ultrafine) guess=(read,tcheck) s
 table=(opt,rrhf)
 ----------------------------------------------------------------------
 -----
 title
 -----
 Symbolic Z-matrix:
 Charge =  0 Multiplicity = 1

 SCF Done:  E(RHF) =  -995.882911124     A.U. after   12 cycles

 1\1\GINC-SE038\Stability\RHF\Aug-CC-pVDZ\C2H2Cl2\OHZDE\08-Apr-2025\0\\
 #t hf aug-cc-pvdz symm=none int=(grid=ultrafine) guess=(read,tcheck) s
 table=(opt,rrhf)\\title\\0,1\C,0,-0.000008,1.751062,0.\C,0,0.000002,0.
 426792,0.\H,0,-0.000014,2.299046,-0.93207\H,0,-0.000014,2.299046,0.932
 07\Cl,0,0.000002,-0.519565,-1.461714\Cl,0,0.000002,-0.519565,1.461714\
 \Version=ES64L-G16RevC.01\HF=-995.8829111\RMSD=9.225e-09\Dipole=-0.000
 006,0.6705302,0.\Quadrupole=-1.9836889,2.1981181,-0.2144292,-0.0000309
 ,0.,0.\PG=Unknown\\@

 Normal termination of Gaussian 16 at Tue Apr  8 22:46:28 2025.
 Gaussian 16:  ES64L-G16RevC.01  3-Jul-2019

 ----------------------------------------------------------------------
 #t hf aug-cc-pvdz iop(5/13=1,5/36=2,99/5=2) pseudo=read geom=check gue
 ss=(read,tcheck) scf=(maxcycle=1)
 ----------------------------------------------------------------------
 -----
 title
 -----
 Structure from the checkpoint file:  "BDE49_expt_1625_mol1.chk"
 Charge =  0 Multiplicity = 1

                         Standard orientation:
 ---------------------------------------------------------------------
 Center     Atomic      Atomic             Coordinates (Angstroms)
 Number     Number       Type             X           Y           Z
 ---------------------------------------------------------------------
      1          6           0        0.000008    1.751062    0.000000
      2          6           0       -0.000002    0.426792    0.000000
      3          1           0        0.000014    2.299046    0.932070
      4          1           0        0.000014    2.299046   -0.932070
      5         17           0       -0.000002   -0.519565    1.461714
      6         17           0       -0.000002   -0.519565   -1.461714
 ---------------------------------------------------------------------

 SCF Done:  E(RHF) =  -995.946440983     A.U. after    2 cycles

 The electronic state is 1-A'.
 Alpha  occ. eigenvalues -- -103.68832-103.68831 -11.37940 -11.27474 -10.72126
 Alpha  occ. eigenvalues --  -10.72117  -8.37860  -8.37853  -8.37523  -8.37522
 Alpha  occ. eigenvalues --   -8.37511  -8.37509  -1.23955  -1.15847  -1.03376
 Alpha  occ. eigenvalues --   -0.78191  -0.67421  -0.65319  -0.57340  -0.55820
 Alpha  occ. eigenvalues --   -0.50538  -0.49198  -0.47165  -0.38519
 Alpha virt. eigenvalues --    0.03685   0.05303   0.07357   0.07942   0.09158
 Alpha virt. eigenvalues --    0.10723   0.13949   0.14503   0.15898   0.16210
 Alpha virt. eigenvalues --    0.16921   0.16962   0.18179   0.18195   0.19400

 Mulliken charges:
               1
     1  C    0.842773
     2  C   -0.097884
     3  H   -0.193644
     4  H   -0.193644
     5  Cl  -0.178801
     6  Cl  -0.178801
 Sum of Mulliken charges =  -0.00000

 Dipole moment (field-independent basis, Debye):
    X=              0.0000    Y=              1.7977    Z=              0.0000  Tot=              1.7977

 Test job not archived.
 1\1\GINC-SE038\SP\RHF\Aug-CC-pVDZ\C2H2Cl2\OHZDE\08-Apr-2025\0\\#t hf a
 ug-cc-pvdz iop(5/13=1,5/36=2,99/5=2) pseudo=read geom=check guess=(rea
 d,tcheck) scf=(maxcycle=1)\\title\\0,1\C,0,-0.000008,1.751062,0.\C,0,0
 .000002,0.426792,0.\H,0,-0.000014,2.299046,-0.93207\H,0,-0.000014,2.29
 9046,0.93207\Cl,0,0.000002,-0.519565,-1.461714\Cl,0,0.000002,-0.519565
 ,1.461714\\Version=ES64L-G16RevC.01\State=1-A'\HF=-995.946441\RMSD=5.2
 60e-03\Dipole=-0.0000061,0.7072857,0.\Quadrupole=-2.0228394,2.2699026,
 -0.2470632,-0.0000314,0.,0.\PG=CS [SG(C2),X(H2Cl2)]\\@

 Normal termination of Gaussian 16 at Tue Apr  8 22:46:30 2025.
