 Gaussian 16, Revision C.01,

 ----------------------------------------------------------------------
 #t hf aug-cc-pvdz symm=none int=(grid=ultrafine) guess=(read,tcheck) s
 table=(opt,rrhf)
 ----------------------------------------------------------------------
 -----
 title
 -----
 Symbolic Z-matrix:
 Charge =  0 Multiplicity = 1

 SCF Done:  E(RHF) =  -637.030879609     A.U. after   12 cycles
 Normal termination of Gaussian 16 at Tue Apr  8 22:27:16 2025.
 Gaussian 16:  ES64L-G16RevC.01  3-Jul-2019

 ----------------------------------------------------------------------
 #t hf aug-cc-pvdz iop(5/13=1,5/36=2,99/5=2) pseudo=read geom=check gue
 ss=(read,tcheck) scf=(maxcycle=1)
 ----------------------------------------------------------------------
 -----
 title
 -----
 Structure from the checkpoint file:  "BDE49_expt_1010_mol1.chk"
 Charge =  0 Multiplicity = 1

                         Standard orientation:
 ---------------------------------------------------------------------
 Center     Atomic      Atomic             Coordinates (Angstroms)
 Number     Number       Type             X           Y           Z
 ---------------------------------------------------------------------
      1          6           0        0.417705    0.102187    0.388530
      2          6           0        1.264087   -1.039484   -0.111884
      3         17           0       -1.328053   -0.128867   -0.055286
      4          9           0        0.847222    1.282583   -0.165425
      5          1           0        0.424856    0.217008    1.471291
      6          1           0        1.190288   -1.110732   -1.197757
      7          1           0        0.940474   -1.981506    0.332053
      8          1           0        2.305530   -0.853501    0.163219
 ---------------------------------------------------------------------

 SCF Done:  E(RHF) =  -637.111165510     A.U. after    2 cycles

 The electronic state is 1-A.
 Alpha  occ. eigenvalues -- -103.66162 -26.13659 -11.40520 -11.26018 -10.69494
 Alpha  occ. eigenvalues --   -8.35204  -8.34910  -8.34903  -1.67482  -1.17483
 Alpha  occ. eigenvalues --   -1.03604  -0.89572  -0.78499  -0.75838  -0.72371
 Alpha  occ. eigenvalues --   -0.62232  -0.58241  -0.56921  -0.52622  -0.47417
 Alpha  occ. eigenvalues --   -0.46127
 Alpha virt. eigenvalues --    0.03351   0.04689   0.05580   0.06458   0.09086
 Alpha virt. eigenvalues --    0.10940   0.11904   0.13884   0.14372   0.14906
 Alpha virt. eigenvalues --    0.16390   0.16934   0.18317   0.18732   0.19463

 Mulliken charges:
               1
     1  C    0.249724
     2  C    0.350741
     3  Cl  -0.174563
     4  F   -0.389349
     5  H   -0.039546
     6  H    0.002476
     7  H   -0.002236
     8  H    0.002754
 Sum of Mulliken charges =   0.00000

 Dipole moment (field-independent basis, Debye):
    X=              1.5948    Y=             -1.8495    Z=              1.1800  Tot=              2.7123

 Test job not archived.
 1\1\GINC-SE404\SP\RHF\Aug-CC-pVDZ\C2H4Cl1F1\OHZDE\08-Apr-2025\0\\#t hf
  aug-cc-pvdz iop(5/13=1,5/36=2,99/5=2) pseudo=read geom=check guess=(r
 ead,tcheck) scf=(maxcycle=1)\\title\\0,1\C,0,0.417705,0.102187,0.38853
 \C,0,1.264087,-1.039484,-0.111884\Cl,0,-1.328053,-0.128867,-0.055286\F
 ,0,0.847222,1.282583,-0.165425\H,0,0.424856,0.217008,1.471291\H,0,1.19
 0288,-1.110732,-1.197757\H,0,0.940474,-1.981506,0.332053\H,0,2.30553,-
 0.853501,0.163219\\Version=ES64L-G16RevC.01\State=1-A\HF=-637.1111655\
 RMSD=4.867e-03\Dipole=0.6274555,-0.7276311,0.46426\Quadrupole=-0.06348

 Normal termination of Gaussian 16 at Tue Apr  8 22:27:18 2025.
