 Gaussian 16, Revision C.01,

 ----------------------------------------------------------------------
 #t hf aug-cc-pvdz symm=none int=(grid=ultrafine) guess=(read,tcheck) s
 table=(opt,rrhf)
 ----------------------------------------------------------------------
 -----
 title
 -----
 Symbolic Z-matrix:
 Charge =  0 Multiplicity = 1

 SCF Done:  E(RHF) =  -447.405851162     A.U. after   11 cycles
 Normal termination of Gaussian 16 at Tue Apr  8 23:56:42 2025.
 Gaussian 16:  ES64L-G16RevC.01  3-Jul-2019

 ----------------------------------------------------------------------
 #t hf aug-cc-pvdz iop(5/13=1,5/36=2,99/5=2) pseudo=read geom=check gue
 ss=(read,tcheck) scf=(maxcycle=1)
 ----------------------------------------------------------------------
 -----
 title
 -----
 Structure from the checkpoint file:  "BDE49_nonexpt_2033_mol1.chk"
 Charge =  0 Multiplicity = 1

                         Standard orientation:
 ---------------------------------------------------------------------
 Center     Atomic      Atomic             Coordinates (Angstroms)
 Number     Number       Type             X           Y           Z
 ---------------------------------------------------------------------
      1         14           0       -2.376593   -0.215372   -0.000004
      2          6           0       -0.716550    0.680871   -0.000030
      3          6           0        0.513064   -0.245502    0.000010
      4          1           0       -0.686389    1.341434   -0.875533
      5          6           0        1.848586    0.510406   -0.000007
      6          1           0        0.477270   -0.905227   -0.875896
      7          1           0        0.477259   -0.905167    0.875960
      8          6           0        3.067421   -0.416561    0.000031
      9          1           0        1.887250    1.168426    0.876415
     10          1           0        1.887260    1.168368   -0.876472
     11          1           0        3.072842   -1.063266    0.882992
     12          1           0        4.001153    0.152254    0.000018
     13          1           0        3.072853   -1.063325   -0.882886
     14          1           0       -0.686397    1.341497    0.875426
     15          1           0       -2.505237   -1.077135   -1.201500
     16          1           0       -3.495408    0.759034   -0.000090
     17          1           0       -2.505285   -1.076976    1.201601
 ---------------------------------------------------------------------

 SCF Done:  E(RHF) =  -447.480635053     A.U. after    2 cycles

 The electronic state is 1-A.
 Alpha  occ. eigenvalues --  -69.05426 -11.23487 -11.22957 -11.22365 -11.22182
 Alpha  occ. eigenvalues --   -6.80760  -3.91536  -3.91528  -3.91519  -1.06366
 Alpha  occ. eigenvalues --   -0.97714  -0.86262  -0.79426  -0.68537  -0.64578
 Alpha  occ. eigenvalues --   -0.58927  -0.57870  -0.54792  -0.51005  -0.50757
 Alpha  occ. eigenvalues --   -0.48030  -0.46974  -0.46445  -0.46213  -0.42122
 Alpha virt. eigenvalues --    0.03426   0.04307   0.04535   0.04767   0.05703
 Alpha virt. eigenvalues --    0.06477   0.06729   0.07458   0.08274   0.08511
 Alpha virt. eigenvalues --    0.09182   0.09739   0.10212   0.11640   0.12361

 Mulliken charges:
               1
     1  Si   0.266120
     2  C    0.178720
     3  C    0.083565
     4  H   -0.159323
     5  C    0.200606
     6  H   -0.192575
     7  H   -0.192576
     8  C    0.439066
     9  H   -0.128688
    10  H   -0.128687
    11  H   -0.076629
    12  H   -0.066580
    13  H   -0.076631
    14  H   -0.159319
    15  H    0.012160
    16  H   -0.011396
    17  H    0.012166
 Sum of Mulliken charges =  -0.00000

 Dipole moment (field-independent basis, Debye):
    X=              0.7829    Y=              0.4100    Z=             -0.0000  Tot=              0.8838

 Test job not archived.
 1\1\GINC-SE094\SP\RHF\Aug-CC-pVDZ\C4H12Si1\OHZDE\08-Apr-2025\0\\#t hf
 aug-cc-pvdz iop(5/13=1,5/36=2,99/5=2) pseudo=read geom=check guess=(re
 ad,tcheck) scf=(maxcycle=1)\\title\\0,1\Si,0,-2.376593,-0.215372,-0.00
 0004\C,0,-0.71655,0.680871,-0.00003\C,0,0.513064,-0.245502,0.00001\H,0
 ,-0.686389,1.341434,-0.875533\C,0,1.848586,0.510406,-0.000007\H,0,0.47
 727,-0.905227,-0.875896\H,0,0.477259,-0.905167,0.87596\C,0,3.067421,-0
 .416561,0.000031\H,0,1.88725,1.168426,0.876415\H,0,1.88726,1.168368,-0
 .876472\H,0,3.072842,-1.063266,0.882992\H,0,4.001153,0.152254,0.000018

 Normal termination of Gaussian 16 at Tue Apr  8 23:56:47 2025.
