 Gaussian 16, Revision C.01,

 ----------------------------------------------------------------------
 #t hf aug-cc-pvdz symm=none int=(grid=ultrafine) guess=(read,tcheck) s
 table=opt
 ----------------------------------------------------------------------
 -----
 title
 -----
 Symbolic Z-matrix:
 Charge =  0 Multiplicity = 2

 SCF Done:  E(UHF) =  -114.435823796     A.U. after   15 cycles
 Normal termination of Gaussian 16 at Tue Apr  8 22:30:16 2025.
 Gaussian 16:  ES64L-G16RevC.01  3-Jul-2019

 ----------------------------------------------------------------------
 #t hf aug-cc-pvdz iop(5/13=1,5/36=2,99/5=2) pseudo=read geom=check gue
 ss=(read,tcheck) scf=(maxcycle=1)
 ----------------------------------------------------------------------
 -----
 title
 -----
 Structure from the checkpoint file:  "BDE49_expt_1052_mol2.chk"
 Charge =  0 Multiplicity = 2

                         Standard orientation:
 ---------------------------------------------------------------------
 Center     Atomic      Atomic             Coordinates (Angstroms)
 Number     Number       Type             X           Y           Z
 ---------------------------------------------------------------------
      1          6           0        0.684502    0.027633   -0.066267
      2          8           0       -0.671169   -0.125159    0.023435
      3          1           0       -1.092075    0.734932   -0.068161
      4          1           0        1.231099   -0.889251    0.101595
      5          1           0        1.123315    0.989792    0.176691
 ---------------------------------------------------------------------

 SCF Done:  E(UHF) =  -114.474860466     A.U. after    2 cycles

 The electronic state is 2-A.
 Alpha  occ. eigenvalues --  -20.60243 -11.29189  -1.36164  -0.92749  -0.73260
 Alpha  occ. eigenvalues --   -0.64144  -0.62296  -0.53718  -0.34778
 Alpha virt. eigenvalues --    0.03365   0.05119   0.05921   0.10731   0.11882
 Alpha virt. eigenvalues --    0.15361   0.17384   0.21069   0.22415   0.23926
 Alpha virt. eigenvalues --    0.25750   0.30764   0.32060   0.34841   0.38082

  Beta  occ. eigenvalues --  -20.59586 -11.26724  -1.34084  -0.86338  -0.71516
  Beta  occ. eigenvalues --   -0.62709  -0.54402  -0.52242
  Beta virt. eigenvalues --    0.03441   0.05199   0.05954   0.08301   0.11833
  Beta virt. eigenvalues --    0.15493   0.17450   0.19797   0.21323   0.22554
  Beta virt. eigenvalues --    0.24501   0.26753   0.31899   0.32552   0.35610

 Mulliken charges and spin densities:
               1          2
     1  C    0.633624   1.155807
     2  O   -0.415234   0.042783
     3  H    0.144512  -0.009839
     4  H   -0.204826  -0.088929
     5  H   -0.158075  -0.099822
 Sum of Mulliken charges =  -0.00000   1.00000

 Dipole moment (field-independent basis, Debye):
    X=              0.3677    Y=              1.6228    Z=              0.1746  Tot=              1.6731
                          Isotropic Fermi Contact Couplings
        Atom                 a.u.       MegaHertz       Gauss      10(-4) cm-1
     1  C(13)              0.25146     282.69227     100.87163      94.29599
     2  O(17)              0.06245     -37.85867     -13.50892     -12.62829
     3  H(1)              -0.00272     -12.14439      -4.33342      -4.05093
     4  H(1)              -0.02118     -94.66928     -33.78035     -31.57827
     5  H(1)              -0.01950     -87.15033     -31.09740     -29.07022
 --------------------------------------------------------
       Center         ----  Spin Dipole Couplings  ----
                      3XX-RR        3YY-RR        3ZZ-RR

 Normal termination of Gaussian 16 at Tue Apr  8 22:30:17 2025.
