 Gaussian 16, Revision C.01,

 ----------------------------------------------------------------------
 #t hf aug-cc-pvdz symm=none int=(grid=ultrafine) guess=(read,tcheck) s
 table=opt
 ----------------------------------------------------------------------
 -----
 title
 -----
 Symbolic Z-matrix:
 Charge =  0 Multiplicity = 2

 SCF Done:  E(UHF) =  -270.599627189     A.U. after   16 cycles

 1\1\GINC-SE029\Stability\UHF\Aug-CC-pVDZ\C5H11O1\OHZDE\08-Apr-2025\0\\
 #t hf aug-cc-pvdz symm=none int=(grid=ultrafine) guess=(read,tcheck) s
 table=opt\\title\\0,2\O,0,2.103957,0.021159,0.000003\C,0,0.963383,0.76
 8386,-0.000206\C,0,-0.369358,-0.011504,0.\C,0,-1.526791,0.999726,-0.00
 0301\H,0,-1.495093,1.643795,0.884748\H,0,-2.491711,0.485088,-0.000155\
 H,0,-1.495084,1.643277,-0.885727\C,0,-0.428341,-0.891539,1.259789\H,0,
 -0.416274,-0.282507,2.169819\H,0,0.429201,-1.568034,1.29485\H,0,-1.340
 773,-1.494428,1.272911\C,0,-0.428318,-0.892271,-1.259276\H,0,-0.416263

 Normal termination of Gaussian 16 at Tue Apr  8 22:54:18 2025.
 Gaussian 16:  ES64L-G16RevC.01  3-Jul-2019

 ----------------------------------------------------------------------
 #t hf aug-cc-pvdz iop(5/13=1,5/36=2,99/5=2) pseudo=read geom=check gue
 ss=(read,tcheck) scf=(maxcycle=1)
 ----------------------------------------------------------------------
 -----
 title
 -----
 Structure from the checkpoint file:  "BDE49_expt_1849_mol2.chk"
 Charge =  0 Multiplicity = 2

                         Standard orientation:
 ---------------------------------------------------------------------
 Center     Atomic      Atomic             Coordinates (Angstroms)
 Number     Number       Type             X           Y           Z
 ---------------------------------------------------------------------
      1          8           0        2.103957    0.021159    0.000003
      2          6           0        0.963383    0.768386   -0.000206
      3          6           0       -0.369358   -0.011504    0.000000
      4          6           0       -1.526791    0.999726   -0.000301
      5          1           0       -1.495093    1.643795    0.884748
      6          1           0       -2.491711    0.485088   -0.000155
      7          1           0       -1.495084    1.643277   -0.885727
      8          6           0       -0.428341   -0.891539    1.259789
      9          1           0       -0.416274   -0.282507    2.169819
     10          1           0        0.429201   -1.568034    1.294850
     11          1           0       -1.340773   -1.494428    1.272911
     12          6           0       -0.428318   -0.892271   -1.259276
     13          1           0       -0.416263   -0.283766   -2.169659
     14          1           0       -1.340735   -1.495189   -1.272050
     15          1           0        0.429241   -1.568764   -1.293942
     16          1           0        1.021212    1.456951   -0.869190
     17          1           0        1.021175    1.457514    0.868329
 ---------------------------------------------------------------------

 SCF Done:  E(UHF) =  -270.685426865     A.U. after    2 cycles

 The electronic state is 2-A.
 Alpha  occ. eigenvalues --  -20.63131 -11.28873 -11.24747 -11.22942 -11.22311
 Alpha  occ. eigenvalues --  -11.22304  -1.37338  -1.09316  -0.93461  -0.93060
 Alpha  occ. eigenvalues --   -0.90889  -0.75155  -0.72349  -0.66330  -0.64911
 Alpha  occ. eigenvalues --   -0.60926  -0.58923  -0.55560  -0.54551  -0.54262
 Alpha  occ. eigenvalues --   -0.51893  -0.50715  -0.47098  -0.46231  -0.44380
 Alpha virt. eigenvalues --    0.03400   0.04557   0.04622   0.05016   0.06615
 Alpha virt. eigenvalues --    0.06775   0.07057   0.07294   0.07637   0.09166
 Alpha virt. eigenvalues --    0.09460   0.12385   0.12695   0.14092   0.14153

  Beta  occ. eigenvalues --  -20.59092 -11.29185 -11.24752 -11.22947 -11.22313
  Beta  occ. eigenvalues --  -11.22306  -1.24729  -1.08549  -0.93425  -0.93023
  Beta  occ. eigenvalues --   -0.88304  -0.74406  -0.64782  -0.62780  -0.62777
  Beta  occ. eigenvalues --   -0.58333  -0.57050  -0.54087  -0.53162  -0.52504
  Beta  occ. eigenvalues --   -0.51839  -0.46978  -0.46533  -0.42782
  Beta virt. eigenvalues --    0.03407   0.04558   0.04623   0.05027   0.06402
  Beta virt. eigenvalues --    0.06777   0.07059   0.07062   0.07653   0.08577
  Beta virt. eigenvalues --    0.09237   0.09564   0.12418   0.12748   0.14106

 Mulliken charges and spin densities:
               1          2
     1  O   -0.418679   1.040907
     2  C    1.242614  -0.199191
     3  C   -4.341102   0.014808
     4  C    1.248694   0.005054
     5  H   -0.035860  -0.000078
     6  H    0.007022  -0.000552
     7  H   -0.035856  -0.000078
     8  C    1.232511  -0.001797
     9  H   -0.019833  -0.000371
    10  H    0.025522  -0.002578
    11  H   -0.035716  -0.000795
    12  C    1.232522  -0.001793
    13  H   -0.019841  -0.000372
    14  H   -0.035709  -0.000794
    15  H    0.025529  -0.002579
    16  H   -0.035905   0.075118
    17  H   -0.035914   0.075091
 Sum of Mulliken charges =  -0.00000   1.00000

 Dipole moment (field-independent basis, Debye):
    X=             -1.6763    Y=              0.9045    Z=             -0.0003  Tot=              1.9048
                          Isotropic Fermi Contact Couplings
        Atom                 a.u.       MegaHertz       Gauss      10(-4) cm-1
     1  O(17)              0.28955    -175.52257     -62.63082     -58.54803
     2  C(13)             -0.05485     -61.65875     -22.00137     -20.56714
     3  C(13)             -0.00177      -1.98573      -0.70856      -0.66237
     4  C(13)             -0.00156      -1.75858      -0.62750      -0.58660
     5  H(1)               0.00006       0.25959       0.09263       0.08659
     6  H(1)              -0.00020      -0.88083      -0.31430      -0.29381
     7  H(1)               0.00006       0.25944       0.09257       0.08654
     8  C(13)             -0.00123      -1.38514      -0.49425      -0.46203

 Normal termination of Gaussian 16 at Tue Apr  8 22:54:24 2025.
