 Gaussian 16, Revision C.01,

 ----------------------------------------------------------------------
 #t hf aug-cc-pvdz symm=none int=(grid=ultrafine) guess=(read,tcheck) s
 table=opt
 ----------------------------------------------------------------------
 -----
 title
 -----
 Symbolic Z-matrix:
 Charge =  0 Multiplicity = 2

 SCF Done:  E(UHF) =  -793.804274154     A.U. after   22 cycles
 Normal termination of Gaussian 16 at Wed Apr  9 00:49:07 2025.
 Gaussian 16:  ES64L-G16RevC.01  3-Jul-2019

 ----------------------------------------------------------------------
 #t hf aug-cc-pvdz iop(5/13=1,5/36=2,99/5=2) pseudo=read geom=check gue
 ss=(read,tcheck) scf=(maxcycle=1)
 ----------------------------------------------------------------------
 -----
 title
 -----
 Structure from the checkpoint file:  "BDE49_nonexpt_929_mol2.chk"
 Charge =  0 Multiplicity = 2

                         Standard orientation:
 ---------------------------------------------------------------------
 Center     Atomic      Atomic             Coordinates (Angstroms)
 Number     Number       Type             X           Y           Z
 ---------------------------------------------------------------------
      1          7           0        1.792641    0.000002   -0.000054
      2          6           0        0.793610   -1.020278    0.000041
      3          8           0        0.773945   -2.199849    0.000004
      4          6           0        0.793608    1.020280    0.000056
      5          7           0       -0.234509   -0.000000    0.000008
      6          8           0        0.773938    2.199851   -0.000002
      7         17           0       -1.930194   -0.000003   -0.000017
 ---------------------------------------------------------------------

 SCF Done:  E(UHF) =  -793.924623961     A.U. after    2 cycles

 The electronic state is 2-A.
 Alpha  occ. eigenvalues -- -103.75998 -20.63342 -20.63342 -15.78660 -15.75792
 Alpha  occ. eigenvalues --  -11.46952 -11.46894 -10.78850  -8.44559  -8.44217
 Alpha  occ. eigenvalues --   -8.44184  -1.47682  -1.44305  -1.37686  -1.27884
 Alpha  occ. eigenvalues --   -1.10268  -0.89956  -0.79610  -0.77382  -0.75847
 Alpha  occ. eigenvalues --   -0.75446  -0.70622  -0.62804  -0.62772  -0.60835
 Alpha  occ. eigenvalues --   -0.55576  -0.54687  -0.52521  -0.49744  -0.47103
 Alpha virt. eigenvalues --    0.04562   0.06161   0.06243   0.07185   0.08896
 Alpha virt. eigenvalues --    0.10394   0.10996   0.11729   0.12402   0.13274
 Alpha virt. eigenvalues --    0.14062   0.15467   0.18347   0.18617   0.19028

  Beta  occ. eigenvalues -- -103.76000 -20.63132 -20.63132 -15.77641 -15.72870
  Beta  occ. eigenvalues --  -11.47363 -11.47304 -10.78850  -8.44707  -8.44180
  Beta  occ. eigenvalues --   -8.44099  -1.46298  -1.43936  -1.35254  -1.25003
  Beta  occ. eigenvalues --   -1.05155  -0.89729  -0.78860  -0.75493  -0.75091
  Beta  occ. eigenvalues --   -0.70133  -0.69971  -0.61580  -0.61104  -0.57193
  Beta  occ. eigenvalues --   -0.55464  -0.50240  -0.49065  -0.43413
  Beta virt. eigenvalues --   -0.03288   0.04801   0.06275   0.06521   0.07186
  Beta virt. eigenvalues --    0.09111   0.09939   0.10989   0.11745   0.12693
  Beta virt. eigenvalues --    0.13089   0.14083   0.15457   0.18332   0.18738

 Mulliken charges and spin densities:
               1          2
     1  N   -0.516437   1.066394
     2  C    0.701300  -0.203129
     3  O   -0.313690   0.052395
     4  C    0.701300  -0.203129
     5  N   -0.799685   0.257494
     6  O   -0.313690   0.052395
     7  Cl   0.540902  -0.022419
 Sum of Mulliken charges =  -0.00000   1.00000

 Dipole moment (field-independent basis, Debye):
    X=             -1.6209    Y=             -0.0000    Z=              0.0004  Tot=              1.6209
                          Isotropic Fermi Contact Couplings
        Atom                 a.u.       MegaHertz       Gauss      10(-4) cm-1
     1  N(14)              0.24465      79.04764      28.20616      26.36745
     2  C(13)             -0.06623     -74.45454     -26.56723     -24.83536
     3  O(17)              0.01518      -9.20446      -3.28438      -3.07028
     4  C(13)             -0.06623     -74.45455     -26.56723     -24.83536
     5  N(14)              0.10982      35.48240      12.66100      11.83565
     6  O(17)              0.01518      -9.20446      -3.28438      -3.07028
     7  Cl(35)             0.02136       9.36564       3.34189       3.12404
 --------------------------------------------------------

 Normal termination of Gaussian 16 at Wed Apr  9 00:49:11 2025.
