 Gaussian 16, Revision C.01,

 ----------------------------------------------------------------------
 #t hf aug-cc-pvdz symm=none int=(grid=ultrafine) guess=(read,tcheck) s
 table=(opt,rrhf)
 ----------------------------------------------------------------------
 -----
 title
 -----
 Symbolic Z-matrix:
 Charge =  0 Multiplicity = 1

 SCF Done:  E(RHF) =  -1692.99809368     A.U. after   14 cycles
 Normal termination of Gaussian 16 at Wed Apr  9 00:24:52 2025.
 Gaussian 16:  ES64L-G16RevC.01  3-Jul-2019

 ----------------------------------------------------------------------
 #t hf aug-cc-pvdz iop(5/13=1,5/36=2,99/5=2) pseudo=read geom=check gue
 ss=(read,tcheck) scf=(maxcycle=1)
 ----------------------------------------------------------------------
 -----
 title
 -----
 Structure from the checkpoint file:  "BDE49_nonexpt_2727_mol1.chk"
 Charge =  0 Multiplicity = 1

                         Standard orientation:
 ---------------------------------------------------------------------
 Center     Atomic      Atomic             Coordinates (Angstroms)
 Number     Number       Type             X           Y           Z
 ---------------------------------------------------------------------
      1         16           0       -0.921992   -1.242890   -0.472467
      2         16           0        0.921995   -1.242893    0.472454
      3          6           0        1.715866    0.140618   -0.395612
      4          6           0       -1.715874    0.140593    0.395634
      5          8           0       -1.205677    0.854344    1.198788
      6          8           0        1.205655    0.854402   -1.198729
      7          6           0        3.202714    0.326690    0.017527
      8          6           0       -3.202711    0.326690   -0.017532
      9          9           0       -3.426500    1.592089   -0.371198
     10          9           0       -3.994649    0.018046    1.015695
     11          9           0       -3.527920   -0.471510   -1.051872
     12          9           0        3.426529    1.592081    0.371203
     13          9           0        3.994626    0.018045   -1.015720
     14          9           0        3.527931   -0.471529    1.051851
 ---------------------------------------------------------------------

 SCF Done:  E(RHF) =  -1693.35119324     A.U. after    2 cycles

 The electronic state is 1-A.
 Alpha  occ. eigenvalues --  -93.63057 -93.63052 -26.20570 -26.20570 -26.20171
 Alpha  occ. eigenvalues --  -26.20170 -26.20065 -26.20064 -20.64461 -20.64461
 Alpha  occ. eigenvalues --  -11.57244 -11.57244 -11.44174 -11.44173  -8.92662
 Alpha  occ. eigenvalues --   -8.92643  -6.26825  -6.26708  -6.26510  -6.26461
 Alpha  occ. eigenvalues --   -6.26150  -6.26148  -1.79995  -1.79988  -1.72992
 Alpha  occ. eigenvalues --   -1.72988  -1.72796  -1.72791  -1.44467  -1.44212
 Alpha  occ. eigenvalues --   -1.12748  -1.10078  -1.07972  -1.00312  -0.95227
 Alpha  occ. eigenvalues --   -0.92193  -0.91780  -0.91751  -0.91751  -0.90302
 Alpha  occ. eigenvalues --   -0.80953  -0.80906  -0.80770  -0.80752  -0.80227
 Alpha  occ. eigenvalues --   -0.77784  -0.76629  -0.76527  -0.76523  -0.76240
 Alpha  occ. eigenvalues --   -0.75192  -0.75192  -0.70978  -0.70766  -0.70688
 Alpha  occ. eigenvalues --   -0.66525  -0.62913  -0.62016  -0.52994  -0.49512
 Alpha  occ. eigenvalues --   -0.49512  -0.44267  -0.42461
 Alpha virt. eigenvalues --    0.04609   0.05023   0.05448   0.05622   0.07036
 Alpha virt. eigenvalues --    0.07341   0.08075   0.08497   0.09544   0.09855
 Alpha virt. eigenvalues --    0.10542   0.11272   0.11326   0.11941   0.12694

 Mulliken charges:
               1
     1  S    0.187630
     2  S    0.187632
     3  C   -0.093159
     4  C   -0.093150
     5  O   -0.369000
     6  O   -0.368999
     7  C    1.122840
     8  C    1.122834
     9  F   -0.289263
    10  F   -0.292274
    11  F   -0.266777
    12  F   -0.289262
    13  F   -0.292274
    14  F   -0.266778
 Sum of Mulliken charges =  -0.00000

 Dipole moment (field-independent basis, Debye):
    X=              0.0000    Y=             -2.7669    Z=             -0.0000  Tot=              2.7669

 Test job not archived.
 1\1\GINC-SE106\SP\RHF\Aug-CC-pVDZ\C4F6O2S2\OHZDE\09-Apr-2025\0\\#t hf
 aug-cc-pvdz iop(5/13=1,5/36=2,99/5=2) pseudo=read geom=check guess=(re
 ad,tcheck) scf=(maxcycle=1)\\title\\0,1\S,0,-0.921992,-1.24289,-0.4724
 67\S,0,0.921995,-1.242893,0.472454\C,0,1.715866,0.140618,-0.395612\C,0
 ,-1.715874,0.140593,0.395634\O,0,-1.205677,0.854344,1.198788\O,0,1.205
 655,0.854402,-1.198729\C,0,3.202714,0.32669,0.017527\C,0,-3.202711,0.3
 2669,-0.017532\F,0,-3.4265,1.592089,-0.371198\F,0,-3.994649,0.018046,1
 .015695\F,0,-3.52792,-0.47151,-1.051872\F,0,3.426529,1.592081,0.371203

 Normal termination of Gaussian 16 at Wed Apr  9 00:25:02 2025.
