 Gaussian 16, Revision C.01,

 ----------------------------------------------------------------------
 #t hf aug-cc-pvdz symm=none int=(grid=ultrafine) guess=(read,tcheck) s
 table=opt
 ----------------------------------------------------------------------
 -----
 title
 -----
 Symbolic Z-matrix:
 Charge =  0 Multiplicity = 2

 SCF Done:  E(UHF) =  -369.659869125     A.U. after   16 cycles
 Normal termination of Gaussian 16 at Wed Apr  9 00:15:52 2025.
 Gaussian 16:  ES64L-G16RevC.01  3-Jul-2019

 ----------------------------------------------------------------------
 #t hf aug-cc-pvdz iop(5/13=1,5/36=2,99/5=2) pseudo=read geom=check gue
 ss=(read,tcheck) scf=(maxcycle=1)
 ----------------------------------------------------------------------
 -----
 title
 -----
 Structure from the checkpoint file:  "BDE49_nonexpt_252_mol2.chk"
 Charge =  0 Multiplicity = 2

                         Standard orientation:
 ---------------------------------------------------------------------
 Center     Atomic      Atomic             Coordinates (Angstroms)
 Number     Number       Type             X           Y           Z
 ---------------------------------------------------------------------
      1          5           0        1.375627    1.116574    0.000000
      2          8           0        0.841688    0.812993    1.202003
      3          8           0        0.841688    0.812993   -1.202003
      4          6           0       -0.611433   -0.743345   -0.000000
      5          6           0       -0.425633    0.094955   -1.265215
      6          6           0       -0.425633    0.094955    1.265215
      7          6           0       -0.425633   -0.722585    2.545071
      8          1           0        0.367019   -1.474607    2.517314
      9          1           0       -1.385440   -1.229817    2.678910
     10          1           0       -0.251691   -0.073762    3.405516
     11          1           0       -1.212940    0.856234    1.316997
     12          1           0        0.115680   -1.564335   -0.000000
     13          1           0       -1.610911   -1.190885   -0.000000
     14          6           0       -0.425633   -0.722585   -2.545071
     15          1           0       -1.212940    0.856234   -1.316997
     16          1           0        0.367019   -1.474607   -2.517314
     17          1           0       -0.251691   -0.073762   -3.405516
     18          1           0       -1.385440   -1.229817   -2.678910
 ---------------------------------------------------------------------

 SCF Done:  E(UHF) =  -369.781444369     A.U. after    2 cycles

 The electronic state is 2-A'.
 Alpha  occ. eigenvalues --  -20.57693 -20.57693 -11.31067 -11.31063 -11.24969
 Alpha  occ. eigenvalues --  -11.23562 -11.23562  -7.66743  -1.35413  -1.31165
 Alpha  occ. eigenvalues --   -1.08205  -1.02398  -0.94945  -0.84431  -0.83258
 Alpha  occ. eigenvalues --   -0.73278  -0.69558  -0.68576  -0.65496  -0.61079
 Alpha  occ. eigenvalues --   -0.57564  -0.56553  -0.56236  -0.55387  -0.54966
 Alpha  occ. eigenvalues --   -0.53736  -0.53338  -0.47624  -0.46364  -0.46039
 Alpha  occ. eigenvalues --   -0.33272
 Alpha virt. eigenvalues --    0.03034   0.04116   0.04140   0.04708   0.05956
 Alpha virt. eigenvalues --    0.06081   0.06321   0.06803   0.07280   0.08701
 Alpha virt. eigenvalues --    0.08717   0.09169   0.09387   0.12014   0.13592

  Beta  occ. eigenvalues --  -20.57587 -20.57586 -11.30925 -11.30920 -11.24992
  Beta  occ. eigenvalues --  -11.23571 -11.23570  -7.64607  -1.34906  -1.30794
  Beta  occ. eigenvalues --   -1.07820  -1.02097  -0.94936  -0.83934  -0.82216
  Beta  occ. eigenvalues --   -0.72660  -0.68980  -0.68032  -0.65538  -0.60395
  Beta  occ. eigenvalues --   -0.57354  -0.56441  -0.56191  -0.54935  -0.54882
  Beta  occ. eigenvalues --   -0.53810  -0.52698  -0.47504  -0.46634  -0.46019
  Beta virt. eigenvalues --    0.02962   0.04142   0.04144   0.04512   0.05808
  Beta virt. eigenvalues --    0.06082   0.06336   0.06520   0.07477   0.08685
  Beta virt. eigenvalues --    0.08748   0.09208   0.09435   0.10143   0.13064

 Mulliken charges and spin densities:
               1          2
     1  B   -0.056833   1.141929
     2  O   -0.483365  -0.120702
     3  O   -0.483365  -0.120702
     4  C   -0.004399  -0.075307
     5  C    0.364119   0.099927
     6  C    0.364119   0.099927
     7  C    0.552671  -0.013162
     8  H   -0.011503   0.001549
     9  H   -0.014767   0.000632
    10  H   -0.024101   0.000269
    11  H   -0.254887  -0.001445
    12  H   -0.071146  -0.005560
    13  H   -0.123956   0.004802
    14  C    0.552671  -0.013162
    15  H   -0.254887  -0.001445
    16  H   -0.011503   0.001549
    17  H   -0.024101   0.000269
    18  H   -0.014767   0.000632
 Sum of Mulliken charges =  -0.00000   1.00000

 Dipole moment (field-independent basis, Debye):
    X=             -3.3512    Y=             -2.0863    Z=              0.0000  Tot=              3.9476
                          Isotropic Fermi Contact Couplings
        Atom                 a.u.       MegaHertz       Gauss      10(-4) cm-1
     1  B(11)              0.44414     637.06292     227.31989     212.50132
     2  O(17)              0.14461     -87.66125     -31.27972     -29.24065
     3  O(17)              0.14461     -87.66125     -31.27972     -29.24065
     4  C(13)             -0.00457      -5.13292      -1.83155      -1.71216
     5  C(13)              0.02167      24.35722       8.69126       8.12469
     6  C(13)              0.02167      24.35722       8.69126       8.12469
     7  C(13)             -0.00168      -1.89184      -0.67506      -0.63105
     8  H(1)               0.00013       0.59215       0.21129       0.19752

 Normal termination of Gaussian 16 at Wed Apr  9 00:15:58 2025.
