 Gaussian 16, Revision C.01,

 ----------------------------------------------------------------------
 #t hf aug-cc-pvdz symm=none int=(grid=ultrafine) guess=(read,tcheck) s
 table=(opt,rrhf)
 ----------------------------------------------------------------------
 -----
 title
 -----
 Symbolic Z-matrix:
 Charge =  0 Multiplicity = 1

 SCF Done:  E(RHF) =  -566.379314803     A.U. after   14 cycles
 Normal termination of Gaussian 16 at Tue Apr  8 22:51:33 2025.
 Gaussian 16:  ES64L-G16RevC.01  3-Jul-2019

 ----------------------------------------------------------------------
 #t hf aug-cc-pvdz iop(5/13=1,5/36=2,99/5=2) pseudo=read geom=check gue
 ss=(read,tcheck) scf=(maxcycle=1)
 ----------------------------------------------------------------------
 -----
 title
 -----
 Structure from the checkpoint file:  "BDE49_expt_1819_mol1.chk"
 Charge =  0 Multiplicity = 1

                         Standard orientation:
 ---------------------------------------------------------------------
 Center     Atomic      Atomic             Coordinates (Angstroms)
 Number     Number       Type             X           Y           Z
 ---------------------------------------------------------------------
      1          7           0       -1.232206   -0.450603   -0.000003
      2          8           0       -1.598380    0.667164   -0.000020
      3         16           0        0.617226   -0.737245   -0.000076
      4          6           0        1.247217    0.954256    0.000144
      5          1           0        1.840570    1.136395    0.895452
      6          1           0        0.371860    1.614564   -0.000119
      7          1           0        1.841132    1.136339   -0.894799
 ---------------------------------------------------------------------

 SCF Done:  E(RHF) =  -566.453192000     A.U. after    2 cycles

 The electronic state is 1-A.
 Alpha  occ. eigenvalues --  -93.57128 -20.68174 -15.82633 -11.27874  -8.86753
 Alpha  occ. eigenvalues --   -6.20814  -6.20578  -6.20255  -1.52542  -1.06323
 Alpha  occ. eigenvalues --   -0.96166  -0.83296  -0.72099  -0.69280  -0.65458
 Alpha  occ. eigenvalues --   -0.60561  -0.58518  -0.48570  -0.39567  -0.37807
 Alpha virt. eigenvalues --    0.03493   0.05527   0.06009   0.06967   0.07726
 Alpha virt. eigenvalues --    0.08500   0.12086   0.13020   0.13685   0.15704
 Alpha virt. eigenvalues --    0.16021   0.17083   0.17129   0.19979   0.20272

 Mulliken charges:
               1
     1  N   -0.111779
     2  O   -0.371745
     3  S    0.557151
     4  C    0.014323
     5  H   -0.039939
     6  H   -0.008058
     7  H   -0.039953
 Sum of Mulliken charges =  -0.00000

 Dipole moment (field-independent basis, Debye):
    X=              1.7991    Y=              0.9178    Z=              0.0002  Tot=              2.0197

 Test job not archived.
 1\1\GINC-SE455\SP\RHF\Aug-CC-pVDZ\C1H3N1O1S1\OHZDE\08-Apr-2025\0\\#t h
 f aug-cc-pvdz iop(5/13=1,5/36=2,99/5=2) pseudo=read geom=check guess=(
 read,tcheck) scf=(maxcycle=1)\\title\\0,1\N,0,-1.232206,-0.450603,-0.0
 00003\O,0,-1.59838,0.667164,-0.00002\S,0,0.617226,-0.737245,-0.000076\
 C,0,1.247218,0.954255,0.000144\H,0,1.840571,1.136394,0.895452\H,0,0.37
 1861,1.614564,-0.000119\H,0,1.841133,1.136338,-0.894799\\Version=ES64L
 -G16RevC.01\State=1-A\HF=-566.453192\RMSD=3.896e-03\Dipole=0.7078067,0
 .3610991,0.0000675\Quadrupole=-0.0705745,-0.1801387,0.2507132,1.791569

 Normal termination of Gaussian 16 at Tue Apr  8 22:51:35 2025.
