 Gaussian 16, Revision C.01,

 ----------------------------------------------------------------------
 #t hf aug-cc-pvdz symm=none int=(grid=ultrafine) guess=(read,tcheck) s
 table=(opt,rrhf)
 ----------------------------------------------------------------------
 -----
 title
 -----
 Symbolic Z-matrix:
 Charge =  0 Multiplicity = 1

 SCF Done:  E(RHF) =  -851.799566712     A.U. after   15 cycles
 Normal termination of Gaussian 16 at Tue Apr  8 23:27:47 2025.
 Gaussian 16:  ES64L-G16RevC.01  3-Jul-2019

 ----------------------------------------------------------------------
 #t hf aug-cc-pvdz iop(5/13=1,5/36=2,99/5=2) pseudo=read geom=check gue
 ss=(read,tcheck) scf=(maxcycle=1)
 ----------------------------------------------------------------------
 -----
 title
 -----
 Structure from the checkpoint file:  "BDE49_nonexpt_1323_mol1.chk"
 Charge =  0 Multiplicity = 1

                         Standard orientation:
 ---------------------------------------------------------------------
 Center     Atomic      Atomic             Coordinates (Angstroms)
 Number     Number       Type             X           Y           Z
 ---------------------------------------------------------------------
      1          6           0       -1.743268    1.862419    0.032470
      2          6           0       -0.387053    1.554292    0.014981
      3          6           0       -2.705370    0.857211    0.027694
      4          6           0       -2.330390   -0.494600    0.002616
      5          6           0       -0.962089   -0.806104   -0.015180
      6          6           0       -0.005104    0.207708   -0.011387
      7          1           0       -0.633886   -1.839483   -0.034185
      8          1           0       -3.759007    1.117605    0.047117
      9          1           0       -2.060405    2.899212    0.049521
     10          1           0        0.358790    2.338423    0.017078
     11         15           0        1.720514   -0.282938   -0.018534
     12          8           0        1.955544   -1.733707    0.010354
     13          8           0        2.445462    0.504434    1.196360
     14          7           0       -3.286153   -1.505307    0.055530
     15          1           0       -4.205230   -1.257013   -0.278748
     16          1           0       -2.984492   -2.407243   -0.281885
     17          1           0        2.530415   -0.064517    1.970664
     18          8           0        2.288432    0.542624   -1.269086
     19          1           0        3.233311    0.401874   -1.408449
 ---------------------------------------------------------------------

 SCF Done:  E(RHF) =  -852.019283608     A.U. after    2 cycles

 The electronic state is 1-A.
 Alpha  occ. eigenvalues --  -81.41288 -20.61235 -20.60961 -20.52011 -15.63953
 Alpha  occ. eigenvalues --  -11.30165 -11.26049 -11.25744 -11.25274 -11.25168
 Alpha  occ. eigenvalues --  -11.24987  -7.89648  -5.04317  -5.04190  -5.04000
 Alpha  occ. eigenvalues --   -1.37556  -1.34020  -1.25462  -1.20833  -1.13073
 Alpha  occ. eigenvalues --   -1.02700  -0.99590  -0.87472  -0.83514  -0.81707
 Alpha  occ. eigenvalues --   -0.75926  -0.72232  -0.70028  -0.68336  -0.66468
 Alpha  occ. eigenvalues --   -0.65063  -0.62462  -0.61417  -0.60508  -0.58508
 Alpha  occ. eigenvalues --   -0.57671  -0.55365  -0.54776  -0.52361  -0.50513
 Alpha  occ. eigenvalues --   -0.48471  -0.46870  -0.46061  -0.35971  -0.30703
 Alpha virt. eigenvalues --    0.02886   0.03555   0.03931   0.05279   0.05344
 Alpha virt. eigenvalues --    0.06343   0.07563   0.08431   0.09239   0.09332
 Alpha virt. eigenvalues --    0.09700   0.11731   0.12118   0.12913   0.13495

 Mulliken charges:
               1
     1  C    0.360143
     2  C    0.343921
     3  C    1.083515
     4  C    0.317304
     5  C    0.626331
     6  C   -0.092844
     7  H   -0.691069
     8  H   -0.551644
     9  H   -0.445097
    10  H   -0.614685
    11  P    2.106915
    12  O   -0.912103
    13  O   -0.700823
    14  N   -0.323365
    15  H   -0.040225
    16  H   -0.033566
    17  H    0.136266
    18  O   -0.729270
    19  H    0.160295
 Sum of Mulliken charges =  -0.00000

 Dipole moment (field-independent basis, Debye):
    X=             -2.0305    Y=              1.4243    Z=             -0.0558  Tot=              2.4808

 Test job not archived.
 1\1\GINC-SE071\SP\RHF\Aug-CC-pVDZ\C6H8N1O3P1\OHZDE\08-Apr-2025\0\\#t h
 f aug-cc-pvdz iop(5/13=1,5/36=2,99/5=2) pseudo=read geom=check guess=(
 read,tcheck) scf=(maxcycle=1)\\title\\0,1\C,0,-1.743268,1.862419,0.032
 47\C,0,-0.387053,1.554292,0.014981\C,0,-2.70537,0.857211,0.027694\C,0,
 -2.33039,-0.4946,0.002616\C,0,-0.962089,-0.806104,-0.01518\C,0,-0.0051
 04,0.207708,-0.011387\H,0,-0.633886,-1.839483,-0.034185\H,0,-3.759007,
 1.117605,0.047117\H,0,-2.060405,2.899212,0.049521\H,0,0.35879,2.338423
 ,0.017078\P,0,1.720514,-0.282938,-0.018534\O,0,1.955544,-1.733707,0.01

 Normal termination of Gaussian 16 at Tue Apr  8 23:27:59 2025.
