 Gaussian 16, Revision C.01,

 ----------------------------------------------------------------------
 #t hf aug-cc-pvdz symm=none int=(grid=ultrafine) guess=(read,tcheck) s
 table=(opt,rrhf)
 ----------------------------------------------------------------------
 -----
 title
 -----
 Symbolic Z-matrix:
 Charge =  0 Multiplicity = 1

 SCF Done:  E(RHF) =  -555.089000445     A.U. after   12 cycles
 Normal termination of Gaussian 16 at Tue Apr  8 22:44:32 2025.
 Gaussian 16:  ES64L-G16RevC.01  3-Jul-2019

 ----------------------------------------------------------------------
 #t hf aug-cc-pvdz iop(5/13=1,5/36=2,99/5=2) pseudo=read geom=check gue
 ss=(read,tcheck) scf=(maxcycle=1)
 ----------------------------------------------------------------------
 -----
 title
 -----
 Structure from the checkpoint file:  "BDE49_expt_1541_mol1.chk"
 Charge =  0 Multiplicity = 1

                         Standard orientation:
 ---------------------------------------------------------------------
 Center     Atomic      Atomic             Coordinates (Angstroms)
 Number     Number       Type             X           Y           Z
 ---------------------------------------------------------------------
      1         14           0        0.022137    0.013833    0.005997
      2          6           0       -1.788818   -0.339713    0.176530
      3          1           0       -1.966127   -1.406510    0.334456
      4          1           0       -2.339374   -0.028908   -0.716031
      5          1           0       -2.203956    0.205395    1.028103
      6          8           0        0.742248   -0.902591   -1.165554
      7          8           0        0.876623   -0.351825    1.360223
      8          8           0        0.134226    1.623300   -0.298092
      9          1           0        0.429946   -0.816387   -2.068734
     10          1           0        1.481945   -1.094095    1.297502
     11          1           0        0.995782    2.034046   -0.191055
 ---------------------------------------------------------------------

 SCF Done:  E(RHF) =  -555.227200667     A.U. after    2 cycles

 The electronic state is 1-A.
 Alpha  occ. eigenvalues --  -69.12716 -20.57146 -20.56705 -20.56592 -11.21383
 Alpha  occ. eigenvalues --   -6.86864  -3.97905  -3.97895  -3.97688  -1.32334
 Alpha  occ. eigenvalues --   -1.29302  -1.28938  -0.94242  -0.77255  -0.72999
 Alpha  occ. eigenvalues --   -0.71682  -0.60484  -0.59773  -0.57290  -0.55817
 Alpha  occ. eigenvalues --   -0.55586  -0.55096  -0.52948  -0.51389  -0.46526
 Alpha virt. eigenvalues --    0.02862   0.05039   0.05191   0.05493   0.06864
 Alpha virt. eigenvalues --    0.07238   0.07747   0.09036   0.10218   0.12408
 Alpha virt. eigenvalues --    0.15706   0.15838   0.16653   0.19218   0.19759

 Mulliken charges:
               1
     1  Si   2.392392
     2  C    0.322169
     3  H   -0.244821
     4  H   -0.206067
     5  H   -0.205390
     6  O   -0.792701
     7  O   -0.855533
     8  O   -0.793206
     9  H    0.104050
    10  H    0.160996
    11  H    0.118111
 Sum of Mulliken charges =  -0.00000

 Dipole moment (field-independent basis, Debye):
    X=              0.3557    Y=             -0.6631    Z=             -1.3104  Tot=              1.5111

 Test job not archived.
 1\1\GINC-SE059\SP\RHF\Aug-CC-pVDZ\C1H6O3Si1\OHZDE\08-Apr-2025\0\\#t hf
  aug-cc-pvdz iop(5/13=1,5/36=2,99/5=2) pseudo=read geom=check guess=(r
 ead,tcheck) scf=(maxcycle=1)\\title\\0,1\Si,0,-0.022137,0.013833,-0.00
 5997\C,0,1.788818,-0.339712,-0.17653\H,0,1.966128,-1.406509,-0.334456\
 H,0,2.339374,-0.028906,0.716031\H,0,2.203956,0.205397,-1.028103\O,0,-0
 .742247,-0.902591,1.165554\O,0,-0.876623,-0.351825,-1.360223\O,0,-0.13
 4227,1.6233,0.298092\H,0,-0.429945,-0.816387,2.068734\H,0,-1.481944,-1
 .094096,-1.297502\H,0,-0.995783,2.034045,0.191055\\Version=ES64L-G16Re

 Normal termination of Gaussian 16 at Tue Apr  8 22:44:36 2025.
