 Gaussian 16, Revision C.01,

 ----------------------------------------------------------------------
 #t hf aug-cc-pvdz symm=none int=(grid=ultrafine) guess=(read,tcheck) s
 table=(opt,rrhf)
 ----------------------------------------------------------------------
 -----
 title
 -----
 Symbolic Z-matrix:
 Charge =  0 Multiplicity = 1

 SCF Done:  E(RHF) =  -728.309474211     A.U. after   15 cycles
 Normal termination of Gaussian 16 at Wed Apr  9 00:22:42 2025.
 Gaussian 16:  ES64L-G16RevC.01  3-Jul-2019

 ----------------------------------------------------------------------
 #t hf aug-cc-pvdz iop(5/13=1,5/36=2,99/5=2) pseudo=read geom=check gue
 ss=(read,tcheck) scf=(maxcycle=1)
 ----------------------------------------------------------------------
 -----
 title
 -----
 Structure from the checkpoint file:  "BDE49_nonexpt_2707_mol1.chk"
 Charge =  0 Multiplicity = 1

                         Standard orientation:
 ---------------------------------------------------------------------
 Center     Atomic      Atomic             Coordinates (Angstroms)
 Number     Number       Type             X           Y           Z
 ---------------------------------------------------------------------
      1          9           0       -2.980794    0.467693   -0.440591
      2          6           0       -0.743427    0.165043    0.251480
      3          6           0       -2.152678   -0.326373    0.357020
      4          1           0       -2.517576   -0.239824    1.386568
      5          1           0       -2.221573   -1.363766    0.024479
      6          7           0        0.204764   -0.650380    0.000054
      7         16           0        1.776224   -0.517989   -0.147502
      8          9           0        2.183550    1.108189    0.095510
      9          1           0       -0.561957    1.229112    0.403343
 ---------------------------------------------------------------------

 SCF Done:  E(RHF) =  -728.449827497     A.U. after    2 cycles

 The electronic state is 1-A.
 Alpha  occ. eigenvalues --  -93.66509 -26.12806 -26.12616 -15.70334 -11.35305
 Alpha  occ. eigenvalues --  -11.33664  -8.95074  -6.29335  -6.28906  -6.28389
 Alpha  occ. eigenvalues --   -1.65607  -1.63725  -1.26733  -1.06735  -0.96420
 Alpha  occ. eigenvalues --   -0.83171  -0.77788  -0.76445  -0.74455  -0.73349
 Alpha  occ. eigenvalues --   -0.73148  -0.70917  -0.61924  -0.58529  -0.56483
 Alpha  occ. eigenvalues --   -0.54786  -0.47218  -0.36406
 Alpha virt. eigenvalues --    0.03435   0.04287   0.05472   0.06493   0.07451
 Alpha virt. eigenvalues --    0.08123   0.09758   0.11486   0.12433   0.13087
 Alpha virt. eigenvalues --    0.14428   0.14890   0.16092   0.16629   0.17258

 Mulliken charges:
               1
     1  F   -0.405665
     2  C    0.410336
     3  C    0.601679
     4  H   -0.022961
     5  H   -0.124791
     6  N   -0.683823
     7  S    1.071802
     8  F   -0.643434
     9  H   -0.203142
 Sum of Mulliken charges =   0.00000

 Dipole moment (field-independent basis, Debye):
    X=             -0.9195    Y=             -1.7709    Z=              1.4494  Tot=              2.4662

 Test job not archived.
 1\1\GINC-SE105\SP\RHF\Aug-CC-pVDZ\C2H3F2N1S1\OHZDE\09-Apr-2025\0\\#t h
 f aug-cc-pvdz iop(5/13=1,5/36=2,99/5=2) pseudo=read geom=check guess=(
 read,tcheck) scf=(maxcycle=1)\\title\\0,1\F,0,-2.980794,0.467693,-0.44
 0591\C,0,-0.743427,0.165043,0.25148\C,0,-2.152678,-0.326373,0.35702\H,
 0,-2.517576,-0.239824,1.386568\H,0,-2.221573,-1.363766,0.024479\N,0,0.
 204764,-0.65038,0.000054\S,0,1.776224,-0.517989,-0.147502\F,0,2.18355,
 1.108189,0.09551\H,0,-0.561957,1.229112,0.403343\\Version=ES64L-G16Rev
 C.01\State=1-A\HF=-728.4498275\RMSD=5.904e-03\Dipole=-0.3617788,-0.696

 Normal termination of Gaussian 16 at Wed Apr  9 00:22:45 2025.
