 Gaussian 16, Revision C.01,

 ----------------------------------------------------------------------
 #t hf aug-cc-pvdz symm=none int=(grid=ultrafine) guess=(read,tcheck) s
 table=(opt,rrhf)
 ----------------------------------------------------------------------
 -----
 title
 -----
 Symbolic Z-matrix:
 Charge =  0 Multiplicity = 1

 SCF Done:  E(RHF) =  -1049.77744470     A.U. after   16 cycles
 Normal termination of Gaussian 16 at Tue Apr  8 23:44:45 2025.
 Gaussian 16:  ES64L-G16RevC.01  3-Jul-2019

 ----------------------------------------------------------------------
 #t hf aug-cc-pvdz iop(5/13=1,5/36=2,99/5=2) pseudo=read geom=check gue
 ss=(read,tcheck) scf=(maxcycle=1)
 ----------------------------------------------------------------------
 -----
 title
 -----
 Structure from the checkpoint file:  "BDE49_nonexpt_1696_mol1.chk"
 Charge =  0 Multiplicity = 1

                         Standard orientation:
 ---------------------------------------------------------------------
 Center     Atomic      Atomic             Coordinates (Angstroms)
 Number     Number       Type             X           Y           Z
 ---------------------------------------------------------------------
      1          6           0        2.213604   -1.132004    0.085723
      2         14           0        2.081741    0.773011    0.407209
      3          8           0        3.296633   -1.644307    0.186987
      4          8           0        1.125190   -1.883515   -0.210606
      5         15           0        0.345258    1.904161   -0.554755
      6          6           0       -1.033141    0.716028   -0.226075
      7          1           0        0.327800   -1.334100   -0.251751
      8          6           0       -1.652130    0.731570    1.034319
      9          6           0       -1.534338   -0.155664   -1.206688
     10          6           0       -2.617571   -0.989779   -0.929092
     11          6           0       -3.212411   -0.973428    0.329654
     12          6           0       -2.724990   -0.110555    1.310253
     13          1           0       -3.185677   -0.087278    2.291296
     14          1           0       -1.297708    1.412148    1.801523
     15          1           0       -1.083887   -0.177898   -2.192877
     16          1           0       -2.991696   -1.653892   -1.699953
     17          1           0       -4.050917   -1.625230    0.544737
     18          1           0        0.645192    1.478652   -1.873303
     19          1           0        3.344578    1.368844   -0.072201
     20          1           0        1.960336    0.939744    1.873312
 ---------------------------------------------------------------------

 SCF Done:  E(RHF) =  -1049.94330777     A.U. after    2 cycles

 The electronic state is 1-A.
 Alpha  occ. eigenvalues --  -81.27469 -69.09905 -20.62087 -20.56736 -11.38631
 Alpha  occ. eigenvalues --  -11.28567 -11.27456 -11.27323 -11.27194 -11.27126
 Alpha  occ. eigenvalues --  -11.26900  -7.77939  -6.85134  -4.92020  -4.91848
 Alpha  occ. eigenvalues --   -4.91620  -3.95891  -3.95866  -3.95850  -1.41334
 Alpha  occ. eigenvalues --   -1.32915  -1.16919  -1.04068  -1.03682  -0.87102
 Alpha  occ. eigenvalues --   -0.85584  -0.84921  -0.80620  -0.76898  -0.71730
 Alpha  occ. eigenvalues --   -0.67322  -0.66331  -0.65989  -0.64680  -0.63612
 Alpha  occ. eigenvalues --   -0.61730  -0.58112  -0.57401  -0.53819  -0.52498
 Alpha  occ. eigenvalues --   -0.51850  -0.50256  -0.48707  -0.45305  -0.44295
 Alpha  occ. eigenvalues --   -0.40068  -0.36876  -0.33080
 Alpha virt. eigenvalues --    0.02654   0.03556   0.03686   0.04900   0.05181
 Alpha virt. eigenvalues --    0.05720   0.06591   0.07056   0.07337   0.07377
 Alpha virt. eigenvalues --    0.07989   0.08470   0.08790   0.09597   0.09938

 Mulliken charges:
               1
     1  C    0.385998
     2  Si   0.405297
     3  O   -0.490684
     4  O   -0.408014
     5  P   -0.458857
     6  C   -0.371808
     7  H    0.257013
     8  C    0.582806
     9  C    0.869872
    10  C    0.342759
    11  C    0.619477
    12  C    0.458954
    13  H   -0.449833
    14  H   -0.570935
    15  H   -0.645212
    16  H   -0.459874
    17  H   -0.429887
    18  H    0.258167
    19  H    0.064394
    20  H    0.040366
 Sum of Mulliken charges =   0.00000

 Dipole moment (field-independent basis, Debye):
    X=             -4.6287    Y=              2.5049    Z=             -0.1407  Tot=              5.2649

 Test job not archived.
 1\1\GINC-SE102\SP\RHF\Aug-CC-pVDZ\C7H9O2P1Si1\OHZDE\08-Apr-2025\0\\#t
 hf aug-cc-pvdz iop(5/13=1,5/36=2,99/5=2) pseudo=read geom=check guess=
 (read,tcheck) scf=(maxcycle=1)\\title\\0,1\C,0,2.213604,-1.132004,0.08
 5723\Si,0,2.081741,0.773011,0.407209\O,0,3.296633,-1.644307,0.186987\O
 ,0,1.12519,-1.883515,-0.210606\P,0,0.345258,1.904161,-0.554755\C,0,-1.
 033141,0.716028,-0.226075\H,0,0.3278,-1.3341,-0.251751\C,0,-1.65213,0.
 73157,1.034319\C,0,-1.534338,-0.155664,-1.206688\C,0,-2.617571,-0.9897
 79,-0.929092\C,0,-3.212411,-0.973428,0.329654\C,0,-2.72499,-0.110555,1

 Normal termination of Gaussian 16 at Tue Apr  8 23:45:00 2025.
