 Gaussian 16, Revision C.01,

 ----------------------------------------------------------------------
 #t hf aug-cc-pvdz symm=none int=(grid=ultrafine) guess=(read,tcheck) s
 table=(opt,rrhf)
 ----------------------------------------------------------------------
 -----
 title
 -----
 Symbolic Z-matrix:
 Charge =  0 Multiplicity = 1

 SCF Done:  E(RHF) =  -836.321621529     A.U. after   16 cycles
 Normal termination of Gaussian 16 at Tue Apr  8 23:17:59 2025.
 Gaussian 16:  ES64L-G16RevC.01  3-Jul-2019

 ----------------------------------------------------------------------
 #t hf aug-cc-pvdz iop(5/13=1,5/36=2,99/5=2) pseudo=read geom=check gue
 ss=(read,tcheck) scf=(maxcycle=1)
 ----------------------------------------------------------------------
 -----
 title
 -----
 Structure from the checkpoint file:  "BDE49_nonexpt_1077_mol1.chk"
 Charge =  0 Multiplicity = 1

                         Standard orientation:
 ---------------------------------------------------------------------
 Center     Atomic      Atomic             Coordinates (Angstroms)
 Number     Number       Type             X           Y           Z
 ---------------------------------------------------------------------
      1         17           0       -2.395391    0.312299   -0.441093
      2          8           0       -1.381575   -0.532424    0.726104
      3          8           0       -0.200579   -0.980533    0.102395
      4          6           0        0.793754   -0.006951    0.200855
      5          8           0        0.664493    1.085155    0.652801
      6          8           0        1.869190   -0.580546   -0.318934
      7          6           0        3.053174    0.248764   -0.330938
      8          1           0        2.876368    1.146633   -0.923210
      9          1           0        3.825040   -0.367489   -0.783427
     10          1           0        3.326451    0.527689    0.686788
 ---------------------------------------------------------------------

 SCF Done:  E(RHF) =  -836.463527745     A.U. after    2 cycles

 The electronic state is 1-A.
 Alpha  occ. eigenvalues -- -103.73446 -20.73791 -20.71104 -20.65319 -20.59383
 Alpha  occ. eigenvalues --  -11.47564 -11.32408 -10.76117  -8.41869  -8.41441
 Alpha  occ. eigenvalues --   -8.41405  -1.52594  -1.44792  -1.37290  -1.27645
 Alpha  occ. eigenvalues --   -1.10929  -0.99941  -0.84738  -0.79947  -0.75485
 Alpha  occ. eigenvalues --   -0.74734  -0.69487  -0.68878  -0.65425  -0.60626
 Alpha  occ. eigenvalues --   -0.60038  -0.57486  -0.53257  -0.52641  -0.51579
 Alpha  occ. eigenvalues --   -0.50474  -0.48159
 Alpha virt. eigenvalues --    0.02453   0.03167   0.05392   0.05600   0.07412
 Alpha virt. eigenvalues --    0.09717   0.11381   0.11705   0.13451   0.14617
 Alpha virt. eigenvalues --    0.14869   0.15420   0.15733   0.16626   0.17745

 Mulliken charges:
               1
     1  Cl   0.355382
     2  O   -0.419079
     3  O   -0.349562
     4  C    0.754994
     5  O   -0.300282
     6  O   -0.475476
     7  C    0.744161
     8  H   -0.044933
     9  H   -0.220200
    10  H   -0.045006
 Sum of Mulliken charges =   0.00000

 Dipole moment (field-independent basis, Debye):
    X=              2.4647    Y=              0.2056    Z=             -1.3671  Tot=              2.8259

 Test job not archived.
 1\1\GINC-SE195\SP\RHF\Aug-CC-pVDZ\C2H3Cl1O4\OHZDE\08-Apr-2025\0\\#t hf
  aug-cc-pvdz iop(5/13=1,5/36=2,99/5=2) pseudo=read geom=check guess=(r
 ead,tcheck) scf=(maxcycle=1)\\title\\0,1\Cl,0,-2.395391,0.312299,-0.44
 1093\O,0,-1.381575,-0.532424,0.726104\O,0,-0.200579,-0.980533,0.102395
 \C,0,0.793754,-0.006951,0.200855\O,0,0.664493,1.085155,0.652801\O,0,1.
 86919,-0.580546,-0.318934\C,0,3.053174,0.248764,-0.330938\H,0,2.876368
 ,1.146633,-0.92321\H,0,3.82504,-0.367489,-0.783427\H,0,3.326451,0.5276
 89,0.686788\\Version=ES64L-G16RevC.01\State=1-A\HF=-836.4635277\RMSD=2

 Normal termination of Gaussian 16 at Tue Apr  8 23:18:03 2025.
