 Gaussian 16, Revision C.01,

 ----------------------------------------------------------------------
 #t hf aug-cc-pvdz symm=none int=(grid=ultrafine) guess=(read,tcheck) s
 table=(opt,rrhf)
 ----------------------------------------------------------------------
 -----
 title
 -----
 Symbolic Z-matrix:
 Charge =  0 Multiplicity = 1

 SCF Done:  E(RHF) =  -549.306048172     A.U. after   15 cycles
 Normal termination of Gaussian 16 at Tue Apr  8 23:35:09 2025.
 Gaussian 16:  ES64L-G16RevC.01  3-Jul-2019

 ----------------------------------------------------------------------
 #t hf aug-cc-pvdz iop(5/13=1,5/36=2,99/5=2) pseudo=read geom=check gue
 ss=(read,tcheck) scf=(maxcycle=1)
 ----------------------------------------------------------------------
 -----
 title
 -----
 Structure from the checkpoint file:  "BDE49_nonexpt_1521_mol1.chk"
 Charge =  0 Multiplicity = 1

                         Standard orientation:
 ---------------------------------------------------------------------
 Center     Atomic      Atomic             Coordinates (Angstroms)
 Number     Number       Type             X           Y           Z
 ---------------------------------------------------------------------
      1          6           0       -2.107694   -0.485028    0.016228
      2          6           0       -0.786677    0.253451   -0.012084
      3          1           0       -2.376389   -0.754057   -1.010867
      4          1           0       -2.886479    0.160343    0.424640
      5          1           0       -2.041669   -1.412280    0.591285
      6          7           0        1.968529    0.415697    0.122833
      7          8           0       -0.710127    1.461616   -0.022468
      8         15           0        0.788493   -0.787267   -0.111899
      9          1           0        0.607672   -1.263802    1.216209
     10          1           0        1.590741    1.303294    0.445948
     11          1           0        2.546262    0.562162   -0.693686
 ---------------------------------------------------------------------

 SCF Done:  E(RHF) =  -549.397927188     A.U. after    2 cycles

 The electronic state is 1-A.
 Alpha  occ. eigenvalues --  -81.28802 -20.57855 -15.62232 -11.35245 -11.25583
 Alpha  occ. eigenvalues --   -7.78909  -4.93009  -4.92795  -4.92570  -1.36650
 Alpha  occ. eigenvalues --   -1.12758  -1.01677  -0.83581  -0.73152  -0.67789
 Alpha  occ. eigenvalues --   -0.64529  -0.64222  -0.61547  -0.56260  -0.55234
 Alpha  occ. eigenvalues --   -0.52585  -0.46361  -0.39512  -0.35863
 Alpha virt. eigenvalues --    0.03329   0.04324   0.05236   0.05692   0.06792
 Alpha virt. eigenvalues --    0.07213   0.08613   0.09877   0.10629   0.12289
 Alpha virt. eigenvalues --    0.12442   0.14490   0.14941   0.16150   0.16672

 Mulliken charges:
               1
     1  C    0.342065
     2  C   -0.162841
     3  H    0.074076
     4  H   -0.037504
     5  H   -0.037683
     6  N   -0.536938
     7  O   -0.546688
     8  P    0.723552
     9  H    0.092694
    10  H    0.036464
    11  H    0.052801
 Sum of Mulliken charges =  -0.00000

 Dipole moment (field-independent basis, Debye):
    X=             -0.6324    Y=             -1.6877    Z=             -0.2557  Tot=              1.8203

 Test job not archived.
 1\1\GINC-SE393\SP\RHF\Aug-CC-pVDZ\C2H6N1O1P1\OHZDE\08-Apr-2025\0\\#t h
 f aug-cc-pvdz iop(5/13=1,5/36=2,99/5=2) pseudo=read geom=check guess=(
 read,tcheck) scf=(maxcycle=1)\\title\\0,1\C,0,-2.107694,-0.485028,0.01
 6228\C,0,-0.786677,0.253451,-0.012084\H,0,-2.376389,-0.754057,-1.01086
 7\H,0,-2.886479,0.160344,0.42464\H,0,-2.041669,-1.41228,0.591285\N,0,1
 .968529,0.415697,0.122833\O,0,-0.710127,1.461616,-0.022468\P,0,0.78849
 3,-0.787267,-0.111899\H,0,0.607672,-1.263802,1.216209\H,0,1.590741,1.3
 03294,0.445948\H,0,2.546262,0.562162,-0.693686\\Version=ES64L-G16RevC.

 Normal termination of Gaussian 16 at Tue Apr  8 23:35:12 2025.
