 Gaussian 16, Revision C.01,

 ----------------------------------------------------------------------
 #t hf aug-cc-pvdz symm=none int=(grid=ultrafine) guess=(read,tcheck) s
 table=opt
 ----------------------------------------------------------------------
 -----
 title
 -----
 Symbolic Z-matrix:
 Charge =  0 Multiplicity = 2

 SCF Done:  E(UHF) =  -100.702601124     A.U. after   14 cycles
 Normal termination of Gaussian 16 at Wed Apr  9 00:27:09 2025.
 Gaussian 16:  ES64L-G16RevC.01  3-Jul-2019

 ----------------------------------------------------------------------
 #t hf aug-cc-pvdz iop(5/13=1,5/36=2,99/5=2) pseudo=read geom=check gue
 ss=(read,tcheck) scf=(maxcycle=1)
 ----------------------------------------------------------------------
 -----
 title
 -----
 Structure from the checkpoint file:  "BDE49_nonexpt_328_mol3.chk"
 Charge =  0 Multiplicity = 2

                         Standard orientation:
 ---------------------------------------------------------------------
 Center     Atomic      Atomic             Coordinates (Angstroms)
 Number     Number       Type             X           Y           Z
 ---------------------------------------------------------------------
      1          5           0       -0.748367    0.245212    0.000001
      2          8           0        0.526400   -0.154112   -0.000001
      3          1           0       -1.640923   -0.554147    0.000001
      4          1           0        1.171560    0.560985   -0.000001
 ---------------------------------------------------------------------

 SCF Done:  E(UHF) =  -100.739885297     A.U. after    2 cycles

 The electronic state is 2-A.
 Alpha  occ. eigenvalues --  -20.61060  -7.66582  -1.35632  -0.80315  -0.65843
 Alpha  occ. eigenvalues --   -0.58812  -0.57554  -0.33770
 Alpha virt. eigenvalues --    0.03578   0.04913   0.05736   0.06250   0.09359
 Alpha virt. eigenvalues --    0.11525   0.13290   0.17986   0.21840   0.23069
 Alpha virt. eigenvalues --    0.24911   0.26015   0.27349   0.31113   0.32585

  Beta  occ. eigenvalues --  -20.60921  -7.64795  -1.34922  -0.79282  -0.62182
  Beta  occ. eigenvalues --   -0.58060  -0.54846
  Beta virt. eigenvalues --    0.03237   0.05331   0.05701   0.05791   0.08593
  Beta virt. eigenvalues --    0.09819   0.16102   0.16372   0.18712   0.21870
  Beta virt. eigenvalues --    0.23729   0.25679   0.27396   0.28464   0.31808

 Mulliken charges and spin densities:
               1          2
     1  B   -0.109930   0.990435
     2  O   -0.380766  -0.012253
     3  H    0.250133   0.042108
     4  H    0.240563  -0.020290
 Sum of Mulliken charges =  -0.00000   1.00000

 Dipole moment (field-independent basis, Debye):
    X=              0.9062    Y=              0.9467    Z=             -0.0000  Tot=              1.3105
                          Isotropic Fermi Contact Couplings
        Atom                 a.u.       MegaHertz       Gauss      10(-4) cm-1
     1  B(11)              0.29575     424.21195     151.36937     141.50188
     2  O(17)             -0.00766       4.64389       1.65705       1.54903
     3  H(1)               0.02876     128.56837      45.87639      42.88579
     4  H(1)               0.00729      32.56636      11.62049      10.86297
 --------------------------------------------------------
       Center         ----  Spin Dipole Couplings  ----
                      3XX-RR        3YY-RR        3ZZ-RR
 --------------------------------------------------------

 Normal termination of Gaussian 16 at Wed Apr  9 00:27:10 2025.
