 Gaussian 16, Revision C.01,

 ----------------------------------------------------------------------
 #t hf aug-cc-pvdz symm=none int=(grid=ultrafine) guess=(read,tcheck) s
 table=(opt,rrhf)
 ----------------------------------------------------------------------
 -----
 title
 -----
 Symbolic Z-matrix:
 Charge =  0 Multiplicity = 1

 SCF Done:  E(RHF) =  -461.888832181     A.U. after   12 cycles
 Normal termination of Gaussian 16 at Wed Apr  9 00:40:24 2025.
 Gaussian 16:  ES64L-G16RevC.01  3-Jul-2019

 ----------------------------------------------------------------------
 #t hf aug-cc-pvdz iop(5/13=1,5/36=2,99/5=2) pseudo=read geom=check gue
 ss=(read,tcheck) scf=(maxcycle=1)
 ----------------------------------------------------------------------
 -----
 title
 -----
 Structure from the checkpoint file:  "BDE49_nonexpt_703_mol1.chk"
 Charge =  0 Multiplicity = 1

                         Standard orientation:
 ---------------------------------------------------------------------
 Center     Atomic      Atomic             Coordinates (Angstroms)
 Number     Number       Type             X           Y           Z
 ---------------------------------------------------------------------
      1          5           0        0.477116    0.083703    0.014407
      2          7           0        1.026734    1.367411    0.009680
      3         15           0       -1.461234   -0.126665   -0.118569
      4          6           0        1.404177   -1.194768    0.001988
      5          1           0        2.468301   -0.955397   -0.100331
      6          1           0        1.137362   -1.878910   -0.810809
      7          1           0        1.283144   -1.767106    0.929047
      8          1           0        0.483181    2.215955    0.035181
      9          1           0        2.023405    1.527697   -0.015637
     10          1           0       -1.858023    0.996367    0.653463
     11          1           0       -1.616646   -1.060409    0.935902
 ---------------------------------------------------------------------

 SCF Done:  E(RHF) =  -461.947515632     A.U. after    2 cycles

 The electronic state is 1-A.
 Alpha  occ. eigenvalues --  -81.22718 -15.62241 -11.20592  -7.73342  -7.61704
 Alpha  occ. eigenvalues --   -4.87366  -4.87277  -4.87011  -1.12995  -0.93898
 Alpha  occ. eigenvalues --   -0.78687  -0.69006  -0.67525  -0.56392  -0.55100
 Alpha  occ. eigenvalues --   -0.51455  -0.49233  -0.44607  -0.41884  -0.33628
 Alpha virt. eigenvalues --    0.02989   0.04782   0.04870   0.05282   0.06971
 Alpha virt. eigenvalues --    0.07234   0.08126   0.08967   0.09494   0.10143
 Alpha virt. eigenvalues --    0.10790   0.11877   0.13667   0.14453   0.15745

 Mulliken charges:
               1
     1  B    0.619021
     2  N   -0.191586
     3  P   -0.437034
     4  C    0.504211
     5  H   -0.367223
     6  H   -0.170148
     7  H   -0.155434
     8  H    0.008373
     9  H   -0.064051
    10  H    0.112843
    11  H    0.141028
 Sum of Mulliken charges =  -0.00000

 Dipole moment (field-independent basis, Debye):
    X=              1.7218    Y=              1.2849    Z=              0.5949  Tot=              2.2292

 Test job not archived.
 1\1\GINC-SE187\SP\RHF\Aug-CC-pVDZ\C1H7B1N1P1\OHZDE\09-Apr-2025\0\\#t h
 f aug-cc-pvdz iop(5/13=1,5/36=2,99/5=2) pseudo=read geom=check guess=(
 read,tcheck) scf=(maxcycle=1)\\title\\0,1\B,0,0.477116,0.083703,0.0144
 07\N,0,1.026734,1.367411,0.00968\P,0,-1.461234,-0.126665,-0.118569\C,0
 ,1.404177,-1.194768,0.001988\H,0,2.468301,-0.955397,-0.100331\H,0,1.13
 7362,-1.87891,-0.810809\H,0,1.283144,-1.767106,0.929047\H,0,0.483181,2
 .215955,0.035181\H,0,2.023405,1.527697,-0.015637\H,0,-1.858023,0.99636
 8,0.653463\H,0,-1.616646,-1.060409,0.935902\\Version=ES64L-G16RevC.01\

 Normal termination of Gaussian 16 at Wed Apr  9 00:40:28 2025.
