 Gaussian 16, Revision C.01,

 ----------------------------------------------------------------------
 #t hf aug-cc-pvdz symm=none int=(grid=ultrafine) guess=(read,tcheck) s
 table=(opt,rrhf)
 ----------------------------------------------------------------------
 -----
 title
 -----
 Symbolic Z-matrix:
 Charge =  0 Multiplicity = 1

 SCF Done:  E(RHF) =  -902.145448644     A.U. after   13 cycles
 Normal termination of Gaussian 16 at Wed Apr  9 00:12:11 2025.
 Gaussian 16:  ES64L-G16RevC.01  3-Jul-2019

 ----------------------------------------------------------------------
 #t hf aug-cc-pvdz iop(5/13=1,5/36=2,99/5=2) pseudo=read geom=check gue
 ss=(read,tcheck) scf=(maxcycle=1)
 ----------------------------------------------------------------------
 -----
 title
 -----
 Structure from the checkpoint file:  "BDE49_nonexpt_2413_mol1.chk"
 Charge =  0 Multiplicity = 1

                         Standard orientation:
 ---------------------------------------------------------------------
 Center     Atomic      Atomic             Coordinates (Angstroms)
 Number     Number       Type             X           Y           Z
 ---------------------------------------------------------------------
      1         14           0        2.768543   -0.764508    0.485960
      2         14           0        1.562062    1.047029   -0.415950
      3          1           0        2.116037   -1.230645    1.732516
      4          1           0        4.139152   -0.304202    0.833794
      5          1           0        2.880495   -1.880471   -0.476412
      6          8           0       -0.093890    1.010312   -0.002658
      7          1           0        1.689900    1.124262   -1.888840
      8          1           0        1.974326    2.344388    0.163831
      9          6           0       -0.764982   -0.145955   -0.231823
     10          8           0       -0.192087   -1.128036   -0.683841
     11          7           0       -2.081716   -0.088226    0.086510
     12          6           0       -2.737080    1.094418    0.626174
     13          1           0       -2.020872    1.904248    0.718721
     14          1           0       -3.160923    0.875999    1.612713
     15          1           0       -3.551929    1.409697   -0.034889
     16          6           0       -2.909742   -1.269581   -0.108047
     17          1           0       -2.295450   -2.066491   -0.518223
     18          1           0       -3.729689   -1.049831   -0.800173
     19          1           0       -3.338879   -1.596167    0.845429
 ---------------------------------------------------------------------

 SCF Done:  E(RHF) =  -902.297954232     A.U. after    2 cycles

 The electronic state is 1-A.
 Alpha  occ. eigenvalues --  -69.09772 -69.05513 -20.60200 -20.54389 -15.66179
 Alpha  occ. eigenvalues --  -11.42394 -11.27995 -11.27404  -6.84594  -6.80890
 Alpha  occ. eigenvalues --   -3.95468  -3.95312  -3.95267  -3.91653  -3.91643
 Alpha  occ. eigenvalues --   -3.91625  -1.41291  -1.30482  -1.22442  -0.97776
 Alpha  occ. eigenvalues --   -0.95183  -0.80755  -0.73162  -0.72031  -0.70169
 Alpha  occ. eigenvalues --   -0.68386  -0.63947  -0.61836  -0.61097  -0.57865
 Alpha  occ. eigenvalues --   -0.56697  -0.56465  -0.54128  -0.51622  -0.48512
 Alpha  occ. eigenvalues --   -0.48036  -0.47120  -0.46188  -0.39912  -0.38364
 Alpha virt. eigenvalues --    0.03075   0.04161   0.04259   0.04720   0.05348
 Alpha virt. eigenvalues --    0.06128   0.06899   0.07325   0.07781   0.08231
 Alpha virt. eigenvalues --    0.08459   0.08987   0.09396   0.09841   0.10631

 Mulliken charges:
               1
     1  Si  -0.426112
     2  Si   0.227523
     3  H    0.121734
     4  H    0.030640
     5  H    0.119915
     6  O   -0.734102
     7  H    0.135231
     8  H    0.101884
     9  C    0.389823
    10  O   -0.391344
    11  N   -0.360822
    12  C    0.874233
    13  H   -0.270307
    14  H   -0.111984
    15  H   -0.115888
    16  C    0.845170
    17  H   -0.238888
    18  H   -0.102152
    19  H   -0.094554
 Sum of Mulliken charges =   0.00000

 Dipole moment (field-independent basis, Debye):
    X=             -2.6215    Y=              1.4369    Z=              0.9601  Tot=              3.1398

 Test job not archived.
 1\1\GINC-SE179\SP\RHF\Aug-CC-pVDZ\C3H11N1O2Si2\OHZDE\09-Apr-2025\0\\#t
  hf aug-cc-pvdz iop(5/13=1,5/36=2,99/5=2) pseudo=read geom=check guess
 =(read,tcheck) scf=(maxcycle=1)\\title\\0,1\Si,0,2.768543,-0.764508,0.
 48596\Si,0,1.562062,1.047029,-0.41595\H,0,2.116037,-1.230645,1.732516\
 H,0,4.139152,-0.304202,0.833794\H,0,2.880495,-1.880471,-0.476412\O,0,-
 0.09389,1.010312,-0.002658\H,0,1.6899,1.124262,-1.88884\H,0,1.974326,2
 .344388,0.163831\C,0,-0.764982,-0.145955,-0.231823\O,0,-0.192087,-1.12
 8036,-0.683841\N,0,-2.081716,-0.088226,0.08651\C,0,-2.73708,1.094418,0

 Normal termination of Gaussian 16 at Wed Apr  9 00:12:21 2025.
