 Gaussian 16, Revision C.01,

 ----------------------------------------------------------------------
 #t hf aug-cc-pvdz symm=none int=(grid=ultrafine) guess=(read,tcheck) s
 table=(opt,rrhf)
 ----------------------------------------------------------------------
 -----
 title
 -----
 Symbolic Z-matrix:
 Charge =  0 Multiplicity = 1

 SCF Done:  E(RHF) =  -684.197628340     A.U. after   19 cycles
 Normal termination of Gaussian 16 at Tue Apr  8 23:05:44 2025.
 Gaussian 16:  ES64L-G16RevC.01  3-Jul-2019

 ----------------------------------------------------------------------
 #t hf aug-cc-pvdz iop(5/13=1,5/36=2,99/5=2) pseudo=read geom=check gue
 ss=(read,tcheck) scf=(maxcycle=1)
 ----------------------------------------------------------------------
 -----
 title
 -----
 Structure from the checkpoint file:  "BDE49_expt_1767_mol1.chk"
 Charge =  0 Multiplicity = 1

                         Standard orientation:
 ---------------------------------------------------------------------
 Center     Atomic      Atomic             Coordinates (Angstroms)
 Number     Number       Type             X           Y           Z
 ---------------------------------------------------------------------
      1          6           0        3.644517   -0.808882   -0.203717
      2          6           0        3.018746   -2.055245   -0.097149
      3          6           0        1.638526   -2.153042    0.062055
      4          6           0        2.912446    0.377647   -0.153223
      5          6           0        1.534505    0.265880    0.008506
      6          6           0        0.881202   -0.982155    0.115181
      7          1           0        4.719985   -0.758415   -0.327200
      8          1           0        3.617780   -2.957823   -0.139020
      9          1           0        1.164809   -3.124508    0.144377
     10          1           0        3.389829    1.340676   -0.234074
     11          6           0       -0.546270   -0.738956    0.268532
     12          6           0       -0.740644    0.607351    0.255766
     13          7           0        0.521058    1.242670    0.096146
     14          7           0        0.613202    2.597746    0.034603
     15          8           0        1.736033    3.032079   -0.102102
     16          6           0       -1.596267   -1.800105    0.445185
     17          6           0       -2.845054   -1.651307   -0.441809
     18          1           0       -1.910593   -1.833374    1.497706
     19          1           0       -1.142824   -2.774286    0.242289
     20          6           0       -3.745182   -0.447951   -0.124204
     21          1           0       -3.442347   -2.563038   -0.332148
     22          1           0       -2.535104   -1.608294   -1.492477
     23          6           0       -3.169594    0.934278   -0.465555
     24          1           0       -4.018889   -0.472274    0.939372
     25          1           0       -4.682315   -0.570042   -0.678083
     26          6           0       -1.998737    1.407073    0.414074
     27          1           0       -3.971128    1.673865   -0.366448
     28          1           0       -2.859216    0.953027   -1.516549
     29          1           0       -1.778551    2.451329    0.194117
     30          1           0       -2.308672    1.376098    1.467860
 ---------------------------------------------------------------------

 SCF Done:  E(RHF) =  -684.394843646     A.U. after    2 cycles

 The electronic state is 1-A.
 Alpha  occ. eigenvalues --  -20.62508 -15.81353 -15.72008 -11.29495 -11.29075
 Alpha  occ. eigenvalues --  -11.25513 -11.25213 -11.25121 -11.25093 -11.24751
 Alpha  occ. eigenvalues --  -11.24746 -11.24666 -11.24638 -11.24259 -11.23928
 Alpha  occ. eigenvalues --  -11.23802  -1.48373  -1.29121  -1.14964  -1.11661
 Alpha  occ. eigenvalues --   -1.07216  -1.03845  -1.02848  -0.99946  -0.94383
 Alpha  occ. eigenvalues --   -0.90326  -0.87710  -0.83058  -0.80491  -0.78162
 Alpha  occ. eigenvalues --   -0.76396  -0.73650  -0.70375  -0.66959  -0.65763
 Alpha  occ. eigenvalues --   -0.64724  -0.64459  -0.62347  -0.61870  -0.61149
 Alpha  occ. eigenvalues --   -0.59917  -0.58361  -0.58183  -0.54875  -0.54400
 Alpha  occ. eigenvalues --   -0.52837  -0.51840  -0.51107  -0.49695  -0.48151
 Alpha  occ. eigenvalues --   -0.47127  -0.46726  -0.46539  -0.43276  -0.38644
 Alpha  occ. eigenvalues --   -0.32502  -0.29712
 Alpha virt. eigenvalues --    0.02983   0.03208   0.03991   0.04230   0.04882
 Alpha virt. eigenvalues --    0.05254   0.06146   0.06299   0.06600   0.06866
 Alpha virt. eigenvalues --    0.07017   0.07063   0.08555   0.08995   0.09880

 Mulliken charges:
               1
     1  C    0.390610
     2  C    0.394503
     3  C    1.004826
     4  C    1.012934
     5  C    0.282955
     6  C   -0.470575
     7  H   -0.466131
     8  H   -0.506470
     9  H   -0.534207
    10  H   -0.528510
    11  C   -0.204417
    12  C    0.013385
    13  N   -0.770021
    14  N    0.153407
    15  O   -0.455915
    16  C    0.252153
    17  C    0.322052
    18  H    0.064157
    19  H   -0.103757
    20  C    0.328939
    21  H   -0.119978
    22  H   -0.143356
    23  C    0.407301
    24  H   -0.070624
    25  H   -0.112340
    26  C    0.076243
    27  H   -0.072836
    28  H   -0.119708
    29  H   -0.114300
    30  H    0.089681
 Sum of Mulliken charges =   0.00000

 Dipole moment (field-independent basis, Debye):
    X=             -2.6225    Y=             -2.5915    Z=              0.2553  Tot=              3.6957

 Test job not archived.
 1\1\GINC-SE090\SP\RHF\Aug-CC-pVDZ\C13H14N2O1\OHZDE\08-Apr-2025\0\\#t h
 f aug-cc-pvdz iop(5/13=1,5/36=2,99/5=2) pseudo=read geom=check guess=(
 read,tcheck) scf=(maxcycle=1)\\title\\0,1\C,0,3.644517,-0.808882,-0.20
 3717\C,0,3.018746,-2.055245,-0.097149\C,0,1.638526,-2.153042,0.062055\
 C,0,2.912446,0.377647,-0.153223\C,0,1.534505,0.26588,0.008506\C,0,0.88
 1202,-0.982155,0.115181\H,0,4.719985,-0.758415,-0.3272\H,0,3.61778,-2.
 957823,-0.13902\H,0,1.164809,-3.124508,0.144377\H,0,3.389829,1.340676,
 -0.234074\C,0,-0.54627,-0.738956,0.268532\C,0,-0.740644,0.607351,0.255

 Normal termination of Gaussian 16 at Tue Apr  8 23:06:25 2025.
