 Gaussian 16, Revision C.01,

 ----------------------------------------------------------------------
 #t hf aug-cc-pvdz symm=none int=(grid=ultrafine) guess=(read,tcheck) s
 table=(opt,rrhf)
 ----------------------------------------------------------------------
 -----
 title
 -----
 Symbolic Z-matrix:
 Charge =  0 Multiplicity = 1

 SCF Done:  E(RHF) =  -330.933614883     A.U. after   15 cycles
 Normal termination of Gaussian 16 at Wed Apr  9 00:27:18 2025.
 Gaussian 16:  ES64L-G16RevC.01  3-Jul-2019

 ----------------------------------------------------------------------
 #t hf aug-cc-pvdz iop(5/13=1,5/36=2,99/5=2) pseudo=read geom=check gue
 ss=(read,tcheck) scf=(maxcycle=1)
 ----------------------------------------------------------------------
 -----
 title
 -----
 Structure from the checkpoint file:  "BDE49_nonexpt_326_mol1.chk"
 Charge =  0 Multiplicity = 1

                         Standard orientation:
 ---------------------------------------------------------------------
 Center     Atomic      Atomic             Coordinates (Angstroms)
 Number     Number       Type             X           Y           Z
 ---------------------------------------------------------------------
      1          6           0        2.270032   -0.299765    0.000001
      2          6           0        1.832800    1.023426    0.000000
      3          6           0        0.467909    1.299501   -0.000003
      4          6           0        1.342525   -1.343156   -0.000001
      5          6           0       -0.018419   -1.060188   -0.000004
      6          6           0       -0.484670    0.267218   -0.000005
      7          1           0        3.332313   -0.519461    0.000004
      8          1           0        2.553877    1.833456    0.000002
      9          1           0        0.130705    2.331482   -0.000004
     10          1           0        1.685762   -2.372011    0.000000
     11          1           0       -0.739781   -1.870216   -0.000006
     12          5           0       -2.000474    0.600002   -0.000011
     13          8           0       -2.903044   -0.418363    0.000012
     14          1           0       -3.814920   -0.116070    0.000025
     15          1           0       -2.382297    1.737494    0.000007
 ---------------------------------------------------------------------

 SCF Done:  E(RHF) =  -331.035963709     A.U. after    2 cycles

 The electronic state is 1-A.
 Alpha  occ. eigenvalues --  -20.58782 -11.25145 -11.24865 -11.24570 -11.24235
 Alpha  occ. eigenvalues --  -11.24182 -11.21849  -7.63172  -1.33015  -1.13822
 Alpha  occ. eigenvalues --   -1.00839  -1.00687  -0.83238  -0.82493  -0.76713
 Alpha  occ. eigenvalues --   -0.70381  -0.66167  -0.63326  -0.61964  -0.58905
 Alpha  occ. eigenvalues --   -0.58612  -0.56159  -0.51667  -0.50124  -0.49090
 Alpha  occ. eigenvalues --   -0.45712  -0.34127  -0.33830
 Alpha virt. eigenvalues --    0.03183   0.03945   0.04267   0.05397   0.05530
 Alpha virt. eigenvalues --    0.05804   0.07347   0.07773   0.08106   0.08467
 Alpha virt. eigenvalues --    0.10583   0.10863   0.12252   0.13252   0.14375

 Mulliken charges:
               1
     1  C    0.636513
     2  C    0.387860
     3  C    0.359075
     4  C    0.453124
     5  C    0.692692
     6  C    0.130522
     7  H   -0.437314
     8  H   -0.444127
     9  H   -0.585904
    10  H   -0.441375
    11  H   -0.555695
    12  B   -0.067419
    13  O   -0.511993
    14  H    0.179713
    15  H    0.204327
 Sum of Mulliken charges =  -0.00000

 Dipole moment (field-independent basis, Debye):
    X=             -0.4628    Y=              0.6538    Z=             -0.0000  Tot=              0.8010

 Test job not archived.
 1\1\GINC-SE072\SP\RHF\Aug-CC-pVDZ\C6H7B1O1\OHZDE\09-Apr-2025\0\\#t hf
 aug-cc-pvdz iop(5/13=1,5/36=2,99/5=2) pseudo=read geom=check guess=(re
 ad,tcheck) scf=(maxcycle=1)\\title\\0,1\C,0,-2.270032,-0.299765,-0.000
 001\C,0,-1.8328,1.023426,0.\C,0,-0.467909,1.299501,0.000003\C,0,-1.342
 525,-1.343156,0.000001\C,0,0.018419,-1.060188,0.000004\C,0,0.48467,0.2
 67218,0.000005\H,0,-3.332313,-0.519461,-0.000004\H,0,-2.553877,1.83345
 6,-0.000002\H,0,-0.130705,2.331482,0.000004\H,0,-1.685762,-2.372011,0.
 \H,0,0.739781,-1.870216,0.000006\B,0,2.000474,0.600002,0.000011\O,0,2.

 Normal termination of Gaussian 16 at Wed Apr  9 00:27:24 2025.
