 Gaussian 16, Revision C.01,

 ----------------------------------------------------------------------
 #t hf aug-cc-pvdz symm=none int=(grid=ultrafine) guess=(read,tcheck) s
 table=(opt,rrhf)
 ----------------------------------------------------------------------
 -----
 title
 -----
 Symbolic Z-matrix:
 Charge =  0 Multiplicity = 1

 SCF Done:  E(RHF) =  -930.590781941     A.U. after   17 cycles
 Normal termination of Gaussian 16 at Wed Apr  9 00:23:35 2025.
 Gaussian 16:  ES64L-G16RevC.01  3-Jul-2019

 ----------------------------------------------------------------------
 #t hf aug-cc-pvdz iop(5/13=1,5/36=2,99/5=2) pseudo=read geom=check gue
 ss=(read,tcheck) scf=(maxcycle=1)
 ----------------------------------------------------------------------
 -----
 title
 -----
 Structure from the checkpoint file:  "BDE49_nonexpt_2698_mol1.chk"
 Charge =  0 Multiplicity = 1

                         Standard orientation:
 ---------------------------------------------------------------------
 Center     Atomic      Atomic             Coordinates (Angstroms)
 Number     Number       Type             X           Y           Z
 ---------------------------------------------------------------------
      1          9           0       -2.943405    0.572146   -0.000057
      2         16           0       -1.777848   -0.676507    0.000001
      3          6           0       -0.391314    0.389026    0.000001
      4          6           0        0.898724   -0.165387   -0.000005
      5          6           0        2.060907    0.610378    0.000005
      6          6           0        1.934839    1.984920    0.000018
      7          6           0       -0.494874    1.790834    0.000013
      8          1           0       -1.474824    2.243924    0.000018
      9          6           0        0.654170    2.563324    0.000019
     10          1           0        0.557302    3.642991    0.000024
     11          1           0        2.816927    2.612410    0.000027
     12          7           0        0.976306   -1.590385   -0.000027
     13          8           0        2.041274   -2.180218    0.000023
     14          8           0       -0.140324   -2.174936    0.000017
     15          1           0        3.020340    0.110833   -0.000000
 ---------------------------------------------------------------------

 SCF Done:  E(RHF) =  -930.775345758     A.U. after    2 cycles

 The electronic state is 1-A.
 Alpha  occ. eigenvalues --  -93.64806 -26.10897 -20.65126 -20.64703 -15.94527
 Alpha  occ. eigenvalues --  -11.34162 -11.33735 -11.30451 -11.29997 -11.28504
 Alpha  occ. eigenvalues --  -11.28480  -8.93365  -6.27500  -6.27175  -6.26642
 Alpha  occ. eigenvalues --   -1.62017  -1.57213  -1.38915  -1.21613  -1.11370
 Alpha  occ. eigenvalues --   -1.09086  -1.01079  -0.94994  -0.87141  -0.86407
 Alpha  occ. eigenvalues --   -0.80196  -0.76668  -0.75420  -0.73539  -0.71615
 Alpha  occ. eigenvalues --   -0.71463  -0.69486  -0.66998  -0.65119  -0.59444
 Alpha  occ. eigenvalues --   -0.56704  -0.56475  -0.55298  -0.54113  -0.51711
 Alpha  occ. eigenvalues --   -0.50304  -0.44369  -0.39898  -0.34589
 Alpha virt. eigenvalues --    0.00374   0.02399   0.03648   0.04879   0.06155
 Alpha virt. eigenvalues --    0.07042   0.07906   0.09476   0.09845   0.11084
 Alpha virt. eigenvalues --    0.11217   0.12283   0.12535   0.12668   0.12958

 Mulliken charges:
               1
     1  F   -0.658328
     2  S    0.752505
     3  C   -0.124655
     4  C    0.851876
     5  C    0.568048
     6  C    0.366468
     7  C    0.338101
     8  H   -0.491086
     9  C    0.826574
    10  H   -0.425176
    11  H   -0.415644
    12  N    0.023831
    13  O   -0.529028
    14  O   -0.601580
    15  H   -0.481907
 Sum of Mulliken charges =  -0.00000

 Dipole moment (field-independent basis, Debye):
    X=              3.0606    Y=              4.2027    Z=             -0.0000  Tot=              5.1991

 Test job not archived.
 1\1\GINC-SE016\SP\RHF\Aug-CC-pVDZ\C6H4F1N1O2S1\OHZDE\09-Apr-2025\0\\#t
  hf aug-cc-pvdz iop(5/13=1,5/36=2,99/5=2) pseudo=read geom=check guess
 =(read,tcheck) scf=(maxcycle=1)\\title\\0,1\F,0,2.943405,0.572144,0.00
 0057\S,0,1.777847,-0.676509,-0.000001\C,0,0.391314,0.389026,-0.000001\
 C,0,-0.898724,-0.165386,0.000005\C,0,-2.060906,0.61038,-0.000005\C,0,-
 1.934837,1.984921,-0.000018\C,0,0.494875,1.790833,-0.000013\H,0,1.4748
 26,2.243923,-0.000018\C,0,-0.654168,2.563324,-0.000019\H,0,-0.557299,3
 .642991,-0.000024\H,0,-2.816925,2.612412,-0.000027\N,0,-0.976307,-1.59

 Normal termination of Gaussian 16 at Wed Apr  9 00:23:44 2025.
