 Gaussian 16, Revision C.01,

 ----------------------------------------------------------------------
 #t hf aug-cc-pvdz symm=none int=(grid=ultrafine) guess=(read,tcheck) s
 table=(opt,rrhf)
 ----------------------------------------------------------------------
 -----
 title
 -----
 Symbolic Z-matrix:
 Charge =  0 Multiplicity = 1

 SCF Done:  E(RHF) =  -1045.14715721     A.U. after   13 cycles
 Normal termination of Gaussian 16 at Tue Apr  8 23:34:09 2025.
 Gaussian 16:  ES64L-G16RevC.01  3-Jul-2019

 ----------------------------------------------------------------------
 #t hf aug-cc-pvdz iop(5/13=1,5/36=2,99/5=2) pseudo=read geom=check gue
 ss=(read,tcheck) scf=(maxcycle=1)
 ----------------------------------------------------------------------
 -----
 title
 -----
 Structure from the checkpoint file:  "BDE49_nonexpt_1500_mol1.chk"
 Charge =  0 Multiplicity = 1

                         Standard orientation:
 ---------------------------------------------------------------------
 Center     Atomic      Atomic             Coordinates (Angstroms)
 Number     Number       Type             X           Y           Z
 ---------------------------------------------------------------------
      1         15           0        0.371660    0.351424   -0.810404
      2          7           0       -1.246674    0.202546   -0.210229
      3          8           0       -1.404752    0.374469    1.188362
      4          6           0        0.846813    1.881016    0.086486
      5          1           0        0.674560    1.792696    1.157671
      6          1           0        0.256431    2.706004   -0.322205
      7         17           0        1.447079   -1.085494    0.377479
      8          1           0        1.902301    2.072063   -0.114996
      9          1           0       -2.253660    0.830712    1.258411
     10          8           0       -1.818706   -1.026330   -0.586686
     11          1           0       -1.321377   -1.708476   -0.100680
 ---------------------------------------------------------------------

 SCF Done:  E(RHF) =  -1045.26778300     A.U. after    2 cycles

 The electronic state is 1-A.
 Alpha  occ. eigenvalues -- -103.65255 -81.34485 -20.63839 -20.63431 -15.75501
 Alpha  occ. eigenvalues --  -11.25902 -10.68565  -8.34253  -8.34009  -8.33983
 Alpha  occ. eigenvalues --   -7.84105  -4.98049  -4.97842  -4.97527  -1.43856
 Alpha  occ. eigenvalues --   -1.33178  -1.13304  -1.04333  -0.97715  -0.79372
 Alpha  occ. eigenvalues --   -0.76643  -0.68360  -0.66652  -0.65387  -0.60418
 Alpha  occ. eigenvalues --   -0.58832  -0.54379  -0.53412  -0.51405  -0.48627
 Alpha  occ. eigenvalues --   -0.46791  -0.42693  -0.37648
 Alpha virt. eigenvalues --    0.03156   0.04390   0.05308   0.05821   0.06994
 Alpha virt. eigenvalues --    0.08076   0.08956   0.10412   0.11966   0.13710
 Alpha virt. eigenvalues --    0.14762   0.14929   0.15813   0.16913   0.17088

 Mulliken charges:
               1
     1  P    1.105741
     2  N    0.087361
     3  O   -0.528192
     4  C    0.145362
     5  H   -0.076077
     6  H   -0.086591
     7  Cl  -0.516158
     8  H   -0.091878
     9  H    0.241358
    10  O   -0.503308
    11  H    0.222383
 Sum of Mulliken charges =  -0.00000

 Dipole moment (field-independent basis, Debye):
    X=             -0.5837    Y=              2.5222    Z=              0.5613  Tot=              2.6490

 Test job not archived.
 1\1\GINC-SE365\SP\RHF\Aug-CC-pVDZ\C1H5Cl1N1O2P1\OHZDE\08-Apr-2025\0\\#
 t hf aug-cc-pvdz iop(5/13=1,5/36=2,99/5=2) pseudo=read geom=check gues
 s=(read,tcheck) scf=(maxcycle=1)\\title\\0,1\P,0,0.37166,0.351424,-0.8
 10404\N,0,-1.246674,0.202546,-0.210229\O,0,-1.404752,0.37447,1.188362\
 C,0,0.846814,1.881016,0.086486\H,0,0.674561,1.792696,1.157671\H,0,0.25
 6432,2.706004,-0.322205\Cl,0,1.447079,-1.085494,0.377479\H,0,1.902302,
 2.072063,-0.114996\H,0,-2.25366,0.830713,1.258411\O,0,-1.818706,-1.026
 329,-0.586686\H,0,-1.321377,-1.708475,-0.10068\\Version=ES64L-G16RevC.

 Normal termination of Gaussian 16 at Tue Apr  8 23:34:13 2025.
