 Gaussian 16, Revision C.01,

 ----------------------------------------------------------------------
 #t hf aug-cc-pvdz symm=none int=(grid=ultrafine) guess=(read,tcheck) s
 table=(opt,rrhf)
 ----------------------------------------------------------------------
 -----
 title
 -----
 Symbolic Z-matrix:
 Charge =  0 Multiplicity = 1

 SCF Done:  E(RHF) =  -840.579065713     A.U. after   14 cycles
 Normal termination of Gaussian 16 at Tue Apr  8 23:52:24 2025.
 Gaussian 16:  ES64L-G16RevC.01  3-Jul-2019

 ----------------------------------------------------------------------
 #t hf aug-cc-pvdz iop(5/13=1,5/36=2,99/5=2) pseudo=read geom=check gue
 ss=(read,tcheck) scf=(maxcycle=1)
 ----------------------------------------------------------------------
 -----
 title
 -----
 Structure from the checkpoint file:  "BDE49_nonexpt_1940_mol1.chk"
 Charge =  0 Multiplicity = 1

                         Standard orientation:
 ---------------------------------------------------------------------
 Center     Atomic      Atomic             Coordinates (Angstroms)
 Number     Number       Type             X           Y           Z
 ---------------------------------------------------------------------
      1         14           0        2.104031   -0.270149   -0.276489
      2          6           0        0.617618   -0.040414    0.895090
      3          6           0       -0.583192    0.527400    0.183871
      4          8           0       -0.678589    1.663992   -0.190697
      5          1           0        3.196707   -0.902760    0.496447
      6          1           0        2.547107    1.041439   -0.790916
      7         16           0       -1.896188   -0.704059   -0.101690
      8          1           0        1.723125   -1.151483   -1.401462
      9          1           0       -2.672496    0.145617   -0.794851
     10          1           0        0.919466    0.675633    1.665251
     11          1           0        0.390821   -0.995273    1.375236
 ---------------------------------------------------------------------

 SCF Done:  E(RHF) =  -840.669389247     A.U. after    2 cycles

 The electronic state is 1-A.
 Alpha  occ. eigenvalues --  -93.56138 -69.08173 -20.58259 -11.39273 -11.25909
 Alpha  occ. eigenvalues --   -8.86005  -6.83436  -6.20155  -6.19932  -6.19599
 Alpha  occ. eigenvalues --   -3.94228  -3.94204  -3.94190  -1.38287  -1.04632
 Alpha  occ. eigenvalues --   -0.97385  -0.76632  -0.70906  -0.66877  -0.65996
 Alpha  occ. eigenvalues --   -0.59746  -0.57407  -0.53217  -0.49383  -0.48809
 Alpha  occ. eigenvalues --   -0.47371  -0.42236  -0.39402
 Alpha virt. eigenvalues --    0.03213   0.04547   0.04820   0.05120   0.07023
 Alpha virt. eigenvalues --    0.07798   0.08172   0.08507   0.09248   0.09910
 Alpha virt. eigenvalues --    0.10936   0.11103   0.14242   0.14456   0.15074

 Mulliken charges:
               1
     1  Si   0.392065
     2  C    0.077675
     3  C    0.011213
     4  O   -0.535797
     5  H   -0.024097
     6  H    0.031157
     7  S    0.181698
     8  H    0.007654
     9  H    0.084850
    10  H   -0.062443
    11  H   -0.163973
 Sum of Mulliken charges =  -0.00000

 Dipole moment (field-independent basis, Debye):
    X=              0.7502    Y=             -1.9377    Z=              0.9678  Tot=              2.2922

 Test job not archived.
 1\1\GINC-SE095\SP\RHF\Aug-CC-pVDZ\C2H6O1S1Si1\OHZDE\08-Apr-2025\0\\#t
 hf aug-cc-pvdz iop(5/13=1,5/36=2,99/5=2) pseudo=read geom=check guess=
 (read,tcheck) scf=(maxcycle=1)\\title\\0,1\Si,0,2.104031,-0.270149,-0.
 276489\C,0,0.617618,-0.040414,0.89509\C,0,-0.583192,0.5274,0.183871\O,
 0,-0.678589,1.663992,-0.190697\H,0,3.196707,-0.90276,0.496447\H,0,2.54
 7107,1.041439,-0.790916\S,0,-1.896188,-0.704058,-0.10169\H,0,1.723125,
 -1.151483,-1.401462\H,0,-2.672496,0.145618,-0.794851\H,0,0.919466,0.67
 5633,1.665251\H,0,0.390821,-0.995273,1.375236\\Version=ES64L-G16RevC.0

 Normal termination of Gaussian 16 at Tue Apr  8 23:52:27 2025.
