 Gaussian 16, Revision C.01,

 ----------------------------------------------------------------------
 #t hf aug-cc-pvdz symm=none int=(grid=ultrafine) guess=(read,tcheck) s
 table=opt
 ----------------------------------------------------------------------
 -----
 title
 -----
 Symbolic Z-matrix:
 Charge =  0 Multiplicity = 2

 SCF Done:  E(UHF) =  -468.891929035     A.U. after   16 cycles
 Normal termination of Gaussian 16 at Wed Apr  9 00:12:52 2025.
 Gaussian 16:  ES64L-G16RevC.01  3-Jul-2019

 ----------------------------------------------------------------------
 #t hf aug-cc-pvdz iop(5/13=1,5/36=2,99/5=2) pseudo=read geom=check gue
 ss=(read,tcheck) scf=(maxcycle=1)
 ----------------------------------------------------------------------
 -----
 title
 -----
 Structure from the checkpoint file:  "BDE49_nonexpt_2457_mol2.chk"
 Charge =  0 Multiplicity = 2

                         Standard orientation:
 ---------------------------------------------------------------------
 Center     Atomic      Atomic             Coordinates (Angstroms)
 Number     Number       Type             X           Y           Z
 ---------------------------------------------------------------------
      1         14           0        1.176731   -1.171540   -0.057871
      2          5           0        0.130272    0.550869    0.003444
      3          1           0        2.634763   -1.103692    0.198837
      4          1           0        0.635403   -2.465662    0.425833
      5          8           0       -1.225158    0.592627   -0.003448
      6          6           0        0.900221    1.925437    0.013425
      7          1           0        1.731802    1.945130   -0.698538
      8          1           0        1.345796    2.101463    1.000727
      9          1           0        0.231147    2.763051   -0.204181
     10          6           0       -2.068270   -0.557665    0.001858
     11          1           0       -3.079014   -0.223945   -0.232914
     12          1           0       -2.067683   -1.030009    0.987882
     13          1           0       -1.748242   -1.286774   -0.748782
 ---------------------------------------------------------------------

 SCF Done:  E(UHF) =  -468.971355141     A.U. after    2 cycles

 The electronic state is 2-A.
 Alpha  occ. eigenvalues --  -69.05174 -20.58453 -11.29823 -11.20310  -7.63994
 Alpha  occ. eigenvalues --   -6.80844  -3.92263  -3.91346  -3.91266  -1.33611
 Alpha  occ. eigenvalues --   -0.96375  -0.92646  -0.74070  -0.69177  -0.65113
 Alpha  occ. eigenvalues --   -0.64490  -0.56390  -0.54950  -0.52383  -0.51929
 Alpha  occ. eigenvalues --   -0.48988  -0.47776  -0.40483  -0.29751
 Alpha virt. eigenvalues --    0.03325   0.04670   0.04775   0.05440   0.06535
 Alpha virt. eigenvalues --    0.06751   0.06924   0.07620   0.07997   0.09404
 Alpha virt. eigenvalues --    0.10140   0.10338   0.11001   0.11225   0.11864

  Beta  occ. eigenvalues --  -69.04659 -20.58378 -11.29824 -11.20315  -7.64063
  Beta  occ. eigenvalues --   -6.80131  -3.90958  -3.90907  -3.90101  -1.33434
  Beta  occ. eigenvalues --   -0.96347  -0.92595  -0.73098  -0.66619  -0.64717
  Beta  occ. eigenvalues --   -0.63604  -0.56138  -0.54755  -0.52352  -0.51893
  Beta  occ. eigenvalues --   -0.48570  -0.47673  -0.39742
  Beta virt. eigenvalues --    0.02728   0.03451   0.04721   0.04853   0.06064
  Beta virt. eigenvalues --    0.06585   0.06816   0.07072   0.07893   0.09010
  Beta virt. eigenvalues --    0.09779   0.10209   0.11112   0.11330   0.11643

 Mulliken charges and spin densities:
               1          2
     1  Si  -0.307984   1.095528
     2  B    0.614682  -0.021213
     3  H    0.018888  -0.051575
     4  H    0.024503  -0.064163
     5  O   -0.540642   0.030341
     6  C    0.487555   0.009687
     7  H   -0.222442  -0.000793
     8  H   -0.164894   0.003653
     9  H   -0.337370   0.002130
    10  C    1.006680   0.009310
    11  H   -0.252712   0.000202
    12  H   -0.157026  -0.004192
    13  H   -0.169236  -0.008914
 Sum of Mulliken charges =  -0.00000   1.00000

 Dipole moment (field-independent basis, Debye):
    X=             -0.7785    Y=             -0.6789    Z=              0.1879  Tot=              1.0499
                          Isotropic Fermi Contact Couplings
        Atom                 a.u.       MegaHertz       Gauss      10(-4) cm-1
     1  Si(29)             0.30158    -268.01980     -95.63613     -89.40178
     2  B(11)             -0.01383     -19.84291      -7.08044      -6.61888
     3  H(1)              -0.01192     -53.29701     -19.01770     -17.77797
     4  H(1)              -0.01194     -53.37017     -19.04380     -17.80237
     5  O(17)              0.00832      -5.04289      -1.79943      -1.68213
     6  C(13)             -0.00217      -2.44007      -0.87068      -0.81392
     7  H(1)               0.00009       0.38829       0.13855       0.12952
     8  H(1)               0.00158       7.08001       2.52632       2.36164

 1\1\GINC-SE365\SP\UHF\Aug-CC-pVDZ\C2H8B1O1Si1(2)\OHZDE\09-Apr-2025\0\\
 #t hf aug-cc-pvdz iop(5/13=1,5/36=2,99/5=2) pseudo=read geom=check gue
 ss=(read,tcheck) scf=(maxcycle=1)\\title\\0,2\Si,0,1.176732,-1.171538,
 -0.057871\B,0,0.130271,0.550869,0.003444\H,0,2.634764,-1.103689,0.1988
 37\H,0,0.635406,-2.465661,0.425833\O,0,-1.225159,0.592626,-0.003448\C,
 0,0.900218,1.925438,0.013425\H,0,1.731799,1.945132,-0.698538\H,0,1.345
 793,2.101465,1.000727\H,0,0.231143,2.763051,-0.204181\C,0,-2.068269,-0
 .557667,0.001858\H,0,-3.079014,-0.223949,-0.232914\H,0,-2.067682,-1.03

 Normal termination of Gaussian 16 at Wed Apr  9 00:12:55 2025.
