 Gaussian 16, Revision C.01,

 ----------------------------------------------------------------------
 #t hf aug-cc-pvdz symm=none int=(grid=ultrafine) guess=(read,tcheck) s
 table=(opt,rrhf)
 ----------------------------------------------------------------------
 -----
 title
 -----
 Symbolic Z-matrix:
 Charge =  0 Multiplicity = 1

 SCF Done:  E(RHF) =  -820.435527765     A.U. after   17 cycles
 Normal termination of Gaussian 16 at Tue Apr  8 22:48:40 2025.
 Gaussian 16:  ES64L-G16RevC.01  3-Jul-2019

 ----------------------------------------------------------------------
 #t hf aug-cc-pvdz iop(5/13=1,5/36=2,99/5=2) pseudo=read geom=check gue
 ss=(read,tcheck) scf=(maxcycle=1)
 ----------------------------------------------------------------------
 -----
 title
 -----
 Structure from the checkpoint file:  "BDE49_expt_1695_mol1.chk"
 Charge =  0 Multiplicity = 1

                         Standard orientation:
 ---------------------------------------------------------------------
 Center     Atomic      Atomic             Coordinates (Angstroms)
 Number     Number       Type             X           Y           Z
 ---------------------------------------------------------------------
      1          6           0        0.109152    1.205551    0.382487
      2          6           0       -1.253448    1.212871    0.120021
      3          6           0       -1.944173   -0.000001   -0.012331
      4          6           0       -1.253447   -1.212871    0.120025
      5          6           0        0.109153   -1.205547    0.382492
      6          6           0        0.805035    0.000003    0.518174
      7          1           0        0.639856    2.146004    0.480431
      8          1           0       -1.789248    2.148216    0.018340
      9          6           0        2.275048    0.000004    0.805682
     10          1           0        0.639859   -2.145999    0.480439
     11          1           0        2.585295    0.889386    1.349224
     12         17           0        3.267257   -0.000003   -0.735213
     13          1           0        2.585295   -0.889372    1.349233
     14          1           0       -1.789244   -2.148217    0.018348
     15          6           0       -3.350116   -0.000002   -0.277539
     16          7           0       -4.485485   -0.000002   -0.490209
 ---------------------------------------------------------------------

 SCF Done:  E(RHF) =  -820.557470763     A.U. after    2 cycles

 The electronic state is 1-A.
 Alpha  occ. eigenvalues -- -103.66323 -15.64796 -11.33210 -11.30808 -11.29657
 Alpha  occ. eigenvalues --  -11.29511 -11.28934 -11.28931 -11.28031 -11.28027
 Alpha  occ. eigenvalues --  -10.69552  -8.35267  -8.34977  -8.34970  -1.21031
 Alpha  occ. eigenvalues --   -1.19052  -1.16265  -1.07653  -1.05195  -0.96335
 Alpha  occ. eigenvalues --   -0.87502  -0.86069  -0.77746  -0.69997  -0.69512
 Alpha  occ. eigenvalues --   -0.64582  -0.63313  -0.61797  -0.59685  -0.56844
 Alpha  occ. eigenvalues --   -0.55346  -0.54555  -0.53919  -0.48552  -0.47291
 Alpha  occ. eigenvalues --   -0.46280  -0.46123  -0.37822  -0.36335
 Alpha virt. eigenvalues --    0.02578   0.03366   0.03876   0.04558   0.05309
 Alpha virt. eigenvalues --    0.05918   0.07452   0.07512   0.08259   0.09311
 Alpha virt. eigenvalues --    0.09785   0.10087   0.12032   0.12195   0.12937

 Mulliken charges:
               1
     1  C    0.568362
     2  C   -0.158057
     3  C    2.168107
     4  C   -0.158052
     5  C    0.568349
     6  C    0.375645
     7  H   -0.557487
     8  H   -0.560550
     9  C    0.599512
    10  H   -0.557486
    11  H   -0.153707
    12  Cl  -0.150919
    13  H   -0.153708
    14  H   -0.560552
    15  C   -1.170564
    16  N   -0.098894
 Sum of Mulliken charges =  -0.00000

 Dipole moment (field-independent basis, Debye):
    X=              3.2413    Y=              0.0000    Z=              2.5911  Tot=              4.1496

 Test job not archived.
 1\1\GINC-SE361\SP\RHF\Aug-CC-pVDZ\C8H6Cl1N1\OHZDE\08-Apr-2025\0\\#t hf
  aug-cc-pvdz iop(5/13=1,5/36=2,99/5=2) pseudo=read geom=check guess=(r
 ead,tcheck) scf=(maxcycle=1)\\title\\0,1\C,0,0.109152,1.205551,0.38248
 7\C,0,-1.253448,1.212871,0.120021\C,0,-1.944173,-0.000001,-0.012331\C,
 0,-1.253447,-1.212871,0.120025\C,0,0.109153,-1.205547,0.382492\C,0,0.8
 05035,0.000003,0.518174\H,0,0.639856,2.146004,0.480431\H,0,-1.789248,2
 .148216,0.01834\C,0,2.275048,0.000004,0.805682\H,0,0.639859,-2.145999,
 0.480439\H,0,2.585295,0.889386,1.349224\Cl,0,3.267257,-0.000003,-0.735

 Normal termination of Gaussian 16 at Tue Apr  8 22:48:48 2025.
