 Gaussian 16, Revision C.01,

 ----------------------------------------------------------------------
 #t hf aug-cc-pvdz symm=none int=(grid=ultrafine) guess=(read,tcheck) s
 table=(opt,rrhf)
 ----------------------------------------------------------------------
 -----
 title
 -----
 Symbolic Z-matrix:
 Charge =  0 Multiplicity = 1

 SCF Done:  E(RHF) =  -190.785459765     A.U. after   14 cycles
 Normal termination of Gaussian 16 at Tue Apr  8 22:34:37 2025.
 Gaussian 16:  ES64L-G16RevC.01  3-Jul-2019

 ----------------------------------------------------------------------
 #t hf aug-cc-pvdz iop(5/13=1,5/36=2,99/5=2) pseudo=read geom=check gue
 ss=(read,tcheck) scf=(maxcycle=1)
 ----------------------------------------------------------------------
 -----
 title
 -----
 Structure from the checkpoint file:  "BDE49_expt_1141_mol1.chk"
 Charge =  0 Multiplicity = 1

                         Standard orientation:
 ---------------------------------------------------------------------
 Center     Atomic      Atomic             Coordinates (Angstroms)
 Number     Number       Type             X           Y           Z
 ---------------------------------------------------------------------
      1          6           0        1.684125   -0.330044    0.000001
      2          6           0        0.466981    0.568830    0.000002
      3          1           0        1.400925   -1.383963   -0.000001
      4          1           0        2.303432   -0.152437    0.884267
      5          1           0        2.303432   -0.152435   -0.884266
      6          6           0       -0.766260    0.126605   -0.000000
      7          8           0       -1.862478   -0.268761   -0.000002
      8          1           0        0.582957    1.646569    0.000002
 ---------------------------------------------------------------------

 SCF Done:  E(RHF) =  -190.848345850     A.U. after    2 cycles

 The electronic state is 1-A.
 Alpha  occ. eigenvalues --  -20.63498 -11.38540 -11.25702 -11.25215  -1.42862
 Alpha  occ. eigenvalues --   -1.07696  -0.93277  -0.75504  -0.68924  -0.65431
 Alpha  occ. eigenvalues --   -0.62989  -0.58163  -0.56298  -0.53756  -0.35318
 Alpha virt. eigenvalues --    0.03153   0.04643   0.05561   0.05725   0.08686
 Alpha virt. eigenvalues --    0.10618   0.11795   0.11983   0.13203   0.13512
 Alpha virt. eigenvalues --    0.15541   0.15682   0.17089   0.17562   0.17787

 Mulliken charges:
               1
     1  C    0.202619
     2  C    0.871478
     3  H   -0.121780
     4  H    0.006452
     5  H    0.006455
     6  C   -0.436419
     7  O   -0.248698
     8  H   -0.280107
 Sum of Mulliken charges =  -0.00000

 Dipole moment (field-independent basis, Debye):
    X=              2.4330    Y=              0.6144    Z=              0.0000  Tot=              2.5094

 Test job not archived.
 1\1\GINC-SE105\SP\RHF\Aug-CC-pVDZ\C3H4O1\OHZDE\08-Apr-2025\0\\#t hf au
 g-cc-pvdz iop(5/13=1,5/36=2,99/5=2) pseudo=read geom=check guess=(read
 ,tcheck) scf=(maxcycle=1)\\title\\0,1\C,0,1.684125,-0.330044,0.000001\
 C,0,0.466981,0.56883,0.000002\H,0,1.400925,-1.383963,-0.000001\H,0,2.3
 03432,-0.152437,0.884267\H,0,2.303432,-0.152435,-0.884266\C,0,-0.76626
 ,0.126605,0.\O,0,-1.862478,-0.268761,-0.000002\H,0,0.582957,1.646569,0
 .000002\\Version=ES64L-G16RevC.01\State=1-A\HF=-190.8483458\RMSD=4.475
 e-03\Dipole=0.9572247,0.2417202,0.0000005\Quadrupole=-1.8969776,2.0874

 Normal termination of Gaussian 16 at Tue Apr  8 22:34:39 2025.
