 Gaussian 16, Revision C.01,

 ----------------------------------------------------------------------
 #t hf aug-cc-pvdz symm=none int=(grid=ultrafine) guess=(read,tcheck) s
 table=(opt,rrhf)
 ----------------------------------------------------------------------
 -----
 title
 -----
 Symbolic Z-matrix:
 Charge =  0 Multiplicity = 1

 SCF Done:  E(RHF) =  -881.041303998     A.U. after   12 cycles

 1\1\GINC-SE367\Stability\RHF\Aug-CC-pVDZ\H6O4Si2\OHZDE\09-Apr-2025\0\\
 #t hf aug-cc-pvdz symm=none int=(grid=ultrafine) guess=(read,tcheck) s
 table=(opt,rrhf)\\title\\0,1\Si,0,-1.170236,0.102926,0.42723\Si,0,1.17
 0237,-0.102927,0.427228\O,0,1.838689,1.282281,-0.173622\H,0,1.262708,1
 .796091,-0.749871\O,0,-1.838689,-1.28228,-0.173621\H,0,-1.262709,-1.79
 6091,-0.749871\O,0,1.325171,-1.411265,-0.58868\H,0,1.904068,-0.353991,
 1.686252\H,0,2.202757,-1.728746,-0.81919\O,0,-1.325172,1.411266,-0.588
 677\H,0,-1.904065,0.35399,1.686255\H,0,-2.202759,1.728747,-0.819185\\V

 Normal termination of Gaussian 16 at Wed Apr  9 00:08:07 2025.
 Gaussian 16:  ES64L-G16RevC.01  3-Jul-2019

 ----------------------------------------------------------------------
 #t hf aug-cc-pvdz iop(5/13=1,5/36=2,99/5=2) pseudo=read geom=check gue
 ss=(read,tcheck) scf=(maxcycle=1)
 ----------------------------------------------------------------------
 -----
 title
 -----
 Structure from the checkpoint file:  "BDE49_nonexpt_2331_mol1.chk"
 Charge =  0 Multiplicity = 1

                         Standard orientation:
 ---------------------------------------------------------------------
 Center     Atomic      Atomic             Coordinates (Angstroms)
 Number     Number       Type             X           Y           Z
 ---------------------------------------------------------------------
      1         14           0       -1.170236    0.102926    0.427230
      2         14           0        1.170237   -0.102927    0.427228
      3          8           0        1.838689    1.282281   -0.173622
      4          1           0        1.262708    1.796091   -0.749871
      5          8           0       -1.838689   -1.282280   -0.173621
      6          1           0       -1.262709   -1.796091   -0.749871
      7          8           0        1.325171   -1.411265   -0.588680
      8          1           0        1.904068   -0.353991    1.686252
      9          1           0        2.202757   -1.728746   -0.819190
     10          8           0       -1.325172    1.411266   -0.588677
     11          1           0       -1.904065    0.353990    1.686255
     12          1           0       -2.202759    1.728747   -0.819185
 ---------------------------------------------------------------------

 SCF Done:  E(RHF) =  -881.216538719     A.U. after    2 cycles

 The electronic state is 1-A.
 Alpha  occ. eigenvalues --  -69.11419 -69.11419 -20.57967 -20.57967 -20.57073
 Alpha  occ. eigenvalues --  -20.57073  -6.85893  -6.85889  -3.96861  -3.96858
 Alpha  occ. eigenvalues --   -3.96735  -3.96717  -3.96671  -3.96594  -1.31725
 Alpha  occ. eigenvalues --   -1.31117  -1.29680  -1.29297  -0.78804  -0.76286
 Alpha  occ. eigenvalues --   -0.73038  -0.72044  -0.61636  -0.61280  -0.59848
 Alpha  occ. eigenvalues --   -0.59244  -0.58831  -0.57033  -0.52643  -0.52370
 Alpha  occ. eigenvalues --   -0.51118  -0.49692  -0.39990
 Alpha virt. eigenvalues --    0.03178   0.03980   0.05429   0.05677   0.06652
 Alpha virt. eigenvalues --    0.06731   0.07483   0.07755   0.08495   0.09594
 Alpha virt. eigenvalues --    0.09739   0.10963   0.13917   0.14531   0.15295

 Mulliken charges:
               1
     1  Si   1.383292
     2  Si   1.383292
     3  O   -0.873785
     4  H    0.174205
     5  O   -0.873786
     6  H    0.174205
     7  O   -0.778077
     8  H   -0.023078
     9  H    0.117443
    10  O   -0.778078
    11  H   -0.023078
    12  H    0.117444
 Sum of Mulliken charges =  -0.00000

 Dipole moment (field-independent basis, Debye):
    X=              0.0000    Y=             -0.0000    Z=             -0.7466  Tot=              0.7466

 Test job not archived.
 1\1\GINC-SE367\SP\RHF\Aug-CC-pVDZ\H6O4Si2\OHZDE\09-Apr-2025\0\\#t hf a
 ug-cc-pvdz iop(5/13=1,5/36=2,99/5=2) pseudo=read geom=check guess=(rea
 d,tcheck) scf=(maxcycle=1)\\title\\0,1\Si,0,-1.170236,0.102926,0.42723
 \Si,0,1.170237,-0.102927,0.427228\O,0,1.838689,1.282281,-0.173622\H,0,
 1.262708,1.796091,-0.749871\O,0,-1.838689,-1.28228,-0.173621\H,0,-1.26
 2709,-1.796091,-0.749871\O,0,1.325171,-1.411265,-0.58868\H,0,1.904068,
 -0.353991,1.686252\H,0,2.202757,-1.728746,-0.81919\O,0,-1.325172,1.411
 266,-0.588677\H,0,-1.904065,0.35399,1.686255\H,0,-2.202759,1.728747,-0

 Normal termination of Gaussian 16 at Wed Apr  9 00:08:11 2025.
