 Gaussian 16, Revision C.01,

 ----------------------------------------------------------------------
 #t hf aug-cc-pvdz symm=none int=(grid=ultrafine) guess=(read,tcheck) s
 table=(opt,rrhf)
 ----------------------------------------------------------------------
 -----
 title
 -----
 Symbolic Z-matrix:
 Charge =  0 Multiplicity = 1

 SCF Done:  E(RHF) =  -737.278105630     A.U. after   16 cycles
 Normal termination of Gaussian 16 at Tue Apr  8 23:55:37 2025.
 Gaussian 16:  ES64L-G16RevC.01  3-Jul-2019

 ----------------------------------------------------------------------
 #t hf aug-cc-pvdz iop(5/13=1,5/36=2,99/5=2) pseudo=read geom=check gue
 ss=(read,tcheck) scf=(maxcycle=1)
 ----------------------------------------------------------------------
 -----
 title
 -----
 Structure from the checkpoint file:  "BDE49_nonexpt_2027_mol1.chk"
 Charge =  0 Multiplicity = 1

                         Standard orientation:
 ---------------------------------------------------------------------
 Center     Atomic      Atomic             Coordinates (Angstroms)
 Number     Number       Type             X           Y           Z
 ---------------------------------------------------------------------
      1         14           0        1.160843   -1.595382    0.050100
      2          6           0        0.067693   -0.109586   -0.531432
      3          7           0       -1.355420   -0.234738   -0.047429
      4          8           0       -1.496447   -0.504088    1.134464
      5          8           0       -2.237966   -0.080833   -0.869909
      6          7           0        0.644002    1.204145   -0.029152
      7          1           0        0.028381   -0.008316   -1.614838
      8          8           0       -0.102685    2.033025    0.438954
      9          8           0        1.851124    1.306500   -0.184987
     10          1           0        1.599514   -1.342204    1.430583
     11          1           0        2.290303   -1.695977   -0.889720
     12          1           0        0.291569   -2.783320   -0.050943
 ---------------------------------------------------------------------

 SCF Done:  E(RHF) =  -737.436254561     A.U. after    2 cycles

 The electronic state is 1-A.
 Alpha  occ. eigenvalues --  -69.12237 -20.66271 -20.65673 -20.65433 -20.65170
 Alpha  occ. eigenvalues --  -15.96019 -15.95169 -11.39382  -6.87471  -3.98313
 Alpha  occ. eigenvalues --   -3.98214  -3.98199  -1.59859  -1.58154  -1.41273
 Alpha  occ. eigenvalues --   -1.40457  -1.15857  -0.97796  -0.87460  -0.82856
 Alpha  occ. eigenvalues --   -0.80362  -0.79967  -0.76830  -0.76551  -0.73213
 Alpha  occ. eigenvalues --   -0.70793  -0.59367  -0.56926  -0.54784  -0.53911
 Alpha  occ. eigenvalues --   -0.52587  -0.52432  -0.52087  -0.51166  -0.49841
 Alpha virt. eigenvalues --    0.02157   0.03222   0.04020   0.05058   0.05523
 Alpha virt. eigenvalues --    0.06034   0.06709   0.08313   0.08442   0.10937
 Alpha virt. eigenvalues --    0.11142   0.12796   0.13430   0.14808   0.15323

 Mulliken charges:
               1
     1  Si   0.227631
     2  C    1.167289
     3  N    0.370174
     4  O   -0.561782
     5  O   -0.529581
     6  N    0.443345
     7  H   -0.240431
     8  O   -0.535991
     9  O   -0.576276
    10  H    0.099292
    11  H    0.085825
    12  H    0.050507
 Sum of Mulliken charges =  -0.00000

 Dipole moment (field-independent basis, Debye):
    X=              2.3964    Y=             -3.2377    Z=             -1.9888  Tot=              4.4924

 Test job not archived.
 1\1\GINC-SE070\SP\RHF\Aug-CC-pVDZ\C1H4N2O4Si1\OHZDE\08-Apr-2025\0\\#t
 hf aug-cc-pvdz iop(5/13=1,5/36=2,99/5=2) pseudo=read geom=check guess=
 (read,tcheck) scf=(maxcycle=1)\\title\\0,1\Si,0,1.160844,-1.595381,0.0
 501\C,0,0.067693,-0.109586,-0.531432\N,0,-1.35542,-0.234739,-0.047429\
 O,0,-1.496447,-0.504089,1.134464\O,0,-2.237966,-0.080834,-0.869909\N,0
 ,0.644001,1.204146,-0.029152\H,0,0.028381,-0.008316,-1.614838\O,0,-0.1
 02686,2.033025,0.438954\O,0,1.851123,1.306501,-0.184987\H,0,1.599515,-
 1.342203,1.430583\H,0,2.290304,-1.695975,-0.88972\H,0,0.291571,-2.7833

 Normal termination of Gaussian 16 at Tue Apr  8 23:55:43 2025.
