 Gaussian 16, Revision C.01,

 ----------------------------------------------------------------------
 #t hf aug-cc-pvdz symm=none int=(grid=ultrafine) guess=(read,tcheck) s
 table=(opt,rrhf)
 ----------------------------------------------------------------------
 -----
 title
 -----
 Symbolic Z-matrix:
 Charge =  0 Multiplicity = 1

 SCF Done:  E(RHF) =  -383.667547176     A.U. after   15 cycles

 1\1\GINC-SE016\Stability\RHF\Aug-CC-pVDZ\C8H10O1\OHZDE\08-Apr-2025\0\\
 #t hf aug-cc-pvdz symm=none int=(grid=ultrafine) guess=(read,tcheck) s
 table=(opt,rrhf)\\title\\0,1\C,0,-3.611043,-0.14143,0.000002\C,0,-2.24
 0605,0.508764,0.000001\H,0,-4.391468,0.623957,0.000002\H,0,-3.738593,-
 0.767542,0.885545\H,0,-3.738594,-0.767541,-0.885542\O,0,-1.269855,-0.5
 37687,0.\H,0,-2.107992,1.139997,0.887835\H,0,-2.107994,1.139997,-0.887
 833\C,0,0.054903,-0.213459,0.\C,0,0.553774,1.09241,0.\C,0,0.945222,-1.
 295238,0.\C,0,2.314002,-1.070695,0.\C,0,2.820518,0.231341,-0.000001\C,

 Normal termination of Gaussian 16 at Tue Apr  8 22:42:41 2025.
 Gaussian 16:  ES64L-G16RevC.01  3-Jul-2019

 ----------------------------------------------------------------------
 #t hf aug-cc-pvdz iop(5/13=1,5/36=2,99/5=2) pseudo=read geom=check gue
 ss=(read,tcheck) scf=(maxcycle=1)
 ----------------------------------------------------------------------
 -----
 title
 -----
 Structure from the checkpoint file:  "BDE49_expt_1427_mol1.chk"
 Charge =  0 Multiplicity = 1

                         Standard orientation:
 ---------------------------------------------------------------------
 Center     Atomic      Atomic             Coordinates (Angstroms)
 Number     Number       Type             X           Y           Z
 ---------------------------------------------------------------------
      1          6           0       -3.611043   -0.141430    0.000002
      2          6           0       -2.240605    0.508764    0.000001
      3          1           0       -4.391468    0.623957    0.000002
      4          1           0       -3.738593   -0.767542    0.885545
      5          1           0       -3.738594   -0.767541   -0.885542
      6          8           0       -1.269855   -0.537687   -0.000000
      7          1           0       -2.107992    1.139997    0.887835
      8          1           0       -2.107994    1.139997   -0.887833
      9          6           0        0.054903   -0.213459   -0.000000
     10          6           0        0.553774    1.092410   -0.000000
     11          6           0        0.945222   -1.295238   -0.000000
     12          6           0        2.314002   -1.070695   -0.000000
     13          6           0        2.820518    0.231341   -0.000001
     14          6           0        1.934584    1.301909   -0.000000
     15          1           0       -0.113506    1.943584   -0.000000
     16          1           0        2.311781    2.318731   -0.000001
     17          1           0        0.535104   -2.297951   -0.000000
     18          1           0        2.991796   -1.917201   -0.000001
     19          1           0        3.890177    0.403847   -0.000001
 ---------------------------------------------------------------------

 SCF Done:  E(RHF) =  -383.785977204     A.U. after    2 cycles

 The electronic state is 1-A.
 Alpha  occ. eigenvalues --  -20.59497 -11.30975 -11.29930 -11.24772 -11.24644
 Alpha  occ. eigenvalues --  -11.23881 -11.23470 -11.23391 -11.23336  -1.36567
 Alpha  occ. eigenvalues --   -1.13720  -1.04232  -1.01060  -0.98144  -0.87432
 Alpha  occ. eigenvalues --   -0.82803  -0.80340  -0.73188  -0.67800  -0.67241
 Alpha  occ. eigenvalues --   -0.65843  -0.61883  -0.59144  -0.57038  -0.56944
 Alpha  occ. eigenvalues --   -0.55114  -0.51917  -0.51250  -0.50490  -0.48385
 Alpha  occ. eigenvalues --   -0.46991  -0.34202  -0.31538
 Alpha virt. eigenvalues --    0.03373   0.03831   0.04152   0.05265   0.05337
 Alpha virt. eigenvalues --    0.05465   0.07000   0.07633   0.07861   0.09004
 Alpha virt. eigenvalues --    0.10831   0.11167   0.11924   0.12955   0.13394

 Mulliken charges:
               1
     1  C    0.321900
     2  C    0.498795
     3  H   -0.017549
     4  H   -0.021025
     5  H   -0.021024
     6  O   -0.685734
     7  H   -0.200413
     8  H   -0.200414
     9  C    0.425706
    10  C   -0.047895
    11  C    0.516257
    12  C    0.741746
    13  C    0.477838
    14  C    0.861412
    15  H   -0.727816
    16  H   -0.458468
    17  H   -0.580912
    18  H   -0.432038
    19  H   -0.450369
 Sum of Mulliken charges =  -0.00000

 Dipole moment (field-independent basis, Debye):
    X=             -0.7598    Y=              1.2192    Z=             -0.0000  Tot=              1.4365

 Test job not archived.
 1\1\GINC-SE016\SP\RHF\Aug-CC-pVDZ\C8H10O1\OHZDE\08-Apr-2025\0\\#t hf a
 ug-cc-pvdz iop(5/13=1,5/36=2,99/5=2) pseudo=read geom=check guess=(rea
 d,tcheck) scf=(maxcycle=1)\\title\\0,1\C,0,-3.611043,-0.14143,0.000002
 \C,0,-2.240605,0.508764,0.000001\H,0,-4.391468,0.623957,0.000002\H,0,-
 3.738593,-0.767542,0.885545\H,0,-3.738594,-0.767541,-0.885542\O,0,-1.2
 69855,-0.537687,0.\H,0,-2.107992,1.139997,0.887835\H,0,-2.107994,1.139
 997,-0.887833\C,0,0.054903,-0.213459,0.\C,0,0.553774,1.09241,0.\C,0,0.
 945222,-1.295238,0.\C,0,2.314002,-1.070695,0.\C,0,2.820518,0.231341,-0

 Normal termination of Gaussian 16 at Tue Apr  8 22:42:50 2025.
