 Gaussian 16, Revision C.01,

 ----------------------------------------------------------------------
 #t hf aug-cc-pvdz symm=none int=(grid=ultrafine) guess=(read,tcheck) s
 table=(opt,rrhf)
 ----------------------------------------------------------------------
 -----
 title
 -----
 Symbolic Z-matrix:
 Charge =  0 Multiplicity = 1

 SCF Done:  E(RHF) =  -733.122370769     A.U. after   12 cycles
 Normal termination of Gaussian 16 at Wed Apr  9 00:08:41 2025.
 Gaussian 16:  ES64L-G16RevC.01  3-Jul-2019

 ----------------------------------------------------------------------
 #t hf aug-cc-pvdz iop(5/13=1,5/36=2,99/5=2) pseudo=read geom=check gue
 ss=(read,tcheck) scf=(maxcycle=1)
 ----------------------------------------------------------------------
 -----
 title
 -----
 Structure from the checkpoint file:  "BDE49_nonexpt_2341_mol1.chk"
 Charge =  0 Multiplicity = 1

                         Standard orientation:
 ---------------------------------------------------------------------
 Center     Atomic      Atomic             Coordinates (Angstroms)
 Number     Number       Type             X           Y           Z
 ---------------------------------------------------------------------
      1         14           0        2.187460    0.285328    0.000016
      2         14           0        0.194966   -0.966744   -0.000022
      3          6           0       -1.283632    0.303701   -0.000033
      4          1           0        0.072574   -1.843501    1.194539
      5          1           0        0.072602   -1.843467   -1.194611
      6          8           0       -1.021104    1.489892   -0.000002
      7          1           0        2.252274    1.135054   -1.210551
      8          1           0        2.252231    1.135046    1.210589
      9          6           0       -2.715664   -0.193378    0.000029
     10          1           0       -2.892853   -0.821700   -0.879332
     11          1           0       -3.406613    0.651406    0.000050
     12          1           0       -2.892785   -0.821688    0.879412
     13          1           0        3.353209   -0.632404    0.000034
 ---------------------------------------------------------------------

 SCF Done:  E(RHF) =  -733.211638401     A.U. after    2 cycles

 The electronic state is 1-A.
 Alpha  occ. eigenvalues --  -69.07385 -69.06362 -20.57786 -11.33904 -11.25004
 Alpha  occ. eigenvalues --   -6.82817  -6.81754  -3.93571  -3.93553  -3.93518
 Alpha  occ. eigenvalues --   -3.92512  -3.92509  -3.92497  -1.35932  -1.00769
 Alpha  occ. eigenvalues --   -0.79672  -0.72935  -0.67908  -0.63839  -0.61220
 Alpha  occ. eigenvalues --   -0.60935  -0.55048  -0.52334  -0.49703  -0.48233
 Alpha  occ. eigenvalues --   -0.47604  -0.41432  -0.38997
 Alpha virt. eigenvalues --    0.03132   0.04132   0.04985   0.05504   0.06391
 Alpha virt. eigenvalues --    0.06561   0.06842   0.07938   0.08318   0.08932
 Alpha virt. eigenvalues --    0.09102   0.09691   0.09884   0.10509   0.11325

 Mulliken charges:
               1
     1  Si  -0.193079
     2  Si   0.355862
     3  C   -0.097591
     4  H    0.029710
     5  H    0.029705
     6  O   -0.447639
     7  H    0.050427
     8  H    0.050432
     9  C    0.230267
    10  H    0.010206
    11  H   -0.071473
    12  H    0.010200
    13  H    0.042974
 Sum of Mulliken charges =  -0.00000

 Dipole moment (field-independent basis, Debye):
    X=             -0.9226    Y=             -2.7289    Z=              0.0000  Tot=              2.8806

 Test job not archived.
 1\1\GINC-SE423\SP\RHF\Aug-CC-pVDZ\C2H8O1Si2\OHZDE\09-Apr-2025\0\\#t hf
  aug-cc-pvdz iop(5/13=1,5/36=2,99/5=2) pseudo=read geom=check guess=(r
 ead,tcheck) scf=(maxcycle=1)\\title\\0,1\Si,0,2.18746,0.285328,0.00001
 6\Si,0,0.194966,-0.966744,-0.000022\C,0,-1.283632,0.303701,-0.000033\H
 ,0,0.072574,-1.843501,1.194539\H,0,0.072602,-1.843467,-1.194611\O,0,-1
 .021104,1.489892,-0.000002\H,0,2.252274,1.135054,-1.210551\H,0,2.25223
 1,1.135046,1.210589\C,0,-2.715664,-0.193378,0.000029\H,0,-2.892853,-0.
 8217,-0.879332\H,0,-3.406613,0.651406,0.00005\H,0,-2.892785,-0.821688,

 Normal termination of Gaussian 16 at Wed Apr  9 00:08:45 2025.
