 Gaussian 16, Revision C.01,

 ----------------------------------------------------------------------
 #t hf aug-cc-pvdz symm=none int=(grid=ultrafine) guess=(read,tcheck) s
 table=(opt,rrhf)
 ----------------------------------------------------------------------
 -----
 title
 -----
 Symbolic Z-matrix:
 Charge =  0 Multiplicity = 1

 SCF Done:  E(RHF) =  -1126.49347475     A.U. after   13 cycles
 Normal termination of Gaussian 16 at Tue Apr  8 23:29:09 2025.
 Gaussian 16:  ES64L-G16RevC.01  3-Jul-2019

 ----------------------------------------------------------------------
 #t hf aug-cc-pvdz iop(5/13=1,5/36=2,99/5=2) pseudo=read geom=check gue
 ss=(read,tcheck) scf=(maxcycle=1)
 ----------------------------------------------------------------------
 -----
 title
 -----
 Structure from the checkpoint file:  "BDE49_nonexpt_1371_mol1.chk"
 Charge =  0 Multiplicity = 1

                         Standard orientation:
 ---------------------------------------------------------------------
 Center     Atomic      Atomic             Coordinates (Angstroms)
 Number     Number       Type             X           Y           Z
 ---------------------------------------------------------------------
      1          9           0        0.163731    1.665660    1.214121
      2         16           0       -0.148918   -0.954959   -0.000000
      3          8           0        0.163731   -1.593584    1.266357
      4         15           0        0.983329    0.994463   -0.000000
      5          6           0       -1.885536   -0.481910    0.000000
      6          1           0       -2.446997   -1.417573    0.000000
      7          1           0       -2.086945    0.093451    0.902018
      8          9           0        0.163731    1.665660   -1.214121
      9          8           0        0.163731   -1.593584   -1.266357
     10          1           0       -2.086945    0.093451   -0.902018
 ---------------------------------------------------------------------

 SCF Done:  E(RHF) =  -1126.73101542     A.U. after    2 cycles

 The electronic state is 1-A'.
 Alpha  occ. eigenvalues --  -93.79282 -81.45689 -26.18360 -26.18355 -20.57927
 Alpha  occ. eigenvalues --  -20.57926 -11.30447  -9.06220  -7.94256  -6.40817
 Alpha  occ. eigenvalues --   -6.40555  -6.40492  -5.08232  -5.07926  -5.07583
 Alpha  occ. eigenvalues --   -1.71662  -1.70199  -1.43323  -1.32308  -1.05450
 Alpha  occ. eigenvalues --   -0.94854  -0.86142  -0.83588  -0.81259  -0.80326
 Alpha  occ. eigenvalues --   -0.78049  -0.75261  -0.71980  -0.68924  -0.68013
 Alpha  occ. eigenvalues --   -0.62521  -0.62136  -0.54515  -0.54198  -0.51277
 Alpha  occ. eigenvalues --   -0.51184  -0.41221
 Alpha virt. eigenvalues --    0.03020   0.04590   0.05206   0.05721   0.06452
 Alpha virt. eigenvalues --    0.07110   0.09433   0.10686   0.12273   0.12299
 Alpha virt. eigenvalues --    0.13950   0.14933   0.15433   0.15687   0.16041

 Mulliken charges:
               1
     1  F   -0.600525
     2  S    2.140393
     3  O   -1.115925
     4  P    1.427209
     5  C   -0.115545
     6  H    0.024918
     7  H   -0.022037
     8  F   -0.600525
     9  O   -1.115925
    10  H   -0.022037
 Sum of Mulliken charges =  -0.00000

 Dipole moment (field-independent basis, Debye):
    X=             -1.6535    Y=              2.9132    Z=             -0.0000  Tot=              3.3497

 Test job not archived.
 1\1\GINC-SE015\SP\RHF\Aug-CC-pVDZ\C1H3F2O2P1S1\OHZDE\08-Apr-2025\0\\#t
  hf aug-cc-pvdz iop(5/13=1,5/36=2,99/5=2) pseudo=read geom=check guess
 =(read,tcheck) scf=(maxcycle=1)\\title\\0,1\F,0,0.163731,1.66566,1.214
 121\S,0,-0.148918,-0.954959,0.\O,0,0.163731,-1.593584,1.266357\P,0,0.9
 83329,0.994463,0.\C,0,-1.885536,-0.48191,0.\H,0,-2.446997,-1.417573,0.
 \H,0,-2.086945,0.093451,0.902018\F,0,0.163731,1.66566,-1.214121\O,0,0.
 163731,-1.593584,-1.266357\H,0,-2.086945,0.093451,-0.902018\\Version=E
 S64L-G16RevC.01\State=1-A'\HF=-1126.7310154\RMSD=5.755e-03\Dipole=-0.6

 Normal termination of Gaussian 16 at Tue Apr  8 23:29:13 2025.
