 Gaussian 16, Revision C.01,

 ----------------------------------------------------------------------
 #t hf aug-cc-pvdz symm=none int=(grid=ultrafine) guess=(read,tcheck) s
 table=(opt,rrhf)
 ----------------------------------------------------------------------
 -----
 title
 -----
 Symbolic Z-matrix:
 Charge =  0 Multiplicity = 1

 SCF Done:  E(RHF) =  -1502.77454251     A.U. after   14 cycles
 Normal termination of Gaussian 16 at Tue Apr  8 23:53:23 2025.
 Gaussian 16:  ES64L-G16RevC.01  3-Jul-2019

 ----------------------------------------------------------------------
 #t hf aug-cc-pvdz iop(5/13=1,5/36=2,99/5=2) pseudo=read geom=check gue
 ss=(read,tcheck) scf=(maxcycle=1)
 ----------------------------------------------------------------------
 -----
 title
 -----
 Structure from the checkpoint file:  "BDE49_nonexpt_1932_mol1.chk"
 Charge =  0 Multiplicity = 1

                         Standard orientation:
 ---------------------------------------------------------------------
 Center     Atomic      Atomic             Coordinates (Angstroms)
 Number     Number       Type             X           Y           Z
 ---------------------------------------------------------------------
      1         14           0        0.596190    1.583822    0.129693
      2          6           0       -1.073437    1.227179   -0.681891
      3         16           0       -2.001011   -0.097651    0.146506
      4          8           0       -1.205978   -0.496562    1.304588
      5          6           0       -1.983544   -1.459331   -1.017833
      6          1           0       -2.566835   -1.179341   -1.894403
      7          1           0       -2.456025   -2.293370   -0.497613
      8          1           0       -0.947405   -1.686879   -1.267869
      9          8           0       -3.367711    0.342873    0.331712
     10         16           0        1.939758   -0.211791   -0.155727
     11          1           0        0.509456    1.943288    1.554751
     12          1           0        1.283237    2.626503   -0.657523
     13          8           0        1.298434   -1.030225   -1.191802
     14          8           0        3.291824    0.291932   -0.369220
     15          6           0        1.957432   -1.178140    1.361461
     16          1           0        0.934730   -1.443406    1.621935
     17          1           0        2.434160   -0.588195    2.143534
     18          1           0        2.555504   -2.061864    1.130493
     19          1           0       -0.928252    0.951460   -1.728212
     20          1           0       -1.720441    2.106978   -0.645907
 ---------------------------------------------------------------------

 SCF Done:  E(RHF) =  -1503.06850516     A.U. after    2 cycles

 The electronic state is 1-A.
 Alpha  occ. eigenvalues --  -93.79690 -93.76649 -69.13250 -20.57325 -20.56918
 Alpha  occ. eigenvalues --  -20.56087 -20.55607 -11.29836 -11.29118 -11.28258
 Alpha  occ. eigenvalues --   -9.06438  -9.03686  -6.88367  -6.41079  -6.40861
 Alpha  occ. eigenvalues --   -6.40770  -6.38302  -6.38042  -6.37948  -3.99160
 Alpha  occ. eigenvalues --   -3.99088  -3.99062  -1.43241  -1.40848  -1.31834
 Alpha  occ. eigenvalues --   -1.29905  -1.06952  -1.03307  -1.01091  -0.85768
 Alpha  occ. eigenvalues --   -0.83001  -0.74216  -0.71015  -0.70150  -0.68447
 Alpha  occ. eigenvalues --   -0.67087  -0.66561  -0.65842  -0.63844  -0.61964
 Alpha  occ. eigenvalues --   -0.60233  -0.60062  -0.59507  -0.55889  -0.53362
 Alpha  occ. eigenvalues --   -0.52687  -0.52199  -0.51218  -0.50287  -0.49909
 Alpha  occ. eigenvalues --   -0.48942  -0.46276  -0.42207
 Alpha virt. eigenvalues --    0.02586   0.03780   0.04014   0.04985   0.05284
 Alpha virt. eigenvalues --    0.05768   0.06374   0.07102   0.07664   0.08022
 Alpha virt. eigenvalues --    0.08616   0.08993   0.10645   0.10702   0.11713

 Mulliken charges:
               1
     1  Si   0.256867
     2  C   -0.163491
     3  S    2.408796
     4  O   -1.209309
     5  C    0.135869
     6  H    0.005075
     7  H    0.026685
     8  H   -0.096415
     9  O   -1.124907
    10  S    2.156066
    11  H    0.253518
    12  H    0.102980
    13  O   -1.210594
    14  O   -1.132551
    15  C    0.015119
    16  H   -0.068542
    17  H   -0.084140
    18  H    0.002864
    19  H   -0.200099
    20  H   -0.073791
 Sum of Mulliken charges =  -0.00000

 Dipole moment (field-independent basis, Debye):
    X=             -1.1794    Y=              0.7377    Z=             -0.2878  Tot=              1.4206

 Test job not archived.
 1\1\GINC-SE082\SP\RHF\Aug-CC-pVDZ\C3H10O4S2Si1\OHZDE\08-Apr-2025\0\\#t
  hf aug-cc-pvdz iop(5/13=1,5/36=2,99/5=2) pseudo=read geom=check guess
 =(read,tcheck) scf=(maxcycle=1)\\title\\0,1\Si,0,0.59619,1.583822,0.12
 9693\C,0,-1.073437,1.227179,-0.681891\S,0,-2.001011,-0.097651,0.146506
 \O,0,-1.205978,-0.496562,1.304588\C,0,-1.983544,-1.459331,-1.017833\H,
 0,-2.566835,-1.179341,-1.894403\H,0,-2.456025,-2.29337,-0.497613\H,0,-
 0.947405,-1.686879,-1.267869\O,0,-3.367711,0.342873,0.331712\S,0,1.939
 758,-0.211791,-0.155727\H,0,0.509456,1.943288,1.554751\H,0,1.283237,2.

 Normal termination of Gaussian 16 at Tue Apr  8 23:53:37 2025.
