 Gaussian 16, Revision C.01,

 ----------------------------------------------------------------------
 #t hf aug-cc-pvdz symm=none int=(grid=ultrafine) guess=(read,tcheck) s
 table=(opt,rrhf)
 ----------------------------------------------------------------------
 -----
 title
 -----
 Symbolic Z-matrix:
 Charge =  0 Multiplicity = 1

 SCF Done:  E(RHF) =  -809.722732534     A.U. after   15 cycles
 Normal termination of Gaussian 16 at Tue Apr  8 23:25:14 2025.
 Gaussian 16:  ES64L-G16RevC.01  3-Jul-2019

 ----------------------------------------------------------------------
 #t hf aug-cc-pvdz iop(5/13=1,5/36=2,99/5=2) pseudo=read geom=check gue
 ss=(read,tcheck) scf=(maxcycle=1)
 ----------------------------------------------------------------------
 -----
 title
 -----
 Structure from the checkpoint file:  "BDE49_nonexpt_1305_mol1.chk"
 Charge =  0 Multiplicity = 1

                         Standard orientation:
 ---------------------------------------------------------------------
 Center     Atomic      Atomic             Coordinates (Angstroms)
 Number     Number       Type             X           Y           Z
 ---------------------------------------------------------------------
      1          6           0       -0.494614   -0.642706   -0.788011
      2          7           0       -1.718197   -0.051654   -0.128395
      3         15           0        1.086303   -0.069875   -0.052515
      4          1           0       -0.522945   -0.326730   -1.831877
      5          1           0       -0.582345   -1.723368   -0.716330
      6          8           0       -2.632083   -0.800158    0.134824
      7          8           0       -1.714983    1.162607    0.077603
      8          8           0        2.267215   -0.688144   -0.648850
      9          8           0        1.033550    1.510038   -0.178284
     10          1           0        0.138756    1.849990    0.009266
     11          8           0        0.803949   -0.423075    1.485867
     12          1           0        1.605871   -0.624098    1.984227
 ---------------------------------------------------------------------

 SCF Done:  E(RHF) =  -809.937144600     A.U. after    2 cycles

 The electronic state is 1-A.
 Alpha  occ. eigenvalues --  -81.44993 -20.66357 -20.65107 -20.64089 -20.62994
 Alpha  occ. eigenvalues --  -20.55069 -15.95440 -11.35036  -7.93309  -5.07982
 Alpha  occ. eigenvalues --   -5.07882  -5.07610  -1.58864  -1.40918  -1.39990
 Alpha  occ. eigenvalues --   -1.36950  -1.28654  -1.12122  -0.90942  -0.86308
 Alpha  occ. eigenvalues --   -0.81307  -0.79208  -0.77878  -0.76428  -0.70278
 Alpha  occ. eigenvalues --   -0.68967  -0.66888  -0.63796  -0.60192  -0.57889
 Alpha  occ. eigenvalues --   -0.57240  -0.55542  -0.54752  -0.51522  -0.51188
 Alpha  occ. eigenvalues --   -0.49993
 Alpha virt. eigenvalues --    0.02797   0.03343   0.04734   0.05167   0.06547
 Alpha virt. eigenvalues --    0.08495   0.09790   0.10690   0.11392   0.12748
 Alpha virt. eigenvalues --    0.13352   0.14160   0.15835   0.16547   0.17550

 Mulliken charges:
               1
     1  C    0.433157
     2  N    0.447482
     3  P    2.435705
     4  H   -0.063217
     5  H   -0.163632
     6  O   -0.524283
     7  O   -0.630549
     8  O   -0.863383
     9  O   -0.713986
    10  H    0.207615
    11  O   -0.743011
    12  H    0.178101
 Sum of Mulliken charges =  -0.00000

 Dipole moment (field-independent basis, Debye):
    X=             -0.4797    Y=             -0.6615    Z=              0.3331  Tot=              0.8824

 Test job not archived.
 1\1\GINC-SE074\SP\RHF\Aug-CC-pVDZ\C1H4N1O5P1\OHZDE\08-Apr-2025\0\\#t h
 f aug-cc-pvdz iop(5/13=1,5/36=2,99/5=2) pseudo=read geom=check guess=(
 read,tcheck) scf=(maxcycle=1)\\title\\0,1\C,0,-0.494614,-0.642706,-0.7
 88011\N,0,-1.718197,-0.051654,-0.128395\P,0,1.086303,-0.069875,-0.0525
 15\H,0,-0.522945,-0.32673,-1.831877\H,0,-0.582345,-1.723368,-0.71633\O
 ,0,-2.632083,-0.800158,0.134824\O,0,-1.714983,1.162607,0.077603\O,0,2.
 267215,-0.688144,-0.64885\O,0,1.03355,1.510038,-0.178284\H,0,0.138756,
 1.84999,0.009266\O,0,0.803949,-0.423075,1.485867\H,0,1.605871,-0.62409

 Normal termination of Gaussian 16 at Tue Apr  8 23:25:20 2025.
