 Gaussian 16, Revision C.01,

 ----------------------------------------------------------------------
 #t hf aug-cc-pvdz symm=none int=(grid=ultrafine) guess=(read,tcheck) s
 table=(opt,rrhf)
 ----------------------------------------------------------------------
 -----
 title
 -----
 Symbolic Z-matrix:
 Charge =  0 Multiplicity = 1

 SCF Done:  E(RHF) =  -806.989742185     A.U. after   14 cycles
 Normal termination of Gaussian 16 at Tue Apr  8 23:19:28 2025.
 Gaussian 16:  ES64L-G16RevC.01  3-Jul-2019

 ----------------------------------------------------------------------
 #t hf aug-cc-pvdz iop(5/13=1,5/36=2,99/5=2) pseudo=read geom=check gue
 ss=(read,tcheck) scf=(maxcycle=1)
 ----------------------------------------------------------------------
 -----
 title
 -----
 Structure from the checkpoint file:  "BDE49_nonexpt_1094_mol1.chk"
 Charge =  0 Multiplicity = 1

                         Standard orientation:
 ---------------------------------------------------------------------
 Center     Atomic      Atomic             Coordinates (Angstroms)
 Number     Number       Type             X           Y           Z
 ---------------------------------------------------------------------
      1          6           0        0.648671   -0.984811    0.644411
      2          6           0        1.907384   -1.493269   -0.071640
      3          6           0        3.016643   -0.432144   -0.083782
      4          6           0        2.520129    0.891595   -0.682193
      5          6           0        1.256642    1.398048    0.029378
      6          6           0       -1.087664    0.865739    0.764040
      7          6           0        0.143317    0.334144    0.037105
      8          8           0       -2.184263   -0.058844    0.843303
      9         17           0       -2.965611   -0.269702   -0.699148
     10          1           0        0.878072   -0.820671    1.706707
     11          1           0       -0.144931   -1.735429    0.610189
     12          1           0        1.651668   -1.761993   -1.104625
     13          1           0        2.265057   -2.410198    0.407186
     14          1           0        3.884790   -0.795707   -0.642731
     15          1           0        3.359094   -0.257008    0.944442
     16          1           0        2.297514    0.745737   -1.746837
     17          1           0        3.306771    1.650993   -0.630397
     18          1           0        0.897957    2.315748   -0.449878
     19          1           0        1.508373    1.663651    1.065377
     20          1           0       -1.431405    1.812945    0.334438
     21          1           0       -0.870345    1.027561    1.827140
     22          1           0       -0.143859    0.144242   -1.005833
 ---------------------------------------------------------------------

 SCF Done:  E(RHF) =  -807.112965238     A.U. after    2 cycles

 The electronic state is 1-A.
 Alpha  occ. eigenvalues -- -103.70430 -20.64738 -11.30278 -11.24027 -11.23588
 Alpha  occ. eigenvalues --  -11.23188 -11.22891 -11.22827 -11.22742 -10.73140
 Alpha  occ. eigenvalues --   -8.38896  -8.38504  -8.38481  -1.36252  -1.12360
 Alpha  occ. eigenvalues --   -1.10048  -1.02110  -1.00055  -0.90830  -0.83771
 Alpha  occ. eigenvalues --   -0.81029  -0.76228  -0.67374  -0.66913  -0.66059
 Alpha  occ. eigenvalues --   -0.62670  -0.60438  -0.60258  -0.58419  -0.53374
 Alpha  occ. eigenvalues --   -0.53221  -0.51813  -0.50934  -0.49027  -0.48377
 Alpha  occ. eigenvalues --   -0.47153  -0.46098  -0.45046  -0.43481  -0.42991
 Alpha virt. eigenvalues --    0.03370   0.04068   0.04229   0.04704   0.05710
 Alpha virt. eigenvalues --    0.06008   0.06254   0.06619   0.07028   0.07454
 Alpha virt. eigenvalues --    0.08905   0.09092   0.09105   0.09802   0.11565

 Mulliken charges:
               1
     1  C    0.433519
     2  C    0.347275
     3  C    0.239612
     4  C    0.287277
     5  C    0.584690
     6  C    1.299670
     7  C   -1.160420
     8  O   -0.698548
     9  Cl   0.211460
    10  H   -0.072704
    11  H   -0.135990
    12  H   -0.080966
    13  H   -0.102947
    14  H   -0.120827
    15  H   -0.096896
    16  H   -0.090260
    17  H   -0.100088
    18  H   -0.171337
    19  H   -0.069448
    20  H   -0.128279
    21  H   -0.122699
    22  H   -0.252091
 Sum of Mulliken charges =   0.00000

 Dipole moment (field-independent basis, Debye):
    X=              2.0069    Y=              1.0841    Z=             -0.2545  Tot=              2.2951

 Test job not archived.
 1\1\GINC-SE453\SP\RHF\Aug-CC-pVDZ\C7H13Cl1O1\OHZDE\08-Apr-2025\0\\#t h
 f aug-cc-pvdz iop(5/13=1,5/36=2,99/5=2) pseudo=read geom=check guess=(
 read,tcheck) scf=(maxcycle=1)\\title\\0,1\C,0,0.648671,-0.984811,0.644
 411\C,0,1.907384,-1.493269,-0.07164\C,0,3.016643,-0.432144,-0.083782\C
 ,0,2.520129,0.891595,-0.682193\C,0,1.256642,1.398048,0.029378\C,0,-1.0
 87664,0.865739,0.76404\C,0,0.143317,0.334144,0.037105\O,0,-2.184263,-0
 .058844,0.843303\Cl,0,-2.965611,-0.269702,-0.699148\H,0,0.878072,-0.82
 0671,1.706707\H,0,-0.144931,-1.735429,0.610189\H,0,1.651668,-1.761993,

 Normal termination of Gaussian 16 at Tue Apr  8 23:19:40 2025.
