 Gaussian 16, Revision C.01,

 ----------------------------------------------------------------------
 #t hf aug-cc-pvdz symm=none int=(grid=ultrafine) guess=(read,tcheck) s
 table=(opt,rrhf)
 ----------------------------------------------------------------------
 -----
 title
 -----
 Symbolic Z-matrix:
 Charge =  0 Multiplicity = 1

 SCF Done:  E(RHF) =  -886.752674742     A.U. after   14 cycles
 Normal termination of Gaussian 16 at Tue Apr  8 23:35:19 2025.
 Gaussian 16:  ES64L-G16RevC.01  3-Jul-2019

 ----------------------------------------------------------------------
 #t hf aug-cc-pvdz iop(5/13=1,5/36=2,99/5=2) pseudo=read geom=check gue
 ss=(read,tcheck) scf=(maxcycle=1)
 ----------------------------------------------------------------------
 -----
 title
 -----
 Structure from the checkpoint file:  "BDE49_nonexpt_1518_mol1.chk"
 Charge =  0 Multiplicity = 1

                         Standard orientation:
 ---------------------------------------------------------------------
 Center     Atomic      Atomic             Coordinates (Angstroms)
 Number     Number       Type             X           Y           Z
 ---------------------------------------------------------------------
      1          7           0       -1.041777   -0.470254    0.513816
      2          9           0       -2.369777   -0.057968    0.202793
      3          9           0       -1.012525   -1.794233    0.052022
      4         15           0       -0.113519    0.460889   -0.774907
      5          6           0       -0.316830    2.100004    0.017746
      6          1           0       -1.315914    2.467584   -0.218220
      7          1           0        0.421244    2.774995   -0.420593
      8          1           0       -0.178995    2.047151    1.097337
      9          7           0        1.558557    0.195412   -0.191368
     10          9           0        1.877292   -1.137006   -0.491846
     11          9           0        1.622784    0.224853    1.214972
 ---------------------------------------------------------------------

 SCF Done:  E(RHF) =  -886.963529704     A.U. after    2 cycles

 The electronic state is 1-A.
 Alpha  occ. eigenvalues --  -81.37167 -26.18323 -26.18304 -26.18151 -26.17854
 Alpha  occ. eigenvalues --  -15.84892 -15.84695 -11.28343  -7.86956  -5.00976
 Alpha  occ. eigenvalues --   -5.00766  -5.00400  -1.72952  -1.72484  -1.67322
 Alpha  occ. eigenvalues --   -1.67050  -1.15315  -1.11341  -1.01142  -0.87354
 Alpha  occ. eigenvalues --   -0.83476  -0.82499  -0.82240  -0.81668  -0.80752
 Alpha  occ. eigenvalues --   -0.76328  -0.75802  -0.73784  -0.71820  -0.71532
 Alpha  occ. eigenvalues --   -0.67055  -0.62925  -0.60600  -0.57681  -0.52473
 Alpha  occ. eigenvalues --   -0.49280  -0.42034
 Alpha virt. eigenvalues --    0.02860   0.04867   0.05217   0.07227   0.07543
 Alpha virt. eigenvalues --    0.08518   0.11038   0.11924   0.12790   0.13837
 Alpha virt. eigenvalues --    0.14484   0.15487   0.16489   0.16766   0.17351

 Mulliken charges:
               1
     1  N    0.057122
     2  F   -0.382526
     3  F   -0.356869
     4  P    1.533001
     5  C    0.062436
     6  H   -0.090695
     7  H   -0.086658
     8  H   -0.065623
     9  N    0.068222
    10  F   -0.351923
    11  F   -0.386485
 Sum of Mulliken charges =  -0.00000

 Dipole moment (field-independent basis, Debye):
    X=             -0.2853    Y=              4.0016    Z=             -1.1713  Tot=              4.1792

 Test job not archived.
 1\1\GINC-SE398\SP\RHF\Aug-CC-pVDZ\C1H3F4N2P1\OHZDE\08-Apr-2025\0\\#t h
 f aug-cc-pvdz iop(5/13=1,5/36=2,99/5=2) pseudo=read geom=check guess=(
 read,tcheck) scf=(maxcycle=1)\\title\\0,1\N,0,-1.041777,-0.470254,0.51
 3816\F,0,-2.369777,-0.057967,0.202793\F,0,-1.012526,-1.794233,0.052022
 \P,0,-0.113519,0.460889,-0.774907\C,0,-0.316829,2.100004,0.017746\H,0,
 -1.315913,2.467584,-0.21822\H,0,0.421245,2.774995,-0.420593\H,0,-0.178
 994,2.047151,1.097337\N,0,1.558557,0.195411,-0.191368\F,0,1.877292,-1.
 137007,-0.491846\F,0,1.622784,0.224852,1.214972\\Version=ES64L-G16RevC

 Normal termination of Gaussian 16 at Tue Apr  8 23:35:24 2025.
