 Gaussian 16, Revision C.01,

 ----------------------------------------------------------------------
 #t hf aug-cc-pvdz symm=none int=(grid=ultrafine) guess=(read,tcheck) s
 table=(opt,rrhf)
 ----------------------------------------------------------------------
 -----
 title
 -----
 Symbolic Z-matrix:
 Charge =  0 Multiplicity = 1

 SCF Done:  E(RHF) =  -559.860862875     A.U. after   14 cycles
 Normal termination of Gaussian 16 at Tue Apr  8 23:11:49 2025.
 Gaussian 16:  ES64L-G16RevC.01  3-Jul-2019

 ----------------------------------------------------------------------
 #t hf aug-cc-pvdz iop(5/13=1,5/36=2,99/5=2) pseudo=read geom=check gue
 ss=(read,tcheck) scf=(maxcycle=1)
 ----------------------------------------------------------------------
 -----
 title
 -----
 Structure from the checkpoint file:  "BDE49_expt_811_mol1.chk"
 Charge =  0 Multiplicity = 1

                         Standard orientation:
 ---------------------------------------------------------------------
 Center     Atomic      Atomic             Coordinates (Angstroms)
 Number     Number       Type             X           Y           Z
 ---------------------------------------------------------------------
      1          6           0        2.689043    0.000000   -0.391613
      2          6           0        2.021005   -1.202623   -0.172163
      3          6           0        0.697912   -1.201242    0.261829
      4          6           0        2.021005    1.202623   -0.172163
      5          6           0        0.697912    1.201242    0.261829
      6          6           0        0.014627    0.000000    0.488308
      7          1           0        3.719756    0.000000   -0.727296
      8          1           0        2.531422   -2.145442   -0.335651
      9          1           0        0.188975   -2.144667    0.432701
     10          1           0        2.531421    2.145442   -0.335651
     11          1           0        0.188975    2.144666    0.432702
     12          6           0       -1.428167   -0.000001    0.935151
     13         14           0       -2.656765    0.000000   -0.510817
     14          1           0       -2.460076    1.205606   -1.349183
     15          1           0       -4.047622   -0.000001    0.007558
     16          1           0       -2.460074   -1.205604   -1.349185
     17          1           0       -1.639049    0.877920    1.554191
     18          1           0       -1.639048   -0.877922    1.554190
 ---------------------------------------------------------------------

 SCF Done:  E(RHF) =  -559.963595454     A.U. after    2 cycles

 The electronic state is 1-A.
 Alpha  occ. eigenvalues --  -69.06171 -11.25784 -11.24566 -11.24555 -11.24087
 Alpha  occ. eigenvalues --  -11.24085 -11.24027 -11.23398  -6.81468  -3.92234
 Alpha  occ. eigenvalues --   -3.92229  -3.92225  -1.14545  -1.04020  -1.00874
 Alpha  occ. eigenvalues --   -0.93084  -0.82935  -0.80307  -0.70373  -0.68678
 Alpha  occ. eigenvalues --   -0.64341  -0.63673  -0.59032  -0.57941  -0.55523
 Alpha  occ. eigenvalues --   -0.52696  -0.49800  -0.49396  -0.47103  -0.47058
 Alpha  occ. eigenvalues --   -0.45797  -0.34056  -0.32228
 Alpha virt. eigenvalues --    0.03187   0.03891   0.04135   0.04964   0.05557
 Alpha virt. eigenvalues --    0.05598   0.07183   0.07575   0.07758   0.07974
 Alpha virt. eigenvalues --    0.08596   0.10242   0.10485   0.11282   0.11347

 Mulliken charges:
               1
     1  C    0.600812
     2  C    0.269812
     3  C    0.494091
     4  C    0.269815
     5  C    0.494099
     6  C    0.741526
     7  H   -0.436338
     8  H   -0.452456
     9  H   -0.589383
    10  H   -0.452456
    11  H   -0.589384
    12  C   -0.070578
    13  Si   0.196875
    14  H    0.034619
    15  H    0.001301
    16  H    0.034619
    17  H   -0.273486
    18  H   -0.273489
 Sum of Mulliken charges =  -0.00000

 Dipole moment (field-independent basis, Debye):
    X=              0.0617    Y=             -0.0000    Z=              0.5282  Tot=              0.5318

 Test job not archived.
 1\1\GINC-SE103\SP\RHF\Aug-CC-pVDZ\C7H10Si1\OHZDE\08-Apr-2025\0\\#t hf
 aug-cc-pvdz iop(5/13=1,5/36=2,99/5=2) pseudo=read geom=check guess=(re
 ad,tcheck) scf=(maxcycle=1)\\title\\0,1\C,0,2.689043,0.,-0.391613\C,0,
 2.021005,-1.202623,-0.172163\C,0,0.697912,-1.201242,0.261829\C,0,2.021
 005,1.202623,-0.172163\C,0,0.697912,1.201242,0.261829\C,0,0.014627,0.,
 0.488308\H,0,3.719756,0.,-0.727296\H,0,2.531422,-2.145442,-0.335651\H,
 0,0.188975,-2.144667,0.432701\H,0,2.531421,2.145442,-0.335651\H,0,0.18
 8975,2.144666,0.432702\C,0,-1.428167,-0.000001,0.935151\Si,0,-2.656765

 Normal termination of Gaussian 16 at Tue Apr  8 23:11:58 2025.
