 Gaussian 16, Revision C.01,

 ----------------------------------------------------------------------
 #t hf aug-cc-pvdz symm=none int=(grid=ultrafine) guess=(read,tcheck) s
 table=(opt,rrhf)
 ----------------------------------------------------------------------
 -----
 title
 -----
 Symbolic Z-matrix:
 Charge =  0 Multiplicity = 1

 SCF Done:  E(RHF) =  -788.109332083     A.U. after   14 cycles
 Normal termination of Gaussian 16 at Wed Apr  9 00:11:16 2025.
 Gaussian 16:  ES64L-G16RevC.01  3-Jul-2019

 ----------------------------------------------------------------------
 #t hf aug-cc-pvdz iop(5/13=1,5/36=2,99/5=2) pseudo=read geom=check gue
 ss=(read,tcheck) scf=(maxcycle=1)
 ----------------------------------------------------------------------
 -----
 title
 -----
 Structure from the checkpoint file:  "BDE49_nonexpt_2409_mol1.chk"
 Charge =  0 Multiplicity = 1

                         Standard orientation:
 ---------------------------------------------------------------------
 Center     Atomic      Atomic             Coordinates (Angstroms)
 Number     Number       Type             X           Y           Z
 ---------------------------------------------------------------------
      1         14           0        2.224927   -0.054774   -0.434898
      2         14           0        0.301789   -0.868973    0.663748
      3          1           0        1.896848    0.309301   -1.834266
      4          1           0        3.272161   -1.107304   -0.469036
      5          1           0        2.776894    1.129340    0.260821
      6          6           0       -1.295454   -0.110932   -0.054488
      7          1           0        0.369299   -0.597418    2.119067
      8          1           0        0.175141   -2.336809    0.477735
      9          7           0       -1.456257    1.152457   -0.152059
     10          8           0       -0.328511    1.845587    0.349158
     11          1           0       -0.553326    2.770122    0.200853
     12          6           0       -2.428900   -0.969279   -0.553916
     13          1           0       -2.817276   -1.603330    0.249297
     14          1           0       -2.087504   -1.637475   -1.350697
     15          1           0       -3.238243   -0.344596   -0.936095
 ---------------------------------------------------------------------

 SCF Done:  E(RHF) =  -788.213226373     A.U. after    2 cycles

 The electronic state is 1-A.
 Alpha  occ. eigenvalues --  -69.06849 -69.05923 -20.61659 -15.69490 -11.28111
 Alpha  occ. eigenvalues --  -11.24688  -6.82213  -6.81291  -3.92996  -3.92960
 Alpha  occ. eigenvalues --   -3.92922  -3.92047  -3.92042  -3.92021  -1.38046
 Alpha  occ. eigenvalues --   -1.14740  -0.97438  -0.78355  -0.74275  -0.70077
 Alpha  occ. eigenvalues --   -0.67297  -0.61965  -0.60649  -0.57591  -0.56354
 Alpha  occ. eigenvalues --   -0.52318  -0.49366  -0.47969  -0.46817  -0.42704
 Alpha  occ. eigenvalues --   -0.40592  -0.38353
 Alpha virt. eigenvalues --    0.03325   0.03968   0.04744   0.05080   0.06191
 Alpha virt. eigenvalues --    0.06571   0.07252   0.07685   0.08201   0.09002
 Alpha virt. eigenvalues --    0.09347   0.09494   0.10609   0.10689   0.10928

 Mulliken charges:
               1
     1  Si  -0.385115
     2  Si   0.053584
     3  H    0.134941
     4  H    0.041472
     5  H    0.104568
     6  C    0.188270
     7  H    0.118070
     8  H    0.049470
     9  N   -0.280063
    10  O   -0.387352
    11  H    0.192500
    12  C    0.214947
    13  H    0.001224
    14  H   -0.004169
    15  H   -0.042346
 Sum of Mulliken charges =  -0.00000

 Dipole moment (field-independent basis, Debye):
    X=             -0.6345    Y=             -0.3754    Z=             -0.2133  Tot=              0.7675

 Test job not archived.
 1\1\GINC-SE074\SP\RHF\Aug-CC-pVDZ\C2H9N1O1Si2\OHZDE\09-Apr-2025\0\\#t
 hf aug-cc-pvdz iop(5/13=1,5/36=2,99/5=2) pseudo=read geom=check guess=
 (read,tcheck) scf=(maxcycle=1)\\title\\0,1\Si,0,2.224927,-0.054774,-0.
 434898\Si,0,0.301789,-0.868973,0.663748\H,0,1.896848,0.309301,-1.83426
 6\H,0,3.272161,-1.107304,-0.469036\H,0,2.776894,1.12934,0.260821\C,0,-
 1.295454,-0.110932,-0.054488\H,0,0.369299,-0.597418,2.119067\H,0,0.175
 141,-2.336809,0.477735\N,0,-1.456257,1.152457,-0.152059\O,0,-0.328511,
 1.845587,0.349158\H,0,-0.553326,2.770122,0.200853\C,0,-2.4289,-0.96927

 Normal termination of Gaussian 16 at Wed Apr  9 00:11:21 2025.
