 Gaussian 16, Revision C.01,

 ----------------------------------------------------------------------
 #t hf aug-cc-pvdz symm=none int=(grid=ultrafine) guess=(read,tcheck) s
 table=(opt,rrhf)
 ----------------------------------------------------------------------
 -----
 title
 -----
 Symbolic Z-matrix:
 Charge =  0 Multiplicity = 1

 SCF Done:  E(RHF) =  -734.564222098     A.U. after   14 cycles
 Normal termination of Gaussian 16 at Wed Apr  9 00:31:00 2025.
 Gaussian 16:  ES64L-G16RevC.01  3-Jul-2019

 ----------------------------------------------------------------------
 #t hf aug-cc-pvdz iop(5/13=1,5/36=2,99/5=2) pseudo=read geom=check gue
 ss=(read,tcheck) scf=(maxcycle=1)
 ----------------------------------------------------------------------
 -----
 title
 -----
 Structure from the checkpoint file:  "BDE49_nonexpt_396_mol1.chk"
 Charge =  0 Multiplicity = 1

                         Standard orientation:
 ---------------------------------------------------------------------
 Center     Atomic      Atomic             Coordinates (Angstroms)
 Number     Number       Type             X           Y           Z
 ---------------------------------------------------------------------
      1          9           0       -0.292413   -1.870107   -0.000000
      2          9           0       -2.175088   -0.611763   -0.000000
      3          5           0       -0.866573   -0.679860   -0.000000
      4          6           0        0.000000    0.669471    0.000000
      5          8           0       -0.524944    1.753737   -0.000000
      6         16           0        1.805119    0.531286    0.000000
      7          1           0        1.858021   -0.811167    0.000000
 ---------------------------------------------------------------------

 SCF Done:  E(RHF) =  -734.710746418     A.U. after    2 cycles

 The electronic state is 1-A'.
 Alpha  occ. eigenvalues --  -93.57831 -26.18091 -26.17247 -20.61462 -11.39514
 Alpha  occ. eigenvalues --   -8.87680  -7.78930  -6.21784  -6.21606  -6.21258
 Alpha  occ. eigenvalues --   -1.73141  -1.70895  -1.40164  -1.03238  -0.92159
 Alpha  occ. eigenvalues --   -0.86161  -0.85855  -0.80638  -0.78233  -0.75684
 Alpha  occ. eigenvalues --   -0.75371  -0.69270  -0.65931  -0.59638  -0.53991
 Alpha  occ. eigenvalues --   -0.44351  -0.40759
 Alpha virt. eigenvalues --    0.02639   0.03653   0.05294   0.05321   0.05585
 Alpha virt. eigenvalues --    0.07082   0.09734   0.11462   0.12993   0.13431
 Alpha virt. eigenvalues --    0.14632   0.16047   0.17524   0.18433   0.21113

 Mulliken charges:
               1
     1  F   -0.424709
     2  F   -0.376733
     3  B    1.015382
     4  C   -0.064557
     5  O   -0.434137
     6  S    0.228334
     7  H    0.056421
 Sum of Mulliken charges =  -0.00000

 Dipole moment (field-independent basis, Debye):
    X=              1.4929    Y=             -2.2679    Z=              0.0000  Tot=              2.7152

 Test job not archived.
 1\1\GINC-SE177\SP\RHF\Aug-CC-pVDZ\C1H1B1F2O1S1\OHZDE\09-Apr-2025\0\\#t
  hf aug-cc-pvdz iop(5/13=1,5/36=2,99/5=2) pseudo=read geom=check guess
 =(read,tcheck) scf=(maxcycle=1)\\title\\0,1\F,0,-0.292413,-1.870107,0.
 \F,0,-2.175088,-0.611763,0.\B,0,-0.866573,-0.67986,0.\C,0,0.,0.669471,
 0.\O,0,-0.524944,1.753737,0.\S,0,1.805119,0.531286,0.\H,0,1.858021,-0.
 811167,0.\\Version=ES64L-G16RevC.01\State=1-A'\HF=-734.7107464\RMSD=6.
 114e-03\Dipole=0.5873518,-0.892279,0.\Quadrupole=0.1739792,-3.1052349,
 2.9312557,-0.1141867,0.,0.\PG=CS [SG(C1H1B1F2O1S1)]\\@

 Normal termination of Gaussian 16 at Wed Apr  9 00:31:03 2025.
