 Gaussian 16, Revision C.01,

 ----------------------------------------------------------------------
 #t hf aug-cc-pvdz symm=none int=(grid=ultrafine) guess=(read,tcheck) s
 table=opt
 ----------------------------------------------------------------------
 -----
 title
 -----
 Symbolic Z-matrix:
 Charge =  0 Multiplicity = 2

 SCF Done:  E(UHF) =  -1008.79652674     A.U. after   22 cycles
 Normal termination of Gaussian 16 at Wed Apr  9 00:23:02 2025.
 Gaussian 16:  ES64L-G16RevC.01  3-Jul-2019

 ----------------------------------------------------------------------
 #t hf aug-cc-pvdz iop(5/13=1,5/36=2,99/5=2) pseudo=read geom=check gue
 ss=(read,tcheck) scf=(maxcycle=1)
 ----------------------------------------------------------------------
 -----
 title
 -----
 Structure from the checkpoint file:  "BDE49_nonexpt_2723_mol3.chk"
 Charge =  0 Multiplicity = 2

                         Standard orientation:
 ---------------------------------------------------------------------
 Center     Atomic      Atomic             Coordinates (Angstroms)
 Number     Number       Type             X           Y           Z
 ---------------------------------------------------------------------
      1         16           0       -1.063618   -1.218627    0.000044
      2          6           0       -0.824347    0.525173   -0.000743
      3          8           0       -1.787362    1.252320    0.000296
      4          6           0        0.591275    1.085362    0.000006
      5         17           0        1.838103   -0.210382    0.000048
      6          1           0        0.733399    1.696087    0.890650
      7          1           0        0.734066    1.696684   -0.890119
 ---------------------------------------------------------------------

 SCF Done:  E(UHF) =  -1008.87964698     A.U. after    2 cycles

 The electronic state is 2-A.
 Alpha  occ. eigenvalues -- -103.68504 -93.59322 -20.59903 -11.40700 -11.34759
 Alpha  occ. eigenvalues --  -10.71793  -8.89173  -8.37501  -8.37270  -8.37183
 Alpha  occ. eigenvalues --   -6.24537  -6.22817  -6.22361  -1.39873  -1.20177
 Alpha  occ. eigenvalues --   -1.04837  -0.98547  -0.77078  -0.69647  -0.68350
 Alpha  occ. eigenvalues --   -0.65845  -0.58090  -0.57679  -0.51359  -0.48137
 Alpha  occ. eigenvalues --   -0.47350  -0.44221  -0.41762
 Alpha virt. eigenvalues --    0.03554   0.05031   0.06451   0.07812   0.08932
 Alpha virt. eigenvalues --    0.09510   0.11845   0.12857   0.12970   0.14381
 Alpha virt. eigenvalues --    0.14384   0.14997   0.16061   0.17381   0.17482

  Beta  occ. eigenvalues -- -103.68462 -93.58366 -20.59790 -11.40811 -11.34751
  Beta  occ. eigenvalues --  -10.71743  -8.88104  -8.37472  -8.37156  -8.37125
  Beta  occ. eigenvalues --   -6.22280  -6.21731  -6.20387  -1.39500  -1.19852
  Beta  occ. eigenvalues --   -1.01706  -0.94617  -0.75305  -0.68617  -0.68354
  Beta  occ. eigenvalues --   -0.63840  -0.57669  -0.57545  -0.49711  -0.48009
  Beta  occ. eigenvalues --   -0.44251  -0.39441
  Beta virt. eigenvalues --   -0.00497   0.03590   0.05020   0.06604   0.08208
  Beta virt. eigenvalues --    0.09049   0.09364   0.12118   0.13144   0.13256
  Beta virt. eigenvalues --    0.14440   0.15081   0.15316   0.16177   0.17399

 Mulliken charges and spin densities:
               1          2
     1  S    0.322673   1.090611
     2  C    0.010707  -0.102653
     3  O   -0.513367   0.005641
     4  C   -0.094160   0.002838
     5  Cl  -0.049406   0.003478
     6  H    0.161739   0.000048
     7  H    0.161814   0.000036
 Sum of Mulliken charges =  -0.00000   1.00000

 Dipole moment (field-independent basis, Debye):
    X=              1.7536    Y=              0.1583    Z=             -0.0012  Tot=              1.7608
                          Isotropic Fermi Contact Couplings
        Atom                 a.u.       MegaHertz       Gauss      10(-4) cm-1
     1  S(33)              0.23972      82.33711      29.37993      27.46470
     2  C(13)             -0.02136     -24.01240      -8.56822      -8.00967
     3  O(17)              0.01970     -11.94122      -4.26093      -3.98316
     4  C(13)              0.00226       2.54593       0.90845       0.84923
     5  Cl(35)             0.04445      19.49141       6.95502       6.50164
     6  H(1)              -0.00012      -0.52645      -0.18785      -0.17560
     7  H(1)              -0.00012      -0.52466      -0.18721      -0.17501
 --------------------------------------------------------

 1\1\GINC-SE102\SP\UHF\Aug-CC-pVDZ\C2H2Cl1O1S1(2)\OHZDE\09-Apr-2025\0\\
 #t hf aug-cc-pvdz iop(5/13=1,5/36=2,99/5=2) pseudo=read geom=check gue
 ss=(read,tcheck) scf=(maxcycle=1)\\title\\0,2\S,0,1.063618,-1.218627,-
 0.000044\C,0,0.824347,0.525173,0.000743\O,0,1.787362,1.252321,-0.00029
 6\C,0,-0.591275,1.085362,-0.000006\Cl,0,-1.838103,-0.210383,-0.000048\
 H,0,-0.7334,1.696087,-0.89065\H,0,-0.734067,1.696684,0.890119\\Version
 =ES64L-G16RevC.01\State=2-A\HF=-1008.879647\S2=0.76272\S2-1=0.\S2A=0.7
 50053\RMSD=4.307e-03\Dipole=-0.6899323,0.0622636,0.0004594\Quadrupole=

 Normal termination of Gaussian 16 at Wed Apr  9 00:23:05 2025.
