 Gaussian 16, Revision C.01,

 ----------------------------------------------------------------------
 #t hf aug-cc-pvdz symm=none int=(grid=ultrafine) guess=(read,tcheck) s
 table=(opt,rrhf)
 ----------------------------------------------------------------------
 -----
 title
 -----
 Symbolic Z-matrix:
 Charge =  0 Multiplicity = 1

 SCF Done:  E(RHF) =  -463.112238903     A.U. after   12 cycles

 1\1\GINC-SE105\Stability\RHF\Aug-CC-pVDZ\C8H18O2\OHZDE\08-Apr-2025\0\\
 #t hf aug-cc-pvdz symm=none int=(grid=ultrafine) guess=(read,tcheck) s
 table=(opt,rrhf)\\title\\0,1\O,0,-0.487895,-0.000655,0.551187\O,0,0.48
 7895,-0.000656,-0.551187\C,0,-1.809075,-0.000017,-0.031953\C,0,-2.0229
 15,1.269605,-0.863538\H,0,-1.847574,2.156526,-0.250001\H,0,-3.047221,1
 .307551,-1.2444\H,0,-1.336579,1.294861,-1.710048\C,0,-2.701561,-0.0003
 29,1.213578\H,0,-2.512728,0.88599,1.823096\H,0,-2.513816,-0.887686,1.8
 21916\H,0,-3.752649,0.00053,0.915219\C,0,-2.0237,-1.268732,-0.864714\H

 Normal termination of Gaussian 16 at Tue Apr  8 22:46:27 2025.
 Gaussian 16:  ES64L-G16RevC.01  3-Jul-2019

 ----------------------------------------------------------------------
 #t hf aug-cc-pvdz iop(5/13=1,5/36=2,99/5=2) pseudo=read geom=check gue
 ss=(read,tcheck) scf=(maxcycle=1)
 ----------------------------------------------------------------------
 -----
 title
 -----
 Structure from the checkpoint file:  "BDE49_expt_1474_mol1.chk"
 Charge =  0 Multiplicity = 1

                         Standard orientation:
 ---------------------------------------------------------------------
 Center     Atomic      Atomic             Coordinates (Angstroms)
 Number     Number       Type             X           Y           Z
 ---------------------------------------------------------------------
      1          8           0       -0.487895   -0.000655    0.551187
      2          8           0        0.487895   -0.000656   -0.551187
      3          6           0       -1.809075   -0.000017   -0.031953
      4          6           0       -2.022915    1.269605   -0.863538
      5          1           0       -1.847574    2.156526   -0.250001
      6          1           0       -3.047221    1.307551   -1.244400
      7          1           0       -1.336579    1.294861   -1.710048
      8          6           0       -2.701561   -0.000329    1.213578
      9          1           0       -2.512728    0.885990    1.823096
     10          1           0       -2.513816   -0.887686    1.821916
     11          1           0       -3.752649    0.000530    0.915219
     12          6           0       -2.023700   -1.268732   -0.864714
     13          1           0       -1.337849   -1.293381   -1.711633
     14          1           0       -3.048235   -1.306005   -1.245035
     15          1           0       -1.848279   -2.156305   -0.252143
     16          6           0        1.809075   -0.000017    0.031953
     17          6           0        2.022915    1.269605    0.863537
     18          1           0        1.847574    2.156526    0.250000
     19          1           0        3.047221    1.307551    1.244400
     20          1           0        1.336579    1.294861    1.710048
     21          6           0        2.023700   -1.268731    0.864714
     22          1           0        1.848279   -2.156305    0.252143
     23          1           0        3.048235   -1.306005    1.245036
     24          1           0        1.337849   -1.293381    1.711633
     25          6           0        2.701561   -0.000329   -1.213578
     26          1           0        2.512728    0.885989   -1.823096
     27          1           0        2.513816   -0.887687   -1.821916
     28          1           0        3.752649    0.000529   -0.915219
 ---------------------------------------------------------------------

 SCF Done:  E(RHF) =  -463.258683700     A.U. after    2 cycles

 The electronic state is 1-A.
 Alpha  occ. eigenvalues --  -20.61595 -20.61568 -11.29615 -11.29614 -11.22466
 Alpha  occ. eigenvalues --  -11.22466 -11.21780 -11.21779 -11.21772 -11.21772
 Alpha  occ. eigenvalues --   -1.39870  -1.21853  -1.05739  -1.02708  -0.93496
 Alpha  occ. eigenvalues --   -0.93327  -0.93144  -0.92950  -0.76789  -0.76040
 Alpha  occ. eigenvalues --   -0.66608  -0.66135  -0.66064  -0.61842  -0.59733
 Alpha  occ. eigenvalues --   -0.59265  -0.58094  -0.56883  -0.54865  -0.54224
 Alpha  occ. eigenvalues --   -0.52632  -0.52578  -0.52263  -0.51609  -0.51493
 Alpha  occ. eigenvalues --   -0.50684  -0.49717  -0.47944  -0.45965  -0.44759
 Alpha  occ. eigenvalues --   -0.41968
 Alpha virt. eigenvalues --    0.03510   0.04262   0.04681   0.04722   0.05622
 Alpha virt. eigenvalues --    0.05705   0.05759   0.06475   0.06523   0.07807
 Alpha virt. eigenvalues --    0.08017   0.08390   0.08821   0.08965   0.09560

 Mulliken charges:
               1
     1  O   -0.158947
     2  O   -0.158946
     3  C   -2.567275
     4  C    0.992600
     5  H   -0.007394
     6  H   -0.020871
     7  H   -0.044312
     8  C    0.934762
     9  H   -0.045281
    10  H   -0.045239
    11  H    0.041614
    12  C    0.992960
    13  H   -0.044483
    14  H   -0.020758
    15  H   -0.007376
    16  C   -2.567274
    17  C    0.992597
    18  H   -0.007395
    19  H   -0.020871
    20  H   -0.044310
    21  C    0.992959
    22  H   -0.007374
    23  H   -0.020758
    24  H   -0.044484
    25  C    0.934762
    26  H   -0.045283
    27  H   -0.045237
    28  H    0.041615
 Sum of Mulliken charges =  -0.00000

 Dipole moment (field-independent basis, Debye):
    X=             -0.0000    Y=              0.0014    Z=              0.0000  Tot=              0.0014

 Test job not archived.
 1\1\GINC-SE105\SP\RHF\Aug-CC-pVDZ\C8H18O2\OHZDE\08-Apr-2025\0\\#t hf a
 ug-cc-pvdz iop(5/13=1,5/36=2,99/5=2) pseudo=read geom=check guess=(rea
 d,tcheck) scf=(maxcycle=1)\\title\\0,1\O,0,-0.487895,-0.000655,0.55118
 7\O,0,0.487895,-0.000656,-0.551187\C,0,-1.809075,-0.000017,-0.031953\C
 ,0,-2.022915,1.269605,-0.863538\H,0,-1.847574,2.156526,-0.250001\H,0,-
 3.047221,1.307551,-1.2444\H,0,-1.336579,1.294861,-1.710048\C,0,-2.7015
 61,-0.000329,1.213578\H,0,-2.512728,0.88599,1.823096\H,0,-2.513816,-0.
 887686,1.821916\H,0,-3.752649,0.00053,0.915219\C,0,-2.0237,-1.268732,-

 Normal termination of Gaussian 16 at Tue Apr  8 22:46:49 2025.
