 Gaussian 16, Revision C.01,

 ----------------------------------------------------------------------
 #t hf aug-cc-pvdz symm=none int=(grid=ultrafine) guess=(read,tcheck) s
 table=(opt,rrhf)
 ----------------------------------------------------------------------
 -----
 title
 -----
 Symbolic Z-matrix:
 Charge =  0 Multiplicity = 1

 SCF Done:  E(RHF) =  -694.584592044     A.U. after   16 cycles
 Normal termination of Gaussian 16 at Wed Apr  9 00:02:13 2025.
 Gaussian 16:  ES64L-G16RevC.01  3-Jul-2019

 ----------------------------------------------------------------------
 #t hf aug-cc-pvdz iop(5/13=1,5/36=2,99/5=2) pseudo=read geom=check gue
 ss=(read,tcheck) scf=(maxcycle=1)
 ----------------------------------------------------------------------
 -----
 title
 -----
 Structure from the checkpoint file:  "BDE49_nonexpt_2184_mol1.chk"
 Charge =  0 Multiplicity = 1

                         Standard orientation:
 ---------------------------------------------------------------------
 Center     Atomic      Atomic             Coordinates (Angstroms)
 Number     Number       Type             X           Y           Z
 ---------------------------------------------------------------------
      1          6           0       -2.780510    0.257238    0.000010
      2          6           0       -1.779065    1.226167   -0.000003
      3          6           0       -0.455747    0.825196   -0.000001
      4          6           0       -2.433540   -1.092481    0.000007
      5          6           0       -1.096218   -1.478255    0.000005
      6          6           0       -0.081409   -0.519972   -0.000010
      7          1           0       -3.820691    0.558623   -0.000017
      8          1           0       -2.003302    2.285719   -0.000002
      9          9           0        0.529519    1.763457   -0.000002
     10          1           0       -3.206337   -1.851955    0.000038
     11          1           0       -0.807128   -2.521995    0.000010
     12          8           0        1.212304   -0.929855   -0.000046
     13         14           0        2.694209   -0.160548    0.000011
     14          1           0        3.653217   -1.281528    0.000002
     15          1           0        2.880039    0.659505    1.214178
     16          1           0        2.880105    0.659675   -1.214025
 ---------------------------------------------------------------------

 SCF Done:  E(RHF) =  -694.743930877     A.U. after    2 cycles

 The electronic state is 1-A.
 Alpha  occ. eigenvalues --  -69.10326 -26.14617 -20.59481 -11.34133 -11.33087
 Alpha  occ. eigenvalues --  -11.26323 -11.25788 -11.25544 -11.25469  -6.85039
 Alpha  occ. eigenvalues --   -3.95965  -3.95803  -3.95774  -1.68249  -1.35459
 Alpha  occ. eigenvalues --   -1.15688  -1.03272  -1.02114  -0.88013  -0.86805
 Alpha  occ. eigenvalues --   -0.80725  -0.76266  -0.76148  -0.73373  -0.67779
 Alpha  occ. eigenvalues --   -0.65129  -0.64080  -0.62532  -0.62089  -0.57428
 Alpha  occ. eigenvalues --   -0.54317  -0.52049  -0.51247  -0.47345  -0.47186
 Alpha  occ. eigenvalues --   -0.35661  -0.33464
 Alpha virt. eigenvalues --    0.03291   0.03999   0.04165   0.05263   0.05949
 Alpha virt. eigenvalues --    0.06240   0.07254   0.07642   0.09426   0.09922
 Alpha virt. eigenvalues --    0.10107   0.11280   0.12313   0.13124   0.13601

 Mulliken charges:
               1
     1  C    0.564967
     2  C    0.662036
     3  C    0.219318
     4  C    0.464079
     5  C    0.599170
     6  C   -0.079977
     7  H   -0.427887
     8  H   -0.467868
     9  F   -0.260073
    10  H   -0.422953
    11  H   -0.533072
    12  O   -0.825109
    13  Si   0.398501
    14  H    0.007081
    15  H    0.050891
    16  H    0.050896
 Sum of Mulliken charges =  -0.00000

 Dipole moment (field-independent basis, Debye):
    X=             -1.4569    Y=             -0.4173    Z=             -0.0001  Tot=              1.5155

 Test job not archived.
 1\1\GINC-SE368\SP\RHF\Aug-CC-pVDZ\C6H7F1O1Si1\OHZDE\09-Apr-2025\0\\#t
 hf aug-cc-pvdz iop(5/13=1,5/36=2,99/5=2) pseudo=read geom=check guess=
 (read,tcheck) scf=(maxcycle=1)\\title\\0,1\C,0,2.78051,0.257238,-0.000
 01\C,0,1.779065,1.226167,0.000003\C,0,0.455747,0.825196,0.000001\C,0,2
 .43354,-1.092481,-0.000007\C,0,1.096218,-1.478255,-0.000005\C,0,0.0814
 09,-0.519972,0.00001\H,0,3.820691,0.558623,0.000017\H,0,2.003302,2.285
 719,0.000002\F,0,-0.529519,1.763457,0.000002\H,0,3.206337,-1.851955,-0
 .000038\H,0,0.807128,-2.521995,-0.00001\O,0,-1.212304,-0.929855,0.0000

 Normal termination of Gaussian 16 at Wed Apr  9 00:02:19 2025.
