 Gaussian 16, Revision C.01,

 ----------------------------------------------------------------------
 #t hf aug-cc-pvdz symm=none int=(grid=ultrafine) guess=(read,tcheck) s
 table=opt
 ----------------------------------------------------------------------
 -----
 title
 -----
 Symbolic Z-matrix:
 Charge =  0 Multiplicity = 2

 SCF Done:  E(UHF) =  -231.550854962     A.U. after   16 cycles
 Normal termination of Gaussian 16 at Tue Apr  8 22:50:53 2025.
 Gaussian 16:  ES64L-G16RevC.01  3-Jul-2019

 ----------------------------------------------------------------------
 #t hf aug-cc-pvdz iop(5/13=1,5/36=2,99/5=2) pseudo=read geom=check gue
 ss=(read,tcheck) scf=(maxcycle=1)
 ----------------------------------------------------------------------
 -----
 title
 -----
 Structure from the checkpoint file:  "BDE49_expt_176_mol2.chk"
 Charge =  0 Multiplicity = 2

                         Standard orientation:
 ---------------------------------------------------------------------
 Center     Atomic      Atomic             Coordinates (Angstroms)
 Number     Number       Type             X           Y           Z
 ---------------------------------------------------------------------
      1          6           0        1.192820    0.484421   -0.060435
      2          8           0        0.031912   -0.232883   -0.026425
      3          6           0       -1.170763    0.538422   -0.038916
      4          6           0       -2.348529   -0.413876    0.037067
      5          1           0       -1.205951    1.139187   -0.956098
      6          1           0       -1.167876    1.228187    0.816412
      7          1           0       -2.344800   -1.096327   -0.815569
      8          1           0       -3.288541    0.144077    0.030660
      9          1           0       -2.303829   -1.007987    0.952514
     10          6           0        2.430339   -0.335594    0.014572
     11          1           0        1.152802    1.483501    0.373102
     12          1           0        2.557400   -0.819295    0.996894
     13          1           0        3.310810    0.285425   -0.166275
     14          1           0        2.411483   -1.133947   -0.733972
 ---------------------------------------------------------------------

 SCF Done:  E(UHF) =  -231.627723849     A.U. after    2 cycles

 The electronic state is 2-A.
 Alpha  occ. eigenvalues --  -20.58329 -11.29059 -11.28165 -11.22809 -11.22552
 Alpha  occ. eigenvalues --   -1.35566  -1.04547  -0.98206  -0.85191  -0.82249
 Alpha  occ. eigenvalues --   -0.69092  -0.67521  -0.62295  -0.59323  -0.55659
 Alpha  occ. eigenvalues --   -0.54220  -0.52889  -0.51420  -0.49358  -0.47803
 Alpha  occ. eigenvalues --   -0.31970
 Alpha virt. eigenvalues --    0.03632   0.04527   0.04783   0.05169   0.06453
 Alpha virt. eigenvalues --    0.06549   0.07169   0.07940   0.09109   0.11658
 Alpha virt. eigenvalues --    0.13243   0.13936   0.14796   0.15953   0.16009

  Beta  occ. eigenvalues --  -20.57801 -11.29083 -11.25686 -11.22826 -11.22813
  Beta  occ. eigenvalues --   -1.33826  -1.03120  -0.97119  -0.84886  -0.78688
  Beta  occ. eigenvalues --   -0.67514  -0.65163  -0.61218  -0.56004  -0.55467
  Beta  occ. eigenvalues --   -0.52978  -0.52640  -0.50918  -0.48736  -0.45540
  Beta virt. eigenvalues --    0.03650   0.04538   0.04811   0.05114   0.06472
  Beta virt. eigenvalues --    0.06548   0.07123   0.07795   0.09119   0.11590
  Beta virt. eigenvalues --    0.12063   0.13276   0.14417   0.15795   0.16100

 Mulliken charges and spin densities:
               1          2
     1  C    0.453499   1.173969
     2  O   -0.657353   0.041292
     3  C    0.595889  -0.019841
     4  C    0.250074  -0.002933
     5  H   -0.156546  -0.006716
     6  H   -0.169568   0.003500
     7  H   -0.040159  -0.000433
     8  H   -0.027373  -0.000537
     9  H   -0.043704   0.000619
    10  C    0.242661  -0.172747
    11  H   -0.339430  -0.076494
    12  H   -0.005596   0.048806
    13  H   -0.043015   0.002329
    14  H   -0.059379   0.009186
 Sum of Mulliken charges =   0.00000   1.00000

 Dipole moment (field-independent basis, Debye):
    X=             -0.4790    Y=              1.1019    Z=              0.3322  Tot=              1.2466
                          Isotropic Fermi Contact Couplings
        Atom                 a.u.       MegaHertz       Gauss      10(-4) cm-1
     1  C(13)              0.27629     310.60568     110.83183     103.60690
     2  O(17)              0.05150     -31.21648     -11.13882     -10.41270
     3  C(13)             -0.00194      -2.18488      -0.77962      -0.72880
     4  C(13)             -0.00135      -1.51618      -0.54101      -0.50574
     5  H(1)               0.00015       0.68993       0.24618       0.23013
     6  H(1)               0.00047       2.09131       0.74623       0.69759
     7  H(1)              -0.00001      -0.04910      -0.01752      -0.01638
     8  H(1)              -0.00030      -1.32582      -0.47309      -0.44225

 Normal termination of Gaussian 16 at Tue Apr  8 22:50:57 2025.
