 Gaussian 16, Revision C.01,

 ----------------------------------------------------------------------
 #t hf aug-cc-pvdz symm=none int=(grid=ultrafine) guess=(read,tcheck) s
 table=(opt,rrhf)
 ----------------------------------------------------------------------
 -----
 title
 -----
 Symbolic Z-matrix:
 Charge =  0 Multiplicity = 1

 SCF Done:  E(RHF) =  -473.477144189     A.U. after   10 cycles
 Normal termination of Gaussian 16 at Tue Apr  8 22:43:28 2025.
 Gaussian 16:  ES64L-G16RevC.01  3-Jul-2019

 ----------------------------------------------------------------------
 #t hf aug-cc-pvdz iop(5/13=1,5/36=2,99/5=2) pseudo=read geom=check gue
 ss=(read,tcheck) scf=(maxcycle=1)
 ----------------------------------------------------------------------
 -----
 title
 -----
 Structure from the checkpoint file:  "BDE49_expt_1508_mol1.chk"
 Charge =  0 Multiplicity = 1

                         Standard orientation:
 ---------------------------------------------------------------------
 Center     Atomic      Atomic             Coordinates (Angstroms)
 Number     Number       Type             X           Y           Z
 ---------------------------------------------------------------------
      1          6           0        0.000000    0.000000    0.661059
      2          9           0        0.000000    1.103888    1.386829
      3          6           0        0.000000    0.000000   -0.661059
      4          9           0       -0.000000   -1.103888    1.386829
      5          9           0        0.000000    1.103888   -1.386829
      6          9           0       -0.000000   -1.103888   -1.386829
 ---------------------------------------------------------------------

 SCF Done:  E(RHF) =  -473.651196075     A.U. after    2 cycles

 The electronic state is 1-AG.
 Alpha  occ. eigenvalues --  -26.19731 -26.19724 -26.19719 -26.19715 -11.46617
 Alpha  occ. eigenvalues --  -11.46450  -1.76875  -1.75891  -1.72462  -1.71687
 Alpha  occ. eigenvalues --   -1.12993  -0.97838  -0.91805  -0.90290  -0.85681
 Alpha  occ. eigenvalues --   -0.85146  -0.82448  -0.80376  -0.78271  -0.77682
 Alpha  occ. eigenvalues --   -0.76376  -0.75052  -0.72947  -0.42738
 Alpha virt. eigenvalues --    0.06728   0.06873   0.08991   0.09366   0.11680
 Alpha virt. eigenvalues --    0.12336   0.12363   0.17922   0.19244   0.23606
 Alpha virt. eigenvalues --    0.23652   0.24103   0.27395   0.28982   0.29958

 Mulliken charges:
               1
     1  C    0.498726
     2  F   -0.249363
     3  C    0.498726
     4  F   -0.249363
     5  F   -0.249363
     6  F   -0.249363
 Sum of Mulliken charges =  -0.00000

 Dipole moment (field-independent basis, Debye):
    X=              0.0000    Y=             -0.0000    Z=             -0.0000  Tot=              0.0000

 Test job not archived.
 1\1\GINC-SE125\SP\RHF\Aug-CC-pVDZ\C2F4\OHZDE\08-Apr-2025\0\\#t hf aug-
 cc-pvdz iop(5/13=1,5/36=2,99/5=2) pseudo=read geom=check guess=(read,t
 check) scf=(maxcycle=1)\\title\\0,1\C,0,0.,0.,0.661059\F,0,0.,1.103888
 ,1.386829\C,0,0.,0.,-0.661059\F,0,0.,-1.103888,1.386829\F,0,0.,1.10388
 8,-1.386829\F,0,0.,-1.103888,-1.386829\\Version=ES64L-G16RevC.01\State
 =1-AG\HF=-473.6511961\RMSD=9.425e-03\Dipole=0.,0.,0.\Quadrupole=2.1118
 207,-1.1636405,-0.9481801,0.,0.,0.\PG=D02H [C2"(C1.C1),SG(F4)]\\@

 Normal termination of Gaussian 16 at Tue Apr  8 22:43:30 2025.
