 Gaussian 16, Revision C.01,

 ----------------------------------------------------------------------
 #t hf aug-cc-pvdz symm=none int=(grid=ultrafine) guess=(read,tcheck) s
 table=(opt,rrhf)
 ----------------------------------------------------------------------
 -----
 title
 -----
 Symbolic Z-matrix:
 Charge =  0 Multiplicity = 1

 SCF Done:  E(RHF) =  -228.654161384     A.U. after   14 cycles
 Normal termination of Gaussian 16 at Tue Apr  8 22:51:30 2025.
 Gaussian 16:  ES64L-G16RevC.01  3-Jul-2019

 ----------------------------------------------------------------------
 #t hf aug-cc-pvdz iop(5/13=1,5/36=2,99/5=2) pseudo=read geom=check gue
 ss=(read,tcheck) scf=(maxcycle=1)
 ----------------------------------------------------------------------
 -----
 title
 -----
 Structure from the checkpoint file:  "BDE49_expt_1809_mol1.chk"
 Charge =  0 Multiplicity = 1

                         Standard orientation:
 ---------------------------------------------------------------------
 Center     Atomic      Atomic             Coordinates (Angstroms)
 Number     Number       Type             X           Y           Z
 ---------------------------------------------------------------------
      1          7           0        0.000000    0.562066    0.000000
      2          8           0        1.074784    0.204980   -0.000000
      3          9           0       -0.955363   -0.619367    0.000000
 ---------------------------------------------------------------------

 SCF Done:  E(RHF) =  -228.730210822     A.U. after    2 cycles

 The electronic state is 1-A'.
 Alpha  occ. eigenvalues --  -26.12511 -20.76612 -15.93904  -1.67545  -1.59076
 Alpha  occ. eigenvalues --   -0.99430  -0.83604  -0.80123  -0.76822  -0.68244
 Alpha  occ. eigenvalues --   -0.67111  -0.54697
 Alpha virt. eigenvalues --    0.03795   0.09124   0.11294   0.13253   0.13818
 Alpha virt. eigenvalues --    0.16743   0.21188   0.23683   0.25205   0.28932
 Alpha virt. eigenvalues --    0.29893   0.34592   0.38034   0.49071   0.61594

 Mulliken charges:
               1
     1  N    0.628188
     2  O   -0.174133
     3  F   -0.454055
 Sum of Mulliken charges =   0.00000

 Dipole moment (field-independent basis, Debye):
    X=              1.4243    Y=              1.6831    Z=             -0.0000  Tot=              2.2049

 Test job not archived.
 1\1\GINC-SE132\SP\RHF\Aug-CC-pVDZ\F1N1O1\OHZDE\08-Apr-2025\0\\#t hf au
 g-cc-pvdz iop(5/13=1,5/36=2,99/5=2) pseudo=read geom=check guess=(read
 ,tcheck) scf=(maxcycle=1)\\title\\0,1\N,0,0.,0.562066,0.\O,0,1.074784,
 0.204981,0.\F,0,-0.955363,-0.619367,0.\\Version=ES64L-G16RevC.01\State
 =1-A'\HF=-228.7302108\RMSD=5.437e-03\Dipole=0.5603711,0.6621667,0.\Qua
 drupole=-1.0530579,-0.0543416,1.1073995,-0.6254459,0.,0.\PG=CS [SG(F1N
 1O1)]\\@

 Normal termination of Gaussian 16 at Tue Apr  8 22:51:32 2025.
