 Gaussian 16, Revision C.01,

 ----------------------------------------------------------------------
 #t hf aug-cc-pvdz symm=none int=(grid=ultrafine) guess=(read,tcheck) s
 table=(opt,rrhf)
 ----------------------------------------------------------------------
 -----
 title
 -----
 Symbolic Z-matrix:
 Charge =  0 Multiplicity = 1

 SCF Done:  E(RHF) =  -633.163107256     A.U. after   12 cycles
 Normal termination of Gaussian 16 at Wed Apr  9 00:03:33 2025.
 Gaussian 16:  ES64L-G16RevC.01  3-Jul-2019

 ----------------------------------------------------------------------
 #t hf aug-cc-pvdz iop(5/13=1,5/36=2,99/5=2) pseudo=read geom=check gue
 ss=(read,tcheck) scf=(maxcycle=1)
 ----------------------------------------------------------------------
 -----
 title
 -----
 Structure from the checkpoint file:  "BDE49_nonexpt_2213_mol1.chk"
 Charge =  0 Multiplicity = 1

                         Standard orientation:
 ---------------------------------------------------------------------
 Center     Atomic      Atomic             Coordinates (Angstroms)
 Number     Number       Type             X           Y           Z
 ---------------------------------------------------------------------
      1         14           0        0.914883    0.050465   -0.006510
      2          8           0        1.878171    1.381236   -0.014846
      3          8           0        1.239321   -0.948609    1.271471
      4          1           0        2.798527    1.260095   -0.261487
      5          6           0       -0.830909    0.689691   -0.003650
      6          6           0       -1.912881   -0.406296   -0.002507
      7          1           0       -0.949259    1.334235   -0.883329
      8          1           0       -0.960045    1.350411    0.863681
      9          6           0       -3.339515    0.151044   -0.013532
     10          1           0       -1.779981   -1.049783    0.874435
     11          1           0       -1.768418   -1.053002   -0.874762
     12          1           0       -3.526063    0.775679    0.865849
     13          1           0       -4.082619   -0.651704   -0.016002
     14          1           0       -3.513296    0.769373   -0.899623
     15          1           0        1.204071   -0.578553    2.156225
     16          8           0        1.235417   -0.890098   -1.316093
     17          1           0        1.445272   -1.810129   -1.139971
 ---------------------------------------------------------------------

 SCF Done:  E(RHF) =  -633.324167914     A.U. after    2 cycles

 The electronic state is 1-A.
 Alpha  occ. eigenvalues --  -69.12321 -20.57090 -20.56695 -20.56533 -11.23277
 Alpha  occ. eigenvalues --  -11.22197 -11.21389  -6.86521  -3.97558  -3.97541
 Alpha  occ. eigenvalues --   -3.97334  -1.32241  -1.29229  -1.28847  -1.04437
 Alpha  occ. eigenvalues --   -0.92266  -0.80828  -0.76739  -0.72732  -0.71554
 Alpha  occ. eigenvalues --   -0.63028  -0.60681  -0.60080  -0.57681  -0.56911
 Alpha  occ. eigenvalues --   -0.55571  -0.54383  -0.53387  -0.52230  -0.51274
 Alpha  occ. eigenvalues --   -0.47936  -0.47272  -0.43431
 Alpha virt. eigenvalues --    0.02898   0.04357   0.04714   0.04996   0.06116
 Alpha virt. eigenvalues --    0.06489   0.07027   0.07137   0.08613   0.08757
 Alpha virt. eigenvalues --    0.09235   0.10065   0.10976   0.12467   0.13445

 Mulliken charges:
               1
     1  Si   2.362188
     2  O   -0.791638
     3  O   -0.812344
     4  H    0.111815
     5  C    0.184786
     6  C    0.065036
     7  H   -0.210588
     8  H   -0.212235
     9  C    0.456482
    10  H   -0.188445
    11  H   -0.166438
    12  H   -0.065480
    13  H   -0.063528
    14  H   -0.063472
    15  H    0.100749
    16  O   -0.868548
    17  H    0.161662
 Sum of Mulliken charges =  -0.00000

 Dipole moment (field-independent basis, Debye):
    X=              0.3229    Y=             -0.5686    Z=              1.3351  Tot=              1.4867

 Test job not archived.
 1\1\GINC-SE419\SP\RHF\Aug-CC-pVDZ\C3H10O3Si1\OHZDE\09-Apr-2025\0\\#t h
 f aug-cc-pvdz iop(5/13=1,5/36=2,99/5=2) pseudo=read geom=check guess=(
 read,tcheck) scf=(maxcycle=1)\\title\\0,1\Si,0,0.914883,0.050465,-0.00
 651\O,0,1.878171,1.381236,-0.014846\O,0,1.239321,-0.948609,1.271471\H,
 0,2.798527,1.260095,-0.261487\C,0,-0.830909,0.689691,-0.00365\C,0,-1.9
 12881,-0.406296,-0.002507\H,0,-0.949259,1.334235,-0.883329\H,0,-0.9600
 45,1.350411,0.863681\C,0,-3.339515,0.151044,-0.013532\H,0,-1.779981,-1
 .049783,0.874435\H,0,-1.768418,-1.053002,-0.874762\H,0,-3.526063,0.775

 Normal termination of Gaussian 16 at Wed Apr  9 00:03:39 2025.
