 Gaussian 16, Revision C.01,

 ----------------------------------------------------------------------
 #t hf aug-cc-pvdz symm=none int=(grid=ultrafine) guess=(read,tcheck) s
 table=opt
 ----------------------------------------------------------------------
 -----
 title
 -----
 Symbolic Z-matrix:
 Charge =  0 Multiplicity = 2

 SCF Done:  E(UHF) =  -199.641258713     A.U. after   14 cycles
 Normal termination of Gaussian 16 at Wed Apr  9 00:28:39 2025.
 Gaussian 16:  ES64L-G16RevC.01  3-Jul-2019

 ----------------------------------------------------------------------
 #t hf aug-cc-pvdz iop(5/13=1,5/36=2,99/5=2) pseudo=read geom=check gue
 ss=(read,tcheck) scf=(maxcycle=1)
 ----------------------------------------------------------------------
 -----
 title
 -----
 Structure from the checkpoint file:  "BDE49_nonexpt_350_mol2.chk"
 Charge =  0 Multiplicity = 2

                         Standard orientation:
 ---------------------------------------------------------------------
 Center     Atomic      Atomic             Coordinates (Angstroms)
 Number     Number       Type             X           Y           Z
 ---------------------------------------------------------------------
      1          9           0       -1.170900   -0.095082   -0.000000
      2          8           0        1.178534   -0.094774    0.000000
      3          5           0        0.000000    0.535291    0.000000
      4          1           0        1.109827   -1.062528    0.000000
 ---------------------------------------------------------------------

 SCF Done:  E(UHF) =  -199.720762674     A.U. after    2 cycles

 The electronic state is 2-A'.
 Alpha  occ. eigenvalues --  -26.14283 -20.61826  -7.73569  -1.68653  -1.36682
 Alpha  occ. eigenvalues --   -0.85654  -0.80268  -0.77344  -0.75146  -0.62606
 Alpha  occ. eigenvalues --   -0.58317  -0.39149
 Alpha virt. eigenvalues --    0.03805   0.05285   0.06055   0.06264   0.09505
 Alpha virt. eigenvalues --    0.14404   0.18031   0.20556   0.21294   0.22550
 Alpha virt. eigenvalues --    0.26055   0.27200   0.27564   0.30239   0.32198

  Beta  occ. eigenvalues --  -26.13925 -20.61701  -7.71342  -1.67504  -1.36113
  Beta  occ. eigenvalues --   -0.84110  -0.78630  -0.75013  -0.74814  -0.62248
  Beta  occ. eigenvalues --   -0.58782
  Beta virt. eigenvalues --    0.02644   0.05109   0.05620   0.06369   0.08257
  Beta virt. eigenvalues --    0.14129   0.18891   0.19527   0.20674   0.21312
  Beta virt. eigenvalues --    0.23290   0.27400   0.27754   0.28367   0.31188

 Mulliken charges and spin densities:
               1          2
     1  F   -0.296861  -0.046181
     2  O   -0.353024  -0.034586
     3  B    0.450355   1.054538
     4  H    0.199530   0.026229
 Sum of Mulliken charges =  -0.00000   1.00000

 Dipole moment (field-independent basis, Debye):
    X=              0.5541    Y=             -1.3285    Z=              0.0000  Tot=              1.4394
                          Isotropic Fermi Contact Couplings
        Atom                 a.u.       MegaHertz       Gauss      10(-4) cm-1
     1  F(19)              0.10772     453.22976     161.72365     151.18118
     2  O(17)              0.15915     -96.47770     -34.42564     -32.18150
     3  B(11)              0.48308     692.91653     247.24985     231.13207
     4  H(1)               0.01190      53.20346      18.98432      17.74676
 --------------------------------------------------------
       Center         ----  Spin Dipole Couplings  ----
                      3XX-RR        3YY-RR        3ZZ-RR
 --------------------------------------------------------

 Normal termination of Gaussian 16 at Wed Apr  9 00:28:40 2025.
