 Gaussian 16, Revision C.01,

 ----------------------------------------------------------------------
 #t hf aug-cc-pvdz symm=none int=(grid=ultrafine) guess=(read,tcheck) s
 table=(opt,rrhf)
 ----------------------------------------------------------------------
 -----
 title
 -----
 Symbolic Z-matrix:
 Charge =  0 Multiplicity = 1

 SCF Done:  E(RHF) =  -841.223807631     A.U. after   14 cycles
 Normal termination of Gaussian 16 at Tue Apr  8 22:40:37 2025.
 Gaussian 16:  ES64L-G16RevC.01  3-Jul-2019

 ----------------------------------------------------------------------
 #t hf aug-cc-pvdz iop(5/13=1,5/36=2,99/5=2) pseudo=read geom=check gue
 ss=(read,tcheck) scf=(maxcycle=1)
 ----------------------------------------------------------------------
 -----
 title
 -----
 Structure from the checkpoint file:  "BDE49_expt_1256_mol1.chk"
 Charge =  0 Multiplicity = 1

                         Standard orientation:
 ---------------------------------------------------------------------
 Center     Atomic      Atomic             Coordinates (Angstroms)
 Number     Number       Type             X           Y           Z
 ---------------------------------------------------------------------
      1          6           0        0.998382   -0.937149    0.000041
      2          6           0       -0.320665   -1.368545    0.000030
      3          6           0        1.345459    0.406548    0.000035
      4          6           0        0.312345    1.333181    0.000020
      5          6           0       -1.024873    0.961929    0.000009
      6          6           0       -1.310787   -0.396100    0.000015
      7          1           0       -0.567106   -2.420298    0.000034
      8          7           0       -2.735401   -0.826520    0.000004
      9          8           0       -3.579967    0.053252   -0.000017
     10          8           0       -2.951584   -2.026752    0.000005
     11          1           0       -1.812528    1.701198   -0.000002
     12          7           0        0.651903    2.782141    0.000015
     13          7           0        2.083511   -1.955617    0.000059
     14          1           0        2.379514    0.719025    0.000043
     15          8           0        3.230992   -1.542605   -0.000078
     16          8           0        1.744012   -3.126953   -0.000081
     17          8           0        1.836087    3.073687    0.000001
     18          8           0       -0.279433    3.569477   -0.000020
 ---------------------------------------------------------------------

 SCF Done:  E(RHF) =  -841.472793301     A.U. after    2 cycles

 The electronic state is 1-A.
 Alpha  occ. eigenvalues --  -20.65794 -20.65794 -20.65794 -20.65785 -20.65784
 Alpha  occ. eigenvalues --  -20.65784 -15.96239 -15.96239 -15.96239 -11.37887
 Alpha  occ. eigenvalues --  -11.37886 -11.37886 -11.35657 -11.35657 -11.35652
 Alpha  occ. eigenvalues --   -1.59296  -1.59232  -1.59232  -1.40970  -1.40970
 Alpha  occ. eigenvalues --   -1.40944  -1.26957  -1.15961  -1.15961  -1.01553
 Alpha  occ. eigenvalues --   -1.01342  -1.01342  -0.87414  -0.87414  -0.85047
 Alpha  occ. eigenvalues --   -0.79692  -0.79692  -0.79605  -0.77302  -0.77217
 Alpha  occ. eigenvalues --   -0.77217  -0.76670  -0.76670  -0.76582  -0.72827
 Alpha  occ. eigenvalues --   -0.64107  -0.64107  -0.60445  -0.56866  -0.55871
 Alpha  occ. eigenvalues --   -0.55871  -0.55607  -0.54507  -0.54507  -0.51230
 Alpha  occ. eigenvalues --   -0.51230  -0.51151  -0.44588  -0.44588
 Alpha virt. eigenvalues --   -0.01679  -0.01679   0.02532   0.02778   0.04374
 Alpha virt. eigenvalues --    0.04374   0.08240   0.09171   0.09409   0.09409
 Alpha virt. eigenvalues --    0.10966   0.10967   0.12029   0.12029   0.12069

 Mulliken charges:
               1
     1  C    1.357082
     2  C    0.094474
     3  C    0.094279
     4  C    1.357101
     5  C    0.094310
     6  C    1.357106
     7  H   -0.438615
     8  N    0.066659
     9  O   -0.539741
    10  O   -0.539745
    11  H   -0.438607
    12  N    0.066643
    13  N    0.066648
    14  H   -0.438630
    15  O   -0.539742
    16  O   -0.539740
    17  O   -0.539745
    18  O   -0.539739
 Sum of Mulliken charges =  -0.00000

 Dipole moment (field-independent basis, Debye):
    X=             -0.0003    Y=             -0.0002    Z=              0.0005  Tot=              0.0006

 Test job not archived.
 1\1\GINC-SE070\SP\RHF\Aug-CC-pVDZ\C6H3N3O6\OHZDE\08-Apr-2025\0\\#t hf
 aug-cc-pvdz iop(5/13=1,5/36=2,99/5=2) pseudo=read geom=check guess=(re
 ad,tcheck) scf=(maxcycle=1)\\title\\0,1\C,0,-0.999319,-0.93615,-0.0000
 41\C,0,0.319296,-1.368865,-0.00003\C,0,-1.345052,0.407893,-0.000035\C,
 0,-0.311012,1.333493,-0.00002\C,0,1.025834,0.960904,-0.000009\C,0,1.31
 039,-0.397411,-0.000015\H,0,0.564685,-2.420864,-0.000034\N,0,2.734573,
 -0.829255,-0.000004\O,0,3.580018,0.049672,0.000017\O,0,2.949555,-2.029
 703,-0.000005\H,0,1.814228,1.699384,0.000002\N,0,-0.64912,2.782792,-0.

 Normal termination of Gaussian 16 at Tue Apr  8 22:40:52 2025.
