 Gaussian 16, Revision C.01,

 ----------------------------------------------------------------------
 #t hf aug-cc-pvdz symm=none int=(grid=ultrafine) guess=(read,tcheck) s
 table=(opt,rrhf)
 ----------------------------------------------------------------------
 -----
 title
 -----
 Symbolic Z-matrix:
 Charge =  0 Multiplicity = 1

 SCF Done:  E(RHF) =  -477.927849078     A.U. after   12 cycles
 Normal termination of Gaussian 16 at Wed Apr  9 00:42:54 2025.
 Gaussian 16:  ES64L-G16RevC.01  3-Jul-2019

 ----------------------------------------------------------------------
 #t hf aug-cc-pvdz iop(5/13=1,5/36=2,99/5=2) pseudo=read geom=check gue
 ss=(read,tcheck) scf=(maxcycle=1)
 ----------------------------------------------------------------------
 -----
 title
 -----
 Structure from the checkpoint file:  "BDE49_nonexpt_767_mol1.chk"
 Charge =  0 Multiplicity = 1

                         Standard orientation:
 ---------------------------------------------------------------------
 Center     Atomic      Atomic             Coordinates (Angstroms)
 Number     Number       Type             X           Y           Z
 ---------------------------------------------------------------------
      1          5           0        0.509589    0.000000    0.016776
      2         15           0       -1.449909    0.000000   -0.121828
      3          7           0        1.195510    1.236588    0.007302
      4          7           0        1.195510   -1.236588    0.007302
      5          1           0        0.725352   -2.124853    0.024130
      6          1           0        2.200525   -1.314190   -0.019356
      7          1           0        0.725352    2.124853    0.024129
      8          1           0        2.200525    1.314190   -0.019356
      9          1           0       -1.694102    1.037244    0.815884
     10          1           0       -1.694102   -1.037244    0.815883
 ---------------------------------------------------------------------

 SCF Done:  E(RHF) =  -477.991768420     A.U. after    2 cycles

 The electronic state is 1-A.
 Alpha  occ. eigenvalues --  -81.22559 -15.60636 -15.60634  -7.73159  -7.62516
 Alpha  occ. eigenvalues --   -4.87172  -4.87087  -4.86820  -1.13510  -1.09454
 Alpha  occ. eigenvalues --   -0.78849  -0.70997  -0.66835  -0.66307  -0.59793
 Alpha  occ. eigenvalues --   -0.49606  -0.47951  -0.43161  -0.38389  -0.33611
 Alpha virt. eigenvalues --    0.03118   0.04599   0.04694   0.05406   0.07122
 Alpha virt. eigenvalues --    0.07408   0.09427   0.09462   0.10255   0.10304
 Alpha virt. eigenvalues --    0.12263   0.13044   0.14843   0.17668   0.18121

 Mulliken charges:
               1
     1  B    0.782979
     2  P   -0.410029
     3  N   -0.193048
     4  N   -0.193047
     5  H   -0.041857
     6  H   -0.052505
     7  H   -0.041857
     8  H   -0.052505
     9  H    0.100935
    10  H    0.100935
 Sum of Mulliken charges =  -0.00000

 Dipole moment (field-independent basis, Debye):
    X=              2.3028    Y=             -0.0000    Z=              0.5534  Tot=              2.3684

 Test job not archived.
 1\1\GINC-SE212\SP\RHF\Aug-CC-pVDZ\B1H6N2P1\OHZDE\09-Apr-2025\0\\#t hf
 aug-cc-pvdz iop(5/13=1,5/36=2,99/5=2) pseudo=read geom=check guess=(re
 ad,tcheck) scf=(maxcycle=1)\\title\\0,1\B,0,-0.509589,0.,0.016776\P,0,
 1.449909,0.,-0.121828\N,0,-1.19551,-1.236588,0.007302\N,0,-1.19551,1.2
 36588,0.007302\H,0,-0.725352,2.124853,0.02413\H,0,-2.200525,1.31419,-0
 .019356\H,0,-0.725352,-2.124853,0.024129\H,0,-2.200525,-1.31419,-0.019
 356\H,0,1.694102,-1.037244,0.815884\H,0,1.694102,1.037244,0.815883\\Ve
 rsion=ES64L-G16RevC.01\State=1-A\HF=-477.9917684\RMSD=7.947e-03\Dipole

 Normal termination of Gaussian 16 at Wed Apr  9 00:42:57 2025.
