 Gaussian 16, Revision C.01,

 ----------------------------------------------------------------------
 #t hf aug-cc-pvdz symm=none int=(grid=ultrafine) guess=(read,tcheck) s
 table=(opt,rrhf)
 ----------------------------------------------------------------------
 -----
 title
 -----
 Symbolic Z-matrix:
 Charge =  0 Multiplicity = 1

 SCF Done:  E(RHF) =  -845.853886322     A.U. after   15 cycles
 Normal termination of Gaussian 16 at Wed Apr  9 00:09:04 2025.
 Gaussian 16:  ES64L-G16RevC.01  3-Jul-2019

 ----------------------------------------------------------------------
 #t hf aug-cc-pvdz iop(5/13=1,5/36=2,99/5=2) pseudo=read geom=check gue
 ss=(read,tcheck) scf=(maxcycle=1)
 ----------------------------------------------------------------------
 -----
 title
 -----
 Structure from the checkpoint file:  "BDE49_nonexpt_2346_mol1.chk"
 Charge =  0 Multiplicity = 1

                         Standard orientation:
 ---------------------------------------------------------------------
 Center     Atomic      Atomic             Coordinates (Angstroms)
 Number     Number       Type             X           Y           Z
 ---------------------------------------------------------------------
      1         14           0       -1.683042   -0.801272    0.277400
      2         14           0        0.412834   -1.084079   -0.760503
      3          6           0        1.705745   -0.010538    0.222420
      4          8           0        2.044523   -0.430465    1.309295
      5          6           0       -2.081191    1.093563    0.196801
      6          8           0       -1.270237    1.897977   -0.209482
      7          6           0        2.213301    1.294948   -0.343624
      8          1           0        2.912509    1.760327    0.353156
      9          1           0        1.360540    1.956253   -0.527905
     10          1           0        2.701454    1.121251   -1.308404
     11          1           0        0.295776   -0.691936   -2.187283
     12          1           0        0.848078   -2.495680   -0.668068
     13          1           0       -1.685446   -1.193484    1.708509
     14          1           0       -2.790757   -1.527045   -0.396146
     15          1           0       -3.080649    1.457301    0.537500
 ---------------------------------------------------------------------

 SCF Done:  E(RHF) =  -845.977920485     A.U. after    2 cycles

 The electronic state is 1-A.
 Alpha  occ. eigenvalues --  -69.08417 -69.07843 -20.59923 -20.57427 -11.34900
 Alpha  occ. eigenvalues --  -11.33837 -11.24107  -6.83856  -6.83248  -3.94620
 Alpha  occ. eigenvalues --   -3.94586  -3.94561  -3.94001  -3.93989  -3.93970
 Alpha  occ. eigenvalues --   -1.37510  -1.35709  -1.00234  -0.85823  -0.79432
 Alpha  occ. eigenvalues --   -0.73649  -0.69310  -0.67956  -0.63288  -0.62318
 Alpha  occ. eigenvalues --   -0.60163  -0.59680  -0.56441  -0.54430  -0.51792
 Alpha  occ. eigenvalues --   -0.50100  -0.48954  -0.43426  -0.40943  -0.38630
 Alpha virt. eigenvalues --    0.03129   0.03652   0.04687   0.05379   0.05919
 Alpha virt. eigenvalues --    0.06149   0.06308   0.07164   0.07506   0.07804
 Alpha virt. eigenvalues --    0.08506   0.08699   0.09419   0.10177   0.10823

 Mulliken charges:
               1
     1  Si   0.345524
     2  Si   0.003353
     3  C    0.087498
     4  O   -0.532367
     5  C    0.240536
     6  O   -0.368075
     7  C    0.287242
     8  H   -0.063905
     9  H    0.052593
    10  H   -0.008886
    11  H    0.096083
    12  H    0.105600
    13  H    0.034998
    14  H    0.017933
    15  H   -0.298126
 Sum of Mulliken charges =  -0.00000

 Dipole moment (field-independent basis, Debye):
    X=             -2.3722    Y=             -0.6463    Z=             -1.8848  Tot=              3.0980

 Test job not archived.
 1\1\GINC-SE331\SP\RHF\Aug-CC-pVDZ\C3H8O2Si2\OHZDE\09-Apr-2025\0\\#t hf
  aug-cc-pvdz iop(5/13=1,5/36=2,99/5=2) pseudo=read geom=check guess=(r
 ead,tcheck) scf=(maxcycle=1)\\title\\0,1\Si,0,-1.683042,-0.801272,0.27
 74\Si,0,0.412834,-1.084079,-0.760503\C,0,1.705745,-0.010538,0.22242\O,
 0,2.044523,-0.430465,1.309295\C,0,-2.081191,1.093563,0.196801\O,0,-1.2
 70237,1.897977,-0.209482\C,0,2.213301,1.294948,-0.343624\H,0,2.912509,
 1.760328,0.353156\H,0,1.36054,1.956253,-0.527905\H,0,2.701454,1.121252
 ,-1.308404\H,0,0.295776,-0.691936,-2.187283\H,0,0.848079,-2.49568,-0.6

 Normal termination of Gaussian 16 at Wed Apr  9 00:09:10 2025.
