 Gaussian 16, Revision C.01,

 ----------------------------------------------------------------------
 #t hf aug-cc-pvdz symm=none int=(grid=ultrafine) guess=(read,tcheck) s
 table=(opt,rrhf)
 ----------------------------------------------------------------------
 -----
 title
 -----
 Symbolic Z-matrix:
 Charge =  0 Multiplicity = 1

 SCF Done:  E(RHF) =  -1973.87776687     A.U. after   14 cycles
 Normal termination of Gaussian 16 at Tue Apr  8 23:23:13 2025.
 Gaussian 16:  ES64L-G16RevC.01  3-Jul-2019

 ----------------------------------------------------------------------
 #t hf aug-cc-pvdz iop(5/13=1,5/36=2,99/5=2) pseudo=read geom=check gue
 ss=(read,tcheck) scf=(maxcycle=1)
 ----------------------------------------------------------------------
 -----
 title
 -----
 Structure from the checkpoint file:  "BDE49_nonexpt_1243_mol1.chk"
 Charge =  0 Multiplicity = 1

                         Standard orientation:
 ---------------------------------------------------------------------
 Center     Atomic      Atomic             Coordinates (Angstroms)
 Number     Number       Type             X           Y           Z
 ---------------------------------------------------------------------
      1         17           0       -0.099186    2.384841    0.089500
      2         15           0       -0.010366    0.618112   -0.982596
      3         16           0        1.733855   -0.304104    0.173218
      4         16           0       -1.717227   -0.558532   -0.102902
      5          8           0        2.844078    0.582914   -0.114805
      6          8           0        1.374219   -0.611974    1.547160
      7          8           0       -2.919131   -0.004742   -0.693475
      8          8           0       -1.315146   -1.931655   -0.381124
      9          6           0        1.973805   -1.852780   -0.704509
     10          1           0        2.811344   -2.342216   -0.204117
     11          1           0        2.222897   -1.629165   -1.740991
     12          1           0        1.061584   -2.441379   -0.618739
     13          6           0       -1.793259   -0.317426    1.673270
     14          1           0       -2.055145    0.720286    1.869452
     15          1           0       -0.832021   -0.587305    2.105329
     16          1           0       -2.588493   -0.987117    2.006842
 ---------------------------------------------------------------------

 SCF Done:  E(RHF) =  -1974.17497857     A.U. after    2 cycles

 The electronic state is 1-A.
 Alpha  occ. eigenvalues -- -103.71190 -93.80755 -93.80616 -81.39456 -20.59129
 Alpha  occ. eigenvalues --  -20.58974 -20.58789 -20.58686 -11.30694 -11.30214
 Alpha  occ. eigenvalues --  -10.74471  -9.07560  -9.07449  -8.40181  -8.39874
 Alpha  occ. eigenvalues --   -8.39862  -7.89179  -6.42160  -6.42045  -6.41919
 Alpha  occ. eigenvalues --   -6.41837  -6.41799  -6.41731  -5.02865  -5.02795
 Alpha  occ. eigenvalues --   -5.02527  -1.44475  -1.44127  -1.33343  -1.33194
 Alpha  occ. eigenvalues --   -1.19335  -1.06004  -1.05523  -0.91325  -0.85920
 Alpha  occ. eigenvalues --   -0.79207  -0.72387  -0.70362  -0.70088  -0.69006
 Alpha  occ. eigenvalues --   -0.68750  -0.67851  -0.63308  -0.62902  -0.62397
 Alpha  occ. eigenvalues --   -0.60954  -0.55840  -0.55681  -0.54762  -0.53877
 Alpha  occ. eigenvalues --   -0.53676  -0.52490  -0.52272  -0.52002  -0.50678
 Alpha  occ. eigenvalues --   -0.43195  -0.40485
 Alpha virt. eigenvalues --    0.03074   0.03243   0.04001   0.04592   0.05380
 Alpha virt. eigenvalues --    0.05971   0.06548   0.07132   0.07305   0.08593
 Alpha virt. eigenvalues --    0.09887   0.10661   0.11412   0.11950   0.12908

 Mulliken charges:
               1
     1  Cl  -0.385000
     2  P    0.555857
     3  S    2.287200
     4  S    2.253586
     5  O   -1.105460
     6  O   -1.187323
     7  O   -1.105527
     8  O   -1.172171
     9  C   -0.027959
    10  H    0.030534
    11  H   -0.032486
    12  H   -0.030014
    13  C   -0.011468
    14  H   -0.025068
    15  H   -0.093760
    16  H    0.049056
 Sum of Mulliken charges =  -0.00000

 Dipole moment (field-independent basis, Debye):
    X=              0.3824    Y=             -0.9625    Z=             -0.0561  Tot=              1.0372

 Test job not archived.
 1\1\GINC-SE403\SP\RHF\Aug-CC-pVDZ\C2H6Cl1O4P1S2\OHZDE\08-Apr-2025\0\\#
 t hf aug-cc-pvdz iop(5/13=1,5/36=2,99/5=2) pseudo=read geom=check gues
 s=(read,tcheck) scf=(maxcycle=1)\\title\\0,1\Cl,0,-0.099186,2.384841,0
 .0895\P,0,-0.010366,0.618112,-0.982596\S,0,1.733855,-0.304104,0.173218
 \S,0,-1.717227,-0.558532,-0.102902\O,0,2.844078,0.582914,-0.114805\O,0
 ,1.374219,-0.611974,1.54716\O,0,-2.919131,-0.004742,-0.693475\O,0,-1.3
 15146,-1.931655,-0.381124\C,0,1.973805,-1.85278,-0.704509\H,0,2.811344
 ,-2.342216,-0.204117\H,0,2.222897,-1.629165,-1.740991\H,0,1.061584,-2.

 Normal termination of Gaussian 16 at Tue Apr  8 23:23:22 2025.
