 Gaussian 16, Revision C.01,

 ----------------------------------------------------------------------
 #t hf aug-cc-pvdz symm=none int=(grid=ultrafine) guess=(read,tcheck) s
 table=(opt,rrhf)
 ----------------------------------------------------------------------
 -----
 title
 -----
 Symbolic Z-matrix:
 Charge =  0 Multiplicity = 1

 SCF Done:  E(RHF) =  -666.134184863     A.U. after   15 cycles
 Normal termination of Gaussian 16 at Tue Apr  8 23:38:26 2025.
 Gaussian 16:  ES64L-G16RevC.01  3-Jul-2019

 ----------------------------------------------------------------------
 #t hf aug-cc-pvdz iop(5/13=1,5/36=2,99/5=2) pseudo=read geom=check gue
 ss=(read,tcheck) scf=(maxcycle=1)
 ----------------------------------------------------------------------
 -----
 title
 -----
 Structure from the checkpoint file:  "BDE49_nonexpt_1586_mol1.chk"
 Charge =  0 Multiplicity = 1

                         Standard orientation:
 ---------------------------------------------------------------------
 Center     Atomic      Atomic             Coordinates (Angstroms)
 Number     Number       Type             X           Y           Z
 ---------------------------------------------------------------------
      1          6           0        0.141108   -0.029545   -0.208941
      2          6           0        0.929750   -1.183945   -0.324309
      3          6           0        2.306168   -1.130525   -0.128166
      4          6           0        2.923408    0.082674    0.175417
      5          6           0        2.153017    1.238120    0.275188
      6          6           0        0.773228    1.184095    0.081265
      7          7           0       -2.208897    1.390877   -0.007546
      8          1           0        2.898702   -2.034542   -0.218076
      9          1           0        3.996444    0.126071    0.324857
     10          1           0        2.626048    2.187506    0.502770
     11          1           0        0.175939    2.085605    0.147019
     12          1           0        0.469234   -2.134289   -0.577299
     13         15           0       -1.670832   -0.139655   -0.549591
     14          6           0       -2.157396   -1.273260    0.843156
     15          1           0       -1.832810   -0.891403    1.815940
     16          1           0       -1.714666   -2.260880    0.693881
     17          1           0       -3.244378   -1.386446    0.840577
     18          1           0       -2.259401    1.578981    0.986795
     19          1           0       -3.006046    1.762402   -0.501443
 ---------------------------------------------------------------------

 SCF Done:  E(RHF) =  -666.259308308     A.U. after    2 cycles

 The electronic state is 1-A.
 Alpha  occ. eigenvalues --  -81.27370 -15.61523 -11.24505 -11.24388 -11.24309
 Alpha  occ. eigenvalues --  -11.24283 -11.24193 -11.23951 -11.23239  -7.77276
 Alpha  occ. eigenvalues --   -4.91442  -4.91280  -4.90940  -1.14114  -1.11888
 Alpha  occ. eigenvalues --   -1.01060  -1.00646  -0.95252  -0.82778  -0.82477
 Alpha  occ. eigenvalues --   -0.74007  -0.69113  -0.66691  -0.63248  -0.62466
 Alpha  occ. eigenvalues --   -0.58996  -0.58346  -0.57115  -0.54675  -0.53459
 Alpha  occ. eigenvalues --   -0.50572  -0.49397  -0.47018  -0.40033  -0.36541
 Alpha  occ. eigenvalues --   -0.33827  -0.30404
 Alpha virt. eigenvalues --    0.03323   0.03788   0.04119   0.05167   0.05401
 Alpha virt. eigenvalues --    0.05636   0.07278   0.07491   0.07943   0.08180
 Alpha virt. eigenvalues --    0.10037   0.10461   0.10998   0.11259   0.12490

 Mulliken charges:
               1
     1  C    0.300436
     2  C    0.234873
     3  C    0.596140
     4  C    0.596779
     5  C    0.571021
     6  C    0.268992
     7  N   -0.408524
     8  H   -0.445296
     9  H   -0.436163
    10  H   -0.452604
    11  H   -0.617591
    12  H   -0.586484
    13  P    0.603661
    14  C    0.296576
    15  H   -0.138693
    16  H   -0.192090
    17  H   -0.177215
    18  H   -0.025301
    19  H    0.011483
 Sum of Mulliken charges =  -0.00000

 Dipole moment (field-independent basis, Debye):
    X=             -0.7348    Y=              0.2448    Z=              1.5442  Tot=              1.7276

 Test job not archived.
 1\1\GINC-SE458\SP\RHF\Aug-CC-pVDZ\C7H10N1P1\OHZDE\08-Apr-2025\0\\#t hf
  aug-cc-pvdz iop(5/13=1,5/36=2,99/5=2) pseudo=read geom=check guess=(r
 ead,tcheck) scf=(maxcycle=1)\\title\\0,1\C,0,0.141108,-0.029545,-0.208
 941\C,0,0.92975,-1.183945,-0.324309\C,0,2.306168,-1.130525,-0.128166\C
 ,0,2.923408,0.082674,0.175417\C,0,2.153017,1.23812,0.275188\C,0,0.7732
 28,1.184095,0.081265\N,0,-2.208897,1.390877,-0.007546\H,0,2.898702,-2.
 034542,-0.218076\H,0,3.996444,0.12607,0.324857\H,0,2.626048,2.187506,0
 .50277\H,0,0.175939,2.085605,0.147019\H,0,0.469234,-2.134289,-0.577299

 Normal termination of Gaussian 16 at Tue Apr  8 23:38:35 2025.
