 Gaussian 16, Revision C.01,

 ----------------------------------------------------------------------
 #t hf aug-cc-pvdz symm=none int=(grid=ultrafine) guess=(read,tcheck) s
 table=(opt,rrhf)
 ----------------------------------------------------------------------
 -----
 title
 -----
 Symbolic Z-matrix:
 Charge =  0 Multiplicity = 1

 SCF Done:  E(RHF) =  -1545.59182767     A.U. after   14 cycles
 Normal termination of Gaussian 16 at Tue Apr  8 22:37:24 2025.
 Gaussian 16:  ES64L-G16RevC.01  3-Jul-2019

 ----------------------------------------------------------------------
 #t hf aug-cc-pvdz iop(5/13=1,5/36=2,99/5=2) pseudo=read geom=check gue
 ss=(read,tcheck) scf=(maxcycle=1)
 ----------------------------------------------------------------------
 -----
 title
 -----
 Structure from the checkpoint file:  "BDE49_expt_1229_mol1.chk"
 Charge =  0 Multiplicity = 1

                         Standard orientation:
 ---------------------------------------------------------------------
 Center     Atomic      Atomic             Coordinates (Angstroms)
 Number     Number       Type             X           Y           Z
 ---------------------------------------------------------------------
      1          6           0       -0.080714   -0.000000   -0.009297
      2          7           0        0.704070    0.000002   -1.422002
      3         17           0       -1.073269   -1.469526   -0.086019
      4         17           0       -1.073252    1.469538   -0.086004
      5         17           0        1.004252   -0.000014    1.379483
      6          8           0        1.871797    0.000001   -1.314628
 ---------------------------------------------------------------------

 SCF Done:  E(RHF) =  -1545.69826662     A.U. after    2 cycles

 The electronic state is 1-A.
 Alpha  occ. eigenvalues -- -103.71005-103.71004-103.70808 -20.70594 -15.83347
 Alpha  occ. eigenvalues --  -11.48302 -10.74315 -10.74303 -10.74118  -8.40035
 Alpha  occ. eigenvalues --   -8.40027  -8.39843  -8.39682  -8.39681  -8.39678
 Alpha  occ. eigenvalues --   -8.39677  -8.39492  -8.39490  -1.55052  -1.28726
 Alpha  occ. eigenvalues --   -1.18020  -1.18012  -1.01140  -0.85547  -0.75741
 Alpha  occ. eigenvalues --   -0.73417  -0.69255  -0.64584  -0.63174  -0.54102
 Alpha  occ. eigenvalues --   -0.53052  -0.52832  -0.49769  -0.49635  -0.48203
 Alpha  occ. eigenvalues --   -0.43350
 Alpha virt. eigenvalues --    0.04820   0.05445   0.07857   0.08248   0.08741
 Alpha virt. eigenvalues --    0.10032   0.12378   0.13047   0.13735   0.14819
 Alpha virt. eigenvalues --    0.15195   0.17575   0.18432   0.18655   0.18946

 Mulliken charges:
               1
     1  C   -0.456876
     2  N    0.103136
     3  Cl   0.212640
     4  Cl   0.212640
     5  Cl   0.244937
     6  O   -0.316478
 Sum of Mulliken charges =  -0.00000

 Dipole moment (field-independent basis, Debye):
    X=             -0.6444    Y=             -0.0000    Z=              0.3996  Tot=              0.7582

 Test job not archived.
 1\1\GINC-SE329\SP\RHF\Aug-CC-pVDZ\C1Cl3N1O1\OHZDE\08-Apr-2025\0\\#t hf
  aug-cc-pvdz iop(5/13=1,5/36=2,99/5=2) pseudo=read geom=check guess=(r
 ead,tcheck) scf=(maxcycle=1)\\title\\0,1\C,0,-0.080714,0.,-0.009297\N,
 0,0.70407,0.000002,-1.422002\Cl,0,-1.07327,-1.469525,-0.086019\Cl,0,-1
 .073251,1.469539,-0.086004\Cl,0,1.004252,-0.000014,1.379483\O,0,1.8717
 97,0.,-1.314628\\Version=ES64L-G16RevC.01\State=1-A\HF=-1545.6982666\R
 MSD=3.242e-03\Dipole=-0.2535309,-0.0000003,0.1572097\Quadrupole=-0.917
 666,1.6545454,-0.7368794,0.0000009,1.1937543,0.000005\PG=C01 [X(C1Cl3N

 Normal termination of Gaussian 16 at Tue Apr  8 22:37:27 2025.
