 Gaussian 16, Revision C.01,

 ----------------------------------------------------------------------
 #t hf aug-cc-pvdz symm=none int=(grid=ultrafine) guess=(read,tcheck) s
 table=(opt,rrhf)
 ----------------------------------------------------------------------
 -----
 title
 -----
 Symbolic Z-matrix:
 Charge =  0 Multiplicity = 1

 SCF Done:  E(RHF) =  -648.283963843     A.U. after   15 cycles
 Normal termination of Gaussian 16 at Wed Apr  9 00:43:06 2025.
 Gaussian 16:  ES64L-G16RevC.01  3-Jul-2019

 ----------------------------------------------------------------------
 #t hf aug-cc-pvdz iop(5/13=1,5/36=2,99/5=2) pseudo=read geom=check gue
 ss=(read,tcheck) scf=(maxcycle=1)
 ----------------------------------------------------------------------
 -----
 title
 -----
 Structure from the checkpoint file:  "BDE49_nonexpt_759_mol1.chk"
 Charge =  0 Multiplicity = 1

                         Standard orientation:
 ---------------------------------------------------------------------
 Center     Atomic      Atomic             Coordinates (Angstroms)
 Number     Number       Type             X           Y           Z
 ---------------------------------------------------------------------
      1          6           0        2.217803   -0.012145    0.045257
      2          7           0        0.856154   -0.279857   -0.115958
      3          6           0       -0.145297    0.671709    0.030436
      4          5           0       -2.209637   -1.533718    0.464441
      5          8           0        3.060108   -0.863224   -0.070682
      6          1           0        2.411773    1.042252    0.282191
      7          8           0        0.065029    1.821411    0.330910
      8          1           0        0.616239   -1.240477   -0.328819
      9         15           0       -1.874572    0.084668   -0.374046
     10          1           0       -1.366866   -2.373222    0.485926
     11          1           0       -3.311542   -1.772356    0.835467
     12          1           0       -2.612050    1.078500    0.289447
 ---------------------------------------------------------------------

 SCF Done:  E(RHF) =  -648.400285982     A.U. after    2 cycles

 The electronic state is 1-A.
 Alpha  occ. eigenvalues --  -81.28086 -20.58518 -20.58124 -15.69773 -11.41437
 Alpha  occ. eigenvalues --  -11.39467  -7.78943  -7.66182  -4.93033  -4.92982
 Alpha  occ. eigenvalues --   -4.92647  -1.40087  -1.38235  -1.23112  -0.94040
 Alpha  occ. eigenvalues --   -0.85028  -0.83454  -0.73345  -0.72152  -0.68285
 Alpha  occ. eigenvalues --   -0.65735  -0.64301  -0.61277  -0.57363  -0.55148
 Alpha  occ. eigenvalues --   -0.51549  -0.49273  -0.45149  -0.44262  -0.37546
 Alpha virt. eigenvalues --    0.02313   0.03026   0.04257   0.04646   0.05608
 Alpha virt. eigenvalues --    0.06540   0.07483   0.07734   0.08328   0.09190
 Alpha virt. eigenvalues --    0.10592   0.11002   0.11679   0.12363   0.13113

 Mulliken charges:
               1
     1  C    0.805466
     2  N   -0.288219
     3  C    0.215983
     4  B   -0.380756
     5  O   -0.424987
     6  H   -0.149898
     7  O   -0.478702
     8  H   -0.070931
     9  P    0.024756
    10  H    0.263708
    11  H    0.330985
    12  H    0.152596
 Sum of Mulliken charges =  -0.00000

 Dipole moment (field-independent basis, Debye):
    X=             -3.5248    Y=             -1.2195    Z=              0.0515  Tot=              3.7301

 Test job not archived.
 1\1\GINC-SE058\SP\RHF\Aug-CC-pVDZ\C2H5B1N1O2P1\OHZDE\09-Apr-2025\0\\#t
  hf aug-cc-pvdz iop(5/13=1,5/36=2,99/5=2) pseudo=read geom=check guess
 =(read,tcheck) scf=(maxcycle=1)\\title\\0,1\C,0,2.217803,-0.012145,0.0
 45257\N,0,0.856154,-0.279857,-0.115958\C,0,-0.145297,0.671709,0.030436
 \B,0,-2.209637,-1.533718,0.464441\O,0,3.060108,-0.863225,-0.070682\H,0
 ,2.411773,1.042252,0.282191\O,0,0.065029,1.821411,0.33091\H,0,0.616239
 ,-1.240477,-0.328819\P,0,-1.874572,0.084668,-0.374046\H,0,-1.366866,-2
 .373222,0.485926\H,0,-3.311542,-1.772355,0.835467\H,0,-2.61205,1.0785,

 Normal termination of Gaussian 16 at Wed Apr  9 00:43:12 2025.
