 Gaussian 16, Revision C.01,

 ----------------------------------------------------------------------
 #t hf aug-cc-pvdz symm=none int=(grid=ultrafine) guess=(read,tcheck) s
 table=(opt,rrhf)
 ----------------------------------------------------------------------
 -----
 title
 -----
 Symbolic Z-matrix:
 Charge =  0 Multiplicity = 1

 SCF Done:  E(RHF) =  -1303.35062925     A.U. after   17 cycles
 Normal termination of Gaussian 16 at Tue Apr  8 23:42:22 2025.
 Gaussian 16:  ES64L-G16RevC.01  3-Jul-2019

 ----------------------------------------------------------------------
 #t hf aug-cc-pvdz iop(5/13=1,5/36=2,99/5=2) pseudo=read geom=check gue
 ss=(read,tcheck) scf=(maxcycle=1)
 ----------------------------------------------------------------------
 -----
 title
 -----
 Structure from the checkpoint file:  "BDE49_nonexpt_1649_mol1.chk"
 Charge =  0 Multiplicity = 1

                         Standard orientation:
 ---------------------------------------------------------------------
 Center     Atomic      Atomic             Coordinates (Angstroms)
 Number     Number       Type             X           Y           Z
 ---------------------------------------------------------------------
      1         14           0       -0.486112    0.022040    0.550773
      2          7           0       -1.074722    1.554021   -0.368808
      3         15           0        1.718495   -0.246009    0.099660
      4          7           0       -1.368964   -1.338814   -0.405920
      5          6           0       -1.145780    0.088340    2.267559
      6          8           0       -0.797145   -1.757988   -1.419065
      7          8           0        2.251427   -1.317876    0.941691
      8          8           0       -0.204827    2.369653   -0.686832
      9          8           0        2.385901    1.180374    0.321582
     10          8           0       -2.270390    1.695177   -0.565561
     11          8           0       -2.441685   -1.744980    0.003023
     12          1           0       -0.728581    0.944280    2.803951
     13          1           0       -0.865870   -0.824565    2.799053
     14          1           0       -2.234216    0.169199    2.240404
     15          8           0        1.781064   -0.388722   -1.490273
     16          1           0        1.196095   -1.094439   -1.815783
     17          1           0        2.006431    1.865488   -0.252128
 ---------------------------------------------------------------------

 SCF Done:  E(RHF) =  -1303.64995584     A.U. after    2 cycles

 The electronic state is 1-A.
 Alpha  occ. eigenvalues --  -81.45455 -69.21499 -20.67051 -20.66866 -20.66273
 Alpha  occ. eigenvalues --  -20.66022 -20.64633 -20.64397 -20.56042 -15.93196
 Alpha  occ. eigenvalues --  -15.93184 -11.29422  -7.93791  -6.96297  -5.08449
 Alpha  occ. eigenvalues --   -5.08361  -5.07988  -4.07091  -4.07003  -4.06841
 Alpha  occ. eigenvalues --   -1.58136  -1.57717  -1.41303  -1.40295  -1.40205
 Alpha  occ. eigenvalues --   -1.37502  -1.29427  -1.03944  -0.98824  -0.96115
 Alpha  occ. eigenvalues --   -0.87039  -0.85047  -0.82404  -0.79780  -0.77638
 Alpha  occ. eigenvalues --   -0.77443  -0.75996  -0.75015  -0.73736  -0.68455
 Alpha  occ. eigenvalues --   -0.64766  -0.63361  -0.63110  -0.62891  -0.61477
 Alpha  occ. eigenvalues --   -0.60695  -0.56920  -0.56588  -0.55119  -0.52736
 Alpha  occ. eigenvalues --   -0.52242  -0.51673  -0.51358  -0.51211  -0.46854
 Alpha virt. eigenvalues --    0.00861   0.02263   0.02521   0.04016   0.04562
 Alpha virt. eigenvalues --    0.05271   0.06214   0.07138   0.08076   0.08302
 Alpha virt. eigenvalues --    0.09058   0.09447   0.10029   0.11614   0.12204

 Mulliken charges:
               1
     1  Si   1.711703
     2  N    0.158818
     3  P    2.152622
     4  N    0.349862
     5  C    0.330926
     6  O   -0.625157
     7  O   -0.983650
     8  O   -0.555729
     9  O   -0.699482
    10  O   -0.497538
    11  O   -0.518621
    12  H   -0.242892
    13  H   -0.090238
    14  H   -0.132449
    15  O   -0.772109
    16  H    0.227874
    17  H    0.186061
 Sum of Mulliken charges =  -0.00000

 Dipole moment (field-independent basis, Debye):
    X=             -1.0661    Y=              1.7206    Z=              2.3402  Tot=              3.0941

 Test job not archived.
 1\1\GINC-SE095\SP\RHF\Aug-CC-pVDZ\C1H5N2O7P1Si1\OHZDE\08-Apr-2025\0\\#
 t hf aug-cc-pvdz iop(5/13=1,5/36=2,99/5=2) pseudo=read geom=check gues
 s=(read,tcheck) scf=(maxcycle=1)\\title\\0,1\Si,0,-0.486112,0.02204,0.
 550773\N,0,-1.074723,1.55402,-0.368808\P,0,1.718495,-0.246008,0.09966\
 N,0,-1.368963,-1.338815,-0.40592\C,0,-1.14578,0.088339,2.267559\O,0,-0
 .797144,-1.757988,-1.419065\O,0,2.251428,-1.317875,0.941691\O,0,-0.204
 828,2.369653,-0.686832\O,0,2.385901,1.180375,0.321582\O,0,-2.270391,1.
 695176,-0.565561\O,0,-2.441684,-1.744981,0.003023\H,0,-0.728581,0.9442

 Normal termination of Gaussian 16 at Tue Apr  8 23:42:34 2025.
