 Gaussian 16, Revision C.01,

 ----------------------------------------------------------------------
 #t hf aug-cc-pvdz symm=none int=(grid=ultrafine) guess=(read,tcheck) s
 table=(opt,rrhf)
 ----------------------------------------------------------------------
 -----
 title
 -----
 Symbolic Z-matrix:
 Charge =  0 Multiplicity = 1

 SCF Done:  E(RHF) =  -673.819721525     A.U. after   15 cycles
 Normal termination of Gaussian 16 at Wed Apr  9 00:02:28 2025.
 Gaussian 16:  ES64L-G16RevC.01  3-Jul-2019

 ----------------------------------------------------------------------
 #t hf aug-cc-pvdz iop(5/13=1,5/36=2,99/5=2) pseudo=read geom=check gue
 ss=(read,tcheck) scf=(maxcycle=1)
 ----------------------------------------------------------------------
 -----
 title
 -----
 Structure from the checkpoint file:  "BDE49_nonexpt_2164_mol1.chk"
 Charge =  0 Multiplicity = 1

                         Standard orientation:
 ---------------------------------------------------------------------
 Center     Atomic      Atomic             Coordinates (Angstroms)
 Number     Number       Type             X           Y           Z
 ---------------------------------------------------------------------
      1          6           0        2.210610    2.105742   -0.030771
      2          8           0        2.291893    0.716527   -0.318102
      3          6           0       -0.441667   -0.188116    0.159748
      4          6           0       -1.315043   -0.096679    1.254393
      5          6           0       -0.990957   -0.070915   -1.128846
      6          6           0       -2.356393    0.126205   -1.315484
      7          6           0       -3.205947    0.208365   -0.212543
      8          6           0       -2.683922    0.096532    1.073719
      9          1           0       -0.920350   -0.177161    2.262730
     10          1           0       -3.340733    0.162614    1.934334
     11          1           0       -0.344261   -0.129920   -1.999375
     12          1           0       -2.759689    0.214799   -2.318487
     13          1           0       -4.270056    0.360445   -0.356543
     14          1           0        2.930573    2.623747   -0.666921
     15          1           0        1.209574    2.500381   -0.238471
     16          1           0        2.459305    2.312758    1.017231
     17         14           0        1.398362   -0.469230    0.411329
     18          6           0        1.981684   -2.073509   -0.340478
     19          1           0        1.471210   -2.923297    0.121872
     20          1           0        3.058094   -2.199196   -0.196792
     21          1           0        1.777453   -2.100148   -1.414307
     22          1           0        1.626482   -0.453758    1.882518
 ---------------------------------------------------------------------

 SCF Done:  E(RHF) =  -673.971203644     A.U. after    2 cycles

 The electronic state is 1-A.
 Alpha  occ. eigenvalues --  -69.07846 -20.55412 -11.28566 -11.25050 -11.24980
 Alpha  occ. eigenvalues --  -11.24975 -11.24636 -11.24604 -11.22890 -11.21037
 Alpha  occ. eigenvalues --   -6.82714  -3.93596  -3.93468  -3.93450  -1.29778
 Alpha  occ. eigenvalues --   -1.14075  -1.01078  -1.00826  -0.94276  -0.91642
 Alpha  occ. eigenvalues --   -0.82720  -0.82292  -0.72173  -0.69045  -0.63863
 Alpha  occ. eigenvalues --   -0.63664  -0.62580  -0.62259  -0.59927  -0.59198
 Alpha  occ. eigenvalues --   -0.56111  -0.54855  -0.53092  -0.50758  -0.49695
 Alpha  occ. eigenvalues --   -0.48544  -0.47983  -0.44222  -0.42932  -0.34237
 Alpha  occ. eigenvalues --   -0.34154
 Alpha virt. eigenvalues --    0.03074   0.04059   0.04102   0.04759   0.05533
 Alpha virt. eigenvalues --    0.05721   0.06390   0.06737   0.07230   0.07562
 Alpha virt. eigenvalues --    0.07922   0.09396   0.09724   0.09997   0.10637

 Mulliken charges:
               1
     1  C    0.832873
     2  O   -0.923151
     3  C   -0.450999
     4  C    0.539723
     5  C    0.540018
     6  C    0.518708
     7  C    0.778013
     8  C    0.612060
     9  H   -0.696520
    10  H   -0.450730
    11  H   -0.712277
    12  H   -0.449333
    13  H   -0.456624
    14  H   -0.294305
    15  H   -0.141345
    16  H   -0.148861
    17  Si   1.393520
    18  C    0.384188
    19  H   -0.348294
    20  H   -0.265391
    21  H   -0.198868
    22  H   -0.062407
 Sum of Mulliken charges =  -0.00000

 Dipole moment (field-independent basis, Debye):
    X=             -0.9934    Y=              0.5613    Z=              0.2088  Tot=              1.1599

 Test job not archived.
 1\1\GINC-SE070\SP\RHF\Aug-CC-pVDZ\C8H12O1Si1\OHZDE\09-Apr-2025\0\\#t h
 f aug-cc-pvdz iop(5/13=1,5/36=2,99/5=2) pseudo=read geom=check guess=(
 read,tcheck) scf=(maxcycle=1)\\title\\0,1\C,0,-2.21061,2.105742,0.0307
 71\O,0,-2.291893,0.716527,0.318102\C,0,0.441667,-0.188116,-0.159748\C,
 0,1.315043,-0.096679,-1.254393\C,0,0.990957,-0.070915,1.128846\C,0,2.3
 56393,0.126205,1.315484\C,0,3.205947,0.208365,0.212543\C,0,2.683922,0.
 096532,-1.073719\H,0,0.92035,-0.177161,-2.26273\H,0,3.340733,0.162614,
 -1.934334\H,0,0.344261,-0.12992,1.999375\H,0,2.759689,0.214799,2.31848

 Normal termination of Gaussian 16 at Wed Apr  9 00:02:43 2025.
