 Gaussian 16, Revision C.01,

 ----------------------------------------------------------------------
 #t hf aug-cc-pvdz symm=none int=(grid=ultrafine) guess=(read,tcheck) s
 table=(opt,rrhf)
 ----------------------------------------------------------------------
 -----
 title
 -----
 Symbolic Z-matrix:
 Charge =  0 Multiplicity = 1

 SCF Done:  E(RHF) =  -522.317481343     A.U. after   12 cycles
 Normal termination of Gaussian 16 at Wed Apr  9 00:05:00 2025.
 Gaussian 16:  ES64L-G16RevC.01  3-Jul-2019

 ----------------------------------------------------------------------
 #t hf aug-cc-pvdz iop(5/13=1,5/36=2,99/5=2) pseudo=read geom=check gue
 ss=(read,tcheck) scf=(maxcycle=1)
 ----------------------------------------------------------------------
 -----
 title
 -----
 Structure from the checkpoint file:  "BDE49_nonexpt_2244_mol1.chk"
 Charge =  0 Multiplicity = 1

                         Standard orientation:
 ---------------------------------------------------------------------
 Center     Atomic      Atomic             Coordinates (Angstroms)
 Number     Number       Type             X           Y           Z
 ---------------------------------------------------------------------
      1          6           0        2.038687   -0.310439    0.202720
      2          8           0        0.690755    0.003678   -0.145279
      3         14           0       -0.621427   -0.971543    0.099179
      4          6           0       -2.134257   -0.025420   -0.464488
      5          6           0        2.930711    0.866048   -0.153399
      6          1           0        2.361948   -1.210253   -0.337471
      7          1           0        2.104875   -0.527639    1.277215
      8          1           0        2.871105    1.078902   -1.223167
      9          1           0        3.972063    0.648532    0.101305
     10          1           0        2.618628    1.759908    0.391521
     11          6           0       -2.372042    1.302048    0.277257
     12          1           0       -2.999947   -0.689737   -0.346425
     13          1           0       -2.038218    0.153738   -1.541633
     14          1           0       -2.510159    1.139988    1.350388
     15          1           0       -3.263843    1.814023   -0.095549
     16          1           0       -1.522356    1.977507    0.153448
     17          1           0       -0.723013   -1.328926    1.541197
     18          1           0       -0.475731   -2.237284   -0.669646
 ---------------------------------------------------------------------

 SCF Done:  E(RHF) =  -522.427588753     A.U. after    2 cycles

 The electronic state is 1-A.
 Alpha  occ. eigenvalues --  -69.07719 -20.55423 -11.29279 -11.22661 -11.22588
 Alpha  occ. eigenvalues --  -11.21772  -6.82588  -3.93496  -3.93352  -3.93336
 Alpha  occ. eigenvalues --   -1.30000  -1.01410  -1.00305  -0.84912  -0.83511
 Alpha  occ. eigenvalues --   -0.71546  -0.65698  -0.62211  -0.60110  -0.59165
 Alpha  occ. eigenvalues --   -0.56362  -0.54405  -0.53480  -0.51349  -0.49384
 Alpha  occ. eigenvalues --   -0.47502  -0.47394  -0.43568  -0.42405
 Alpha virt. eigenvalues --    0.03387   0.04361   0.04806   0.04958   0.05900
 Alpha virt. eigenvalues --    0.06035   0.06393   0.07196   0.07678   0.08419
 Alpha virt. eigenvalues --    0.08964   0.09599   0.10611   0.11285   0.11605

 Mulliken charges:
               1
     1  C    0.720469
     2  O   -0.955460
     3  Si   0.898122
     4  C    0.118071
     5  C    0.204765
     6  H   -0.207524
     7  H   -0.200826
     8  H   -0.067980
     9  H   -0.043146
    10  H   -0.070009
    11  C    0.242675
    12  H   -0.208212
    13  H   -0.155688
    14  H   -0.109990
    15  H   -0.096846
    16  H   -0.108171
    17  H    0.055617
    18  H   -0.015866
 Sum of Mulliken charges =   0.00000

 Dipole moment (field-independent basis, Debye):
    X=              0.4395    Y=             -0.2445    Z=              0.1875  Tot=              0.5367

 Test job not archived.
 1\1\GINC-SE342\SP\RHF\Aug-CC-pVDZ\C4H12O1Si1\OHZDE\09-Apr-2025\0\\#t h
 f aug-cc-pvdz iop(5/13=1,5/36=2,99/5=2) pseudo=read geom=check guess=(
 read,tcheck) scf=(maxcycle=1)\\title\\0,1\C,0,2.038687,-0.310439,0.202
 72\O,0,0.690755,0.003678,-0.145279\Si,0,-0.621427,-0.971543,0.099179\C
 ,0,-2.134257,-0.02542,-0.464488\C,0,2.930711,0.866048,-0.153399\H,0,2.
 361948,-1.210253,-0.337471\H,0,2.104875,-0.527639,1.277215\H,0,2.87110
 5,1.078902,-1.223167\H,0,3.972063,0.648532,0.101305\H,0,2.618628,1.759
 908,0.391521\C,0,-2.372042,1.302048,0.277257\H,0,-2.999947,-0.689737,-

 Normal termination of Gaussian 16 at Wed Apr  9 00:05:06 2025.
