 Gaussian 16, Revision C.01,

 ----------------------------------------------------------------------
 #t hf aug-cc-pvdz symm=none int=(grid=ultrafine) guess=(read,tcheck) s
 table=(opt,rrhf)
 ----------------------------------------------------------------------
 -----
 title
 -----
 Symbolic Z-matrix:
 Charge =  0 Multiplicity = 1

 SCF Done:  E(RHF) =  -212.354302597     A.U. after   12 cycles

 1\1\GINC-SE453\Stability\RHF\Aug-CC-pVDZ\C4H11N1\OHZDE\08-Apr-2025\0\\
 #t hf aug-cc-pvdz symm=none int=(grid=ultrafine) guess=(read,tcheck) s
 table=(opt,rrhf)\\title\\0,1\C,0,-1.258248,-0.797612,-0.368118\C,0,0.,
 -0.00496,0.015393\H,0,-2.163524,-0.251748,-0.081689\H,0,-1.268641,-1.7
 61408,0.145318\H,0,-1.301205,-0.971722,-1.446665\C,0,1.258248,-0.79761
 1,-0.368118\H,0,1.268642,-1.761408,0.145318\H,0,2.163524,-0.251747,-0.
 081689\H,0,1.301205,-0.971722,-1.446665\N,0,0.,0.134111,1.486172\H,0,0
 .813396,0.66951,1.780061\H,0,-0.813396,0.66951,1.780061\C,0,0.,1.36027

 Normal termination of Gaussian 16 at Tue Apr  8 22:36:39 2025.
 Gaussian 16:  ES64L-G16RevC.01  3-Jul-2019

 ----------------------------------------------------------------------
 #t hf aug-cc-pvdz iop(5/13=1,5/36=2,99/5=2) pseudo=read geom=check gue
 ss=(read,tcheck) scf=(maxcycle=1)
 ----------------------------------------------------------------------
 -----
 title
 -----
 Structure from the checkpoint file:  "BDE49_expt_1196_mol1.chk"
 Charge =  0 Multiplicity = 1

                         Standard orientation:
 ---------------------------------------------------------------------
 Center     Atomic      Atomic             Coordinates (Angstroms)
 Number     Number       Type             X           Y           Z
 ---------------------------------------------------------------------
      1          6           0       -1.258255   -0.797601   -0.368118
      2          6           0       -0.000000   -0.004960    0.015393
      3          1           0       -2.163526   -0.251729   -0.081689
      4          1           0       -1.268657   -1.761397    0.145318
      5          1           0       -1.301214   -0.971710   -1.446665
      6          6           0        1.258241   -0.797622   -0.368118
      7          1           0        1.268626   -1.761419    0.145318
      8          1           0        2.163522   -0.251766   -0.081689
      9          1           0        1.301196   -0.971733   -1.446665
     10          7           0        0.000001    0.134111    1.486172
     11          1           0        0.813402    0.669503    1.780061
     12          1           0       -0.813390    0.669517    1.780061
     13          6           0        0.000012    1.360277   -0.704153
     14          1           0        0.000011    1.247299   -1.793227
     15          1           0        0.885073    1.942037   -0.427026
     16          1           0       -0.885040    1.942052   -0.427026
 ---------------------------------------------------------------------

 SCF Done:  E(RHF) =  -212.421968471     A.U. after    2 cycles

 The electronic state is 1-A.
 Alpha  occ. eigenvalues --  -15.60020 -11.26935 -11.22243 -11.21890 -11.21883
 Alpha  occ. eigenvalues --   -1.16035  -1.01372  -0.92868  -0.92824  -0.74920
 Alpha  occ. eigenvalues --   -0.65339  -0.62864  -0.60416  -0.57613  -0.54797
 Alpha  occ. eigenvalues --   -0.52839  -0.51382  -0.50146  -0.47461  -0.46333
 Alpha  occ. eigenvalues --   -0.38267
 Alpha virt. eigenvalues --    0.03404   0.04497   0.04552   0.04931   0.06995
 Alpha virt. eigenvalues --    0.07156   0.07319   0.07494   0.07751   0.09453
 Alpha virt. eigenvalues --    0.09786   0.12295   0.14616   0.14661   0.15504

 Mulliken charges:
               1
     1  C    1.217786
     2  C   -3.561037
     3  H   -0.062392
     4  H    0.014931
     5  H    0.013575
     6  C    1.217784
     7  H    0.014932
     8  H   -0.062392
     9  H    0.013575
    10  N   -0.004500
    11  H   -0.001937
    12  H   -0.001937
    13  C    1.260514
    14  H    0.009993
    15  H   -0.034447
    16  H   -0.034446
 Sum of Mulliken charges =  -0.00000

 Dipole moment (field-independent basis, Debye):
    X=              0.0000    Y=              1.1505    Z=             -0.5964  Tot=              1.2959

 Test job not archived.
 1\1\GINC-SE453\SP\RHF\Aug-CC-pVDZ\C4H11N1\OHZDE\08-Apr-2025\0\\#t hf a
 ug-cc-pvdz iop(5/13=1,5/36=2,99/5=2) pseudo=read geom=check guess=(rea
 d,tcheck) scf=(maxcycle=1)\\title\\0,1\C,0,-1.258248,-0.797612,-0.3681
 18\C,0,0.,-0.00496,0.015393\H,0,-2.163524,-0.251748,-0.081689\H,0,-1.2
 68641,-1.761408,0.145318\H,0,-1.301205,-0.971722,-1.446665\C,0,1.25824
 8,-0.797611,-0.368118\H,0,1.268642,-1.761408,0.145318\H,0,2.163524,-0.
 251747,-0.081689\H,0,1.301205,-0.971722,-1.446665\N,0,0.,0.134111,1.48
 6172\H,0,0.813396,0.66951,1.780061\H,0,-0.813396,0.66951,1.780061\C,0,

 Normal termination of Gaussian 16 at Tue Apr  8 22:36:43 2025.
