 Gaussian 16, Revision C.01,

 ----------------------------------------------------------------------
 #t hf aug-cc-pvdz symm=none int=(grid=ultrafine) guess=(read,tcheck) s
 table=(opt,rrhf)
 ----------------------------------------------------------------------
 -----
 title
 -----
 Symbolic Z-matrix:
 Charge =  0 Multiplicity = 1

 SCF Done:  E(RHF) =  -1281.62998749     A.U. after   17 cycles
 Normal termination of Gaussian 16 at Tue Apr  8 23:25:23 2025.
 Gaussian 16:  ES64L-G16RevC.01  3-Jul-2019

 ----------------------------------------------------------------------
 #t hf aug-cc-pvdz iop(5/13=1,5/36=2,99/5=2) pseudo=read geom=check gue
 ss=(read,tcheck) scf=(maxcycle=1)
 ----------------------------------------------------------------------
 -----
 title
 -----
 Structure from the checkpoint file:  "BDE49_nonexpt_1264_mol1.chk"
 Charge =  0 Multiplicity = 1

                         Standard orientation:
 ---------------------------------------------------------------------
 Center     Atomic      Atomic             Coordinates (Angstroms)
 Number     Number       Type             X           Y           Z
 ---------------------------------------------------------------------
      1          6           0       -0.779195   -0.237852   -0.296288
      2          6           0       -1.751687    0.315551   -1.136960
      3          1           0       -1.467945    0.699675   -2.110248
      4          6           0       -3.082075    0.375445   -0.726685
      5          1           0       -3.829397    0.804730   -1.384127
      6          6           0       -3.449751   -0.125512    0.519135
      7          1           0       -4.485904   -0.085629    0.835579
      8          6           0       -2.485576   -0.684820    1.358754
      9          1           0       -2.771233   -1.078606    2.327608
     10          6           0       -1.155228   -0.738844    0.957199
     11          1           0       -0.411057   -1.181880    1.609104
     12         15           0        0.955544   -0.248476   -0.919942
     13         17           0        1.621023   -2.152800   -0.355722
     14          6           0        1.719439    0.717764    0.548494
     15          8           0        2.437240    0.242729    1.385024
     16          6           0        1.392602    2.207465    0.556150
     17          9           0        0.667178    2.558776   -0.578598
     18          1           0        2.323925    2.779178    0.574247
     19          1           0        0.797363    2.441275    1.442617
 ---------------------------------------------------------------------

 SCF Done:  E(RHF) =  -1281.81744710     A.U. after    2 cycles

 The electronic state is 1-A.
 Alpha  occ. eigenvalues -- -103.65516 -81.32854 -26.13881 -20.60031 -11.37387
 Alpha  occ. eigenvalues --  -11.35670 -11.27413 -11.27055 -11.26887 -11.26806
 Alpha  occ. eigenvalues --  -11.26261 -11.26224 -10.68841  -8.34545  -8.34265
 Alpha  occ. eigenvalues --   -8.34256  -7.82683  -4.96616  -4.96516  -4.96265
 Alpha  occ. eigenvalues --   -1.67116  -1.39154  -1.16468  -1.13657  -1.04100
 Alpha  occ. eigenvalues --   -1.03148  -1.02959  -0.88153  -0.84916  -0.83455
 Alpha  occ. eigenvalues --   -0.77867  -0.77565  -0.76423  -0.73147  -0.70133
 Alpha  occ. eigenvalues --   -0.65618  -0.65073  -0.63610  -0.62367  -0.62183
 Alpha  occ. eigenvalues --   -0.61122  -0.57795  -0.54311  -0.53005  -0.51944
 Alpha  occ. eigenvalues --   -0.50965  -0.48865  -0.47512  -0.43296  -0.37926
 Alpha  occ. eigenvalues --   -0.35934  -0.35152
 Alpha virt. eigenvalues --    0.02929   0.03891   0.03920   0.05019   0.05415
 Alpha virt. eigenvalues --    0.06136   0.06500   0.07193   0.07471   0.08624
 Alpha virt. eigenvalues --    0.09410   0.09646   0.10306   0.10542   0.11332

 Mulliken charges:
               1
     1  C    0.213873
     2  C    0.211606
     3  H   -0.556877
     4  C    0.499829
     5  H   -0.443252
     6  C    0.660034
     7  H   -0.431965
     8  C    0.605467
     9  H   -0.451768
    10  C    0.519696
    11  H   -0.631154
    12  P    0.430855
    13  Cl  -0.452041
    14  C    0.084234
    15  O   -0.511141
    16  C    0.674017
    17  F   -0.374627
    18  H   -0.030027
    19  H   -0.016758
 Sum of Mulliken charges =   0.00000

 Dipole moment (field-independent basis, Debye):
    X=             -3.0981    Y=              2.4616    Z=              0.4078  Tot=              3.9780

 Test job not archived.
 1\1\GINC-SE398\SP\RHF\Aug-CC-pVDZ\C8H7Cl1F1O1P1\OHZDE\08-Apr-2025\0\\#
 t hf aug-cc-pvdz iop(5/13=1,5/36=2,99/5=2) pseudo=read geom=check gues
 s=(read,tcheck) scf=(maxcycle=1)\\title\\0,1\C,0,-0.779195,-0.237852,-
 0.296288\C,0,-1.751687,0.315551,-1.13696\H,0,-1.467945,0.699675,-2.110
 248\C,0,-3.082075,0.375445,-0.726685\H,0,-3.829397,0.80473,-1.384127\C
 ,0,-3.449751,-0.125512,0.519135\H,0,-4.485904,-0.08563,0.835579\C,0,-2
 .485576,-0.68482,1.358754\H,0,-2.771233,-1.078606,2.327608\C,0,-1.1552
 28,-0.738844,0.957199\H,0,-0.411057,-1.18188,1.609104\P,0,0.955544,-0.

 Normal termination of Gaussian 16 at Tue Apr  8 23:25:37 2025.
