 Gaussian 16, Revision C.01,

 ----------------------------------------------------------------------
 #t hf aug-cc-pvdz symm=none int=(grid=ultrafine) guess=(read,tcheck) s
 table=(opt,rrhf)
 ----------------------------------------------------------------------
 -----
 title
 -----
 Symbolic Z-matrix:
 Charge =  0 Multiplicity = 1

 SCF Done:  E(RHF) =  -463.012604962     A.U. after   12 cycles
 Normal termination of Gaussian 16 at Wed Apr  9 00:33:15 2025.
 Gaussian 16:  ES64L-G16RevC.01  3-Jul-2019

 ----------------------------------------------------------------------
 #t hf aug-cc-pvdz iop(5/13=1,5/36=2,99/5=2) pseudo=read geom=check gue
 ss=(read,tcheck) scf=(maxcycle=1)
 ----------------------------------------------------------------------
 -----
 title
 -----
 Structure from the checkpoint file:  "BDE49_nonexpt_450_mol1.chk"
 Charge =  0 Multiplicity = 1

                         Standard orientation:
 ---------------------------------------------------------------------
 Center     Atomic      Atomic             Coordinates (Angstroms)
 Number     Number       Type             X           Y           Z
 ---------------------------------------------------------------------
      1          1           0        2.561110    0.160342    0.000079
      2          1           0        1.240692    1.777414   -0.000013
      3         16           0        0.152638   -0.571950   -0.000006
      4          5           0        1.461764    0.609783   -0.000034
      5          6           0       -1.403287    0.401634    0.000021
      6          1           0       -1.979094    0.144580   -0.888785
      7          1           0       -1.174936    1.465586    0.000030
      8          1           0       -1.979083    0.144562    0.888828
 ---------------------------------------------------------------------

 SCF Done:  E(RHF) =  -463.055498591     A.U. after    2 cycles

 The electronic state is 1-A.
 Alpha  occ. eigenvalues --  -93.53414 -11.27271  -8.83423  -7.63284  -6.17552
 Alpha  occ. eigenvalues --   -6.17295  -6.17137  -1.03158  -0.87690  -0.66959
 Alpha  occ. eigenvalues --   -0.59722  -0.59697  -0.53801  -0.48147  -0.42532
 Alpha  occ. eigenvalues --   -0.37815
 Alpha virt. eigenvalues --    0.03579   0.04785   0.04907   0.05373   0.06563
 Alpha virt. eigenvalues --    0.07321   0.08147   0.11236   0.11741   0.12359
 Alpha virt. eigenvalues --    0.13399   0.14534   0.14820   0.16261   0.17326

 Mulliken charges:
               1
     1  H    0.285343
     2  H    0.175851
     3  S    0.054527
     4  B   -0.261574
     5  C    0.040437
     6  H   -0.035016
     7  H   -0.224547
     8  H   -0.035021
 Sum of Mulliken charges =  -0.00000

 Dipole moment (field-independent basis, Debye):
    X=             -1.3345    Y=              1.0192    Z=             -0.0001  Tot=              1.6792

 Test job not archived.
 1\1\GINC-SE166\SP\RHF\Aug-CC-pVDZ\C1H5B1S1\OHZDE\09-Apr-2025\0\\#t hf
 aug-cc-pvdz iop(5/13=1,5/36=2,99/5=2) pseudo=read geom=check guess=(re
 ad,tcheck) scf=(maxcycle=1)\\title\\0,1\H,0,2.56111,0.160343,0.000079\
 H,0,1.240691,1.777415,-0.000013\S,0,0.152638,-0.57195,-0.000006\B,0,1.
 461764,0.609784,-0.000034\C,0,-1.403287,0.401634,0.000021\H,0,-1.97909
 4,0.14458,-0.888785\H,0,-1.174936,1.465586,0.00003\H,0,-1.979083,0.144
 562,0.888828\\Version=ES64L-G16RevC.01\State=1-A\HF=-463.0554986\RMSD=
 5.097e-03\Dipole=-0.5250222,0.4009886,-0.000022\Quadrupole=1.0871202,-

 Normal termination of Gaussian 16 at Wed Apr  9 00:33:18 2025.
