 Gaussian 16, Revision C.01,

 ----------------------------------------------------------------------
 #t hf aug-cc-pvdz symm=none int=(grid=ultrafine) guess=(read,tcheck) s
 table=(opt,rrhf)
 ----------------------------------------------------------------------
 -----
 title
 -----
 Symbolic Z-matrix:
 Charge =  0 Multiplicity = 1

 SCF Done:  E(RHF) =  -376.950640227     A.U. after   13 cycles
 Normal termination of Gaussian 16 at Tue Apr  8 23:03:08 2025.
 Gaussian 16:  ES64L-G16RevC.01  3-Jul-2019

 ----------------------------------------------------------------------
 #t hf aug-cc-pvdz iop(5/13=1,5/36=2,99/5=2) pseudo=read geom=check gue
 ss=(read,tcheck) scf=(maxcycle=1)
 ----------------------------------------------------------------------
 -----
 title
 -----
 Structure from the checkpoint file:  "BDE49_expt_371_mol1.chk"
 Charge =  0 Multiplicity = 1

                         Standard orientation:
 ---------------------------------------------------------------------
 Center     Atomic      Atomic             Coordinates (Angstroms)
 Number     Number       Type             X           Y           Z
 ---------------------------------------------------------------------
      1          7           0        2.867819    0.229792    0.189304
      2          6           0        1.717480   -0.655639    0.233876
      3          6           0        0.383320   -0.017448   -0.142660
      4          1           0        1.878020   -1.512965   -0.427256
      5          1           0        1.607574   -1.075288    1.238826
      6          8           0        0.242634    1.144360   -0.446544
      7          8           0       -0.618248   -0.911765   -0.094725
      8          6           0       -1.944591   -0.372690   -0.406067
      9          7           0       -2.436619    0.455652    0.643216
     10          1           0       -2.554825   -1.266695   -0.515210
     11          1           0       -1.850425    0.139651   -1.365988
     12          1           0        2.701850    1.025603    0.798418
     13          1           0        2.954075    0.622785   -0.743411
     14          1           0       -3.377756    0.240386    0.933662
     15          1           0       -2.309260    1.442316    0.472578
 ---------------------------------------------------------------------

 SCF Done:  E(RHF) =  -377.069715362     A.U. after    2 cycles

 The electronic state is 1-A.
 Alpha  occ. eigenvalues --  -20.61126 -20.56022 -15.62044 -15.61189 -11.38912
 Alpha  occ. eigenvalues --  -11.33634 -11.27962  -1.41746  -1.32291  -1.16620
 Alpha  occ. eigenvalues --   -1.15464  -0.97643  -0.89743  -0.77594  -0.73150
 Alpha  occ. eigenvalues --   -0.70267  -0.68935  -0.67517  -0.66811  -0.59514
 Alpha  occ. eigenvalues --   -0.58375  -0.57872  -0.53889  -0.52030  -0.48866
 Alpha  occ. eigenvalues --   -0.47460  -0.41527  -0.39692
 Alpha virt. eigenvalues --    0.03152   0.04338   0.04527   0.04937   0.05897
 Alpha virt. eigenvalues --    0.06040   0.07685   0.08872   0.09545   0.12138
 Alpha virt. eigenvalues --    0.12817   0.13772   0.14477   0.15007   0.15959

 Mulliken charges:
               1
     1  N   -0.385512
     2  C    0.672217
     3  C    0.385279
     4  H   -0.028577
     5  H   -0.019864
     6  O   -0.509451
     7  O   -0.593975
     8  C    1.091011
     9  N   -0.300582
    10  H   -0.317594
    11  H   -0.094887
    12  H    0.041057
    13  H    0.038736
    14  H   -0.013489
    15  H    0.035632
 Sum of Mulliken charges =  -0.00000

 Dipole moment (field-independent basis, Debye):
    X=             -2.5669    Y=             -0.6530    Z=             -0.5468  Tot=              2.7045

 Test job not archived.
 1\1\GINC-SE051\SP\RHF\Aug-CC-pVDZ\C3H8N2O2\OHZDE\08-Apr-2025\0\\#t hf
 aug-cc-pvdz iop(5/13=1,5/36=2,99/5=2) pseudo=read geom=check guess=(re
 ad,tcheck) scf=(maxcycle=1)\\title\\0,1\N,0,2.867819,0.229792,0.189304
 \C,0,1.71748,-0.655639,0.233876\C,0,0.38332,-0.017448,-0.14266\H,0,1.8
 7802,-1.512965,-0.427256\H,0,1.607574,-1.075288,1.238826\O,0,0.242634,
 1.14436,-0.446544\O,0,-0.618248,-0.911765,-0.094725\C,0,-1.944591,-0.3
 7269,-0.406067\N,0,-2.436619,0.455652,0.643216\H,0,-2.554825,-1.266695
 ,-0.51521\H,0,-1.850425,0.139651,-1.365988\H,0,2.70185,1.025603,0.7984

 Normal termination of Gaussian 16 at Tue Apr  8 23:03:13 2025.
