 Gaussian 16, Revision C.01,

 ----------------------------------------------------------------------
 #t hf aug-cc-pvdz symm=none int=(grid=ultrafine) guess=(read,tcheck) s
 table=(opt,rrhf)
 ----------------------------------------------------------------------
 -----
 title
 -----
 Symbolic Z-matrix:
 Charge =  0 Multiplicity = 1

 SCF Done:  E(RHF) =  -323.222612882     A.U. after   10 cycles
 Normal termination of Gaussian 16 at Wed Apr  9 00:32:11 2025.
 Gaussian 16:  ES64L-G16RevC.01  3-Jul-2019

 ----------------------------------------------------------------------
 #t hf aug-cc-pvdz iop(5/13=1,5/36=2,99/5=2) pseudo=read geom=check gue
 ss=(read,tcheck) scf=(maxcycle=1)
 ----------------------------------------------------------------------
 -----
 title
 -----
 Structure from the checkpoint file:  "BDE49_nonexpt_421_mol1.chk"
 Charge =  0 Multiplicity = 1

                         Standard orientation:
 ---------------------------------------------------------------------
 Center     Atomic      Atomic             Coordinates (Angstroms)
 Number     Number       Type             X           Y           Z
 ---------------------------------------------------------------------
      1          9           0       -0.152371   -1.307183    0.000000
      2          5           0       -0.000000    0.000002    0.000000
      3          9           0       -1.055874    0.785550    0.000000
      4          9           0        1.208245    0.521632   -0.000000
 ---------------------------------------------------------------------

 SCF Done:  E(RHF) =  -323.359340172     A.U. after    2 cycles

 The electronic state is 1-A'.
 Alpha  occ. eigenvalues --  -26.16762 -26.16762 -26.16750  -7.82014  -1.73142
 Alpha  occ. eigenvalues --   -1.70251  -1.70251  -0.91955  -0.87554  -0.87554
 Alpha  occ. eigenvalues --   -0.81911  -0.76466  -0.76466  -0.75187  -0.75187
 Alpha  occ. eigenvalues --   -0.73160
 Alpha virt. eigenvalues --    0.04796   0.05212   0.05966   0.05966   0.17771
 Alpha virt. eigenvalues --    0.19668   0.20708   0.20708   0.26179   0.26179
 Alpha virt. eigenvalues --    0.27019   0.27019   0.28830   0.29104   0.34617

 Mulliken charges:
               1
     1  F   -0.387229
     2  B    1.161685
     3  F   -0.387228
     4  F   -0.387228
 Sum of Mulliken charges =  -0.00000

 Dipole moment (field-independent basis, Debye):
    X=              0.0000    Y=              0.0000    Z=             -0.0000  Tot=              0.0000

 Test job not archived.
 1\1\GINC-SE132\SP\RHF\Aug-CC-pVDZ\B1F3\OHZDE\09-Apr-2025\0\\#t hf aug-
 cc-pvdz iop(5/13=1,5/36=2,99/5=2) pseudo=read geom=check guess=(read,t
 check) scf=(maxcycle=1)\\title\\0,1\F,0,0.152371,1.307183,0.\B,0,0.,-0
 .000002,0.\F,0,1.055874,-0.78555,0.\F,0,-1.208245,-0.521632,0.\\Versio
 n=ES64L-G16RevC.01\State=1-A'\HF=-323.3593402\RMSD=6.260e-03\Dipole=-0
 .0000003,-0.0000046,0.\Quadrupole=-1.212238,-1.2122109,2.4244489,0.000
 0064,0.,0.\PG=CS [SG(B1F3)]\\@

 Normal termination of Gaussian 16 at Wed Apr  9 00:32:13 2025.
