 Gaussian 16, Revision C.01,

 ----------------------------------------------------------------------
 #t hf aug-cc-pvdz symm=none int=(grid=ultrafine) guess=(read,tcheck) s
 table=opt
 ----------------------------------------------------------------------
 -----
 title
 -----
 Symbolic Z-matrix:
 Charge =  0 Multiplicity = 2

 SCF Done:  E(UHF) =  -152.321017240     A.U. after   18 cycles
 Normal termination of Gaussian 16 at Tue Apr  8 22:31:19 2025.
 Gaussian 16:  ES64L-G16RevC.01  3-Jul-2019

 ----------------------------------------------------------------------
 #t hf aug-cc-pvdz iop(5/13=1,5/36=2,99/5=2) pseudo=read geom=check gue
 ss=(read,tcheck) scf=(maxcycle=1)
 ----------------------------------------------------------------------
 -----
 title
 -----
 Structure from the checkpoint file:  "BDE49_expt_1088_mol3.chk"
 Charge =  0 Multiplicity = 2

                         Standard orientation:
 ---------------------------------------------------------------------
 Center     Atomic      Atomic             Coordinates (Angstroms)
 Number     Number       Type             X           Y           Z
 ---------------------------------------------------------------------
      1          6           0       -0.248525   -0.433907    0.000009
      2          8           0       -1.259397    0.175196   -0.000015
      3          6           0        1.168594    0.098243    0.000006
      4          1           0        1.180760    1.192849   -0.000041
      5          1           0        1.687013   -0.290255   -0.879442
      6          1           0        1.686984   -0.290178    0.879506
 ---------------------------------------------------------------------

 SCF Done:  E(UHF) =  -152.370953939     A.U. after    2 cycles

 The electronic state is 2-A.
 Alpha  occ. eigenvalues --  -20.61354 -11.35630 -11.27623  -1.40923  -1.03249
 Alpha  occ. eigenvalues --   -0.78460  -0.68990  -0.66238  -0.62844  -0.57502
 Alpha  occ. eigenvalues --   -0.54851  -0.37420
 Alpha virt. eigenvalues --    0.03294   0.05350   0.05627   0.07697   0.10382
 Alpha virt. eigenvalues --    0.11805   0.12112   0.14749   0.14766   0.15552
 Alpha virt. eigenvalues --    0.16569   0.21603   0.24536   0.25212   0.27287

  Beta  occ. eigenvalues --  -20.60281 -11.33649 -11.27080  -1.38138  -1.00532
  Beta  occ. eigenvalues --   -0.74334  -0.62894  -0.62255  -0.61390  -0.55142
  Beta  occ. eigenvalues --   -0.51091
  Beta virt. eigenvalues --    0.02722   0.05384   0.05692   0.07143   0.10206
  Beta virt. eigenvalues --    0.11175   0.12107   0.12772   0.14814   0.14828
  Beta virt. eigenvalues --    0.17468   0.18053   0.23406   0.25165   0.25407

 Mulliken charges and spin densities:
               1          2
     1  C    0.039564   0.745298
     2  O   -0.331326   0.155621
     3  C    0.284844   0.100082
     4  H   -0.033140   0.034751
     5  H    0.020027  -0.017876
     6  H    0.020031  -0.017875
 Sum of Mulliken charges =  -0.00000   1.00000

 Dipole moment (field-independent basis, Debye):
    X=              3.1732    Y=             -0.2188    Z=              0.0000  Tot=              3.1808
                          Isotropic Fermi Contact Couplings
        Atom                 a.u.       MegaHertz       Gauss      10(-4) cm-1
     1  C(13)              0.35008     393.56236     140.43284     131.27827
     2  O(17)              0.11019     -66.79739     -23.83497     -22.28121
     3  C(13)              0.11819     132.87171      47.41193      44.32123
     4  H(1)               0.00972      43.44485      15.50220      14.49164
     5  H(1)              -0.00261     -11.67432      -4.16569      -3.89413
     6  H(1)              -0.00261     -11.67445      -4.16573      -3.89418
 --------------------------------------------------------
       Center         ----  Spin Dipole Couplings  ----

 Normal termination of Gaussian 16 at Tue Apr  8 22:31:20 2025.
