 Gaussian 16, Revision C.01,

 ----------------------------------------------------------------------
 #t hf aug-cc-pvdz symm=none int=(grid=ultrafine) guess=(read,tcheck) s
 table=(opt,rrhf)
 ----------------------------------------------------------------------
 -----
 title
 -----
 Symbolic Z-matrix:
 Charge =  0 Multiplicity = 1

 SCF Done:  E(RHF) =  -629.452061798     A.U. after   14 cycles
 Normal termination of Gaussian 16 at Wed Apr  9 00:21:10 2025.
 Gaussian 16:  ES64L-G16RevC.01  3-Jul-2019

 ----------------------------------------------------------------------
 #t hf aug-cc-pvdz iop(5/13=1,5/36=2,99/5=2) pseudo=read geom=check gue
 ss=(read,tcheck) scf=(maxcycle=1)
 ----------------------------------------------------------------------
 -----
 title
 -----
 Structure from the checkpoint file:  "BDE49_nonexpt_2673_mol1.chk"
 Charge =  0 Multiplicity = 1

                         Standard orientation:
 ---------------------------------------------------------------------
 Center     Atomic      Atomic             Coordinates (Angstroms)
 Number     Number       Type             X           Y           Z
 ---------------------------------------------------------------------
      1          9           0        2.154351    0.762480    0.000014
      2         16           0        1.172887   -0.585516    0.000012
      3          6           0       -0.384499    0.248221   -0.000032
      4          7           0       -1.437212   -0.437117   -0.000005
      5          1           0       -0.288223    1.343083   -0.000045
      6          6           0       -2.716512    0.250470   -0.000004
      7          1           0       -3.288532   -0.057811    0.879533
      8          1           0       -3.288551   -0.057848   -0.879516
      9          1           0       -2.623503    1.346181   -0.000028
 ---------------------------------------------------------------------

 SCF Done:  E(RHF) =  -629.551761584     A.U. after    2 cycles

 The electronic state is 1-A.
 Alpha  occ. eigenvalues --  -93.63533 -26.14016 -15.64924 -11.34169 -11.27929
 Alpha  occ. eigenvalues --   -8.92488  -6.26668  -6.26306  -6.25848  -1.65183
 Alpha  occ. eigenvalues --   -1.23301  -1.03482  -0.93929  -0.80737  -0.74499
 Alpha  occ. eigenvalues --   -0.73263  -0.72235  -0.65644  -0.61233  -0.60307
 Alpha  occ. eigenvalues --   -0.51722  -0.49028  -0.42356  -0.36872
 Alpha virt. eigenvalues --    0.03276   0.04708   0.05449   0.06332   0.06616
 Alpha virt. eigenvalues --    0.08084   0.09880   0.11562   0.12196   0.13248
 Alpha virt. eigenvalues --    0.14689   0.15284   0.16225   0.16480   0.18115

 Mulliken charges:
               1
     1  F   -0.618514
     2  S    0.831252
     3  C    0.162796
     4  N   -0.440769
     5  H   -0.286250
     6  C    0.678589
     7  H   -0.112513
     8  H   -0.112512
     9  H   -0.102079
 Sum of Mulliken charges =  -0.00000

 Dipole moment (field-independent basis, Debye):
    X=             -2.2995    Y=              0.8194    Z=             -0.0000  Tot=              2.4412

 Test job not archived.
 1\1\GINC-SE227\SP\RHF\Aug-CC-pVDZ\C2H4F1N1S1\OHZDE\09-Apr-2025\0\\#t h
 f aug-cc-pvdz iop(5/13=1,5/36=2,99/5=2) pseudo=read geom=check guess=(
 read,tcheck) scf=(maxcycle=1)\\title\\0,1\F,0,-2.154351,0.76248,-0.000
 014\S,0,-1.172887,-0.585516,-0.000012\C,0,0.384499,0.248221,0.000032\N
 ,0,1.437212,-0.437117,0.000005\H,0,0.288223,1.343083,0.000045\C,0,2.71
 6512,0.25047,0.000004\H,0,3.288532,-0.057811,-0.879533\H,0,3.288551,-0
 .057848,0.879516\H,0,2.623503,1.346181,0.000028\\Version=ES64L-G16RevC
 .01\State=1-A\HF=-629.5517616\RMSD=4.211e-03\Dipole=0.9047125,0.322388

 Normal termination of Gaussian 16 at Wed Apr  9 00:21:14 2025.
