 Gaussian 16, Revision C.01,

 ----------------------------------------------------------------------
 #t hf aug-cc-pvdz symm=none int=(grid=ultrafine) guess=(read,tcheck) s
 table=opt
 ----------------------------------------------------------------------
 -----
 title
 -----
 Symbolic Z-matrix:
 Charge =  0 Multiplicity = 2

 SCF Done:  E(UHF) =  -336.322766632     A.U. after   22 cycles
 Normal termination of Gaussian 16 at Wed Apr  9 00:30:44 2025.
 Gaussian 16:  ES64L-G16RevC.01  3-Jul-2019

 ----------------------------------------------------------------------
 #t hf aug-cc-pvdz iop(5/13=1,5/36=2,99/5=2) pseudo=read geom=check gue
 ss=(read,tcheck) scf=(maxcycle=1)
 ----------------------------------------------------------------------
 -----
 title
 -----
 Structure from the checkpoint file:  "BDE49_nonexpt_381_mol2.chk"
 Charge =  0 Multiplicity = 2

                         Standard orientation:
 ---------------------------------------------------------------------
 Center     Atomic      Atomic             Coordinates (Angstroms)
 Number     Number       Type             X           Y           Z
 ---------------------------------------------------------------------
      1          9           0       -2.015700   -0.017117   -0.202619
      2          5           0       -0.945595   -0.027629    0.530975
      3          6           0        0.542788    0.133040    0.056415
      4          8           0        1.137394    1.151203   -0.070925
      5          9           0        1.168156   -1.079518   -0.066933
 ---------------------------------------------------------------------

 SCF Done:  E(UHF) =  -336.446326514     A.U. after    2 cycles

 The electronic state is 2-A.
 Alpha  occ. eigenvalues --  -26.19718 -26.17003 -20.63062 -11.44916  -7.76968
 Alpha  occ. eigenvalues --   -1.74272  -1.70911  -1.42968  -0.95973  -0.90247
 Alpha  occ. eigenvalues --   -0.84333  -0.81214  -0.79697  -0.78175  -0.76560
 Alpha  occ. eigenvalues --   -0.68318  -0.60974  -0.54837  -0.41381
 Alpha virt. eigenvalues --    0.02998   0.04172   0.05156   0.05430   0.07544
 Alpha virt. eigenvalues --    0.09625   0.12289   0.13156   0.13403   0.17219
 Alpha virt. eigenvalues --    0.21146   0.22589   0.24530   0.25318   0.25685

  Beta  occ. eigenvalues --  -26.19394 -26.17014 -20.62531 -11.44832  -7.74964
  Beta  occ. eigenvalues --   -1.73363  -1.70921  -1.41840  -0.94580  -0.89417
  Beta  occ. eigenvalues --   -0.82756  -0.79828  -0.79169  -0.78044  -0.75775
  Beta  occ. eigenvalues --   -0.67073  -0.57515  -0.53140
  Beta virt. eigenvalues --    0.01907   0.04227   0.04814   0.05404   0.06806
  Beta virt. eigenvalues --    0.09696   0.10982   0.12803   0.13910   0.15684
  Beta virt. eigenvalues --    0.17496   0.21766   0.22978   0.24867   0.26175

 Mulliken charges and spin densities:
               1          2
     1  F   -0.192395  -0.055369
     2  B    0.331699   0.973482
     3  C    0.589631  -0.039205
     4  O   -0.355648   0.119125
     5  F   -0.373287   0.001966
 Sum of Mulliken charges =  -0.00000   1.00000

 Dipole moment (field-independent basis, Debye):
    X=             -1.8082    Y=             -0.6247    Z=              0.7509  Tot=              2.0552
                          Isotropic Fermi Contact Couplings
        Atom                 a.u.       MegaHertz       Gauss      10(-4) cm-1
     1  F(19)              0.06321     265.93528      94.89232      88.70646
     2  B(11)              0.36735     526.90738     188.01366     175.75738
     3  C(13)              0.06877      77.31156      27.58669      25.78836
     4  O(17)              0.04293     -26.02343      -9.28581      -8.68048
     5  F(19)             -0.00409     -17.19336      -6.13502      -5.73509
 --------------------------------------------------------
       Center         ----  Spin Dipole Couplings  ----
                      3XX-RR        3YY-RR        3ZZ-RR

 Normal termination of Gaussian 16 at Wed Apr  9 00:30:46 2025.
