 Gaussian 16, Revision C.01,

 ----------------------------------------------------------------------
 #t hf aug-cc-pvdz symm=none int=(grid=ultrafine) guess=(read,tcheck) s
 table=(opt,rrhf)
 ----------------------------------------------------------------------
 -----
 title
 -----
 Symbolic Z-matrix:
 Charge =  0 Multiplicity = 1

 SCF Done:  E(RHF) =  -262.720875782     A.U. after   13 cycles
 Normal termination of Gaussian 16 at Tue Apr  8 22:36:27 2025.
 Gaussian 16:  ES64L-G16RevC.01  3-Jul-2019

 ----------------------------------------------------------------------
 #t hf aug-cc-pvdz iop(5/13=1,5/36=2,99/5=2) pseudo=read geom=check gue
 ss=(read,tcheck) scf=(maxcycle=1)
 ----------------------------------------------------------------------
 -----
 title
 -----
 Structure from the checkpoint file:  "BDE49_expt_1175_mol1.chk"
 Charge =  0 Multiplicity = 1

                         Standard orientation:
 ---------------------------------------------------------------------
 Center     Atomic      Atomic             Coordinates (Angstroms)
 Number     Number       Type             X           Y           Z
 ---------------------------------------------------------------------
      1          6           0       -1.879204   -0.160136   -0.000543
      2          7           0       -2.970627    0.208442    0.000232
      3          6           0        1.879209    0.160150    0.000556
      4          7           0        2.970618   -0.208471   -0.000256
      5          6           0        0.487732    0.601568   -0.000120
      6          6           0       -0.487728   -0.601554    0.000131
      7          1           0        0.313630    1.226082   -0.879955
      8          1           0        0.313108    1.226893    0.879033
      9          1           0       -0.313625   -1.226068    0.879966
     10          1           0       -0.313103   -1.226879   -0.879022
 ---------------------------------------------------------------------

 SCF Done:  E(RHF) =  -262.798754303     A.U. after    2 cycles

 The electronic state is 1-A.
 Alpha  occ. eigenvalues --  -15.66218 -15.66218 -11.33139 -11.33089 -11.31037
 Alpha  occ. eigenvalues --  -11.31037  -1.22204  -1.21455  -1.12312  -0.98298
 Alpha  occ. eigenvalues --   -0.75790  -0.70918  -0.69567  -0.62688  -0.60545
 Alpha  occ. eigenvalues --   -0.57032  -0.56241  -0.49647  -0.48246  -0.48054
 Alpha  occ. eigenvalues --   -0.47327
 Alpha virt. eigenvalues --    0.02528   0.03704   0.03933   0.06458   0.06972
 Alpha virt. eigenvalues --    0.09351   0.10167   0.10309   0.10970   0.11978
 Alpha virt. eigenvalues --    0.13274   0.13731   0.14998   0.15267   0.15461

 Mulliken charges:
               1
     1  C   -0.332819
     2  N   -0.155815
     3  C   -0.332812
     4  N   -0.155815
     5  C    0.514777
     6  C    0.514787
     7  H   -0.012966
     8  H   -0.013185
     9  H   -0.012969
    10  H   -0.013183
 Sum of Mulliken charges =  -0.00000

 Dipole moment (field-independent basis, Debye):
    X=              0.0000    Y=              0.0001    Z=              0.0001  Tot=              0.0001

 Test job not archived.
 1\1\GINC-SE094\SP\RHF\Aug-CC-pVDZ\C4H4N2\OHZDE\08-Apr-2025\0\\#t hf au
 g-cc-pvdz iop(5/13=1,5/36=2,99/5=2) pseudo=read geom=check guess=(read
 ,tcheck) scf=(maxcycle=1)\\title\\0,1\C,0,-1.879204,-0.160136,-0.00054
 3\N,0,-2.970627,0.208442,0.000232\C,0,1.879209,0.16015,0.000556\N,0,2.
 970618,-0.208471,-0.000256\C,0,0.487732,0.601568,-0.00012\C,0,-0.48772
 8,-0.601554,0.000131\H,0,0.31363,1.226082,-0.879955\H,0,0.313108,1.226
 893,0.879033\H,0,-0.313625,-1.226068,0.879966\H,0,-0.313103,-1.226879,
 -0.879022\\Version=ES64L-G16RevC.01\State=1-A\HF=-262.7987543\RMSD=4.0

 Normal termination of Gaussian 16 at Tue Apr  8 22:36:30 2025.
