 Gaussian 16, Revision C.01,

 ----------------------------------------------------------------------
 #t hf aug-cc-pvdz symm=none int=(grid=ultrafine) guess=(read,tcheck) s
 table=(opt,rrhf)
 ----------------------------------------------------------------------
 -----
 title
 -----
 Symbolic Z-matrix:
 Charge =  0 Multiplicity = 1

 SCF Done:  E(RHF) =  -795.947118868     A.U. after   20 cycles
 Normal termination of Gaussian 16 at Tue Apr  8 22:54:15 2025.
 Gaussian 16:  ES64L-G16RevC.01  3-Jul-2019

 ----------------------------------------------------------------------
 #t hf aug-cc-pvdz iop(5/13=1,5/36=2,99/5=2) pseudo=read geom=check gue
 ss=(read,tcheck) scf=(maxcycle=1)
 ----------------------------------------------------------------------
 -----
 title
 -----
 Structure from the checkpoint file:  "BDE49_expt_1828_mol1.chk"
 Charge =  0 Multiplicity = 1

                         Standard orientation:
 ---------------------------------------------------------------------
 Center     Atomic      Atomic             Coordinates (Angstroms)
 Number     Number       Type             X           Y           Z
 ---------------------------------------------------------------------
      1          7           0       -2.537570   -0.318499    0.728502
      2          8           0       -1.871268   -0.158443    1.671792
      3         16           0       -1.607172   -0.418940   -0.966643
      4          6           0        0.080334   -0.281760   -0.452736
      5          6           0        0.822583   -1.460837   -0.297671
      6          6           0        2.148435   -1.414017    0.115253
      7          6           0        2.736488   -0.181472    0.386814
      8          6           0        1.997830    0.990135    0.245298
      9          6           0        0.663311    0.972721   -0.170451
     10          1           0        0.347874   -2.411005   -0.510495
     11          1           0        2.714748   -2.331340    0.226326
     12          1           0        2.464779    1.944939    0.462502
     13          1           0        3.770113   -0.130080    0.710045
     14          6           0       -0.103907    2.263470   -0.306334
     15          1           0        0.548282    3.119288   -0.124883
     16          1           0       -0.928055    2.311587    0.410736
     17          1           0       -0.540292    2.367244   -1.302827
 ---------------------------------------------------------------------

 SCF Done:  E(RHF) =  -796.084695884     A.U. after    2 cycles

 The electronic state is 1-A.
 Alpha  occ. eigenvalues --  -93.56353 -20.68771 -15.82747 -11.28016 -11.27324
 Alpha  occ. eigenvalues --  -11.26381 -11.26225 -11.25258 -11.25178 -11.24175
 Alpha  occ. eigenvalues --   -8.85909  -6.20028  -6.19803  -6.19513  -1.53501
 Alpha  occ. eigenvalues --   -1.16469  -1.06226  -1.04667  -0.98594  -0.94311
 Alpha  occ. eigenvalues --   -0.88727  -0.82974  -0.80060  -0.72155  -0.70805
 Alpha  occ. eigenvalues --   -0.68090  -0.66615  -0.65115  -0.62938  -0.59117
 Alpha  occ. eigenvalues --   -0.58594  -0.56300  -0.54456  -0.50978  -0.50938
 Alpha  occ. eigenvalues --   -0.47595  -0.40248  -0.37836  -0.34621  -0.33743
 Alpha virt. eigenvalues --    0.03218   0.03837   0.04486   0.05582   0.05819
 Alpha virt. eigenvalues --    0.06131   0.06787   0.07327   0.08026   0.09285
 Alpha virt. eigenvalues --    0.09796   0.10282   0.10789   0.11677   0.13329

 Mulliken charges:
               1
     1  N   -0.094184
     2  O   -0.311275
     3  S    0.270073
     4  C    0.201119
     5  C   -0.035612
     6  C    0.411968
     7  C    0.157776
     8  C    0.881436
     9  C   -0.093266
    10  H   -0.489088
    11  H   -0.428798
    12  H   -0.567778
    13  H   -0.448098
    14  C    0.561598
    15  H   -0.215014
    16  H    0.103741
    17  H    0.095403
 Sum of Mulliken charges =   0.00000

 Dipole moment (field-independent basis, Debye):
    X=              1.9397    Y=              0.4735    Z=             -0.3111  Tot=              2.0207

 Test job not archived.
 1\1\GINC-SE179\SP\RHF\Aug-CC-pVDZ\C7H7N1O1S1\OHZDE\08-Apr-2025\0\\#t h
 f aug-cc-pvdz iop(5/13=1,5/36=2,99/5=2) pseudo=read geom=check guess=(
 read,tcheck) scf=(maxcycle=1)\\title\\0,1\N,0,-2.53757,-0.318499,0.728
 502\O,0,-1.871268,-0.158443,1.671792\S,0,-1.607172,-0.41894,-0.966643\
 C,0,0.080334,-0.28176,-0.452736\C,0,0.822583,-1.460837,-0.297671\C,0,2
 .148435,-1.414017,0.115253\C,0,2.736488,-0.181472,0.386814\C,0,1.99783
 ,0.990135,0.245298\C,0,0.663311,0.972721,-0.170451\H,0,0.347874,-2.411
 005,-0.510495\H,0,2.714748,-2.33134,0.226326\H,0,2.464779,1.944939,0.4

 Normal termination of Gaussian 16 at Tue Apr  8 22:54:25 2025.
