 Gaussian 16, Revision C.01,

 ----------------------------------------------------------------------
 #t hf aug-cc-pvdz symm=none int=(grid=ultrafine) guess=(read,tcheck) s
 table=opt
 ----------------------------------------------------------------------
 -----
 title
 -----
 Symbolic Z-matrix:
 Charge =  0 Multiplicity = 2

 SCF Done:  E(UHF) =  -1354.95816846     A.U. after   25 cycles
 Normal termination of Gaussian 16 at Wed Apr  9 00:14:35 2025.
 Gaussian 16:  ES64L-G16RevC.01  3-Jul-2019

 ----------------------------------------------------------------------
 #t hf aug-cc-pvdz iop(5/13=1,5/36=2,99/5=2) pseudo=read geom=check gue
 ss=(read,tcheck) scf=(maxcycle=1)
 ----------------------------------------------------------------------
 -----
 title
 -----
 Structure from the checkpoint file:  "BDE49_nonexpt_2530_mol2.chk"
 Charge =  0 Multiplicity = 2

                         Standard orientation:
 ---------------------------------------------------------------------
 Center     Atomic      Atomic             Coordinates (Angstroms)
 Number     Number       Type             X           Y           Z
 ---------------------------------------------------------------------
      1         16           0        0.748464    1.539235   -0.088902
      2          6           0       -0.030561    0.037269    0.487128
      3         17           0       -1.722433   -0.153607   -0.094662
      4         17           0        1.032978   -1.305600   -0.085767
      5          1           0       -0.071316   -0.044852    1.566969
 ---------------------------------------------------------------------

 SCF Done:  E(UHF) =  -1355.02503220     A.U. after    2 cycles

 The electronic state is 2-A.
 Alpha  occ. eigenvalues -- -103.69336-103.68595 -93.59304 -11.41847 -10.72601
 Alpha  occ. eigenvalues --  -10.71886  -8.89062  -8.38417  -8.38009  -8.37952
 Alpha  occ. eigenvalues --   -8.37613  -8.37286  -8.37262  -6.24381  -6.22718
 Alpha  occ. eigenvalues --   -6.22194  -1.23751  -1.15773  -1.03270  -0.85636
 Alpha  occ. eigenvalues --   -0.67003  -0.62950  -0.59427  -0.51493  -0.49870
 Alpha  occ. eigenvalues --   -0.47699  -0.46902  -0.45296  -0.40744
 Alpha virt. eigenvalues --    0.03971   0.06273   0.07762   0.08247   0.10706
 Alpha virt. eigenvalues --    0.11659   0.12914   0.13863   0.14118   0.14963
 Alpha virt. eigenvalues --    0.17050   0.17512   0.18177   0.18319   0.19785

  Beta  occ. eigenvalues -- -103.69235-103.68579 -93.58388 -11.42039 -10.72491
  Beta  occ. eigenvalues --  -10.71870  -8.88040  -8.38144  -8.37893  -8.37823
  Beta  occ. eigenvalues --   -8.37572  -8.37260  -8.37248  -6.22201  -6.21633
  Beta  occ. eigenvalues --   -6.20345  -1.23204  -1.15300  -0.98361  -0.81913
  Beta  occ. eigenvalues --   -0.66260  -0.61475  -0.58046  -0.50004  -0.49221
  Beta  occ. eigenvalues --   -0.47411  -0.46269  -0.38527
  Beta virt. eigenvalues --   -0.01456   0.04009   0.06556   0.07899   0.08729
  Beta virt. eigenvalues --    0.10951   0.12456   0.13325   0.14060   0.14208
  Beta virt. eigenvalues --    0.15222   0.17108   0.17653   0.18360   0.18825

 Mulliken charges and spin densities:
               1          2
     1  S    0.481194   1.051669
     2  C   -0.651634  -0.106402
     3  Cl  -0.005561   0.003652
     4  Cl   0.005117   0.048293
     5  H    0.170884   0.002788
 Sum of Mulliken charges =  -0.00000   1.00000

 Dipole moment (field-independent basis, Debye):
    X=              0.2521    Y=              0.5664    Z=              1.2048  Tot=              1.3549
                          Isotropic Fermi Contact Couplings
        Atom                 a.u.       MegaHertz       Gauss      10(-4) cm-1
     1  S(33)              0.21070      72.36950      25.82324      24.13987
     2  C(13)             -0.03316     -37.27344     -13.30009     -12.43308
     3  Cl(35)             0.00349       1.53108       0.54633       0.51071
     4  Cl(35)             0.05191      22.76265       8.12228       7.59280
     5  H(1)               0.00220       9.84306       3.51225       3.28329
 --------------------------------------------------------
       Center         ----  Spin Dipole Couplings  ----
                      3XX-RR        3YY-RR        3ZZ-RR

 Normal termination of Gaussian 16 at Wed Apr  9 00:14:38 2025.
