 Gaussian 16, Revision C.01,

 ----------------------------------------------------------------------
 #t hf aug-cc-pvdz symm=none int=(grid=ultrafine) guess=(read,tcheck) s
 table=(opt,rrhf)
 ----------------------------------------------------------------------
 -----
 title
 -----
 Symbolic Z-matrix:
 Charge =  0 Multiplicity = 1

 SCF Done:  E(RHF) =  -1138.42023109     A.U. after   15 cycles
 Normal termination of Gaussian 16 at Wed Apr  9 00:20:15 2025.
 Gaussian 16:  ES64L-G16RevC.01  3-Jul-2019

 ----------------------------------------------------------------------
 #t hf aug-cc-pvdz iop(5/13=1,5/36=2,99/5=2) pseudo=read geom=check gue
 ss=(read,tcheck) scf=(maxcycle=1)
 ----------------------------------------------------------------------
 -----
 title
 -----
 Structure from the checkpoint file:  "BDE49_nonexpt_2647_mol1.chk"
 Charge =  0 Multiplicity = 1

                         Standard orientation:
 ---------------------------------------------------------------------
 Center     Atomic      Atomic             Coordinates (Angstroms)
 Number     Number       Type             X           Y           Z
 ---------------------------------------------------------------------
      1          9           0       -2.409310    0.867313    0.117330
      2         16           0       -1.755735   -0.638668   -0.066558
      3         15           0        1.028503   -0.029140   -0.095229
      4          8           0        1.424716   -0.951649   -1.153966
      5          8           0        2.036412    0.165315    1.114914
      6          1           0        2.523724   -0.641146    1.322319
      7          8           0        0.705006    1.464152   -0.514696
      8          1           0        1.015674    1.668262   -1.404874
      9          8           0       -0.315057   -0.449961    0.743740
 ---------------------------------------------------------------------

 SCF Done:  E(RHF) =  -1138.65767591     A.U. after    2 cycles

 The electronic state is 1-A.
 Alpha  occ. eigenvalues --  -93.69784 -81.47543 -26.15346 -20.66246 -20.64153
 Alpha  occ. eigenvalues --  -20.64096 -20.55401  -8.97910  -7.95449  -6.32077
 Alpha  occ. eigenvalues --   -6.31777  -6.31168  -5.10135  -5.10044  -5.09961
 Alpha  occ. eigenvalues --   -1.66850  -1.42577  -1.38204  -1.37811  -1.29013
 Alpha  occ. eigenvalues --   -0.99341  -0.88066  -0.78892  -0.78606  -0.75990
 Alpha  occ. eigenvalues --   -0.75080  -0.72455  -0.69274  -0.67987  -0.63665
 Alpha  occ. eigenvalues --   -0.62903  -0.60289  -0.58431  -0.57281  -0.51894
 Alpha  occ. eigenvalues --   -0.51721  -0.40586
 Alpha virt. eigenvalues --    0.03027   0.04349   0.06089   0.06620   0.08443
 Alpha virt. eigenvalues --    0.09514   0.10833   0.12050   0.12744   0.15321
 Alpha virt. eigenvalues --    0.15921   0.17089   0.18183   0.19549   0.19761

 Mulliken charges:
               1
     1  F   -0.585007
     2  S    1.026264
     3  P    2.304903
     4  O   -0.808589
     5  O   -0.652134
     6  H    0.170803
     7  O   -0.663895
     8  H    0.184229
     9  O   -0.976574
 Sum of Mulliken charges =  -0.00000

 Dipole moment (field-independent basis, Debye):
    X=              1.1634    Y=             -0.4795    Z=              0.1084  Tot=              1.2630

 Test job not archived.
 1\1\GINC-SE159\SP\RHF\Aug-CC-pVDZ\F1H2O4P1S1\OHZDE\09-Apr-2025\0\\#t h
 f aug-cc-pvdz iop(5/13=1,5/36=2,99/5=2) pseudo=read geom=check guess=(
 read,tcheck) scf=(maxcycle=1)\\title\\0,1\F,0,-2.40931,0.867313,0.1173
 3\S,0,-1.755735,-0.638668,-0.066558\P,0,1.028503,-0.02914,-0.095229\O,
 0,1.424716,-0.951649,-1.153966\O,0,2.036412,0.165315,1.114914\H,0,2.52
 3724,-0.641146,1.322319\O,0,0.705006,1.464152,-0.514696\H,0,1.015674,1
 .668262,-1.404874\O,0,-0.315057,-0.449961,0.74374\\Version=ES64L-G16Re
 vC.01\State=1-A\HF=-1138.6576759\RMSD=4.024e-03\Dipole=0.4577165,-0.18

 Normal termination of Gaussian 16 at Wed Apr  9 00:20:19 2025.
