 Gaussian 16, Revision C.01,

 ----------------------------------------------------------------------
 #t hf aug-cc-pvdz symm=none int=(grid=ultrafine) guess=(read,tcheck) s
 table=(opt,rrhf)
 ----------------------------------------------------------------------
 -----
 title
 -----
 Symbolic Z-matrix:
 Charge =  0 Multiplicity = 1

 SCF Done:  E(RHF) =  -971.594280101     A.U. after   14 cycles
 Normal termination of Gaussian 16 at Tue Apr  8 23:30:39 2025.
 Gaussian 16:  ES64L-G16RevC.01  3-Jul-2019

 ----------------------------------------------------------------------
 #t hf aug-cc-pvdz iop(5/13=1,5/36=2,99/5=2) pseudo=read geom=check gue
 ss=(read,tcheck) scf=(maxcycle=1)
 ----------------------------------------------------------------------
 -----
 title
 -----
 Structure from the checkpoint file:  "BDE49_nonexpt_1366_mol1.chk"
 Charge =  0 Multiplicity = 1

                         Standard orientation:
 ---------------------------------------------------------------------
 Center     Atomic      Atomic             Coordinates (Angstroms)
 Number     Number       Type             X           Y           Z
 ---------------------------------------------------------------------
      1          9           0        2.501129   -1.004493   -0.668470
      2         15           0        1.031441   -1.731675   -0.632363
      3          6           0        0.641695   -1.567692    1.147287
      4          6           0        0.052958   -0.432005    0.342252
      5          6           0        0.704246    0.919010    0.496577
      6          8           0        1.351912    1.250315    1.456964
      7          8           0        0.504829    1.686992   -0.583646
      8          6           0        1.074716    3.007663   -0.519545
      9          6           0       -1.409775   -0.554839    0.067798
     10          8           0       -1.947079   -1.628220   -0.098168
     11          8           0       -2.053573    0.618259    0.052864
     12          6           0       -3.468900    0.550701   -0.214934
     13          1           0        1.466352   -1.283872    1.791818
     14          1           0       -0.056735   -2.289664    1.553654
     15          1           0        2.157009    2.947064   -0.399027
     16          1           0        0.650309    3.564792    0.316912
     17          1           0        0.817563    3.479150   -1.465031
     18          1           0       -3.972068   -0.044624    0.547729
     19          1           0       -3.814586    1.581179   -0.190803
     20          1           0       -3.647980    0.105740   -1.194299
 ---------------------------------------------------------------------

 SCF Done:  E(RHF) =  -971.825021600     A.U. after    2 cycles

 The electronic state is 1-A.
 Alpha  occ. eigenvalues --  -81.35220 -26.12751 -20.63492 -20.62525 -20.57546
 Alpha  occ. eigenvalues --  -20.57339 -11.41983 -11.41268 -11.31005 -11.30273
 Alpha  occ. eigenvalues --  -11.29900 -11.27534  -7.84599  -4.98681  -4.98288
 Alpha  occ. eigenvalues --   -4.98125  -1.64839  -1.44105  -1.43008  -1.34279
 Alpha  occ. eigenvalues --   -1.33689  -1.13270  -1.00787  -0.99035  -0.89880
 Alpha  occ. eigenvalues --   -0.83508  -0.82615  -0.78660  -0.76956  -0.74561
 Alpha  occ. eigenvalues --   -0.73619  -0.71305  -0.70753  -0.69464  -0.69344
 Alpha  occ. eigenvalues --   -0.68071  -0.63654  -0.62899  -0.59050  -0.57772
 Alpha  occ. eigenvalues --   -0.56618  -0.55846  -0.54498  -0.54388  -0.51018
 Alpha  occ. eigenvalues --   -0.49600  -0.48588  -0.47592  -0.40794  -0.40050
 Alpha virt. eigenvalues --    0.03115   0.04152   0.04474   0.05127   0.05844
 Alpha virt. eigenvalues --    0.06197   0.06622   0.06687   0.07330   0.07943
 Alpha virt. eigenvalues --    0.09457   0.10003   0.11492   0.11929   0.12374

 Mulliken charges:
               1
     1  F   -0.698932
     2  P    0.983356
     3  C    0.812450
     4  C    0.236058
     5  C    0.432317
     6  O   -0.473656
     7  O   -0.560948
     8  C    0.780283
     9  C    0.148604
    10  O   -0.498481
    11  O   -0.506265
    12  C    0.780763
    13  H   -0.313089
    14  H   -0.327374
    15  H   -0.076474
    16  H   -0.066871
    17  H   -0.249548
    18  H   -0.092610
    19  H   -0.254646
    20  H   -0.054938
 Sum of Mulliken charges =  -0.00000

 Dipole moment (field-independent basis, Debye):
    X=             -2.1435    Y=              1.3825    Z=             -0.7576  Tot=              2.6608

 Test job not archived.
 1\1\GINC-SE073\SP\RHF\Aug-CC-pVDZ\C6H8F1O4P1\OHZDE\08-Apr-2025\0\\#t h
 f aug-cc-pvdz iop(5/13=1,5/36=2,99/5=2) pseudo=read geom=check guess=(
 read,tcheck) scf=(maxcycle=1)\\title\\0,1\F,0,2.501129,-1.004492,-0.66
 847\P,0,1.031442,-1.731674,-0.632363\C,0,0.641696,-1.567692,1.147287\C
 ,0,0.052958,-0.432005,0.342252\C,0,0.704246,0.91901,0.496577\O,0,1.351
 911,1.250316,1.456964\O,0,0.504828,1.686992,-0.583646\C,0,1.074715,3.0
 07664,-0.519545\C,0,-1.409775,-0.554839,0.067798\O,0,-1.947078,-1.6282
 21,-0.098168\O,0,-2.053573,0.618258,0.052864\C,0,-3.4689,0.5507,-0.214

 Normal termination of Gaussian 16 at Tue Apr  8 23:30:53 2025.
