 Gaussian 16, Revision C.01,

 ----------------------------------------------------------------------
 #t hf aug-cc-pvdz symm=none int=(grid=ultrafine) guess=(read,tcheck) s
 table=(opt,rrhf)
 ----------------------------------------------------------------------
 -----
 title
 -----
 Symbolic Z-matrix:
 Charge =  0 Multiplicity = 1

 SCF Done:  E(RHF) =  -997.084334921     A.U. after   12 cycles

 1\1\GINC-SE118\Stability\RHF\Aug-CC-pVDZ\C2H4Cl2\OHZDE\08-Apr-2025\0\\
 #t hf aug-cc-pvdz symm=none int=(grid=ultrafine) guess=(read,tcheck) s
 table=(opt,rrhf)\\title\\0,1\C,0,0.,0.342838,0.429515\C,0,0.,1.742466,
 -0.143942\Cl,0,1.481563,-0.561929,-0.070217\Cl,0,-1.481563,-0.561929,-
 0.070217\H,0,0.,0.328023,1.514716\H,0,0.,1.711735,-1.233839\H,0,0.8893
 9,2.27701,0.196524\H,0,-0.88939,2.27701,0.196524\\Version=ES64L-G16Rev
 C.01\HF=-997.0843349\RMSD=3.985e-09\Dipole=0.,0.8740561,0.3413264\Quad
 rupole=-2.0555508,1.1831734,0.8723774,0.,0.,0.3267421\PG=Unknown\\@

 Normal termination of Gaussian 16 at Tue Apr  8 22:28:17 2025.
 Gaussian 16:  ES64L-G16RevC.01  3-Jul-2019

 ----------------------------------------------------------------------
 #t hf aug-cc-pvdz iop(5/13=1,5/36=2,99/5=2) pseudo=read geom=check gue
 ss=(read,tcheck) scf=(maxcycle=1)
 ----------------------------------------------------------------------
 -----
 title
 -----
 Structure from the checkpoint file:  "BDE49_expt_1017_mol1.chk"
 Charge =  0 Multiplicity = 1

                         Standard orientation:
 ---------------------------------------------------------------------
 Center     Atomic      Atomic             Coordinates (Angstroms)
 Number     Number       Type             X           Y           Z
 ---------------------------------------------------------------------
      1          6           0       -0.210220    0.507768    0.000000
      2          6           0        0.968456    1.455678    0.000000
      3         17           0       -0.210220   -0.525835    1.481563
      4         17           0       -0.210220   -0.525835   -1.481563
      5          1           0       -1.167316    1.019479    0.000000
      6          1           0        1.907642    0.901828    0.000000
      7          1           0        0.928873    2.088203    0.889390
      8          1           0        0.928873    2.088203   -0.889390
 ---------------------------------------------------------------------

 SCF Done:  E(RHF) =  -997.146641626     A.U. after    2 cycles

 The electronic state is 1-A'.
 Alpha  occ. eigenvalues -- -103.66851-103.66850 -11.38330 -11.26380 -10.70150
 Alpha  occ. eigenvalues --  -10.70144  -8.35864  -8.35859  -8.35558  -8.35555
 Alpha  occ. eigenvalues --   -8.35551  -8.35549  -1.21545  -1.13487  -1.01892
 Alpha  occ. eigenvalues --   -0.84655  -0.67108  -0.63622  -0.60542  -0.55574
 Alpha  occ. eigenvalues --   -0.54224  -0.47841  -0.47788  -0.45650  -0.45403
 Alpha virt. eigenvalues --    0.03400   0.04789   0.05724   0.06512   0.08345
 Alpha virt. eigenvalues --    0.09505   0.11672   0.13615   0.13971   0.14216
 Alpha virt. eigenvalues --    0.16739   0.16820   0.16979   0.17741   0.18698

 Mulliken charges:
               1
     1  C   -0.481751
     2  C    0.579891
     3  Cl  -0.084058
     4  Cl  -0.084058
     5  H    0.091526
     6  H   -0.001564
     7  H   -0.009993
     8  H   -0.009993
 Sum of Mulliken charges =  -0.00000

 Dipole moment (field-independent basis, Debye):
    X=              0.3286    Y=              2.4344    Z=              0.0000  Tot=              2.4564

 Test job not archived.
 1\1\GINC-SE118\SP\RHF\Aug-CC-pVDZ\C2H4Cl2\OHZDE\08-Apr-2025\0\\#t hf a
 ug-cc-pvdz iop(5/13=1,5/36=2,99/5=2) pseudo=read geom=check guess=(rea
 d,tcheck) scf=(maxcycle=1)\\title\\0,1\C,0,0.,0.342838,0.429515\C,0,0.
 ,1.742466,-0.143942\Cl,0,1.481563,-0.561929,-0.070217\Cl,0,-1.481563,-
 0.561929,-0.070217\H,0,0.,0.328023,1.514716\H,0,0.,1.711735,-1.233839\
 H,0,0.88939,2.27701,0.196524\H,0,-0.88939,2.27701,0.196524\\Version=ES
 64L-G16RevC.01\State=1-A'\HF=-997.1466416\RMSD=3.839e-03\Dipole=0.,0.9
 008734,0.3498992\Quadrupole=-2.0766466,1.2085984,0.8680482,0.,0.,0.336

 Normal termination of Gaussian 16 at Tue Apr  8 22:28:20 2025.
