 Gaussian 16, Revision C.01,

 ----------------------------------------------------------------------
 #t hf aug-cc-pvdz symm=none int=(grid=ultrafine) guess=(read,tcheck) s
 table=(opt,rrhf)
 ----------------------------------------------------------------------
 -----
 title
 -----
 Symbolic Z-matrix:
 Charge =  0 Multiplicity = 1

 SCF Done:  E(RHF) =  -559.937556358     A.U. after   11 cycles
 Normal termination of Gaussian 16 at Wed Apr  9 00:25:42 2025.
 Gaussian 16:  ES64L-G16RevC.01  3-Jul-2019

 ----------------------------------------------------------------------
 #t hf aug-cc-pvdz iop(5/13=1,5/36=2,99/5=2) pseudo=read geom=check gue
 ss=(read,tcheck) scf=(maxcycle=1)
 ----------------------------------------------------------------------
 -----
 title
 -----
 Structure from the checkpoint file:  "BDE49_nonexpt_302_mol1.chk"
 Charge =  0 Multiplicity = 1

                         Standard orientation:
 ---------------------------------------------------------------------
 Center     Atomic      Atomic             Coordinates (Angstroms)
 Number     Number       Type             X           Y           Z
 ---------------------------------------------------------------------
      1          6           0       -0.633553    0.000001   -0.010338
      2          5           0        0.972284    0.000002   -0.020793
      3          9           0       -1.149720    1.088634   -0.615610
      4          9           0       -1.149716   -1.088574   -0.615716
      5          9           0       -1.074579   -0.000062    1.274129
      6          9           0        1.628111   -1.135248   -0.012180
      7          9           0        1.628115    1.135249   -0.012180
 ---------------------------------------------------------------------

 SCF Done:  E(RHF) =  -560.152111363     A.U. after    2 cycles

 The electronic state is 1-A.
 Alpha  occ. eigenvalues --  -26.18418 -26.18411 -26.18280 -26.18199 -26.18189
 Alpha  occ. eigenvalues --  -11.53227  -7.79878  -1.77430  -1.73826  -1.71855
 Alpha  occ. eigenvalues --   -1.70500  -1.70474  -1.05240  -0.93118  -0.89682
 Alpha  occ. eigenvalues --   -0.89621  -0.89135  -0.86425  -0.81378  -0.80484
 Alpha  occ. eigenvalues --   -0.78726  -0.78425  -0.76369  -0.76160  -0.74347
 Alpha  occ. eigenvalues --   -0.74185  -0.73226  -0.60658
 Alpha virt. eigenvalues --    0.04434   0.04786   0.05396   0.05563   0.09035
 Alpha virt. eigenvalues --    0.10725   0.12312   0.13454   0.18699   0.19939
 Alpha virt. eigenvalues --    0.21213   0.22025   0.23790   0.25685   0.25782

 Mulliken charges:
               1
     1  C    0.827547
     2  B    0.827895
     3  F   -0.338433
     4  F   -0.338429
     5  F   -0.336334
     6  F   -0.321130
     7  F   -0.321115
 Sum of Mulliken charges =  -0.00000

 Dipole moment (field-independent basis, Debye):
    X=              0.9798    Y=              0.0000    Z=             -0.1505  Tot=              0.9913

 Test job not archived.
 1\1\GINC-SE332\SP\RHF\Aug-CC-pVDZ\C1B1F5\OHZDE\09-Apr-2025\0\\#t hf au
 g-cc-pvdz iop(5/13=1,5/36=2,99/5=2) pseudo=read geom=check guess=(read
 ,tcheck) scf=(maxcycle=1)\\title\\0,1\C,0,-0.633553,0.000001,-0.010338
 \B,0,0.972284,0.000002,-0.020793\F,0,-1.14972,1.088634,-0.61561\F,0,-1
 .149716,-1.088574,-0.615716\F,0,-1.074579,-0.000062,1.274129\F,0,1.628
 111,-1.135248,-0.01218\F,0,1.628115,1.135249,-0.01218\\Version=ES64L-G
 16RevC.01\State=1-A\HF=-560.1521114\RMSD=6.295e-03\Dipole=0.3854853,0.
 0000043,-0.0591944\Quadrupole=-1.0699235,-1.1533374,2.2232609,0.000011

 Normal termination of Gaussian 16 at Wed Apr  9 00:25:45 2025.
