 Gaussian 16, Revision C.01,

 ----------------------------------------------------------------------
 #t hf aug-cc-pvdz symm=none int=(grid=ultrafine) guess=(read,tcheck) s
 table=opt
 ----------------------------------------------------------------------
 -----
 title
 -----
 Symbolic Z-matrix:
 Charge =  0 Multiplicity = 2

 SCF Done:  E(UHF) =  -152.249799118     A.U. after   18 cycles
 Normal termination of Gaussian 16 at Tue Apr  8 22:35:21 2025.
 Gaussian 16:  ES64L-G16RevC.01  3-Jul-2019

 ----------------------------------------------------------------------
 #t hf aug-cc-pvdz iop(5/13=1,5/36=2,99/5=2) pseudo=read geom=check gue
 ss=(read,tcheck) scf=(maxcycle=1)
 ----------------------------------------------------------------------
 -----
 title
 -----
 Structure from the checkpoint file:  "BDE49_expt_1144_mol2.chk"
 Charge =  0 Multiplicity = 2

                         Standard orientation:
 ---------------------------------------------------------------------
 Center     Atomic      Atomic             Coordinates (Angstroms)
 Number     Number       Type             X           Y           Z
 ---------------------------------------------------------------------
      1          8           0        0.330924    0.758236    0.031073
      2          6           0       -0.795230   -0.192202    0.017780
      3          6           0        0.594748   -0.567445   -0.159744
      4          1           0       -1.442893   -0.112156   -0.849887
      5          1           0       -1.294924   -0.287434    0.978649
      6          1           0        1.293314   -1.108416    0.474441
 ---------------------------------------------------------------------

 SCF Done:  E(UHF) =  -152.299676333     A.U. after    2 cycles

 The electronic state is 2-A.
 Alpha  occ. eigenvalues --  -20.60959 -11.31803 -11.31073  -1.40630  -0.94262
 Alpha  occ. eigenvalues --   -0.86607  -0.72178  -0.68228  -0.58407  -0.52809
 Alpha  occ. eigenvalues --   -0.48548  -0.38916
 Alpha virt. eigenvalues --    0.03600   0.04719   0.05275   0.08513   0.10477
 Alpha virt. eigenvalues --    0.11425   0.12423   0.15761   0.17148   0.17982
 Alpha virt. eigenvalues --    0.20891   0.22620   0.24348   0.25353   0.29382

  Beta  occ. eigenvalues --  -20.60349 -11.31222 -11.29181  -1.38800  -0.92588
  Beta  occ. eigenvalues --   -0.81761  -0.69395  -0.64759  -0.57378  -0.48572
  Beta  occ. eigenvalues --   -0.47052
  Beta virt. eigenvalues --    0.03631   0.04760   0.05212   0.08009   0.08687
  Beta virt. eigenvalues --    0.11475   0.11954   0.14628   0.16602   0.17440
  Beta virt. eigenvalues --    0.18142   0.21039   0.23937   0.24904   0.26146

 Mulliken charges and spin densities:
               1          2
     1  O   -0.616132   0.057694
     2  C    0.856575  -0.104670
     3  C    0.389048   1.060573
     4  H   -0.164506  -0.005073
     5  H   -0.210944   0.005187
     6  H   -0.254041  -0.013711
 Sum of Mulliken charges =  -0.00000   1.00000

 Dipole moment (field-independent basis, Debye):
    X=             -1.1159    Y=             -1.8674    Z=              0.4881  Tot=              2.2295
                          Isotropic Fermi Contact Couplings
        Atom                 a.u.       MegaHertz       Gauss      10(-4) cm-1
     1  O(17)              0.06926     -41.98390     -14.98090     -14.00432
     2  C(13)             -0.02254     -25.33812      -9.04127      -8.45189
     3  C(13)              0.41941     471.49903     168.24258     157.27515
     4  H(1)               0.00343      15.33467       5.47179       5.11509
     5  H(1)               0.00275      12.28898       4.38501       4.09916
     6  H(1)               0.00667      29.83112      10.64448       9.95059
 --------------------------------------------------------
       Center         ----  Spin Dipole Couplings  ----

 Normal termination of Gaussian 16 at Tue Apr  8 22:35:23 2025.
