 Gaussian 16, Revision C.01,

 ----------------------------------------------------------------------
 #t hf aug-cc-pvdz symm=none int=(grid=ultrafine) guess=(read,tcheck) s
 table=opt
 ----------------------------------------------------------------------
 -----
 title
 -----
 Symbolic Z-matrix:
 Charge =  0 Multiplicity = 2

 SCF Done:  E(UHF) =  -586.791241316     A.U. after   18 cycles
 Normal termination of Gaussian 16 at Tue Apr  8 22:45:30 2025.
 Gaussian 16:  ES64L-G16RevC.01  3-Jul-2019

 ----------------------------------------------------------------------
 #t hf aug-cc-pvdz iop(5/13=1,5/36=2,99/5=2) pseudo=read geom=check gue
 ss=(read,tcheck) scf=(maxcycle=1)
 ----------------------------------------------------------------------
 -----
 title
 -----
 Structure from the checkpoint file:  "BDE49_expt_1597_mol2.chk"
 Charge =  0 Multiplicity = 2

                         Standard orientation:
 ---------------------------------------------------------------------
 Center     Atomic      Atomic             Coordinates (Angstroms)
 Number     Number       Type             X           Y           Z
 ---------------------------------------------------------------------
      1         16           0       -0.212621    0.000000   -0.274190
      2          8           0       -0.737716    1.281284    0.207361
      3          8           0       -0.737718   -1.281283    0.207361
      4          6           0        1.585044   -0.000001    0.094345
      5          1           0        2.009484    0.903201   -0.338876
      6          1           0        2.009482   -0.903203   -0.338875
      7          1           0        1.676178   -0.000001    1.180952
 ---------------------------------------------------------------------

 SCF Done:  E(UHF) =  -586.915808711     A.U. after    2 cycles

 The electronic state is 2-A.
 Alpha  occ. eigenvalues --  -93.76568 -20.60565 -20.60563 -11.31469  -9.03994
 Alpha  occ. eigenvalues --   -6.38703  -6.38271  -6.37905  -1.44010  -1.34417
 Alpha  occ. eigenvalues --   -1.05297  -0.86621  -0.71404  -0.69777  -0.69318
 Alpha  occ. eigenvalues --   -0.63981  -0.62326  -0.58175  -0.53446  -0.53354
 Alpha  occ. eigenvalues --   -0.43009
 Alpha virt. eigenvalues --    0.02892   0.05124   0.05253   0.07484   0.10656
 Alpha virt. eigenvalues --    0.11313   0.11331   0.13638   0.14676   0.15920
 Alpha virt. eigenvalues --    0.19626   0.20737   0.21383   0.22554   0.24291

  Beta  occ. eigenvalues --  -93.76193 -20.59059 -20.59056 -11.30998  -9.03519
  Beta  occ. eigenvalues --   -6.38235  -6.37925  -6.36899  -1.40727  -1.30137
  Beta  occ. eigenvalues --   -1.02912  -0.81486  -0.67687  -0.67410  -0.65738
  Beta  occ. eigenvalues --   -0.62199  -0.58266  -0.51822  -0.50578  -0.46339
  Beta virt. eigenvalues --   -0.01126   0.03535   0.05149   0.05346   0.07812
  Beta virt. eigenvalues --    0.10894   0.11463   0.11529   0.13855   0.14759
  Beta virt. eigenvalues --    0.16435   0.20572   0.21859   0.21895   0.23411

 Mulliken charges and spin densities:
               1          2
     1  S    1.790018   0.305588
     2  O   -0.876963   0.278437
     3  O   -0.876963   0.278438
     4  C   -0.085332   0.162031
     5  H    0.006157  -0.016114
     6  H    0.006155  -0.016114
     7  H    0.036928   0.007734
 Sum of Mulliken charges =  -0.00000   1.00000

 Dipole moment (field-independent basis, Debye):
    X=              4.2854    Y=             -0.0000    Z=             -1.2366  Tot=              4.4602
                          Isotropic Fermi Contact Couplings
        Atom                 a.u.       MegaHertz       Gauss      10(-4) cm-1
     1  S(33)              0.48553     166.76729      59.50671      55.62758
     2  O(17)              0.11022     -66.81714     -23.84202     -22.28780
     3  O(17)              0.11022     -66.81721     -23.84204     -22.28782
     4  C(13)              0.07714      86.72503      30.94565      28.92836
     5  H(1)              -0.00353     -15.78146      -5.63122      -5.26413
     6  H(1)              -0.00353     -15.78146      -5.63122      -5.26413
     7  H(1)               0.00361      16.12413       5.75349       5.37843
 --------------------------------------------------------

 Normal termination of Gaussian 16 at Tue Apr  8 22:45:33 2025.
