 Gaussian 16, Revision C.01,

 ----------------------------------------------------------------------
 #t hf aug-cc-pvdz symm=none int=(grid=ultrafine) guess=(read,tcheck) s
 table=(opt,rrhf)
 ----------------------------------------------------------------------
 -----
 title
 -----
 Symbolic Z-matrix:
 Charge =  0 Multiplicity = 1

 SCF Done:  E(RHF) =  -755.873985864     A.U. after   14 cycles
 Normal termination of Gaussian 16 at Tue Apr  8 23:38:21 2025.
 Gaussian 16:  ES64L-G16RevC.01  3-Jul-2019

 ----------------------------------------------------------------------
 #t hf aug-cc-pvdz iop(5/13=1,5/36=2,99/5=2) pseudo=read geom=check gue
 ss=(read,tcheck) scf=(maxcycle=1)
 ----------------------------------------------------------------------
 -----
 title
 -----
 Structure from the checkpoint file:  "BDE49_nonexpt_1601_mol1.chk"
 Charge =  0 Multiplicity = 1

                         Standard orientation:
 ---------------------------------------------------------------------
 Center     Atomic      Atomic             Coordinates (Angstroms)
 Number     Number       Type             X           Y           Z
 ---------------------------------------------------------------------
      1          8           0        0.536584   -0.140719   -0.911803
      2         15           0       -0.709687   -0.055781    0.124744
      3          8           0       -0.468694   -0.545171    1.481770
      4          8           0       -1.207091    1.445919    0.000638
      5          8           0        1.645984    0.623597   -0.325910
      6          6           0        2.588561   -0.327166    0.165201
      7          1           0        3.408950    0.295056    0.530491
      8          1           0        2.942102   -0.973681   -0.641937
      9          1           0        2.163723   -0.910631    0.984563
     10          1           0       -1.402575    1.825315    0.865187
     11          8           0       -1.781233   -0.840583   -0.752464
     12          1           0       -1.802665   -1.780696   -0.538527
 ---------------------------------------------------------------------

 SCF Done:  E(RHF) =  -756.084494679     A.U. after    2 cycles

 The electronic state is 1-A.
 Alpha  occ. eigenvalues --  -81.45853 -20.67277 -20.66211 -20.62922 -20.62754
 Alpha  occ. eigenvalues --  -20.54205 -11.30435  -7.93796  -5.08492  -5.08394
 Alpha  occ. eigenvalues --   -5.08333  -1.45298  -1.39407  -1.36472  -1.27861
 Alpha  occ. eigenvalues --   -1.23614  -0.93919  -0.86836  -0.76944  -0.75791
 Alpha  occ. eigenvalues --   -0.70767  -0.69566  -0.68809  -0.66141  -0.63268
 Alpha  occ. eigenvalues --   -0.60629  -0.58539  -0.58227  -0.55553  -0.54213
 Alpha  occ. eigenvalues --   -0.51704  -0.50643  -0.48648
 Alpha virt. eigenvalues --    0.03178   0.04426   0.04637   0.05830   0.06911
 Alpha virt. eigenvalues --    0.09441   0.09926   0.10970   0.12204   0.13745
 Alpha virt. eigenvalues --    0.14645   0.15675   0.17250   0.18247   0.19184

 Mulliken charges:
               1
     1  O   -0.690348
     2  P    2.515394
     3  O   -0.862502
     4  O   -0.670496
     5  O   -0.432696
     6  C    0.820017
     7  H   -0.161152
     8  H   -0.085251
     9  H   -0.092298
    10  H    0.156573
    11  O   -0.653347
    12  H    0.156107
 Sum of Mulliken charges =  -0.00000

 Dipole moment (field-independent basis, Debye):
    X=              0.7228    Y=             -0.9210    Z=              0.3755  Tot=              1.2295

 Test job not archived.
 1\1\GINC-SE273\SP\RHF\Aug-CC-pVDZ\C1H5O5P1\OHZDE\08-Apr-2025\0\\#t hf
 aug-cc-pvdz iop(5/13=1,5/36=2,99/5=2) pseudo=read geom=check guess=(re
 ad,tcheck) scf=(maxcycle=1)\\title\\0,1\O,0,0.536584,-0.140719,-0.9118
 03\P,0,-0.709687,-0.055781,0.124744\O,0,-0.468694,-0.545171,1.48177\O,
 0,-1.207091,1.445919,0.000638\O,0,1.645984,0.623597,-0.32591\C,0,2.588
 561,-0.327166,0.165201\H,0,3.40895,0.295056,0.530491\H,0,2.942102,-0.9
 73681,-0.641937\H,0,2.163723,-0.910631,0.984563\H,0,-1.402575,1.825315
 ,0.865187\O,0,-1.781233,-0.840583,-0.752464\H,0,-1.802665,-1.780696,-0

 Normal termination of Gaussian 16 at Tue Apr  8 23:38:27 2025.
