 Gaussian 16, Revision C.01,

 ----------------------------------------------------------------------
 #t hf aug-cc-pvdz symm=none int=(grid=ultrafine) guess=(read,tcheck) s
 table=opt
 ----------------------------------------------------------------------
 -----
 title
 -----
 Symbolic Z-matrix:
 Charge =  0 Multiplicity = 2

 SCF Done:  E(UHF) =  -800.906572237     A.U. after   22 cycles
 Normal termination of Gaussian 16 at Tue Apr  8 23:56:58 2025.
 Gaussian 16:  ES64L-G16RevC.01  3-Jul-2019

 ----------------------------------------------------------------------
 #t hf aug-cc-pvdz iop(5/13=1,5/36=2,99/5=2) pseudo=read geom=check gue
 ss=(read,tcheck) scf=(maxcycle=1)
 ----------------------------------------------------------------------
 -----
 title
 -----
 Structure from the checkpoint file:  "BDE49_nonexpt_2054_mol2.chk"
 Charge =  0 Multiplicity = 2

                         Standard orientation:
 ---------------------------------------------------------------------
 Center     Atomic      Atomic             Coordinates (Angstroms)
 Number     Number       Type             X           Y           Z
 ---------------------------------------------------------------------
      1         14           0       -1.633008   -0.453899   -0.088831
      2          6           0        0.024115    0.498324    0.005475
      3          8           0        0.061746    1.700670    0.017886
      4         16           0        1.590700   -0.445847    0.001700
      5          1           0        1.037698   -1.670241    0.037849
      6          1           0       -2.718278    0.368759    0.488221
      7          1           0       -1.547155   -1.805684    0.514425
 ---------------------------------------------------------------------

 SCF Done:  E(UHF) =  -800.980832361     A.U. after    2 cycles

 The electronic state is 2-A.
 Alpha  occ. eigenvalues --  -93.56557 -69.10866 -20.60237 -11.38156  -8.86398
 Alpha  occ. eigenvalues --   -6.86290  -6.20504  -6.20322  -6.19952  -3.97635
 Alpha  occ. eigenvalues --   -3.96759  -3.96709  -1.39564  -1.01184  -0.81815
 Alpha  occ. eigenvalues --   -0.73108  -0.65685  -0.61476  -0.60392  -0.54408
 Alpha  occ. eigenvalues --   -0.50705  -0.41459  -0.40163  -0.35126
 Alpha virt. eigenvalues --    0.03270   0.04787   0.05545   0.05699   0.07146
 Alpha virt. eigenvalues --    0.08074   0.08263   0.09890   0.11506   0.12513
 Alpha virt. eigenvalues --    0.13016   0.14258   0.15132   0.15888   0.16536

  Beta  occ. eigenvalues --  -93.56557 -69.10279 -20.59546 -11.38459  -8.86398
  Beta  occ. eigenvalues --   -6.85417  -6.20492  -6.20309  -6.19971  -3.96334
  Beta  occ. eigenvalues --   -3.96291  -3.95399  -1.38166  -1.01092  -0.80268
  Beta  occ. eigenvalues --   -0.71208  -0.65014  -0.60414  -0.56921  -0.54028
  Beta  occ. eigenvalues --   -0.50169  -0.40355  -0.39188
  Beta virt. eigenvalues --    0.00470   0.03494   0.05016   0.05697   0.06599
  Beta virt. eigenvalues --    0.07388   0.08669   0.09721   0.11095   0.11901
  Beta virt. eigenvalues --    0.13267   0.13511   0.14994   0.15982   0.16538

 Mulliken charges and spin densities:
               1          2
     1  Si   0.387715   1.004562
     2  C   -0.157004  -0.157543
     3  O   -0.439880   0.159867
     4  S    0.254368   0.003808
     5  H    0.050980  -0.003260
     6  H   -0.033503   0.001279
     7  H   -0.062677  -0.008713
 Sum of Mulliken charges =  -0.00000   1.00000

 Dipole moment (field-independent basis, Debye):
    X=             -1.5390    Y=             -3.2585    Z=             -0.0168  Tot=              3.6037
                          Isotropic Fermi Contact Couplings
        Atom                 a.u.       MegaHertz       Gauss      10(-4) cm-1
     1  Si(29)             0.53618    -476.52120    -170.03461    -158.95036
     2  C(13)             -0.02671     -30.02908     -10.71512     -10.01662
     3  O(17)              0.05670     -34.37141     -12.26457     -11.46507
     4  S(33)             -0.00445      -1.52706      -0.54489      -0.50937
     5  H(1)               0.00003       0.12181       0.04346       0.04063
     6  H(1)              -0.00037      -1.66057      -0.59253      -0.55390
     7  H(1)              -0.00054      -2.42732      -0.86613      -0.80967
 --------------------------------------------------------

 1\1\GINC-SE103\SP\UHF\Aug-CC-pVDZ\C1H3O1S1Si1(2)\OHZDE\08-Apr-2025\0\\
 #t hf aug-cc-pvdz iop(5/13=1,5/36=2,99/5=2) pseudo=read geom=check gue
 ss=(read,tcheck) scf=(maxcycle=1)\\title\\0,2\Si,0,-1.633008,-0.453899
 ,-0.088831\C,0,0.024115,0.498324,0.005475\O,0,0.061746,1.70067,0.01788
 6\S,0,1.5907,-0.445847,0.0017\H,0,1.037698,-1.670241,0.037849\H,0,-2.7
 18278,0.368759,0.488221\H,0,-1.547155,-1.805684,0.514425\\Version=ES64
 L-G16RevC.01\State=2-A\HF=-800.9808324\S2=0.776494\S2-1=0.\S2A=0.75026
 6\RMSD=5.795e-03\Dipole=-0.6054806,-1.2819788,-0.006618\Quadrupole=1.5

 Normal termination of Gaussian 16 at Tue Apr  8 23:57:01 2025.
