 Gaussian 16, Revision C.01,

 ----------------------------------------------------------------------
 #t hf aug-cc-pvdz symm=none int=(grid=ultrafine) guess=(read,tcheck) s
 table=opt
 ----------------------------------------------------------------------
 -----
 title
 -----
 Symbolic Z-matrix:
 Charge =  0 Multiplicity = 2

 SCF Done:  E(UHF) =  -306.433609737     A.U. after   16 cycles
 Normal termination of Gaussian 16 at Tue Apr  8 22:48:02 2025.
 Gaussian 16:  ES64L-G16RevC.01  3-Jul-2019

 ----------------------------------------------------------------------
 #t hf aug-cc-pvdz iop(5/13=1,5/36=2,99/5=2) pseudo=read geom=check gue
 ss=(read,tcheck) scf=(maxcycle=1)
 ----------------------------------------------------------------------
 -----
 title
 -----
 Structure from the checkpoint file:  "BDE49_expt_169_mol2.chk"
 Charge =  0 Multiplicity = 2

                         Standard orientation:
 ---------------------------------------------------------------------
 Center     Atomic      Atomic             Coordinates (Angstroms)
 Number     Number       Type             X           Y           Z
 ---------------------------------------------------------------------
      1          6           0       -1.501442   -0.551170   -0.081630
      2          6           0       -0.319510   -0.605032    0.894766
      3          8           0       -1.759472    0.819119   -0.393718
      4          1           0       -2.381551   -1.017217    0.384801
      5          1           0       -1.244492   -1.120638   -0.983805
      6          1           0       -2.442740    0.848560   -1.069226
      7          6           0        0.978879   -0.142134    0.317950
      8          1           0       -0.567692   -0.000752    1.772315
      9          1           0       -0.213035   -1.644616    1.228515
     10          6           0        1.327103    1.302111    0.164032
     11          8           0        1.441794   -1.009660   -0.658743
     12          1           0        2.227773   -0.629701   -1.063879
     13          1           0        0.801356    1.762052   -0.687292
     14          1           0        2.405769    1.439094    0.011128
     15          1           0        1.045856    1.864904    1.056418
 ---------------------------------------------------------------------

 SCF Done:  E(UHF) =  -306.530631135     A.U. after    2 cycles

 The electronic state is 2-A.
 Alpha  occ. eigenvalues --  -20.58551 -20.57018 -11.28489 -11.28094 -11.22879
 Alpha  occ. eigenvalues --  -11.22667  -1.34636  -1.31759  -1.05284  -0.97702
 Alpha  occ. eigenvalues --   -0.87485  -0.78515  -0.71455  -0.68581  -0.65615
 Alpha  occ. eigenvalues --   -0.62877  -0.61255  -0.56951  -0.54896  -0.53592
 Alpha  occ. eigenvalues --   -0.52317  -0.51021  -0.48893  -0.45476  -0.31030
 Alpha virt. eigenvalues --    0.03404   0.04202   0.04923   0.05191   0.06611
 Alpha virt. eigenvalues --    0.06840   0.07180   0.07557   0.08904   0.11566
 Alpha virt. eigenvalues --    0.13554   0.13827   0.14547   0.15315   0.15352

  Beta  occ. eigenvalues --  -20.58096 -20.57034 -11.28262 -11.25489 -11.23148
  Beta  occ. eigenvalues --  -11.22917  -1.32944  -1.31712  -1.03246  -0.96777
  Beta  occ. eigenvalues --   -0.86031  -0.77292  -0.71232  -0.66361  -0.64562
  Beta  occ. eigenvalues --   -0.61071  -0.58089  -0.55600  -0.53315  -0.52931
  Beta  occ. eigenvalues --   -0.51173  -0.49972  -0.48087  -0.45176
  Beta virt. eigenvalues --    0.03424   0.04181   0.04932   0.05195   0.06553
  Beta virt. eigenvalues --    0.06848   0.07185   0.07597   0.08908   0.10923
  Beta virt. eigenvalues --    0.13535   0.13818   0.14516   0.15003   0.15360

 Mulliken charges and spin densities:
               1          2
     1  C    0.775794   0.066954
     2  C    0.150021  -0.230793
     3  O   -0.585074  -0.001084
     4  H   -0.122967  -0.000376
     5  H   -0.118659  -0.004912
     6  H    0.145118  -0.000327
     7  C    0.085809   1.274978
     8  H   -0.081265   0.003587
     9  H   -0.017698   0.008775
    10  C    0.341827  -0.218857
    11  O   -0.647108   0.049226
    12  H    0.158580  -0.006644
    13  H    0.080566   0.053515
    14  H   -0.133547   0.006232
    15  H   -0.031397  -0.000273
 Sum of Mulliken charges =  -0.00000   1.00000

 Dipole moment (field-independent basis, Debye):
    X=             -0.3241    Y=              0.2397    Z=             -0.7236  Tot=              0.8284
                          Isotropic Fermi Contact Couplings
        Atom                 a.u.       MegaHertz       Gauss      10(-4) cm-1
     1  C(13)              0.04817      54.15399      19.32349      18.06383
     2  C(13)             -0.04692     -52.75038     -18.82265     -17.59563
     3  O(17)             -0.00382       2.31445       0.82585       0.77202
     4  H(1)              -0.00003      -0.13086      -0.04669      -0.04365
     5  H(1)              -0.00151      -6.76753      -2.41482      -2.25741
     6  H(1)               0.00018       0.78407       0.27978       0.26154
     7  C(13)              0.30442     342.23018     122.11624     114.15570
     8  H(1)               0.00283      12.66477       4.51910       4.22451

 Normal termination of Gaussian 16 at Tue Apr  8 22:48:07 2025.
