 Gaussian 16, Revision C.01,

 ----------------------------------------------------------------------
 #t hf aug-cc-pvdz symm=none int=(grid=ultrafine) guess=(read,tcheck) s
 table=(opt,rrhf)
 ----------------------------------------------------------------------
 -----
 title
 -----
 Symbolic Z-matrix:
 Charge =  0 Multiplicity = 1

 SCF Done:  E(RHF) =  -332.454448633     A.U. after   13 cycles
 Normal termination of Gaussian 16 at Wed Apr  9 00:23:20 2025.
 Gaussian 16:  ES64L-G16RevC.01  3-Jul-2019

 ----------------------------------------------------------------------
 #t hf aug-cc-pvdz iop(5/13=1,5/36=2,99/5=2) pseudo=read geom=check gue
 ss=(read,tcheck) scf=(maxcycle=1)
 ----------------------------------------------------------------------
 -----
 title
 -----
 Structure from the checkpoint file:  "BDE49_nonexpt_271_mol1.chk"
 Charge =  0 Multiplicity = 1

                         Standard orientation:
 ---------------------------------------------------------------------
 Center     Atomic      Atomic             Coordinates (Angstroms)
 Number     Number       Type             X           Y           Z
 ---------------------------------------------------------------------
      1          6           0        0.617244   -0.002882    0.000009
      2          5           0       -0.976874    0.023765    0.000024
      3          8           0       -1.645616   -1.167405   -0.000037
      4          8           0       -1.738718    1.165743    0.000005
      5          6           0        1.221839    1.414870    0.000010
      6          1           0        0.925808    1.985616    0.888083
      7          1           0        0.925793    1.985624   -0.888052
      8          6           0        1.100578   -0.761066   -1.258493
      9          1           0        2.194114   -0.840642   -1.262953
     10          1           0        0.803371   -0.247557   -2.178999
     11          1           0        0.685993   -1.770980   -1.292655
     12          6           0        1.100597   -0.761076    1.258497
     13          1           0        0.803405   -0.247574    2.179013
     14          1           0        2.194133   -0.840651    1.262938
     15          1           0        0.686014   -1.770991    1.292658
     16          1           0        2.316350    1.372965    0.000001
     17          1           0       -2.600793   -1.042504   -0.000055
     18          1           0       -1.216696    1.972090    0.000012
 ---------------------------------------------------------------------

 SCF Done:  E(RHF) =  -332.565411734     A.U. after    2 cycles

 The electronic state is 1-A.
 Alpha  occ. eigenvalues --  -20.58179 -20.57280 -11.22985 -11.22250 -11.22141
 Alpha  occ. eigenvalues --  -11.22125  -7.64741  -1.34174  -1.30262  -1.07002
 Alpha  occ. eigenvalues --   -0.92914  -0.92213  -0.79643  -0.76246  -0.72824
 Alpha  occ. eigenvalues --   -0.64857  -0.60539  -0.59470  -0.58807  -0.58134
 Alpha  occ. eigenvalues --   -0.57579  -0.53716  -0.53556  -0.51717  -0.51331
 Alpha  occ. eigenvalues --   -0.46446  -0.46327  -0.42852
 Alpha virt. eigenvalues --    0.02920   0.04478   0.04859   0.04861   0.06356
 Alpha virt. eigenvalues --    0.06630   0.06764   0.06935   0.07005   0.09065
 Alpha virt. eigenvalues --    0.09429   0.09754   0.09783   0.11013   0.11881

 Mulliken charges:
               1
     1  C   -2.975883
     2  B    1.002237
     3  O   -0.595661
     4  O   -0.399484
     5  C    0.969316
     6  H   -0.062348
     7  H   -0.062354
     8  C    1.116361
     9  H   -0.009748
    10  H   -0.088346
    11  H   -0.068278
    12  C    1.116359
    13  H   -0.088344
    14  H   -0.009747
    15  H   -0.068282
    16  H   -0.108811
    17  H    0.166028
    18  H    0.166985
 Sum of Mulliken charges =  -0.00000

 Dipole moment (field-independent basis, Debye):
    X=              0.3848    Y=              1.3288    Z=              0.0001  Tot=              1.3834

 Test job not archived.
 1\1\GINC-SE457\SP\RHF\Aug-CC-pVDZ\C4H11B1O2\OHZDE\09-Apr-2025\0\\#t hf
  aug-cc-pvdz iop(5/13=1,5/36=2,99/5=2) pseudo=read geom=check guess=(r
 ead,tcheck) scf=(maxcycle=1)\\title\\0,1\C,0,-0.617244,-0.002882,-0.00
 0009\B,0,0.976874,0.023765,-0.000024\O,0,1.645616,-1.167405,0.000037\O
 ,0,1.738718,1.165743,-0.000005\C,0,-1.221838,1.41487,-0.00001\H,0,-0.9
 25807,1.985616,-0.888083\H,0,-0.925792,1.985624,0.888052\C,0,-1.100578
 ,-0.761066,1.258493\H,0,-2.194114,-0.840642,1.262953\H,0,-0.803371,-0.
 247557,2.178999\H,0,-0.685993,-1.77098,1.292655\C,0,-1.100597,-0.76107

 Normal termination of Gaussian 16 at Wed Apr  9 00:23:27 2025.
