 Gaussian 16, Revision C.01,

 ----------------------------------------------------------------------
 #t hf aug-cc-pvdz symm=none int=(grid=ultrafine) guess=(read,tcheck) s
 table=opt
 ----------------------------------------------------------------------
 -----
 title
 -----
 Symbolic Z-matrix:
 Charge =  0 Multiplicity = 2

 SCF Done:  E(UHF) =  -1565.97106695     A.U. after   20 cycles

 1\1\GINC-SE460\Stability\UHF\Aug-CC-pVDZ\C1Cl3O2\OHZDE\08-Apr-2025\0\\
 #t hf aug-cc-pvdz symm=none int=(grid=ultrafine) guess=(read,tcheck) s
 table=opt\\title\\0,2\O,0,-1.880697,0.,1.241775\O,0,-0.570607,0.,1.345
 31\C,0,0.098617,0.,0.048508\Cl,0,1.814092,0.,0.476159\Cl,0,-0.347672,1
 .461396,-0.855366\Cl,0,-0.347672,-1.461396,-0.855366\\Version=ES64L-G1
 6RevC.01\HF=-1565.971067\S2=0.761508\S2-1=0.\S2A=0.750101\RMSD=5.593e-
 09\Dipole=0.1858494,0.,-0.2433263\Quadrupole=0.165488,1.0686116,-1.234
 0997,0.,0.9592383,0.\PG=Unknown\\@

 Normal termination of Gaussian 16 at Tue Apr  8 22:50:38 2025.
 Gaussian 16:  ES64L-G16RevC.01  3-Jul-2019

 ----------------------------------------------------------------------
 #t hf aug-cc-pvdz iop(5/13=1,5/36=2,99/5=2) pseudo=read geom=check gue
 ss=(read,tcheck) scf=(maxcycle=1)
 ----------------------------------------------------------------------
 -----
 title
 -----
 Structure from the checkpoint file:  "BDE49_expt_1798_mol2.chk"
 Charge =  0 Multiplicity = 2

                         Standard orientation:
 ---------------------------------------------------------------------
 Center     Atomic      Atomic             Coordinates (Angstroms)
 Number     Number       Type             X           Y           Z
 ---------------------------------------------------------------------
      1          8           0        2.043622   -0.950071   -0.000000
      2          8           0        1.444709    0.219697   -0.000000
      3          6           0       -0.010417    0.109407    0.000000
      4         17           0       -0.545964    1.794319    0.000000
      5         17           0       -0.545964   -0.744614    1.461396
      6         17           0       -0.545964   -0.744614   -1.461396
 ---------------------------------------------------------------------

 SCF Done:  E(UHF) =  -1566.08640964     A.U. after    2 cycles

 The electronic state is 2-A".
 Alpha  occ. eigenvalues -- -103.71241-103.70893-103.70892 -20.73488 -20.73136
 Alpha  occ. eigenvalues --  -11.51949 -10.74571 -10.74239 -10.74221  -8.40291
 Alpha  occ. eigenvalues --   -8.39969  -8.39962  -8.39934  -8.39933  -8.39596
 Alpha  occ. eigenvalues --   -8.39595  -8.39593  -8.39592  -1.57538  -1.31199
 Alpha  occ. eigenvalues --   -1.20597  -1.18173  -1.18048  -0.89595  -0.82697
 Alpha  occ. eigenvalues --   -0.76482  -0.76023  -0.67863  -0.64531  -0.58179
 Alpha  occ. eigenvalues --   -0.56665  -0.53163  -0.52645  -0.52271  -0.49770
 Alpha  occ. eigenvalues --   -0.49640  -0.48269
 Alpha virt. eigenvalues --    0.05446   0.07709   0.08006   0.08571   0.10559
 Alpha virt. eigenvalues --    0.12034   0.12390   0.13977   0.14780   0.14990
 Alpha virt. eigenvalues --    0.16799   0.18489   0.18505   0.18662   0.20457

  Beta  occ. eigenvalues -- -103.71248-103.70888-103.70887 -20.72457 -20.69303
  Beta  occ. eigenvalues --  -11.52025 -10.74578 -10.74235 -10.74217  -8.40310
  Beta  occ. eigenvalues --   -8.39946  -8.39940  -8.39936  -8.39932  -8.39597
  Beta  occ. eigenvalues --   -8.39597  -8.39590  -8.39588  -1.51802  -1.28945
  Beta  occ. eigenvalues --   -1.18628  -1.18106  -1.12299  -0.88002  -0.75389
  Beta  occ. eigenvalues --   -0.73852  -0.71195  -0.64001  -0.60044  -0.55531
  Beta  occ. eigenvalues --   -0.53078  -0.52468  -0.51266  -0.49665  -0.49514
  Beta  occ. eigenvalues --   -0.48263
  Beta virt. eigenvalues --    0.05291   0.05453   0.07761   0.08036   0.08605
  Beta virt. eigenvalues --    0.10628   0.12053   0.12982   0.14070   0.15091
  Beta virt. eigenvalues --    0.15217   0.17179   0.18499   0.18510   0.18780

 Mulliken charges and spin densities:
               1          2
     1  O   -0.052806   0.969377
     2  O   -0.287825   0.041661
     3  C   -0.149727  -0.009329
     4  Cl   0.174030  -0.004616
     5  Cl   0.158164   0.001453
     6  Cl   0.158164   0.001453
 Sum of Mulliken charges =  -0.00000   1.00000

 Dipole moment (field-independent basis, Debye):
    X=             -0.8713    Y=              0.0748    Z=             -0.0000  Tot=              0.8745
                          Isotropic Fermi Contact Couplings
        Atom                 a.u.       MegaHertz       Gauss      10(-4) cm-1
     1  O(17)              0.29775    -180.49554     -64.40530     -60.20683
     2  O(17)              0.07050     -42.73393     -15.24853     -14.25451
     3  C(13)             -0.01517     -17.05805      -6.08674      -5.68995
     4  Cl(35)            -0.00301      -1.31957      -0.47086      -0.44016
     5  Cl(35)            -0.00480      -2.10583      -0.75141      -0.70243
     6  Cl(35)            -0.00480      -2.10583      -0.75141      -0.70243
 --------------------------------------------------------
       Center         ----  Spin Dipole Couplings  ----

 Normal termination of Gaussian 16 at Tue Apr  8 22:50:41 2025.
