 Gaussian 16, Revision C.01,

 ----------------------------------------------------------------------
 #t hf aug-cc-pvdz symm=none int=(grid=ultrafine) guess=(read,tcheck) s
 table=(opt,rrhf)
 ----------------------------------------------------------------------
 -----
 title
 -----
 Symbolic Z-matrix:
 Charge =  0 Multiplicity = 1

 SCF Done:  E(RHF) =  -498.012976479     A.U. after   13 cycles
 Normal termination of Gaussian 16 at Tue Apr  8 23:51:23 2025.
 Gaussian 16:  ES64L-G16RevC.01  3-Jul-2019

 ----------------------------------------------------------------------
 #t hf aug-cc-pvdz iop(5/13=1,5/36=2,99/5=2) pseudo=read geom=check gue
 ss=(read,tcheck) scf=(maxcycle=1)
 ----------------------------------------------------------------------
 -----
 title
 -----
 Structure from the checkpoint file:  "BDE49_nonexpt_1923_mol1.chk"
 Charge =  0 Multiplicity = 1

                         Standard orientation:
 ---------------------------------------------------------------------
 Center     Atomic      Atomic             Coordinates (Angstroms)
 Number     Number       Type             X           Y           Z
 ---------------------------------------------------------------------
      1         14           0       -1.788826   -0.308095   -0.186602
      2          6           0       -0.381317    0.586890    0.725877
      3          1           0       -2.363350    0.586394   -1.219621
      4          1           0       -2.854007   -0.652256    0.785366
      5          1           0       -1.296129   -1.540866   -0.836236
      6          6           0        0.739329    0.971312   -0.184237
      7          7           0        1.785114    0.292733   -0.456095
      8          1           0        0.693083    1.920462   -0.712431
      9          8           0        1.800902   -0.935378    0.235739
     10          1           0        2.634457   -1.319211   -0.052523
     11          1           0       -0.015774   -0.077264    1.512107
     12          1           0       -0.805813    1.480750    1.192686
 ---------------------------------------------------------------------

 SCF Done:  E(RHF) =  -498.099391760     A.U. after    2 cycles

 The electronic state is 1-A.
 Alpha  occ. eigenvalues --  -69.06977 -20.61013 -15.68763 -11.29488 -11.24240
 Alpha  occ. eigenvalues --   -6.82250  -3.93029  -3.93020  -3.93007  -1.37603
 Alpha  occ. eigenvalues --   -1.14370  -0.97997  -0.79444  -0.71387  -0.69255
 Alpha  occ. eigenvalues --   -0.65511  -0.60912  -0.59777  -0.55320  -0.49697
 Alpha  occ. eigenvalues --   -0.48075  -0.47640  -0.43687  -0.38400
 Alpha virt. eigenvalues --    0.03248   0.04401   0.04711   0.04941   0.06449
 Alpha virt. eigenvalues --    0.07560   0.07695   0.08652   0.09205   0.10625
 Alpha virt. eigenvalues --    0.12406   0.12798   0.14073   0.15410   0.15673

 Mulliken charges:
               1
     1  Si   0.315683
     2  C    0.028598
     3  H    0.014867
     4  H   -0.011072
     5  H    0.009439
     6  C    0.588881
     7  N   -0.192125
     8  H   -0.244441
     9  O   -0.506890
    10  H    0.182972
    11  H   -0.076893
    12  H   -0.109018
 Sum of Mulliken charges =  -0.00000

 Dipole moment (field-independent basis, Debye):
    X=             -0.5566    Y=              0.5894    Z=              0.5138  Tot=              0.9598

 Test job not archived.
 1\1\GINC-SE329\SP\RHF\Aug-CC-pVDZ\C2H7N1O1Si1\OHZDE\08-Apr-2025\0\\#t
 hf aug-cc-pvdz iop(5/13=1,5/36=2,99/5=2) pseudo=read geom=check guess=
 (read,tcheck) scf=(maxcycle=1)\\title\\0,1\Si,0,-1.788826,-0.308095,-0
 .186602\C,0,-0.381317,0.58689,0.725877\H,0,-2.36335,0.586394,-1.219621
 \H,0,-2.854007,-0.652256,0.785366\H,0,-1.296129,-1.540866,-0.836236\C,
 0,0.739329,0.971312,-0.184237\N,0,1.785114,0.292733,-0.456095\H,0,0.69
 3083,1.920462,-0.712431\O,0,1.800902,-0.935378,0.235739\H,0,2.634457,-
 1.319211,-0.052523\H,0,-0.015774,-0.077264,1.512107\H,0,-0.805813,1.48

 Normal termination of Gaussian 16 at Tue Apr  8 23:51:27 2025.
