 Gaussian 16, Revision C.01,

 ----------------------------------------------------------------------
 #t hf aug-cc-pvdz symm=none int=(grid=ultrafine) guess=(read,tcheck) s
 table=(opt,rrhf)
 ----------------------------------------------------------------------
 -----
 title
 -----
 Symbolic Z-matrix:
 Charge =  0 Multiplicity = 1

 SCF Done:  E(RHF) =  -680.580251535     A.U. after   12 cycles
 Normal termination of Gaussian 16 at Tue Apr  8 23:53:59 2025.
 Gaussian 16:  ES64L-G16RevC.01  3-Jul-2019

 ----------------------------------------------------------------------
 #t hf aug-cc-pvdz iop(5/13=1,5/36=2,99/5=2) pseudo=read geom=check gue
 ss=(read,tcheck) scf=(maxcycle=1)
 ----------------------------------------------------------------------
 -----
 title
 -----
 Structure from the checkpoint file:  "BDE49_nonexpt_1958_mol1.chk"
 Charge =  0 Multiplicity = 1

                         Standard orientation:
 ---------------------------------------------------------------------
 Center     Atomic      Atomic             Coordinates (Angstroms)
 Number     Number       Type             X           Y           Z
 ---------------------------------------------------------------------
      1         14           0        0.570434   -1.334940   -0.092491
      2          6           0       -1.082449   -0.960397    0.789770
      3          5           0       -1.884138    0.192250    0.106556
      4          5           0        1.816671    0.283218   -0.064661
      5          1           0        0.258508   -1.734455   -1.493684
      6          1           0        1.192380   -2.517505    0.556832
      7          8           0       -3.013020    0.045549   -0.652294
      8          1           0       -3.316076   -0.863064   -0.721248
      9          8           0       -1.409225    1.486406    0.226565
     10          1           0       -1.958281    2.119148   -0.250538
     11          8           0        1.407473    1.563538    0.142522
     12          1           0        0.447760    1.662556    0.257334
     13          8           0        3.144782    0.042739   -0.269006
     14          1           0        3.659440    0.860462   -0.251435
     15          1           0       -0.819253   -0.669726    1.813247
     16          1           0       -1.658610   -1.889064    0.853988
 ---------------------------------------------------------------------

 SCF Done:  E(RHF) =  -680.736807434     A.U. after    2 cycles

 The electronic state is 1-A.
 Alpha  occ. eigenvalues --  -69.04846 -20.59926 -20.59621 -20.57403 -20.56833
 Alpha  occ. eigenvalues --  -11.21154  -7.67332  -7.65145  -6.80240  -3.91010
 Alpha  occ. eigenvalues --   -3.90992  -3.90928  -1.36223  -1.33487  -1.32263
 Alpha  occ. eigenvalues --   -1.29639  -0.95202  -0.79736  -0.77910  -0.76135
 Alpha  occ. eigenvalues --   -0.74454  -0.67812  -0.64674  -0.61819  -0.60883
 Alpha  occ. eigenvalues --   -0.60105  -0.58042  -0.57028  -0.56089  -0.53953
 Alpha  occ. eigenvalues --   -0.52653  -0.51027  -0.45785  -0.44441  -0.40501
 Alpha virt. eigenvalues --    0.02585   0.04041   0.04485   0.05053   0.05692
 Alpha virt. eigenvalues --    0.06495   0.06600   0.07082   0.07640   0.08616
 Alpha virt. eigenvalues --    0.09059   0.09268   0.09905   0.10215   0.10698

 Mulliken charges:
               1
     1  Si  -0.490001
     2  C    0.294178
     3  B    1.040000
     4  B    0.999430
     5  H    0.148603
     6  H    0.078980
     7  O   -0.453734
     8  H    0.181337
     9  O   -0.651639
    10  H    0.214706
    11  O   -0.491105
    12  H    0.272777
    13  O   -0.495142
    14  H    0.198610
    15  H   -0.299651
    16  H   -0.547348
 Sum of Mulliken charges =  -0.00000

 Dipole moment (field-independent basis, Debye):
    X=             -2.6818    Y=             -0.0281    Z=              0.2239  Tot=              2.6913

 Test job not archived.
 1\1\GINC-SE059\SP\RHF\Aug-CC-pVDZ\C1H8B2O4Si1\OHZDE\08-Apr-2025\0\\#t
 hf aug-cc-pvdz iop(5/13=1,5/36=2,99/5=2) pseudo=read geom=check guess=
 (read,tcheck) scf=(maxcycle=1)\\title\\0,1\Si,0,0.570434,-1.33494,-0.0
 92491\C,0,-1.082449,-0.960397,0.78977\B,0,-1.884138,0.19225,0.106556\B
 ,0,1.816671,0.283218,-0.064661\H,0,0.258508,-1.734455,-1.493684\H,0,1.
 19238,-2.517505,0.556832\O,0,-3.01302,0.045549,-0.652294\H,0,-3.316076
 ,-0.863064,-0.721248\O,0,-1.409225,1.486406,0.226565\H,0,-1.958281,2.1
 19148,-0.250538\O,0,1.407473,1.563538,0.142522\H,0,0.44776,1.662556,0.

 Normal termination of Gaussian 16 at Tue Apr  8 23:54:06 2025.
