 Gaussian 16, Revision C.01,

 ----------------------------------------------------------------------
 #t hf aug-cc-pvdz symm=none int=(grid=ultrafine) guess=(read,tcheck) s
 table=(opt,rrhf)
 ----------------------------------------------------------------------
 -----
 title
 -----
 Symbolic Z-matrix:
 Charge =  0 Multiplicity = 1

 SCF Done:  E(RHF) =  -767.773579462     A.U. after   17 cycles
 Normal termination of Gaussian 16 at Tue Apr  8 22:43:02 2025.
 Gaussian 16:  ES64L-G16RevC.01  3-Jul-2019

 ----------------------------------------------------------------------
 #t hf aug-cc-pvdz iop(5/13=1,5/36=2,99/5=2) pseudo=read geom=check gue
 ss=(read,tcheck) scf=(maxcycle=1)
 ----------------------------------------------------------------------
 -----
 title
 -----
 Structure from the checkpoint file:  "BDE49_expt_1218_mol1.chk"
 Charge =  0 Multiplicity = 1

                         Standard orientation:
 ---------------------------------------------------------------------
 Center     Atomic      Atomic             Coordinates (Angstroms)
 Number     Number       Type             X           Y           Z
 ---------------------------------------------------------------------
      1          6           0       -0.219814    0.003511    0.119387
      2          7           0       -0.622003    1.344513   -0.549728
      3          8           0       -1.807329    1.506318   -0.736085
      4          8           0        0.281039    2.104644   -0.826424
      5          6           0        1.143779    0.016007    0.784527
      6          7           0       -1.350631   -0.252103    1.149202
      7          8           0       -1.267901    0.436105    2.147415
      8          8           0       -2.200633   -1.063474    0.873810
      9          7           0       -0.300091   -1.093058   -0.956082
     10          8           0       -0.533894   -0.748602   -2.093180
     11          8           0       -0.063644   -2.210327   -0.548056
     12          6           0        2.354920   -0.063531   -0.161534
     13          1           0        1.158523   -0.838365    1.466487
     14          1           0        1.183323    0.919061    1.395903
     15          6           0        3.664742    0.021004    0.627502
     16          1           0        2.308804    0.744264   -0.891955
     17          1           0        2.324830   -1.008355   -0.711763
     18          1           0        3.745096    0.970714    1.163559
     19          1           0        4.521507   -0.054592   -0.045193
     20          1           0        3.744140   -0.787451    1.360089
 ---------------------------------------------------------------------

 SCF Done:  E(RHF) =  -768.005397487     A.U. after    2 cycles

 The electronic state is 1-A.
 Alpha  occ. eigenvalues --  -20.67985 -20.67879 -20.67477 -20.67468 -20.67351
 Alpha  occ. eigenvalues --  -20.67133 -15.97926 -15.97803 -15.97743 -11.48914
 Alpha  occ. eigenvalues --  -11.31312 -11.27639 -11.25758  -1.62833  -1.60552
 Alpha  occ. eigenvalues --   -1.60351  -1.43473  -1.43174  -1.42940  -1.22818
 Alpha  occ. eigenvalues --   -1.09644  -1.00309  -0.99632  -0.98736  -0.87641
 Alpha  occ. eigenvalues --   -0.86639  -0.85711  -0.84226  -0.79725  -0.79128
 Alpha  occ. eigenvalues --   -0.78894  -0.78002  -0.77311  -0.75954  -0.69805
 Alpha  occ. eigenvalues --   -0.68467  -0.62135  -0.60528  -0.60023  -0.57725
 Alpha  occ. eigenvalues --   -0.57535  -0.56812  -0.54972  -0.54543  -0.53630
 Alpha  occ. eigenvalues --   -0.53402  -0.52592  -0.51848  -0.51374  -0.51093
 Alpha virt. eigenvalues --    0.01756   0.02345   0.02600   0.03682   0.04201
 Alpha virt. eigenvalues --    0.04493   0.05562   0.06963   0.07403   0.07760
 Alpha virt. eigenvalues --    0.09217   0.10722   0.12578   0.12662   0.12941

 Mulliken charges:
               1
     1  C    2.396326
     2  N    0.158965
     3  O   -0.549123
     4  O   -0.519545
     5  C   -0.169612
     6  N    0.189732
     7  O   -0.530314
     8  O   -0.511984
     9  N    0.136607
    10  O   -0.514306
    11  O   -0.558027
    12  C    0.462346
    13  H   -0.000069
    14  H    0.021880
    15  C    0.381013
    16  H   -0.136547
    17  H   -0.110591
    18  H   -0.061533
    19  H   -0.030171
    20  H   -0.055046
 Sum of Mulliken charges =   0.00000

 Dipole moment (field-independent basis, Debye):
    X=              4.6223    Y=             -0.0663    Z=              1.5499  Tot=              4.8756

 Test job not archived.
 1\1\GINC-SE088\SP\RHF\Aug-CC-pVDZ\C4H7N3O6\OHZDE\08-Apr-2025\0\\#t hf
 aug-cc-pvdz iop(5/13=1,5/36=2,99/5=2) pseudo=read geom=check guess=(re
 ad,tcheck) scf=(maxcycle=1)\\title\\0,1\C,0,-0.219814,0.003511,0.11938
 7\N,0,-0.622003,1.344513,-0.549728\O,0,-1.807329,1.506318,-0.736085\O,
 0,0.281039,2.104644,-0.826424\C,0,1.143779,0.016007,0.784527\N,0,-1.35
 0631,-0.252103,1.149202\O,0,-1.267901,0.436105,2.147415\O,0,-2.200633,
 -1.063474,0.87381\N,0,-0.300091,-1.093058,-0.956082\O,0,-0.533894,-0.7
 48602,-2.09318\O,0,-0.063644,-2.210327,-0.548056\C,0,2.35492,-0.063531

 Normal termination of Gaussian 16 at Tue Apr  8 22:43:17 2025.
