 Gaussian 16, Revision C.01,

 ----------------------------------------------------------------------
 #t hf aug-cc-pvdz symm=none int=(grid=ultrafine) guess=(read,tcheck) s
 table=opt
 ----------------------------------------------------------------------
 -----
 title
 -----
 Symbolic Z-matrix:
 Charge =  0 Multiplicity = 2

 SCF Done:  E(UHF) =  -217.850391721     A.U. after   15 cycles
 Normal termination of Gaussian 16 at Tue Apr  8 23:53:35 2025.
 Gaussian 16:  ES64L-G16RevC.01  3-Jul-2019

 ----------------------------------------------------------------------
 #t hf aug-cc-pvdz iop(5/13=1,5/36=2,99/5=2) pseudo=read geom=check gue
 ss=(read,tcheck) scf=(maxcycle=1)
 ----------------------------------------------------------------------
 -----
 title
 -----
 Structure from the checkpoint file:  "BDE49_nonexpt_1962_mol2.chk"
 Charge =  0 Multiplicity = 2

                         Standard orientation:
 ---------------------------------------------------------------------
 Center     Atomic      Atomic             Coordinates (Angstroms)
 Number     Number       Type             X           Y           Z
 ---------------------------------------------------------------------
      1          6           0        1.832308   -0.876663    0.000001
      2          5           0        0.543614   -0.038896   -0.000006
      3          8           0       -0.617306   -0.769744   -0.000001
      4          6           0        0.537507    1.543191    0.000000
      5          1           0        1.543002    1.969385    0.000006
      6          1           0        0.010188    1.944305    0.874958
      7          1           0        0.010196    1.944311   -0.874960
      8          6           0       -1.906363   -0.170832    0.000002
      9          1           0       -2.642743   -0.975132    0.000002
     10          1           0       -2.058802    0.449005   -0.889487
     11          1           0       -2.058799    0.449002    0.889494
     12          1           0        2.826679   -0.439243    0.000005
     13          1           0        1.809939   -1.963373    0.000002
 ---------------------------------------------------------------------

 SCF Done:  E(UHF) =  -217.924581650     A.U. after    2 cycles

 The electronic state is 2-A.
 Alpha  occ. eigenvalues --  -20.56829 -11.28755 -11.22759 -11.20232  -7.61695
 Alpha  occ. eigenvalues --   -1.32210  -0.96498  -0.93503  -0.91029  -0.71096
 Alpha  occ. eigenvalues --   -0.64332  -0.64105  -0.59990  -0.54807  -0.54416
 Alpha  occ. eigenvalues --   -0.53684  -0.51147  -0.48831  -0.44962  -0.38018
 Alpha virt. eigenvalues --    0.03241   0.04606   0.05195   0.05285   0.06393
 Alpha virt. eigenvalues --    0.06794   0.07567   0.08272   0.08431   0.09237
 Alpha virt. eigenvalues --    0.10054   0.11027   0.15085   0.15328   0.16721

  Beta  occ. eigenvalues --  -20.56580 -11.28778 -11.20767 -11.20249  -7.61786
  Beta  occ. eigenvalues --   -1.31602  -0.94687  -0.93464  -0.84498  -0.70770
  Beta  occ. eigenvalues --   -0.63828  -0.63461  -0.58924  -0.54123  -0.53689
  Beta  occ. eigenvalues --   -0.53617  -0.50581  -0.47087  -0.44278
  Beta virt. eigenvalues --    0.03286   0.04345   0.04635   0.05249   0.06232
  Beta virt. eigenvalues --    0.06411   0.06800   0.07890   0.08528   0.09245
  Beta virt. eigenvalues --    0.09295   0.10074   0.11060   0.15160   0.15943

 Mulliken charges and spin densities:
               1          2
     1  C    0.425500   1.175951
     2  B    0.860771  -0.106020
     3  O   -0.712796   0.079664
     4  C    0.437779   0.003591
     5  H   -0.399061  -0.003172
     6  H   -0.084777   0.004861
     7  H   -0.084773   0.004861
     8  C    0.904187  -0.009106
     9  H   -0.313024   0.000153
    10  H   -0.121201   0.002848
    11  H   -0.121201   0.002848
    12  H   -0.397294  -0.078577
    13  H   -0.394109  -0.077904
 Sum of Mulliken charges =  -0.00000   1.00000

 Dipole moment (field-independent basis, Debye):
    X=             -0.6064    Y=              1.0538    Z=             -0.0000  Tot=              1.2158
                          Isotropic Fermi Contact Couplings
        Atom                 a.u.       MegaHertz       Gauss      10(-4) cm-1
     1  C(13)              0.15340     172.45188      61.53512      57.52375
     2  B(11)             -0.02044     -29.31354     -10.45980      -9.77794
     3  O(17)              0.02345     -14.21597      -5.07261      -4.74194
     4  C(13)             -0.00437      -4.91512      -1.75384      -1.63951
     5  H(1)              -0.00016      -0.72322      -0.25806      -0.24124
     6  H(1)               0.00149       6.64675       2.37173       2.21712
     7  H(1)               0.00149       6.64692       2.37179       2.21717
     8  C(13)             -0.00399      -4.48736      -1.60120      -1.49682

 Normal termination of Gaussian 16 at Tue Apr  8 23:53:38 2025.
