 Gaussian 16, Revision C.01,

 ----------------------------------------------------------------------
 #t hf aug-cc-pvdz symm=none int=(grid=ultrafine) guess=(read,tcheck) s
 table=(opt,rrhf)
 ----------------------------------------------------------------------
 -----
 title
 -----
 Symbolic Z-matrix:
 Charge =  0 Multiplicity = 1

 SCF Done:  E(RHF) =  -694.588458913     A.U. after   15 cycles
 Normal termination of Gaussian 16 at Wed Apr  9 00:02:14 2025.
 Gaussian 16:  ES64L-G16RevC.01  3-Jul-2019

 ----------------------------------------------------------------------
 #t hf aug-cc-pvdz iop(5/13=1,5/36=2,99/5=2) pseudo=read geom=check gue
 ss=(read,tcheck) scf=(maxcycle=1)
 ----------------------------------------------------------------------
 -----
 title
 -----
 Structure from the checkpoint file:  "BDE49_nonexpt_2183_mol1.chk"
 Charge =  0 Multiplicity = 1

                         Standard orientation:
 ---------------------------------------------------------------------
 Center     Atomic      Atomic             Coordinates (Angstroms)
 Number     Number       Type             X           Y           Z
 ---------------------------------------------------------------------
      1          6           0       -2.236371    0.968881    0.000001
      2          6           0       -2.045183   -0.406118   -0.000000
      3          6           0       -0.789400   -0.987193   -0.000001
      4          6           0       -1.107139    1.781829   -0.000000
      5          6           0        0.174691    1.235173   -0.000002
      6          6           0        0.331225   -0.153733   -0.000002
      7          1           0       -3.239394    1.374597    0.000002
      8          9           0       -3.127287   -1.215227    0.000001
      9          1           0       -0.673057   -2.062495   -0.000002
     10          1           0       -1.224948    2.859047   -0.000000
     11          1           0        1.041319    1.885813   -0.000002
     12          8           0        1.552455   -0.763156   -0.000004
     13         14           0        3.089224   -0.125820    0.000003
     14          1           0        3.981820   -1.296874    0.000003
     15          1           0        3.312061    0.705324    1.204527
     16          1           0        3.312070    0.705329   -1.204517
 ---------------------------------------------------------------------

 SCF Done:  E(RHF) =  -694.748386908     A.U. after    2 cycles

 The electronic state is 1-A.
 Alpha  occ. eigenvalues --  -69.11081 -26.13727 -20.59804 -11.34834 -11.33548
 Alpha  occ. eigenvalues --  -11.26867 -11.25193 -11.25039 -11.25025  -6.85882
 Alpha  occ. eigenvalues --   -3.96798  -3.96645  -3.96617  -1.67553  -1.35723
 Alpha  occ. eigenvalues --   -1.15719  -1.03355  -1.02168  -0.88058  -0.86841
 Alpha  occ. eigenvalues --   -0.80430  -0.75222  -0.75129  -0.71469  -0.70117
 Alpha  occ. eigenvalues --   -0.66152  -0.64633  -0.62976  -0.61591  -0.56989
 Alpha  occ. eigenvalues --   -0.54917  -0.52823  -0.51149  -0.48421  -0.47981
 Alpha  occ. eigenvalues --   -0.35639  -0.33721
 Alpha virt. eigenvalues --    0.02999   0.03846   0.04461   0.05247   0.05945
 Alpha virt. eigenvalues --    0.06225   0.06915   0.08682   0.08974   0.10063
 Alpha virt. eigenvalues --    0.10279   0.11440   0.11625   0.12544   0.12842

 Mulliken charges:
               1
     1  C    0.522657
     2  C    0.405400
     3  C    0.253153
     4  C    0.497791
     5  C    0.454058
     6  C    0.450760
     7  H   -0.424274
     8  F   -0.343201
     9  H   -0.440957
    10  H   -0.417169
    11  H   -0.602177
    12  O   -0.870141
    13  Si   0.287273
    14  H    0.044606
    15  H    0.091110
    16  H    0.091109
 Sum of Mulliken charges =  -0.00000

 Dipole moment (field-independent basis, Debye):
    X=              1.8948    Y=              1.9972    Z=              0.0000  Tot=              2.7530

 Test job not archived.
 1\1\GINC-SE365\SP\RHF\Aug-CC-pVDZ\C6H7F1O1Si1\OHZDE\09-Apr-2025\0\\#t
 hf aug-cc-pvdz iop(5/13=1,5/36=2,99/5=2) pseudo=read geom=check guess=
 (read,tcheck) scf=(maxcycle=1)\\title\\0,1\C,0,-2.236371,0.968881,0.00
 0001\C,0,-2.045183,-0.406118,0.\C,0,-0.7894,-0.987193,-0.000001\C,0,-1
 .107139,1.781829,0.\C,0,0.174691,1.235173,-0.000002\C,0,0.331225,-0.15
 3733,-0.000002\H,0,-3.239394,1.374597,0.000002\F,0,-3.127287,-1.215227
 ,0.000001\H,0,-0.673057,-2.062495,-0.000002\H,0,-1.224948,2.859047,0.\
 H,0,1.041319,1.885813,-0.000002\O,0,1.552455,-0.763156,-0.000004\Si,0,

 Normal termination of Gaussian 16 at Wed Apr  9 00:02:20 2025.
