 Gaussian 16, Revision C.01,

 ----------------------------------------------------------------------
 #t hf aug-cc-pvdz symm=none int=(grid=ultrafine) guess=(read,tcheck) s
 table=(opt,rrhf)
 ----------------------------------------------------------------------
 -----
 title
 -----
 Symbolic Z-matrix:
 Charge =  0 Multiplicity = 1

 SCF Done:  E(RHF) =  -450.728933563     A.U. after   12 cycles
 Normal termination of Gaussian 16 at Tue Apr  8 22:30:21 2025.
 Gaussian 16:  ES64L-G16RevC.01  3-Jul-2019

 ----------------------------------------------------------------------
 #t hf aug-cc-pvdz iop(5/13=1,5/36=2,99/5=2) pseudo=read geom=check gue
 ss=(read,tcheck) scf=(maxcycle=1)
 ----------------------------------------------------------------------
 -----
 title
 -----
 Structure from the checkpoint file:  "BDE49_expt_1050_mol1.chk"
 Charge =  0 Multiplicity = 1

                         Standard orientation:
 ---------------------------------------------------------------------
 Center     Atomic      Atomic             Coordinates (Angstroms)
 Number     Number       Type             X           Y           Z
 ---------------------------------------------------------------------
      1          6           0        0.417746    0.016815    0.007496
      2          6           0       -0.897902    0.770720   -0.084447
      3          9           0        1.456797    0.835247   -0.258716
      4          9           0        0.448899   -0.993062   -0.899481
      5          9           0        0.621882   -0.529279    1.216630
      6          8           0       -2.004813   -0.076019    0.109500
      7          1           0       -0.911117    1.282410   -1.055030
      8          1           0       -0.915415    1.521034    0.706486
      9          1           0       -2.002230   -0.736652   -0.591641
 ---------------------------------------------------------------------

 SCF Done:  E(RHF) =  -450.887750414     A.U. after    2 cycles

 The electronic state is 1-A.
 Alpha  occ. eigenvalues --  -26.17280 -26.17144 -26.16869 -20.60942 -11.52870
 Alpha  occ. eigenvalues --  -11.33514  -1.76471  -1.69600  -1.69387  -1.36378
 Alpha  occ. eigenvalues --   -1.07686  -0.96326  -0.88486  -0.88389  -0.84034
 Alpha  occ. eigenvalues --   -0.78041  -0.77881  -0.73818  -0.73481  -0.72321
 Alpha  occ. eigenvalues --   -0.72068  -0.65288  -0.64728  -0.55667  -0.51063
 Alpha virt. eigenvalues --    0.03365   0.04876   0.05549   0.07950   0.10938
 Alpha virt. eigenvalues --    0.11273   0.11865   0.11925   0.15184   0.16374
 Alpha virt. eigenvalues --    0.19878   0.20523   0.20955   0.25227   0.25871

 Mulliken charges:
               1
     1  C    0.853772
     2  C    0.572917
     3  F   -0.318512
     4  F   -0.343141
     5  F   -0.294624
     6  O   -0.516144
     7  H   -0.030646
     8  H   -0.079570
     9  H    0.155948
 Sum of Mulliken charges =  -0.00000

 Dipole moment (field-independent basis, Debye):
    X=             -1.0977    Y=              1.1276    Z=             -1.3908  Tot=              2.1002

 Test job not archived.
 1\1\GINC-SE404\SP\RHF\Aug-CC-pVDZ\C2H3F3O1\OHZDE\08-Apr-2025\0\\#t hf
 aug-cc-pvdz iop(5/13=1,5/36=2,99/5=2) pseudo=read geom=check guess=(re
 ad,tcheck) scf=(maxcycle=1)\\title\\0,1\C,0,0.417746,0.016815,0.007496
 \C,0,-0.897902,0.77072,-0.084447\F,0,1.456797,0.835247,-0.258716\F,0,0
 .448899,-0.993062,-0.899481\F,0,0.621882,-0.529279,1.21663\O,0,-2.0048
 13,-0.07602,0.1095\H,0,-0.911118,1.28241,-1.05503\H,0,-0.915416,1.5210
 34,0.706486\H,0,-2.00223,-0.736653,-0.591641\\Version=ES64L-G16RevC.01
 \State=1-A\HF=-450.8877504\RMSD=6.158e-03\Dipole=-0.4318699,0.443637,-

 Normal termination of Gaussian 16 at Tue Apr  8 22:30:24 2025.
