 Gaussian 16, Revision C.01,

 ----------------------------------------------------------------------
 #t hf aug-cc-pvdz symm=none int=(grid=ultrafine) guess=(read,tcheck) s
 table=(opt,rrhf)
 ----------------------------------------------------------------------
 -----
 title
 -----
 Symbolic Z-matrix:
 Charge =  0 Multiplicity = 1

 SCF Done:  E(RHF) =  -932.909175902     A.U. after   14 cycles
 Normal termination of Gaussian 16 at Wed Apr  9 00:20:35 2025.
 Gaussian 16:  ES64L-G16RevC.01  3-Jul-2019

 ----------------------------------------------------------------------
 #t hf aug-cc-pvdz iop(5/13=1,5/36=2,99/5=2) pseudo=read geom=check gue
 ss=(read,tcheck) scf=(maxcycle=1)
 ----------------------------------------------------------------------
 -----
 title
 -----
 Structure from the checkpoint file:  "BDE49_nonexpt_2665_mol1.chk"
 Charge =  0 Multiplicity = 1

                         Standard orientation:
 ---------------------------------------------------------------------
 Center     Atomic      Atomic             Coordinates (Angstroms)
 Number     Number       Type             X           Y           Z
 ---------------------------------------------------------------------
      1          9           0        2.214297    0.432801    0.000003
      2         16           0        0.861196   -0.543503   -0.000003
      3          6           0       -0.420182    0.574790    0.000004
      4         16           0       -1.940589   -0.017281   -0.000001
      5          1           0       -0.137302    1.628598    0.000010
 ---------------------------------------------------------------------

 SCF Done:  E(RHF) =  -932.999229361     A.U. after    2 cycles

 The electronic state is 1-A.
 Alpha  occ. eigenvalues --  -93.67007 -93.54683 -26.16015 -11.38482  -8.95946
 Alpha  occ. eigenvalues --   -8.84541  -6.30099  -6.29716  -6.29308  -6.18683
 Alpha  occ. eigenvalues --   -6.18276  -6.18061  -1.67140  -1.13721  -0.98087
 Alpha  occ. eigenvalues --   -0.82620  -0.76370  -0.75033  -0.74605  -0.57825
 Alpha  occ. eigenvalues --   -0.54869  -0.50979  -0.37121  -0.37030
 Alpha virt. eigenvalues --    0.01837   0.03866   0.04768   0.06875   0.08450
 Alpha virt. eigenvalues --    0.11077   0.13016   0.13543   0.13639   0.13890
 Alpha virt. eigenvalues --    0.15477   0.16167   0.16717   0.22483   0.23211

 Mulliken charges:
               1
     1  F   -0.616182
     2  S    1.006709
     3  C   -0.405306
     4  S    0.194390
     5  H   -0.179611
 Sum of Mulliken charges =  -0.00000

 Dipole moment (field-independent basis, Debye):
    X=              0.1309    Y=              0.2875    Z=              0.0000  Tot=              0.3159

 Test job not archived.
 1\1\GINC-SE457\SP\RHF\Aug-CC-pVDZ\C1H1F1S2\OHZDE\09-Apr-2025\0\\#t hf
 aug-cc-pvdz iop(5/13=1,5/36=2,99/5=2) pseudo=read geom=check guess=(re
 ad,tcheck) scf=(maxcycle=1)\\title\\0,1\F,0,2.214297,0.432801,0.000003
 \S,0,0.861196,-0.543503,-0.000003\C,0,-0.420182,0.57479,0.000004\S,0,-
 1.940589,-0.017281,-0.000001\H,0,-0.137302,1.628598,0.00001\\Version=E
 S64L-G16RevC.01\State=1-A\HF=-932.9992294\RMSD=6.414e-03\Dipole=0.0514
 959,0.113095,0.0000008\Quadrupole=-3.4024373,2.6920505,0.7103867,-0.82
 42289,-0.0000051,0.0000127\PG=C01 [X(C1H1F1S2)]\\@

 Normal termination of Gaussian 16 at Wed Apr  9 00:20:37 2025.
