 Gaussian 16, Revision C.01,

 ----------------------------------------------------------------------
 #t hf aug-cc-pvdz symm=none int=(grid=ultrafine) guess=(read,tcheck) s
 table=(opt,rrhf)
 ----------------------------------------------------------------------
 -----
 title
 -----
 Symbolic Z-matrix:
 Charge =  0 Multiplicity = 1

 SCF Done:  E(RHF) =  -595.723779296     A.U. after   14 cycles
 Normal termination of Gaussian 16 at Wed Apr  9 00:06:10 2025.
 Gaussian 16:  ES64L-G16RevC.01  3-Jul-2019

 ----------------------------------------------------------------------
 #t hf aug-cc-pvdz iop(5/13=1,5/36=2,99/5=2) pseudo=read geom=check gue
 ss=(read,tcheck) scf=(maxcycle=1)
 ----------------------------------------------------------------------
 -----
 title
 -----
 Structure from the checkpoint file:  "BDE49_nonexpt_2262_mol1.chk"
 Charge =  0 Multiplicity = 1

                         Standard orientation:
 ---------------------------------------------------------------------
 Center     Atomic      Atomic             Coordinates (Angstroms)
 Number     Number       Type             X           Y           Z
 ---------------------------------------------------------------------
      1          6           0        2.699427    0.000016    0.277236
      2          6           0        2.016017    1.204247    0.119254
      3          6           0        0.658114    1.210180   -0.190078
      4          6           0        2.016041   -1.204229    0.119268
      5          6           0        0.658138   -1.210193   -0.190064
      6          6           0       -0.018746   -0.000014   -0.342058
      7          1           0        3.756447    0.000028    0.515982
      8          1           0        2.540619    2.146090    0.234680
      9          1           0        0.117803    2.139532   -0.325852
     10          1           0        2.540661   -2.146061    0.234706
     11          1           0        0.117843   -2.139556   -0.325826
     12          8           0       -1.351792   -0.000031   -0.688950
     13         14           0       -2.662508    0.000008    0.327966
     14          1           0       -3.842155   -0.000018   -0.555812
     15          1           0       -2.657851    1.204322    1.190383
     16          1           0       -2.657858   -1.204247    1.190465
 ---------------------------------------------------------------------

 SCF Done:  E(RHF) =  -595.848247709     A.U. after    2 cycles

 The electronic state is 1-A.
 Alpha  occ. eigenvalues --  -69.10232 -20.58411 -11.31618 -11.25241 -11.25234
 Alpha  occ. eigenvalues --  -11.24473 -11.24472 -11.24296  -6.85013  -3.95929
 Alpha  occ. eigenvalues --   -3.95776  -3.95748  -1.34123  -1.14096  -1.01708
 Alpha  occ. eigenvalues --   -1.00398  -0.84259  -0.83873  -0.75569  -0.69714
 Alpha  occ. eigenvalues --   -0.66339  -0.65623  -0.61507  -0.61025  -0.59803
 Alpha  occ. eigenvalues --   -0.55703  -0.52562  -0.50316  -0.50080  -0.47977
 Alpha  occ. eigenvalues --   -0.46056  -0.34693  -0.33050
 Alpha virt. eigenvalues --    0.03280   0.04022   0.04168   0.05205   0.05820
 Alpha virt. eigenvalues --    0.06098   0.06955   0.08135   0.08209   0.09072
 Alpha virt. eigenvalues --    0.09754   0.10462   0.11505   0.11971   0.13814

 Mulliken charges:
               1
     1  C    0.409075
     2  C    0.666054
     3  C    0.291981
     4  C    0.666065
     5  C    0.291974
     6  C    0.640658
     7  H   -0.444417
     8  H   -0.429707
     9  H   -0.525225
    10  H   -0.429706
    11  H   -0.525222
    12  O   -1.085609
    13  Si   0.354890
    14  H    0.066097
    15  H    0.026540
    16  H    0.026552
 Sum of Mulliken charges =  -0.00000

 Dipole moment (field-independent basis, Debye):
    X=              0.2897    Y=              0.0000    Z=              0.8623  Tot=              0.9097

 Test job not archived.
 1\1\GINC-SE345\SP\RHF\Aug-CC-pVDZ\C6H8O1Si1\OHZDE\09-Apr-2025\0\\#t hf
  aug-cc-pvdz iop(5/13=1,5/36=2,99/5=2) pseudo=read geom=check guess=(r
 ead,tcheck) scf=(maxcycle=1)\\title\\0,1\C,0,2.699427,0.000016,0.27723
 6\C,0,2.016017,1.204247,0.119254\C,0,0.658114,1.21018,-0.190078\C,0,2.
 016041,-1.204229,0.119268\C,0,0.658138,-1.210193,-0.190064\C,0,-0.0187
 46,-0.000014,-0.342058\H,0,3.756447,0.000028,0.515982\H,0,2.540619,2.1
 4609,0.23468\H,0,0.117803,2.139532,-0.325852\H,0,2.540661,-2.146061,0.
 234706\H,0,0.117843,-2.139556,-0.325826\O,0,-1.351792,-0.000031,-0.688

 Normal termination of Gaussian 16 at Wed Apr  9 00:06:17 2025.
