 Gaussian 16, Revision C.01,

 ----------------------------------------------------------------------
 #t hf aug-cc-pvdz symm=none int=(grid=ultrafine) guess=(read,tcheck) s
 table=(opt,rrhf)
 ----------------------------------------------------------------------
 -----
 title
 -----
 Symbolic Z-matrix:
 Charge =  0 Multiplicity = 1

 SCF Done:  E(RHF) =  -621.430754490     A.U. after   15 cycles
 Normal termination of Gaussian 16 at Tue Apr  8 23:06:52 2025.
 Gaussian 16:  ES64L-G16RevC.01  3-Jul-2019

 ----------------------------------------------------------------------
 #t hf aug-cc-pvdz iop(5/13=1,5/36=2,99/5=2) pseudo=read geom=check gue
 ss=(read,tcheck) scf=(maxcycle=1)
 ----------------------------------------------------------------------
 -----
 title
 -----
 Structure from the checkpoint file:  "BDE49_expt_463_mol1.chk"
 Charge =  0 Multiplicity = 1

                         Standard orientation:
 ---------------------------------------------------------------------
 Center     Atomic      Atomic             Coordinates (Angstroms)
 Number     Number       Type             X           Y           Z
 ---------------------------------------------------------------------
      1          6           0        1.427493    1.866655   -0.001432
      2          6           0        2.402226    0.877248    0.015502
      3          6           0        2.043323   -0.480312    0.004957
      4          6           0        0.074549    1.538903   -0.026052
      5          6           0       -0.284361    0.191427   -0.034769
      6          6           0        0.680641   -0.810507   -0.018493
      7          1           0        1.727855    2.908221    0.000984
      8          1           0        3.452176    1.150742    0.037952
      9          7           0        3.012434   -1.475175    0.074364
     10          1           0        3.933155   -1.216241   -0.246294
     11          1           0        2.731413   -2.387901   -0.250753
     12          1           0       -0.685238    2.308308   -0.048527
     13          6           0       -1.739181   -0.188745   -0.003063
     14          9           0       -2.514132    0.704283   -0.656992
     15          9           0       -1.967324   -1.398782   -0.563293
     16          9           0       -2.213126   -0.255995    1.264396
     17          1           0        0.376700   -1.850476   -0.030816
 ---------------------------------------------------------------------

 SCF Done:  E(RHF) =  -621.634641569     A.U. after    2 cycles

 The electronic state is 1-A.
 Alpha  occ. eigenvalues --  -26.15904 -26.15822 -26.15403 -15.64597 -11.52370
 Alpha  occ. eigenvalues --  -11.30966 -11.27906 -11.26391 -11.25861 -11.25539
 Alpha  occ. eigenvalues --  -11.25366  -1.75111  -1.68257  -1.67811  -1.21626
 Alpha  occ. eigenvalues --   -1.14881  -1.06876  -1.01053  -0.99052  -0.89051
 Alpha  occ. eigenvalues --   -0.87694  -0.86779  -0.83868  -0.80503  -0.76444
 Alpha  occ. eigenvalues --   -0.76383  -0.72234  -0.71751  -0.71325  -0.70764
 Alpha  occ. eigenvalues --   -0.70214  -0.67847  -0.62144  -0.61797  -0.60364
 Alpha  occ. eigenvalues --   -0.55569  -0.53787  -0.51965  -0.46863  -0.36619
 Alpha  occ. eigenvalues --   -0.31385
 Alpha virt. eigenvalues --    0.02629   0.03445   0.04293   0.05763   0.06248
 Alpha virt. eigenvalues --    0.08305   0.08716   0.09271   0.09313   0.10778
 Alpha virt. eigenvalues --    0.11325   0.12757   0.13051   0.13389   0.13669

 Mulliken charges:
               1
     1  C    0.461859
     2  C    0.626688
     3  C    0.357356
     4  C    0.037077
     5  C    1.020472
     6  C    0.293149
     7  H   -0.427781
     8  H   -0.541652
     9  N   -0.306602
    10  H   -0.037610
    11  H   -0.032148
    12  H   -0.548610
    13  C    0.716407
    14  F   -0.339420
    15  F   -0.334009
    16  F   -0.338922
    17  H   -0.606254
 Sum of Mulliken charges =   0.00000

 Dipole moment (field-independent basis, Debye):
    X=              4.2810    Y=             -0.0319    Z=             -1.0042  Tot=              4.3973

 Test job not archived.
 1\1\GINC-SE332\SP\RHF\Aug-CC-pVDZ\C7H6F3N1\OHZDE\08-Apr-2025\0\\#t hf
 aug-cc-pvdz iop(5/13=1,5/36=2,99/5=2) pseudo=read geom=check guess=(re
 ad,tcheck) scf=(maxcycle=1)\\title\\0,1\C,0,1.427493,1.866655,-0.00143
 2\C,0,2.402226,0.877248,0.015502\C,0,2.043323,-0.480312,0.004957\C,0,0
 .074549,1.538903,-0.026052\C,0,-0.284361,0.191427,-0.034769\C,0,0.6806
 41,-0.810507,-0.018493\H,0,1.727855,2.908221,0.000984\H,0,3.452176,1.1
 50742,0.037952\N,0,3.012434,-1.475175,0.074364\H,0,3.933155,-1.216241,
 -0.246294\H,0,2.731413,-2.387901,-0.250753\H,0,-0.685238,2.308308,-0.0

 Normal termination of Gaussian 16 at Tue Apr  8 23:07:00 2025.
