 Gaussian 16, Revision C.01,

 ----------------------------------------------------------------------
 #t hf aug-cc-pvdz symm=none int=(grid=ultrafine) guess=(read,tcheck) s
 table=(opt,rrhf)
 ----------------------------------------------------------------------
 -----
 title
 -----
 Symbolic Z-matrix:
 Charge =  0 Multiplicity = 1

 SCF Done:  E(RHF) =  -1063.08776918     A.U. after   16 cycles
 Normal termination of Gaussian 16 at Tue Apr  8 23:10:50 2025.
 Gaussian 16:  ES64L-G16RevC.01  3-Jul-2019

 ----------------------------------------------------------------------
 #t hf aug-cc-pvdz iop(5/13=1,5/36=2,99/5=2) pseudo=read geom=check gue
 ss=(read,tcheck) scf=(maxcycle=1)
 ----------------------------------------------------------------------
 -----
 title
 -----
 Structure from the checkpoint file:  "BDE49_expt_533_mol1.chk"
 Charge =  0 Multiplicity = 1

                         Standard orientation:
 ---------------------------------------------------------------------
 Center     Atomic      Atomic             Coordinates (Angstroms)
 Number     Number       Type             X           Y           Z
 ---------------------------------------------------------------------
      1          6           0        2.293896    1.228592   -0.033648
      2          6           0        1.558812    0.050016    0.625142
      3          6           0        2.375058   -1.165281    0.176546
      4          7           0        3.380047   -0.700349   -0.662183
      5          7           0        3.457511    0.717675   -0.600260
      6          1           0        3.753612    1.161729   -1.462204
      7          1           0        4.270685   -1.179670   -0.600613
      8          6           0        0.056516    0.008178    0.365339
      9          8           0        2.244966   -2.321607    0.498679
     10          8           0        1.972176    2.389356   -0.087705
     11          1           0        1.724825    0.130192    1.708162
     12          6           0       -0.585449   -1.169413   -0.025438
     13          6           0       -1.962548   -1.193194   -0.234585
     14          6           0       -2.700397   -0.031923   -0.045352
     15          6           0       -2.084225    1.149364    0.353177
     16          6           0       -0.708990    1.163580    0.560384
     17          1           0       -0.225126    2.085880    0.852638
     18          1           0       -2.671573    2.046464    0.499833
     19          1           0       -0.018697   -2.082502   -0.148769
     20          1           0       -2.455431   -2.107791   -0.537593
     21         17           0       -4.437316   -0.056300   -0.306561
 ---------------------------------------------------------------------

 SCF Done:  E(RHF) =  -1063.28189900     A.U. after    2 cycles

 The electronic state is 1-A.
 Alpha  occ. eigenvalues -- -103.66874 -20.58275 -20.58181 -15.71512 -15.71446
 Alpha  occ. eigenvalues --  -11.40732 -11.40711 -11.31883 -11.30599 -11.28255
 Alpha  occ. eigenvalues --  -11.26471 -11.26461 -11.26346 -11.26290 -10.70140
 Alpha  occ. eigenvalues --   -8.35876  -8.35571  -8.35555  -1.40829  -1.38794
 Alpha  occ. eigenvalues --   -1.31817  -1.20291  -1.15162  -1.10728  -1.08612
 Alpha  occ. eigenvalues --   -1.03324  -0.99545  -0.86811  -0.86145  -0.81506
 Alpha  occ. eigenvalues --   -0.81262  -0.75985  -0.72957  -0.70392  -0.68959
 Alpha  occ. eigenvalues --   -0.67647  -0.65825  -0.65683  -0.64653  -0.62097
 Alpha  occ. eigenvalues --   -0.61132  -0.59376  -0.58924  -0.55242  -0.53592
 Alpha  occ. eigenvalues --   -0.53005  -0.51855  -0.49454  -0.47633  -0.47042
 Alpha  occ. eigenvalues --   -0.45503  -0.39986  -0.35978  -0.34612
 Alpha virt. eigenvalues --    0.02460   0.03505   0.03985   0.04358   0.05227
 Alpha virt. eigenvalues --    0.06506   0.07275   0.08227   0.08701   0.09354
 Alpha virt. eigenvalues --    0.09744   0.10303   0.10512   0.11136   0.11305

 Mulliken charges:
               1
     1  C    0.686239
     2  C   -0.269845
     3  C    0.895461
     4  N   -0.305831
     5  N   -0.261112
     6  H    0.050824
     7  H    0.053783
     8  C    0.093861
     9  O   -0.505972
    10  O   -0.442020
    11  H    0.138032
    12  C    0.819709
    13  C    0.671520
    14  C   -0.294791
    15  C    0.955368
    16  C    0.296447
    17  H   -0.700584
    18  H   -0.446643
    19  H   -0.633150
    20  H   -0.449409
    21  Cl  -0.351888
 Sum of Mulliken charges =  -0.00000

 Dipole moment (field-independent basis, Debye):
    X=              3.7051    Y=              0.1043    Z=             -0.7367  Tot=              3.7790

 Test job not archived.
 1\1\GINC-SE186\SP\RHF\Aug-CC-pVDZ\C9H7Cl1N2O2\OHZDE\08-Apr-2025\0\\#t
 hf aug-cc-pvdz iop(5/13=1,5/36=2,99/5=2) pseudo=read geom=check guess=
 (read,tcheck) scf=(maxcycle=1)\\title\\0,1\C,0,2.293896,1.228592,-0.03
 3648\C,0,1.558812,0.050016,0.625142\C,0,2.375058,-1.165281,0.176546\N,
 0,3.380047,-0.700349,-0.662183\N,0,3.457511,0.717675,-0.60026\H,0,3.75
 3612,1.161729,-1.462204\H,0,4.270685,-1.17967,-0.600613\C,0,0.056516,0
 .008178,0.365339\O,0,2.244966,-2.321607,0.498679\O,0,1.972176,2.389356
 ,-0.087705\H,0,1.724825,0.130192,1.708162\C,0,-0.585449,-1.169413,-0.0

 Normal termination of Gaussian 16 at Tue Apr  8 23:11:10 2025.
