 Gaussian 16, Revision C.01,

 ----------------------------------------------------------------------
 #t hf aug-cc-pvdz symm=none int=(grid=ultrafine) guess=(read,tcheck) s
 table=(opt,rrhf)
 ----------------------------------------------------------------------
 -----
 title
 -----
 Symbolic Z-matrix:
 Charge =  0 Multiplicity = 1

 SCF Done:  E(RHF) =  -1729.56097142     A.U. after   15 cycles
 Normal termination of Gaussian 16 at Wed Apr  9 00:16:42 2025.
 Gaussian 16:  ES64L-G16RevC.01  3-Jul-2019

 ----------------------------------------------------------------------
 #t hf aug-cc-pvdz iop(5/13=1,5/36=2,99/5=2) pseudo=read geom=check gue
 ss=(read,tcheck) scf=(maxcycle=1)
 ----------------------------------------------------------------------
 -----
 title
 -----
 Structure from the checkpoint file:  "BDE49_nonexpt_2576_mol1.chk"
 Charge =  0 Multiplicity = 1

                         Standard orientation:
 ---------------------------------------------------------------------
 Center     Atomic      Atomic             Coordinates (Angstroms)
 Number     Number       Type             X           Y           Z
 ---------------------------------------------------------------------
      1         17           0       -2.508100   -0.635141    0.000089
      2         16           0       -1.186498    1.015972   -0.000002
      3          6           0        0.427384    0.386322   -0.000133
      4         16           0        1.507904    1.634402    0.000055
      5         16           0        0.701985   -1.326287   -0.000095
      6          6           0        2.517743   -1.399444   -0.000011
      7          1           0        2.758302   -2.463165    0.000014
      8          1           0        2.917147   -0.923035    0.893750
      9          1           0        2.917226   -0.923058   -0.893750
 ---------------------------------------------------------------------

 SCF Done:  E(RHF) =  -1729.66470297     A.U. after    2 cycles

 The electronic state is 1-A.
 Alpha  occ. eigenvalues -- -103.69039 -93.63626 -93.59321 -93.53182 -11.40342
 Alpha  occ. eigenvalues --  -11.29440 -10.72167  -8.92937  -8.89102  -8.83081
 Alpha  occ. eigenvalues --   -8.37889  -8.37555  -8.37518  -6.26981  -6.26693
 Alpha  occ. eigenvalues --   -6.26274  -6.23235  -6.22975  -6.22680  -6.17252
 Alpha  occ. eigenvalues --   -6.16774  -6.16681  -1.18954  -1.13473  -1.04719
 Alpha  occ. eigenvalues --   -0.93715  -0.91668  -0.71397  -0.65000  -0.62426
 Alpha  occ. eigenvalues --   -0.59038  -0.57826  -0.55029  -0.51930  -0.49005
 Alpha  occ. eigenvalues --   -0.48351  -0.47518  -0.39113  -0.35870  -0.35239
 Alpha virt. eigenvalues --    0.02835   0.03162   0.03379   0.05661   0.06101
 Alpha virt. eigenvalues --    0.06871   0.08570   0.08849   0.10879   0.11122
 Alpha virt. eigenvalues --    0.12963   0.13546   0.13699   0.14642   0.15525

 Mulliken charges:
               1
     1  Cl  -0.312952
     2  S    0.598895
     3  C   -0.669096
     4  S   -0.015921
     5  S    0.535476
     6  C   -0.000128
     7  H   -0.105308
     8  H   -0.015484
     9  H   -0.015484
 Sum of Mulliken charges =  -0.00000

 Dipole moment (field-independent basis, Debye):
    X=              1.9304    Y=             -1.9029    Z=              0.0000  Tot=              2.7106

 Test job not archived.
 1\1\GINC-SE336\SP\RHF\Aug-CC-pVDZ\C2H3Cl1S3\OHZDE\09-Apr-2025\0\\#t hf
  aug-cc-pvdz iop(5/13=1,5/36=2,99/5=2) pseudo=read geom=check guess=(r
 ead,tcheck) scf=(maxcycle=1)\\title\\0,1\Cl,0,2.5081,-0.63514,-0.00008
 9\S,0,1.186498,1.015972,0.000002\C,0,-0.427384,0.386322,0.000133\S,0,-
 1.507904,1.634402,-0.000055\S,0,-0.701985,-1.326287,0.000095\C,0,-2.51
 7743,-1.399445,0.000011\H,0,-2.758301,-2.463166,-0.000014\H,0,-2.91714
 7,-0.923036,-0.89375\H,0,-2.917226,-0.923059,0.89375\\Version=ES64L-G1
 6RevC.01\State=1-A\HF=-1729.664703\RMSD=5.697e-03\Dipole=-0.7594823,-0

 Normal termination of Gaussian 16 at Wed Apr  9 00:16:46 2025.
