 Gaussian 16, Revision C.01,

 ----------------------------------------------------------------------
 #t hf aug-cc-pvdz symm=none int=(grid=ultrafine) guess=(read,tcheck) s
 table=(opt,rrhf)
 ----------------------------------------------------------------------
 -----
 title
 -----
 Symbolic Z-matrix:
 Charge =  0 Multiplicity = 1

 SCF Done:  E(RHF) =  -748.015837886     A.U. after   15 cycles
 Normal termination of Gaussian 16 at Wed Apr  9 00:44:53 2025.
 Gaussian 16:  ES64L-G16RevC.01  3-Jul-2019

 ----------------------------------------------------------------------
 #t hf aug-cc-pvdz iop(5/13=1,5/36=2,99/5=2) pseudo=read geom=check gue
 ss=(read,tcheck) scf=(maxcycle=1)
 ----------------------------------------------------------------------
 -----
 title
 -----
 Structure from the checkpoint file:  "BDE49_nonexpt_797_mol1.chk"
 Charge =  0 Multiplicity = 1

                         Standard orientation:
 ---------------------------------------------------------------------
 Center     Atomic      Atomic             Coordinates (Angstroms)
 Number     Number       Type             X           Y           Z
 ---------------------------------------------------------------------
      1          6           0        0.577717   -1.564744   -1.552670
      2         14           0        0.125464   -0.625708    0.000005
      3          1           0        0.435640   -0.954760   -2.448048
      4          1           0       -0.064728   -2.445875   -1.644344
      5          1           0        1.618412   -1.894860   -1.518124
      6          6           0        0.577713   -1.564709    1.552701
      7          1           0        0.435641   -0.954702    2.448065
      8          1           0        1.618407   -1.894831    1.518162
      9          1           0       -0.064737   -2.445834    1.644398
     10          5           0       -1.701474    0.270596   -0.000009
     11          7           0        1.366194    0.828164   -0.000015
     12          8           0        0.938912    1.994472   -0.000035
     13          8           0        2.558835    0.559719    0.000039
     14          8           0       -2.790207   -0.549460   -0.000007
     15          8           0       -1.847795    1.616140   -0.000020
     16          1           0       -3.619247   -0.052634   -0.000014
     17          1           0       -0.982412    2.063039   -0.000015
 ---------------------------------------------------------------------

 SCF Done:  E(RHF) =  -748.189788069     A.U. after    2 cycles

 The electronic state is 1-A.
 Alpha  occ. eigenvalues --  -69.10641 -20.62357 -20.61663 -20.59915 -20.58734
 Alpha  occ. eigenvalues --  -15.87941 -11.24216 -11.24211  -7.67628  -6.85838
 Alpha  occ. eigenvalues --   -3.96701  -3.96486  -3.96437  -1.53027  -1.35797
 Alpha  occ. eigenvalues --   -1.35127  -1.31956  -0.98974  -0.95095  -0.92227
 Alpha  occ. eigenvalues --   -0.79868  -0.79364  -0.75559  -0.73021  -0.70418
 Alpha  occ. eigenvalues --   -0.65564  -0.61361  -0.60306  -0.60169  -0.59465
 Alpha  occ. eigenvalues --   -0.58464  -0.57405  -0.57345  -0.53177  -0.51896
 Alpha  occ. eigenvalues --   -0.47639  -0.47204  -0.47145  -0.43335
 Alpha virt. eigenvalues --    0.02536   0.03852   0.04003   0.05322   0.06138
 Alpha virt. eigenvalues --    0.06366   0.06608   0.06839   0.07301   0.07899
 Alpha virt. eigenvalues --    0.08870   0.09527   0.09818   0.10060   0.10963

 Mulliken charges:
               1
     1  C    0.458412
     2  Si   1.355249
     3  H   -0.340802
     4  H   -0.193674
     5  H   -0.203933
     6  C    0.458401
     7  H   -0.340802
     8  H   -0.203923
     9  H   -0.193676
    10  B    0.806676
    11  N    0.060743
    12  O   -0.597778
    13  O   -0.535474
    14  O   -0.491070
    15  O   -0.530938
    16  H    0.206468
    17  H    0.286121
 Sum of Mulliken charges =  -0.00000

 Dipole moment (field-independent basis, Debye):
    X=             -2.2960    Y=             -3.2982    Z=              0.0000  Tot=              4.0187

 Test job not archived.
 1\1\GINC-SE329\SP\RHF\Aug-CC-pVDZ\C2H8B1N1O4Si1\OHZDE\09-Apr-2025\0\\#
 t hf aug-cc-pvdz iop(5/13=1,5/36=2,99/5=2) pseudo=read geom=check gues
 s=(read,tcheck) scf=(maxcycle=1)\\title\\0,1\C,0,0.577718,-1.564744,-1
 .55267\Si,0,0.125464,-0.625708,0.000005\H,0,0.43564,-0.95476,-2.448048
 \H,0,-0.064727,-2.445875,-1.644344\H,0,1.618413,-1.894859,-1.518124\C,
 0,0.577714,-1.564709,1.552701\H,0,0.435641,-0.954702,2.448065\H,0,1.61
 8408,-1.89483,1.518162\H,0,-0.064736,-2.445834,1.644398\B,0,-1.701474,
 0.270596,-0.000009\N,0,1.366194,0.828164,-0.000015\O,0,0.938912,1.9944

 Normal termination of Gaussian 16 at Wed Apr  9 00:45:01 2025.
