 Gaussian 16, Revision C.01,

 ----------------------------------------------------------------------
 #t hf aug-cc-pvdz symm=none int=(grid=ultrafine) guess=(read,tcheck) s
 table=(opt,rrhf)
 ----------------------------------------------------------------------
 -----
 title
 -----
 Symbolic Z-matrix:
 Charge =  0 Multiplicity = 1

 SCF Done:  E(RHF) =  -279.565198176     A.U. after   12 cycles
 Normal termination of Gaussian 16 at Wed Apr  9 00:34:01 2025.
 Gaussian 16:  ES64L-G16RevC.01  3-Jul-2019

 ----------------------------------------------------------------------
 #t hf aug-cc-pvdz iop(5/13=1,5/36=2,99/5=2) pseudo=read geom=check gue
 ss=(read,tcheck) scf=(maxcycle=1)
 ----------------------------------------------------------------------
 -----
 title
 -----
 Structure from the checkpoint file:  "BDE49_nonexpt_46_mol1.chk"
 Charge =  0 Multiplicity = 1

                         Standard orientation:
 ---------------------------------------------------------------------
 Center     Atomic      Atomic             Coordinates (Angstroms)
 Number     Number       Type             X           Y           Z
 ---------------------------------------------------------------------
      1          5           0       -0.804713    0.571818    0.274423
      2          5           0        0.804713    0.571819   -0.274421
      3          8           0       -1.716733   -0.217405   -0.335328
      4          6           0       -3.089961   -0.259803    0.054232
      5          1           0       -3.336893   -1.279463    0.357671
      6          1           0       -3.706175    0.011090   -0.805846
      7          1           0       -3.284698    0.429549    0.881254
      8          8           0        1.716733   -0.217406    0.335327
      9          6           0        3.089961   -0.259803   -0.054233
     10          1           0        3.336893   -1.279463   -0.357673
     11          1           0        3.706175    0.011089    0.805845
     12          1           0        3.284698    0.429550   -0.881254
     13          1           0        1.184585    1.277793   -1.178925
     14          1           0       -1.184585    1.277791    1.178927
 ---------------------------------------------------------------------

 SCF Done:  E(RHF) =  -279.665565339     A.U. after    2 cycles

 The electronic state is 1-A.
 Alpha  occ. eigenvalues --  -20.57788 -20.57788 -11.28970 -11.28970  -7.60885
 Alpha  occ. eigenvalues --   -7.60818  -1.32838  -1.32500  -0.94496  -0.93974
 Alpha  occ. eigenvalues --   -0.73953  -0.71655  -0.65254  -0.64400  -0.63851
 Alpha  occ. eigenvalues --   -0.63604  -0.58936  -0.54207  -0.51442  -0.48945
 Alpha  occ. eigenvalues --   -0.48365  -0.47961  -0.39213
 Alpha virt. eigenvalues --    0.03583   0.04168   0.05028   0.05168   0.05926
 Alpha virt. eigenvalues --    0.06056   0.07031   0.07683   0.07964   0.08520
 Alpha virt. eigenvalues --    0.09285   0.09769   0.10198   0.12503   0.13443

 Mulliken charges:
               1
     1  B    0.283900
     2  B    0.283899
     3  O   -0.625324
     4  C    0.818720
     5  H   -0.154304
     6  H   -0.150902
     7  H   -0.217271
     8  O   -0.625324
     9  C    0.818720
    10  H   -0.154304
    11  H   -0.150903
    12  H   -0.217271
    13  H    0.045182
    14  H    0.045182
 Sum of Mulliken charges =  -0.00000

 Dipole moment (field-independent basis, Debye):
    X=              0.0000    Y=              0.3018    Z=              0.0000  Tot=              0.3018

 Test job not archived.
 1\1\GINC-SE462\SP\RHF\Aug-CC-pVDZ\C2H8B2O2\OHZDE\09-Apr-2025\0\\#t hf
 aug-cc-pvdz iop(5/13=1,5/36=2,99/5=2) pseudo=read geom=check guess=(re
 ad,tcheck) scf=(maxcycle=1)\\title\\0,1\B,0,-0.804713,0.571818,0.27442
 3\B,0,0.804713,0.571819,-0.274421\O,0,-1.716733,-0.217405,-0.335328\C,
 0,-3.089961,-0.259803,0.054232\H,0,-3.336893,-1.279463,0.357671\H,0,-3
 .706175,0.01109,-0.805846\H,0,-3.284698,0.429549,0.881254\O,0,1.716733
 ,-0.217406,0.335327\C,0,3.089961,-0.259803,-0.054233\H,0,3.336893,-1.2
 79463,-0.357673\H,0,3.706175,0.011089,0.805845\H,0,3.284698,0.42955,-0

 Normal termination of Gaussian 16 at Wed Apr  9 00:34:04 2025.
