 Gaussian 16, Revision C.01,

 ----------------------------------------------------------------------
 #t hf aug-cc-pvdz symm=none int=(grid=ultrafine) guess=(read,tcheck) s
 table=opt
 ----------------------------------------------------------------------
 -----
 title
 -----
 Symbolic Z-matrix:
 Charge =  0 Multiplicity = 2

 SCF Done:  E(UHF) =  -446.817430299     A.U. after   14 cycles
 Normal termination of Gaussian 16 at Tue Apr  8 23:04:09 2025.
 Gaussian 16:  ES64L-G16RevC.01  3-Jul-2019

 ----------------------------------------------------------------------
 #t hf aug-cc-pvdz iop(5/13=1,5/36=2,99/5=2) pseudo=read geom=check gue
 ss=(read,tcheck) scf=(maxcycle=1)
 ----------------------------------------------------------------------
 -----
 title
 -----
 Structure from the checkpoint file:  "BDE49_expt_396_mol2.chk"
 Charge =  0 Multiplicity = 2

                         Standard orientation:
 ---------------------------------------------------------------------
 Center     Atomic      Atomic             Coordinates (Angstroms)
 Number     Number       Type             X           Y           Z
 ---------------------------------------------------------------------
      1          6           0       -0.000025   -0.353647    1.866209
      2         14           0       -0.000001   -0.012198    0.042449
      3          1           0       -0.911204   -0.444039    2.453039
      4          1           0        0.911140   -0.444050    2.453059
      5          6           0       -1.546635   -0.761850   -0.729263
      6          1           0       -1.573345   -1.847274   -0.596214
      7          1           0       -1.590684   -0.556358   -1.803558
      8          1           0       -2.454324   -0.349511   -0.277531
      9          6           0        1.546570   -0.761993   -0.729251
     10          1           0        1.590648   -0.556501   -1.803545
     11          1           0        1.573179   -1.847420   -0.596204
     12          1           0        2.454294   -0.349737   -0.277509
     13          6           0        0.000088    1.851426   -0.265714
     14          1           0       -0.882905    2.327226    0.170855
     15          1           0        0.000105    2.067677   -1.339424
     16          1           0        0.883119    2.327143    0.170867
 ---------------------------------------------------------------------

 SCF Done:  E(UHF) =  -446.896780472     A.U. after    2 cycles

 The electronic state is 2-A.
 Alpha  occ. eigenvalues --  -69.04420 -11.22889 -11.20547 -11.20543 -11.20476
 Alpha  occ. eigenvalues --   -6.79572  -3.90389  -3.90365  -3.90343  -0.96691
 Alpha  occ. eigenvalues --   -0.91524  -0.91473  -0.91401  -0.62383  -0.58045
 Alpha  occ. eigenvalues --   -0.57009  -0.56089  -0.55628  -0.54108  -0.53458
 Alpha  occ. eigenvalues --   -0.52831  -0.45955  -0.44391  -0.42692  -0.36821
 Alpha virt. eigenvalues --    0.02859   0.04638   0.04758   0.05011   0.06610
 Alpha virt. eigenvalues --    0.06783   0.06872   0.07066   0.07484   0.09046
 Alpha virt. eigenvalues --    0.09158   0.10237   0.11375   0.12031   0.13310

  Beta  occ. eigenvalues --  -69.04486 -11.20678 -11.20526 -11.20523 -11.20371
  Beta  occ. eigenvalues --   -6.79671  -3.90536  -3.90439  -3.90433  -0.95704
  Beta  occ. eigenvalues --   -0.91476  -0.91211  -0.83493  -0.61884  -0.56998
  Beta  occ. eigenvalues --   -0.56875  -0.55936  -0.55391  -0.53792  -0.53197
  Beta  occ. eigenvalues --   -0.52792  -0.43828  -0.42564  -0.42518
  Beta virt. eigenvalues --    0.02907   0.04547   0.04649   0.04808   0.06579
  Beta virt. eigenvalues --    0.06626   0.06864   0.07056   0.07079   0.08602
  Beta virt. eigenvalues --    0.09054   0.09160   0.11581   0.11885   0.12185

 Mulliken charges and spin densities:
               1          2
     1  C    0.320433   1.276704
     2  Si   1.247267  -0.170427
     3  H   -0.340658  -0.084323
     4  H   -0.340679  -0.084323
     5  C    0.542207   0.001645
     6  H   -0.288928   0.010570
     7  H   -0.245864   0.001070
     8  H   -0.286261   0.001250
     9  C    0.542203   0.001646
    10  H   -0.245859   0.001070
    11  H   -0.288927   0.010571
    12  H   -0.286257   0.001250
    13  C    0.483899   0.011557
    14  H   -0.304436   0.007767
    15  H   -0.203706   0.006206
    16  H   -0.304434   0.007767
 Sum of Mulliken charges =   0.00000   1.00000

 Dipole moment (field-independent basis, Debye):
    X=             -0.0000    Y=             -0.0095    Z=              0.0185  Tot=              0.0208
                          Isotropic Fermi Contact Couplings
        Atom                 a.u.       MegaHertz       Gauss      10(-4) cm-1
     1  C(13)              0.18302     205.74861      73.41622      68.63035
     2  Si(29)            -0.07621      67.73362      24.16904      22.59350
     3  H(1)              -0.02260    -101.01620     -36.04509     -33.69538
     4  H(1)              -0.02260    -101.01594     -36.04500     -33.69529
     5  C(13)              0.00430       4.83670       1.72585       1.61335
     6  H(1)              -0.00010      -0.44852      -0.16004      -0.14961
     7  H(1)               0.00003       0.15384       0.05489       0.05132
     8  H(1)              -0.00024      -1.05555      -0.37665      -0.35209

 Normal termination of Gaussian 16 at Tue Apr  8 23:04:15 2025.
