 Gaussian 16, Revision C.01,

 ----------------------------------------------------------------------
 #t hf aug-cc-pvdz symm=none int=(grid=ultrafine) guess=(read,tcheck) s
 table=(opt,rrhf)
 ----------------------------------------------------------------------
 -----
 title
 -----
 Symbolic Z-matrix:
 Charge =  0 Multiplicity = 1

 SCF Done:  E(RHF) =  -685.164635671     A.U. after   14 cycles
 Normal termination of Gaussian 16 at Wed Apr  9 00:19:56 2025.
 Gaussian 16:  ES64L-G16RevC.01  3-Jul-2019

 ----------------------------------------------------------------------
 #t hf aug-cc-pvdz iop(5/13=1,5/36=2,99/5=2) pseudo=read geom=check gue
 ss=(read,tcheck) scf=(maxcycle=1)
 ----------------------------------------------------------------------
 -----
 title
 -----
 Structure from the checkpoint file:  "BDE49_nonexpt_2644_mol1.chk"
 Charge =  0 Multiplicity = 1

                         Standard orientation:
 ---------------------------------------------------------------------
 Center     Atomic      Atomic             Coordinates (Angstroms)
 Number     Number       Type             X           Y           Z
 ---------------------------------------------------------------------
      1          9           0        1.791010    0.559428    0.000304
      2         16           0        0.760723   -0.724583   -0.000074
      3          6           0       -0.766003    0.204833   -0.000358
      4          8           0       -0.870058    1.391873   -0.000015
      5          8           0       -1.766223   -0.699213    0.000052
      6          1           0       -2.604399   -0.211801    0.000306
 ---------------------------------------------------------------------

 SCF Done:  E(RHF) =  -685.285459198     A.U. after    2 cycles

 The electronic state is 1-A.
 Alpha  occ. eigenvalues --  -93.66071 -26.15570 -20.66773 -20.60557 -11.45959
 Alpha  occ. eigenvalues --   -8.94976  -6.29157  -6.28790  -6.28343  -1.67005
 Alpha  occ. eigenvalues --   -1.46740  -1.37642  -1.04904  -0.88513  -0.77982
 Alpha  occ. eigenvalues --   -0.76155  -0.75795  -0.72724  -0.68994  -0.67773
 Alpha  occ. eigenvalues --   -0.60017  -0.54903  -0.48821  -0.42291
 Alpha virt. eigenvalues --    0.02829   0.05162   0.06880   0.10178   0.10672
 Alpha virt. eigenvalues --    0.11470   0.11504   0.13474   0.14322   0.14438
 Alpha virt. eigenvalues --    0.18922   0.20923   0.20973   0.23486   0.23772

 Mulliken charges:
               1
     1  F   -0.593387
     2  S    0.914842
     3  C    0.211767
     4  O   -0.336209
     5  O   -0.374538
     6  H    0.177525
 Sum of Mulliken charges =   0.00000

 Dipole moment (field-independent basis, Debye):
    X=             -2.2179    Y=             -2.5543    Z=             -0.0007  Tot=              3.3828

 Test job not archived.
 1\1\GINC-SE106\SP\RHF\Aug-CC-pVDZ\C1H1F1O2S1\OHZDE\09-Apr-2025\0\\#t h
 f aug-cc-pvdz iop(5/13=1,5/36=2,99/5=2) pseudo=read geom=check guess=(
 read,tcheck) scf=(maxcycle=1)\\title\\0,1\F,0,-1.79101,0.559428,-0.000
 304\S,0,-0.760723,-0.724583,0.000074\C,0,0.766003,0.204833,0.000358\O,
 0,0.870058,1.391873,0.000015\O,0,1.766223,-0.699213,-0.000052\H,0,2.60
 4399,-0.211801,-0.000306\\Version=ES64L-G16RevC.01\State=1-A\HF=-685.2
 854592\RMSD=4.142e-03\Dipole=0.8726033,-1.0049197,0.000266\Quadrupole=
 3.8722885,-3.6154983,-0.2567903,0.9026884,-0.0005032,0.0002805\PG=C01

 Normal termination of Gaussian 16 at Wed Apr  9 00:19:59 2025.
