 Gaussian 16, Revision C.01,

 ----------------------------------------------------------------------
 #t hf aug-cc-pvdz symm=none int=(grid=ultrafine) guess=(read,tcheck) s
 table=(opt,rrhf)
 ----------------------------------------------------------------------
 -----
 title
 -----
 Symbolic Z-matrix:
 Charge =  0 Multiplicity = 1

 SCF Done:  E(RHF) =  -761.574504716     A.U. after   17 cycles
 Normal termination of Gaussian 16 at Tue Apr  8 22:53:18 2025.
 Gaussian 16:  ES64L-G16RevC.01  3-Jul-2019

 ----------------------------------------------------------------------
 #t hf aug-cc-pvdz iop(5/13=1,5/36=2,99/5=2) pseudo=read geom=check gue
 ss=(read,tcheck) scf=(maxcycle=1)
 ----------------------------------------------------------------------
 -----
 title
 -----
 Structure from the checkpoint file:  "BDE49_expt_1821_mol1.chk"
 Charge =  0 Multiplicity = 1

                         Standard orientation:
 ---------------------------------------------------------------------
 Center     Atomic      Atomic             Coordinates (Angstroms)
 Number     Number       Type             X           Y           Z
 ---------------------------------------------------------------------
      1          7           0       -2.689058    1.385728   -0.262479
      2          8           0       -2.291258    1.666721    0.811226
      3         16           0       -2.458754   -0.375899   -0.815274
      4          6           0       -1.623163   -1.134285    0.610309
      5          6           0       -0.131935   -1.429535    0.399202
      6          1           0       -2.179429   -2.043245    0.847401
      7          1           0       -1.768049   -0.425661    1.435555
      8          6           0        0.748018   -0.181706    0.275644
      9          1           0       -0.006417   -2.061386   -0.486959
     10          1           0        0.205891   -2.028764    1.254046
     11          6           0        2.228051   -0.508927    0.049541
     12          1           0        0.642205    0.425210    1.182966
     13          1           0        0.384473    0.437385   -0.552785
     14          6           0        3.117136    0.734291   -0.068542
     15          1           0        2.330643   -1.113354   -0.861006
     16          1           0        2.593134   -1.136239    0.873294
     17          6           0        4.594221    0.401420   -0.296664
     18          1           0        3.014753    1.338136    0.841118
     19          1           0        2.752231    1.360734   -0.891237
     20          1           0        4.997342   -0.195749    0.527303
     21          1           0        5.200005    1.308068   -0.376236
     22          1           0        4.732789   -0.172161   -1.218481
 ---------------------------------------------------------------------

 SCF Done:  E(RHF) =  -761.707307722     A.U. after    2 cycles

 The electronic state is 1-A.
 Alpha  occ. eigenvalues --  -93.56655 -20.67517 -15.82017 -11.27918 -11.24612
 Alpha  occ. eigenvalues --  -11.23226 -11.23016 -11.22939 -11.22373  -8.86265
 Alpha  occ. eigenvalues --   -6.20354  -6.20106  -6.19822  -1.51699  -1.09725
 Alpha  occ. eigenvalues --   -1.06074  -1.01486  -0.96488  -0.89945  -0.84323
 Alpha  occ. eigenvalues --   -0.79620  -0.78779  -0.71694  -0.69085  -0.65425
 Alpha  occ. eigenvalues --   -0.64742  -0.61996  -0.60836  -0.59156  -0.55726
 Alpha  occ. eigenvalues --   -0.54818  -0.53899  -0.49947  -0.49189  -0.47145
 Alpha  occ. eigenvalues --   -0.46790  -0.45944  -0.45663  -0.39197  -0.37379
 Alpha virt. eigenvalues --    0.03319   0.03764   0.04490   0.04887   0.05697
 Alpha virt. eigenvalues --    0.06158   0.06565   0.06837   0.07462   0.08201
 Alpha virt. eigenvalues --    0.08584   0.08781   0.09298   0.09918   0.10990

 Mulliken charges:
               1
     1  N   -0.171197
     2  O   -0.363827
     3  S    0.657463
     4  C    0.378842
     5  C    0.201467
     6  H   -0.096192
     7  H   -0.032066
     8  C    0.058370
     9  H   -0.171903
    10  H   -0.114749
    11  C    0.036941
    12  H   -0.189682
    13  H   -0.224943
    14  C    0.360088
    15  H   -0.169133
    16  H   -0.183956
    17  C    0.559907
    18  H   -0.151143
    19  H   -0.145630
    20  H   -0.088900
    21  H   -0.062912
    22  H   -0.086848
 Sum of Mulliken charges =  -0.00000

 Dipole moment (field-independent basis, Debye):
    X=              1.1178    Y=             -1.8538    Z=              0.5234  Tot=              2.2271

 Test job not archived.
 1\1\GINC-SE435\SP\RHF\Aug-CC-pVDZ\C6H13N1O1S1\OHZDE\08-Apr-2025\0\\#t
 hf aug-cc-pvdz iop(5/13=1,5/36=2,99/5=2) pseudo=read geom=check guess=
 (read,tcheck) scf=(maxcycle=1)\\title\\0,1\N,0,-2.689058,1.385728,-0.2
 62479\O,0,-2.291258,1.666721,0.811226\S,0,-2.458754,-0.375899,-0.81527
 4\C,0,-1.623163,-1.134285,0.610309\C,0,-0.131935,-1.429535,0.399202\H,
 0,-2.179429,-2.043245,0.847401\H,0,-1.768049,-0.425661,1.435555\C,0,0.
 748018,-0.181706,0.275644\H,0,-0.006417,-2.061386,-0.486959\H,0,0.2058
 91,-2.028764,1.254046\C,0,2.228051,-0.508927,0.049541\H,0,0.642205,0.4

 Normal termination of Gaussian 16 at Tue Apr  8 22:53:28 2025.
