 Gaussian 16, Revision C.01,

 ----------------------------------------------------------------------
 #t hf aug-cc-pvdz symm=none int=(grid=ultrafine) guess=(read,tcheck) s
 table=(opt,rrhf)
 ----------------------------------------------------------------------
 -----
 title
 -----
 Symbolic Z-matrix:
 Charge =  0 Multiplicity = 1

 SCF Done:  E(RHF) =  -701.343921639     A.U. after   16 cycles
 Normal termination of Gaussian 16 at Tue Apr  8 23:16:49 2025.
 Gaussian 16:  ES64L-G16RevC.01  3-Jul-2019

 ----------------------------------------------------------------------
 #t hf aug-cc-pvdz iop(5/13=1,5/36=2,99/5=2) pseudo=read geom=check gue
 ss=(read,tcheck) scf=(maxcycle=1)
 ----------------------------------------------------------------------
 -----
 title
 -----
 Structure from the checkpoint file:  "BDE49_nonexpt_1067_mol1.chk"
 Charge =  0 Multiplicity = 1

                         Standard orientation:
 ---------------------------------------------------------------------
 Center     Atomic      Atomic             Coordinates (Angstroms)
 Number     Number       Type             X           Y           Z
 ---------------------------------------------------------------------
      1         17           0       -1.651232   -0.400236   -0.088344
      2          8           0       -0.485042    0.692786    0.544333
      3          6           0        1.583734   -0.016100   -0.089409
      4          7           0        2.454731   -0.738563    0.159560
      5          8           0        0.658220    0.816033   -0.429160
 ---------------------------------------------------------------------

 SCF Done:  E(RHF) =  -701.439947570     A.U. after    2 cycles

 The electronic state is 1-A.
 Alpha  occ. eigenvalues -- -103.77485 -20.78579 -20.76439 -15.67284 -11.37695
 Alpha  occ. eigenvalues --  -10.80147  -8.45914  -8.45451  -8.45411  -1.53504
 Alpha  occ. eigenvalues --   -1.36465  -1.21461  -1.13953  -0.86514  -0.76658
 Alpha  occ. eigenvalues --   -0.76045  -0.67335  -0.64305  -0.58104  -0.54697
 Alpha  occ. eigenvalues --   -0.51917  -0.48733  -0.47658
 Alpha virt. eigenvalues --   -0.00910   0.05715   0.06579   0.08930   0.09348
 Alpha virt. eigenvalues --    0.09626   0.13012   0.13380   0.13723   0.18519
 Alpha virt. eigenvalues --    0.18741   0.19196   0.20475   0.22861   0.23395

 Mulliken charges:
               1
     1  Cl   0.451523
     2  O   -0.385080
     3  C    0.172635
     4  N   -0.060903
     5  O   -0.178175
 Sum of Mulliken charges =  -0.00000

 Dipole moment (field-independent basis, Debye):
    X=             -2.8850    Y=              0.4639    Z=             -0.5749  Tot=              2.9781

 Test job not archived.
 1\1\GINC-SE403\SP\RHF\Aug-CC-pVDZ\C1Cl1N1O2\OHZDE\08-Apr-2025\0\\#t hf
  aug-cc-pvdz iop(5/13=1,5/36=2,99/5=2) pseudo=read geom=check guess=(r
 ead,tcheck) scf=(maxcycle=1)\\title\\0,1\Cl,0,-1.651232,-0.400236,-0.0
 88344\O,0,-0.485042,0.692786,0.544333\C,0,1.583734,-0.0161,-0.089409\N
 ,0,2.454731,-0.738563,0.15956\O,0,0.65822,0.816033,-0.42916\\Version=E
 S64L-G16RevC.01\State=1-A\HF=-701.4399476\RMSD=2.487e-03\Dipole=-1.135
 0403,0.1825006,-0.2261886\Quadrupole=-1.6258412,0.4024589,1.2233823,3.
 833433,-0.4459757,0.6075128\PG=C01 [X(C1Cl1N1O2)]\\@

 Normal termination of Gaussian 16 at Tue Apr  8 23:16:51 2025.
