 Gaussian 16, Revision C.01,

 ----------------------------------------------------------------------
 #t hf aug-cc-pvdz symm=none int=(grid=ultrafine) guess=(read,tcheck) s
 table=opt
 ----------------------------------------------------------------------
 -----
 title
 -----
 Symbolic Z-matrix:
 Charge =  0 Multiplicity = 2

 SCF Done:  E(UHF) =  -518.562081460     A.U. after   15 cycles
 Normal termination of Gaussian 16 at Tue Apr  8 23:41:21 2025.
 Gaussian 16:  ES64L-G16RevC.01  3-Jul-2019

 ----------------------------------------------------------------------
 #t hf aug-cc-pvdz iop(5/13=1,5/36=2,99/5=2) pseudo=read geom=check gue
 ss=(read,tcheck) scf=(maxcycle=1)
 ----------------------------------------------------------------------
 -----
 title
 -----
 Structure from the checkpoint file:  "BDE49_nonexpt_1678_mol2.chk"
 Charge =  0 Multiplicity = 2

                         Standard orientation:
 ---------------------------------------------------------------------
 Center     Atomic      Atomic             Coordinates (Angstroms)
 Number     Number       Type             X           Y           Z
 ---------------------------------------------------------------------
      1         14           0       -0.634111    0.000844    0.503398
      2          8           0       -0.913272    1.412885   -0.312565
      3          6           0        1.244392   -0.073031    0.713445
      4          6           0        1.997308   -0.050158   -0.630899
      5          1           0        1.490647   -0.975190    1.284467
      6          1           0        1.538884    0.776292    1.339486
      7          1           0        1.712058   -0.899683   -1.256497
      8          1           0        3.080061   -0.093408   -0.477786
      9          1           0        1.769433    0.860975   -1.187860
     10          1           0       -1.751392    1.499951   -0.774380
     11          8           0       -1.207869   -1.212492   -0.487446
     12          1           0       -1.443204   -2.044758   -0.070177
 ---------------------------------------------------------------------

 SCF Done:  E(UHF) =  -518.674259198     A.U. after    2 cycles

 The electronic state is 2-A.
 Alpha  occ. eigenvalues --  -69.11287 -20.57549 -20.56976 -11.22599 -11.22443
 Alpha  occ. eigenvalues --   -6.85792  -3.96984  -3.96438  -3.96254  -1.31528
 Alpha  occ. eigenvalues --   -1.29333  -1.01266  -0.84586  -0.76145  -0.71640
 Alpha  occ. eigenvalues --   -0.61839  -0.60490  -0.59608  -0.57252  -0.54794
 Alpha  occ. eigenvalues --   -0.53832  -0.51987  -0.49355  -0.46117  -0.31867
 Alpha virt. eigenvalues --    0.03190   0.04667   0.04774   0.05363   0.06703
 Alpha virt. eigenvalues --    0.06888   0.07469   0.07668   0.09137   0.09896
 Alpha virt. eigenvalues --    0.13289   0.14035   0.15069   0.16031   0.16736

  Beta  occ. eigenvalues --  -69.10798 -20.57160 -20.56627 -11.22547 -11.22066
  Beta  occ. eigenvalues --   -6.85003  -3.96138  -3.96003  -3.95178  -1.30404
  Beta  occ. eigenvalues --   -1.28248  -1.00593  -0.83775  -0.75332  -0.71227
  Beta  occ. eigenvalues --   -0.60639  -0.58875  -0.58053  -0.56439  -0.53080
  Beta  occ. eigenvalues --   -0.52597  -0.51137  -0.49208  -0.43554
  Beta virt. eigenvalues --    0.02404   0.04635   0.04816   0.05049   0.06718
  Beta virt. eigenvalues --    0.06981   0.07140   0.07628   0.08624   0.09371
  Beta virt. eigenvalues --    0.10120   0.13603   0.15036   0.15630   0.17198

 Mulliken charges and spin densities:
               1          2
     1  Si   1.673488   0.880466
     2  O   -0.791888   0.024544
     3  C   -0.095541   0.156367
     4  C    0.288964  -0.023779
     5  H   -0.127912  -0.012887
     6  H   -0.124562  -0.009085
     7  H   -0.101494  -0.001386
     8  H   -0.083949   0.002212
     9  H   -0.085996  -0.000820
    10  H    0.128137  -0.004759
    11  O   -0.819739   0.014681
    12  H    0.140491  -0.025555
 Sum of Mulliken charges =  -0.00000   1.00000

 Dipole moment (field-independent basis, Debye):
    X=             -0.5839    Y=             -1.3185    Z=              0.8496  Tot=              1.6737
                          Isotropic Fermi Contact Couplings
        Atom                 a.u.       MegaHertz       Gauss      10(-4) cm-1
     1  Si(29)             0.63680    -565.94096    -201.94181    -188.77758
     2  O(17)              0.04689     -28.42387     -10.14234      -9.48118
     3  C(13)              0.07944      89.30440      31.86603      29.78874
     4  C(13)              0.00923      10.37178       3.70091       3.45965
     5  H(1)              -0.00223      -9.98165      -3.56170      -3.32952
     6  H(1)              -0.00231     -10.32543      -3.68437      -3.44419
     7  H(1)              -0.00020      -0.90934      -0.32447      -0.30332
     8  H(1)               0.00236      10.55810       3.76739       3.52180

 Normal termination of Gaussian 16 at Tue Apr  8 23:41:26 2025.
