 Gaussian 16, Revision C.01,

 ----------------------------------------------------------------------
 #t hf aug-cc-pvdz symm=none int=(grid=ultrafine) guess=(read,tcheck) s
 table=(opt,rrhf)
 ----------------------------------------------------------------------
 -----
 title
 -----
 Symbolic Z-matrix:
 Charge =  0 Multiplicity = 1

 SCF Done:  E(RHF) =  -385.032782774     A.U. after   13 cycles

 1\1\GINC-SE166\Stability\RHF\Aug-CC-pVDZ\C6H14O2\OHZDE\08-Apr-2025\0\\
 #t hf aug-cc-pvdz symm=none int=(grid=ultrafine) guess=(read,tcheck) s
 table=(opt,rrhf)\\title\\0,1\C,0,1.662005,-0.104394,0.320361\O,0,0.540
 114,0.489667,-0.352594\O,0,-0.540114,-0.489666,-0.352594\C,0,-1.662006
 ,0.104394,0.320361\C,0,2.658018,1.040182,0.474331\C,0,-2.658018,-1.040
 183,0.47433\H,0,2.225539,1.857856,1.054229\H,0,2.949351,1.426162,-0.50
 5836\H,0,-2.225538,-1.857857,1.054228\H,0,-2.949351,-1.426163,-0.50583
 6\C,0,2.219277,-1.285807,-0.466786\H,0,1.449125,-2.044529,-0.608526\H,

 Normal termination of Gaussian 16 at Tue Apr  8 22:54:51 2025.
 Gaussian 16:  ES64L-G16RevC.01  3-Jul-2019

 ----------------------------------------------------------------------
 #t hf aug-cc-pvdz iop(5/13=1,5/36=2,99/5=2) pseudo=read geom=check gue
 ss=(read,tcheck) scf=(maxcycle=1)
 ----------------------------------------------------------------------
 -----
 title
 -----
 Structure from the checkpoint file:  "BDE49_expt_1855_mol1.chk"
 Charge =  0 Multiplicity = 1

                         Standard orientation:
 ---------------------------------------------------------------------
 Center     Atomic      Atomic             Coordinates (Angstroms)
 Number     Number       Type             X           Y           Z
 ---------------------------------------------------------------------
      1          6           0       -1.662005    0.104394    0.320361
      2          8           0       -0.540114   -0.489667   -0.352594
      3          8           0        0.540114    0.489666   -0.352594
      4          6           0        1.662006   -0.104394    0.320361
      5          6           0       -2.658018   -1.040182    0.474331
      6          6           0        2.658018    1.040183    0.474330
      7          1           0       -2.225539   -1.857856    1.054229
      8          1           0       -2.949351   -1.426162   -0.505836
      9          1           0        2.225538    1.857857    1.054228
     10          1           0        2.949351    1.426163   -0.505836
     11          6           0       -2.219277    1.285807   -0.466786
     12          1           0       -1.449125    2.044529   -0.608526
     13          1           0       -3.059178    1.739594    0.067467
     14          1           0       -2.567739    0.956038   -1.449394
     15          6           0        2.219278   -1.285806   -0.466786
     16          1           0        1.449127   -2.044530   -0.608526
     17          1           0        3.059180   -1.739593    0.067467
     18          1           0        2.567740   -0.956038   -1.449394
     19          1           0        1.325567   -0.440839    1.309464
     20          1           0        3.556308    0.686213    0.985919
     21          1           0       -1.325567    0.440839    1.309464
     22          1           0       -3.556308   -0.686211    0.985919
 ---------------------------------------------------------------------

 SCF Done:  E(RHF) =  -385.156636292     A.U. after    2 cycles

 The electronic state is 1-A.
 Alpha  occ. eigenvalues --  -20.62086 -20.62058 -11.29219 -11.29217 -11.22850
 Alpha  occ. eigenvalues --  -11.22850 -11.22004 -11.22004  -1.40794  -1.21567
 Alpha  occ. eigenvalues --   -1.04111  -1.00830  -0.93474  -0.93428  -0.81149
 Alpha  occ. eigenvalues --   -0.79119  -0.69841  -0.67609  -0.65388  -0.62045
 Alpha  occ. eigenvalues --   -0.58518  -0.57640  -0.57453  -0.54467  -0.54402
 Alpha  occ. eigenvalues --   -0.53073  -0.52887  -0.51148  -0.51140  -0.49219
 Alpha  occ. eigenvalues --   -0.46742  -0.45817  -0.43611
 Alpha virt. eigenvalues --    0.03512   0.04365   0.04702   0.04726   0.05886
 Alpha virt. eigenvalues --    0.05963   0.06051   0.06952   0.07018   0.08261
 Alpha virt. eigenvalues --    0.08874   0.08953   0.09212   0.09737   0.13390

 Mulliken charges:
               1
     1  C   -0.038809
     2  O   -0.486252
     3  O   -0.486252
     4  C   -0.038809
     5  C    0.506241
     6  C    0.506242
     7  H   -0.076831
     8  H   -0.013495
     9  H   -0.076830
    10  H   -0.013498
    11  C    0.408429
    12  H   -0.076205
    13  H   -0.013495
    14  H    0.003710
    15  C    0.408427
    16  H   -0.076204
    17  H   -0.013494
    18  H    0.003708
    19  H   -0.199227
    20  H   -0.014064
    21  H   -0.199227
    22  H   -0.014065
 Sum of Mulliken charges =  -0.00000

 Dipole moment (field-independent basis, Debye):
    X=              0.0000    Y=              0.0000    Z=              1.6413  Tot=              1.6413

 Test job not archived.
 1\1\GINC-SE166\SP\RHF\Aug-CC-pVDZ\C6H14O2\OHZDE\08-Apr-2025\0\\#t hf a
 ug-cc-pvdz iop(5/13=1,5/36=2,99/5=2) pseudo=read geom=check guess=(rea
 d,tcheck) scf=(maxcycle=1)\\title\\0,1\C,0,1.662005,-0.104394,0.320361
 \O,0,0.540114,0.489667,-0.352594\O,0,-0.540114,-0.489666,-0.352594\C,0
 ,-1.662006,0.104394,0.320361\C,0,2.658018,1.040182,0.474331\C,0,-2.658
 018,-1.040183,0.47433\H,0,2.225539,1.857856,1.054229\H,0,2.949351,1.42
 6162,-0.505836\H,0,-2.225538,-1.857857,1.054228\H,0,-2.949351,-1.42616
 3,-0.505836\C,0,2.219277,-1.285807,-0.466786\H,0,1.449125,-2.044529,-0

 Normal termination of Gaussian 16 at Tue Apr  8 22:55:02 2025.
