 Gaussian 16, Revision C.01,

 ----------------------------------------------------------------------
 #t hf aug-cc-pvdz symm=none int=(grid=ultrafine) guess=(read,tcheck) s
 table=(opt,rrhf)
 ----------------------------------------------------------------------
 -----
 title
 -----
 Symbolic Z-matrix:
 Charge =  0 Multiplicity = 1

 SCF Done:  E(RHF) =  -415.480769209     A.U. after   14 cycles
 Normal termination of Gaussian 16 at Tue Apr  8 22:59:47 2025.
 Gaussian 16:  ES64L-G16RevC.01  3-Jul-2019

 ----------------------------------------------------------------------
 #t hf aug-cc-pvdz iop(5/13=1,5/36=2,99/5=2) pseudo=read geom=check gue
 ss=(read,tcheck) scf=(maxcycle=1)
 ----------------------------------------------------------------------
 -----
 title
 -----
 Structure from the checkpoint file:  "BDE49_expt_255_mol1.chk"
 Charge =  0 Multiplicity = 1

                         Standard orientation:
 ---------------------------------------------------------------------
 Center     Atomic      Atomic             Coordinates (Angstroms)
 Number     Number       Type             X           Y           Z
 ---------------------------------------------------------------------
      1          6           0        1.366837   -0.141477   -0.007128
      2          6           0       -1.237125    0.052564    0.021286
      3          8           0       -1.237968    1.260369    0.007073
      4          8           0        2.328148   -0.835384   -0.185125
      5          8           0       -2.383153   -0.616502   -0.183501
      6          1           0       -2.233100   -1.569425   -0.156654
      7          6           0       -0.001617   -0.782664    0.305410
      8          1           0       -0.027116   -1.744186   -0.210261
      9          1           0       -0.002564   -1.000577    1.380739
     10          8           0        1.416478    1.190511   -0.012822
     11          1           0        0.506173    1.551702    0.063764
 ---------------------------------------------------------------------

 SCF Done:  E(RHF) =  -415.612950328     A.U. after    2 cycles

 The electronic state is 1-A.
 Alpha  occ. eigenvalues --  -20.67117 -20.62434 -20.60971 -20.57194 -11.45241
 Alpha  occ. eigenvalues --  -11.42029 -11.31476  -1.47131  -1.43109  -1.38008
 Alpha  occ. eigenvalues --   -1.34188  -1.08031  -0.89938  -0.85933  -0.79965
 Alpha  occ. eigenvalues --   -0.74893  -0.72521  -0.70504  -0.68580  -0.66093
 Alpha  occ. eigenvalues --   -0.64699  -0.60129  -0.58602  -0.54728  -0.52186
 Alpha  occ. eigenvalues --   -0.50160  -0.47966
 Alpha virt. eigenvalues --    0.01551   0.03935   0.05223   0.05820   0.08896
 Alpha virt. eigenvalues --    0.09301   0.10138   0.11067   0.11259   0.12303
 Alpha virt. eigenvalues --    0.12435   0.14416   0.14617   0.15335   0.15799

 Mulliken charges:
               1
     1  C    0.503371
     2  C    0.766563
     3  O   -0.485876
     4  O   -0.430172
     5  O   -0.467333
     6  H    0.192238
     7  C   -0.035832
     8  H   -0.032171
     9  H    0.175080
    10  O   -0.440156
    11  H    0.254288
 Sum of Mulliken charges =  -0.00000

 Dipole moment (field-independent basis, Debye):
    X=             -3.6118    Y=             -3.4191    Z=              1.1686  Tot=              5.1089

 Test job not archived.
 1\1\GINC-SE073\SP\RHF\Aug-CC-pVDZ\C3H4O4\OHZDE\08-Apr-2025\0\\#t hf au
 g-cc-pvdz iop(5/13=1,5/36=2,99/5=2) pseudo=read geom=check guess=(read
 ,tcheck) scf=(maxcycle=1)\\title\\0,1\C,0,1.366837,-0.141477,-0.007128
 \C,0,-1.237125,0.052564,0.021286\O,0,-1.237968,1.260369,0.007073\O,0,2
 .328148,-0.835384,-0.185125\O,0,-2.383153,-0.616502,-0.183501\H,0,-2.2
 331,-1.569425,-0.156654\C,0,-0.001617,-0.782664,0.30541\H,0,-0.027116,
 -1.744186,-0.210261\H,0,-0.002564,-1.000577,1.380739\O,0,1.416478,1.19
 0511,-0.012822\H,0,0.506173,1.551702,0.063764\\Version=ES64L-G16RevC.0

 Normal termination of Gaussian 16 at Tue Apr  8 22:59:51 2025.
