 Gaussian 16, Revision C.01,

 ----------------------------------------------------------------------
 #t hf aug-cc-pvdz symm=none int=(grid=ultrafine) guess=(read,tcheck) s
 table=(opt,rrhf)
 ----------------------------------------------------------------------
 -----
 title
 -----
 Symbolic Z-matrix:
 Charge =  0 Multiplicity = 1

 SCF Done:  E(RHF) =  -913.366471654     A.U. after   15 cycles
 Normal termination of Gaussian 16 at Tue Apr  8 23:40:03 2025.
 Gaussian 16:  ES64L-G16RevC.01  3-Jul-2019

 ----------------------------------------------------------------------
 #t hf aug-cc-pvdz iop(5/13=1,5/36=2,99/5=2) pseudo=read geom=check gue
 ss=(read,tcheck) scf=(maxcycle=1)
 ----------------------------------------------------------------------
 -----
 title
 -----
 Structure from the checkpoint file:  "BDE49_nonexpt_1629_mol1.chk"
 Charge =  0 Multiplicity = 1

                         Standard orientation:
 ---------------------------------------------------------------------
 Center     Atomic      Atomic             Coordinates (Angstroms)
 Number     Number       Type             X           Y           Z
 ---------------------------------------------------------------------
      1          6           0        2.251509   -1.233965   -0.126161
      2          6           0        0.929806   -1.179395    0.306995
      3          6           0        0.263824    0.049241    0.420280
      4          6           0        2.935596   -0.059755   -0.434735
      5          6           0        2.288977    1.168356   -0.313666
      6          6           0        0.961643    1.223041    0.104814
      7          1           0        2.749964   -2.192921   -0.212986
      8          1           0        0.412170   -2.097935    0.563365
      9          1           0        0.466402    2.184297    0.186216
     10          1           0        3.967616   -0.101377   -0.764018
     11          1           0        2.816082    2.086105   -0.549878
     12         15           0       -1.472970    0.052437    1.036623
     13         15           0       -2.551042   -0.205430   -0.924611
     14          1           0       -2.402554    1.105794   -1.447569
     15          1           0       -3.838202    0.050083   -0.382800
     16          1           0       -1.599437    1.455705    1.182329
 ---------------------------------------------------------------------

 SCF Done:  E(RHF) =  -913.472840641     A.U. after    2 cycles

 The electronic state is 1-A.
 Alpha  occ. eigenvalues --  -81.26742 -81.26237 -11.26060 -11.25560 -11.25423
 Alpha  occ. eigenvalues --  -11.25353 -11.25226 -11.25163  -7.77055  -7.76611
 Alpha  occ. eigenvalues --   -4.91080  -4.90955  -4.90712  -4.90495  -4.90454
 Alpha  occ. eigenvalues --   -4.90191  -1.14964  -1.02145  -1.01806  -0.85853
 Alpha  occ. eigenvalues --   -0.83611  -0.80830  -0.73834  -0.69044  -0.64155
 Alpha  occ. eigenvalues --   -0.63477  -0.59953  -0.56197  -0.52803  -0.52427
 Alpha  occ. eigenvalues --   -0.50641  -0.49771  -0.45375  -0.37715  -0.36186
 Alpha  occ. eigenvalues --   -0.34732  -0.31737
 Alpha virt. eigenvalues --    0.03241   0.04018   0.04329   0.05216   0.05824
 Alpha virt. eigenvalues --    0.06181   0.07243   0.08354   0.09172   0.09523
 Alpha virt. eigenvalues --    0.09681   0.10108   0.10295   0.10882   0.11917

 Mulliken charges:
               1
     1  C    0.539301
     2  C    0.267062
     3  C    0.089074
     4  C    0.503108
     5  C    0.530353
     6  C    0.564403
     7  H   -0.441080
     8  H   -0.515723
     9  H   -0.563387
    10  H   -0.428624
    11  H   -0.443277
    12  P   -0.329862
    13  P   -0.295911
    14  H    0.171846
    15  H    0.151334
    16  H    0.201384
 Sum of Mulliken charges =  -0.00000

 Dipole moment (field-independent basis, Debye):
    X=              0.8780    Y=              0.9085    Z=             -0.3358  Tot=              1.3073

 Test job not archived.
 1\1\GINC-SE099\SP\RHF\Aug-CC-pVDZ\C6H8P2\OHZDE\08-Apr-2025\0\\#t hf au
 g-cc-pvdz iop(5/13=1,5/36=2,99/5=2) pseudo=read geom=check guess=(read
 ,tcheck) scf=(maxcycle=1)\\title\\0,1\C,0,2.251509,-1.233965,-0.126161
 \C,0,0.929806,-1.179395,0.306995\C,0,0.263824,0.049241,0.42028\C,0,2.9
 35596,-0.059755,-0.434735\C,0,2.288977,1.168356,-0.313666\C,0,0.961643
 ,1.223041,0.104814\H,0,2.749964,-2.192921,-0.212986\H,0,0.41217,-2.097
 935,0.563365\H,0,0.466402,2.184297,0.186216\H,0,3.967616,-0.101377,-0.
 764018\H,0,2.816082,2.086105,-0.549878\P,0,-1.47297,0.052437,1.036623\

 Normal termination of Gaussian 16 at Tue Apr  8 23:40:11 2025.
