 Gaussian 16, Revision C.01,

 ----------------------------------------------------------------------
 #t hf aug-cc-pvdz symm=none int=(grid=ultrafine) guess=(read,tcheck) s
 table=opt
 ----------------------------------------------------------------------
 -----
 title
 -----
 Symbolic Z-matrix:
 Charge =  0 Multiplicity = 2

 SCF Done:  E(UHF) =  -1376.39633996     A.U. after   20 cycles
 Normal termination of Gaussian 16 at Tue Apr  8 23:45:24 2025.
 Gaussian 16:  ES64L-G16RevC.01  3-Jul-2019

 ----------------------------------------------------------------------
 #t hf aug-cc-pvdz iop(5/13=1,5/36=2,99/5=2) pseudo=read geom=check gue
 ss=(read,tcheck) scf=(maxcycle=1)
 ----------------------------------------------------------------------
 -----
 title
 -----
 Structure from the checkpoint file:  "BDE49_nonexpt_1783_mol2.chk"
 Charge =  0 Multiplicity = 2

                         Standard orientation:
 ---------------------------------------------------------------------
 Center     Atomic      Atomic             Coordinates (Angstroms)
 Number     Number       Type             X           Y           Z
 ---------------------------------------------------------------------
      1         14           0        0.315511   -0.013452    0.608142
      2          6           0       -1.533904   -0.326890    0.026727
      3         17           0        0.945643    1.853506   -0.131164
      4         17           0        1.488392   -1.493600   -0.239753
      5          7           0       -2.285620    0.777397   -0.207399
      6          1           0       -1.863279    1.687967   -0.294756
      7          1           0       -3.243619    0.653639   -0.506742
      8          8           0       -1.935762   -1.469014   -0.014435
 ---------------------------------------------------------------------

 SCF Done:  E(UHF) =  -1376.50681953     A.U. after    2 cycles

 The electronic state is 2-A.
 Alpha  occ. eigenvalues -- -103.68234-103.67587 -69.18912 -20.57006 -15.67647
 Alpha  occ. eigenvalues --  -11.38933 -10.71625 -10.70996  -8.37400  -8.37098
 Alpha  occ. eigenvalues --   -8.37053  -8.36789  -8.36467  -8.36404  -6.93327
 Alpha  occ. eigenvalues --   -4.04373  -4.03748  -4.03600  -1.37650  -1.20523
 Alpha  occ. eigenvalues --   -1.17306  -1.15202  -0.85500  -0.77346  -0.71284
 Alpha  occ. eigenvalues --   -0.67672  -0.61040  -0.60681  -0.57579  -0.53736
 Alpha  occ. eigenvalues --   -0.52111  -0.50288  -0.48525  -0.45277  -0.44402
 Alpha  occ. eigenvalues --   -0.37147
 Alpha virt. eigenvalues --    0.02862   0.04754   0.05321   0.05468   0.07058
 Alpha virt. eigenvalues --    0.08069   0.09081   0.11753   0.11958   0.12315
 Alpha virt. eigenvalues --    0.13102   0.13455   0.15372   0.15934   0.16217

  Beta  occ. eigenvalues -- -103.68132-103.67478 -69.18324 -20.56854 -15.67620
  Beta  occ. eigenvalues --  -11.38635 -10.71514 -10.70878  -8.37167  -8.37001
  Beta  occ. eigenvalues --   -8.36869  -8.36538  -8.36349  -8.36220  -6.92364
  Beta  occ. eigenvalues --   -4.03359  -4.03263  -4.02366  -1.37249  -1.20275
  Beta  occ. eigenvalues --   -1.16412  -1.14351  -0.84342  -0.76548  -0.70029
  Beta  occ. eigenvalues --   -0.66058  -0.60882  -0.59122  -0.56305  -0.52007
  Beta  occ. eigenvalues --   -0.51308  -0.49253  -0.48333  -0.44214  -0.42825
  Beta virt. eigenvalues --   -0.00363   0.02922   0.05132   0.05761   0.05973
  Beta virt. eigenvalues --    0.07289   0.08431   0.11003   0.11939   0.12259
  Beta virt. eigenvalues --    0.12896   0.13809   0.14446   0.16105   0.16579

 Mulliken charges and spin densities:
               1          2
     1  Si   1.095156   0.820484
     2  C    0.385307   0.055439
     3  Cl  -0.478412   0.038419
     4  Cl  -0.440030   0.043471
     5  N   -0.089493   0.006382
     6  H    0.010954   0.003138
     7  H   -0.005902   0.001868
     8  O   -0.477581   0.030798
 Sum of Mulliken charges =  -0.00000   1.00000

 Dipole moment (field-independent basis, Debye):
    X=             -1.0287    Y=              3.4851    Z=              0.5522  Tot=              3.6754
                          Isotropic Fermi Contact Couplings
        Atom                 a.u.       MegaHertz       Gauss      10(-4) cm-1
     1  Si(29)             0.84986    -755.29544    -269.50819    -251.93944
     2  C(13)              0.06967      78.32486      27.94826      26.12636
     3  Cl(35)             0.05906      25.89692       9.24067       8.63828
     4  Cl(35)             0.05876      25.76375       9.19315       8.59386
     5  N(14)              0.00606       1.95911       0.69906       0.65349
     6  H(1)              -0.00017      -0.73801      -0.26334      -0.24617
     7  H(1)               0.00119       5.31390       1.89613       1.77252
     8  O(17)              0.01237      -7.50072      -2.67644      -2.50197

 Normal termination of Gaussian 16 at Tue Apr  8 23:45:27 2025.
