 Gaussian 16, Revision C.01,

 ----------------------------------------------------------------------
 #t hf aug-cc-pvdz symm=none int=(grid=ultrafine) guess=(read,tcheck) s
 table=(opt,rrhf)
 ----------------------------------------------------------------------
 -----
 title
 -----
 Symbolic Z-matrix:
 Charge =  0 Multiplicity = 1

 SCF Done:  E(RHF) =  -631.766760640     A.U. after   12 cycles

 1\1\GINC-SE080\Stability\RHF\Aug-CC-pVDZ\C6H12S1\OHZDE\08-Apr-2025\0\\
 #t hf aug-cc-pvdz symm=none int=(grid=ultrafine) guess=(read,tcheck) s
 table=(opt,rrhf)\\title\\0,1\C,0,1.567578,-1.263297,0.214079\C,0,0.069
 758,-1.265122,-0.13226\C,0,2.271029,-0.004993,-0.312617\H,0,2.038569,-
 2.163085,-0.193709\H,0,1.686699,-1.316293,1.303678\C,0,-0.616638,0.012
 203,0.373691\H,0,-0.41806,-2.14617,0.294755\H,0,-0.053319,-1.328239,-1
 .22061\C,0,1.576136,1.270162,0.183963\H,0,2.260637,-0.017785,-1.409918
 \H,0,3.322937,-0.005764,-0.01017\C,0,0.078194,1.268577,-0.16536\H,0,2.

 Normal termination of Gaussian 16 at Tue Apr  8 22:45:18 2025.
 Gaussian 16:  ES64L-G16RevC.01  3-Jul-2019

 ----------------------------------------------------------------------
 #t hf aug-cc-pvdz iop(5/13=1,5/36=2,99/5=2) pseudo=read geom=check gue
 ss=(read,tcheck) scf=(maxcycle=1)
 ----------------------------------------------------------------------
 -----
 title
 -----
 Structure from the checkpoint file:  "BDE49_expt_1558_mol1.chk"
 Charge =  0 Multiplicity = 1

                         Standard orientation:
 ---------------------------------------------------------------------
 Center     Atomic      Atomic             Coordinates (Angstroms)
 Number     Number       Type             X           Y           Z
 ---------------------------------------------------------------------
      1          6           0        1.567578   -1.263297    0.214079
      2          6           0        0.069758   -1.265122   -0.132260
      3          6           0        2.271029   -0.004993   -0.312617
      4          1           0        2.038569   -2.163085   -0.193709
      5          1           0        1.686699   -1.316293    1.303678
      6          6           0       -0.616638    0.012203    0.373691
      7          1           0       -0.418060   -2.146170    0.294755
      8          1           0       -0.053319   -1.328239   -1.220610
      9          6           0        1.576135    1.270162    0.183963
     10          1           0        2.260637   -0.017785   -1.409918
     11          1           0        3.322937   -0.005763   -0.010170
     12          6           0        0.078193    1.268577   -0.165360
     13          1           0        2.052635    2.157024   -0.245397
     14          1           0        1.696588    1.348490    1.272052
     15          1           0       -0.404135    2.165671    0.235409
     16          1           0       -0.050416    1.301410   -1.253229
     17         16           0       -2.402939   -0.074862   -0.104910
     18          1           0       -2.779305    1.081020    0.469339
     19          1           0       -0.582133    0.016333    1.467383
 ---------------------------------------------------------------------

 SCF Done:  E(RHF) =  -631.856263534     A.U. after    2 cycles

 The electronic state is 1-A.
 Alpha  occ. eigenvalues --  -93.52545 -11.27243 -11.23679 -11.23550 -11.23368
 Alpha  occ. eigenvalues --  -11.23334 -11.23136  -8.82277  -6.16472  -6.16244
 Alpha  occ. eigenvalues --   -6.15900  -1.11886  -1.02711  -1.00447  -0.91928
 Alpha  occ. eigenvalues --   -0.84115  -0.80977  -0.76097  -0.65237  -0.61652
 Alpha  occ. eigenvalues --   -0.61194  -0.60704  -0.55200  -0.53726  -0.51876
 Alpha  occ. eigenvalues --   -0.50693  -0.49440  -0.47325  -0.46196  -0.44140
 Alpha  occ. eigenvalues --   -0.41937  -0.34908
 Alpha virt. eigenvalues --    0.03394   0.04126   0.04397   0.04719   0.06151
 Alpha virt. eigenvalues --    0.06426   0.06661   0.06975   0.07264   0.08797
 Alpha virt. eigenvalues --    0.09054   0.09125   0.10861   0.13086   0.13388

 Mulliken charges:
               1
     1  C    0.193004
     2  C    0.327113
     3  C    0.266687
     4  H   -0.105284
     5  H   -0.087555
     6  C   -0.449810
     7  H   -0.144906
     8  H   -0.084583
     9  C    0.213393
    10  H   -0.091816
    11  H   -0.106671
    12  C    0.315746
    13  H   -0.111460
    14  H   -0.085669
    15  H   -0.157675
    16  H   -0.072442
    17  S    0.404188
    18  H    0.017014
    19  H   -0.239276
 Sum of Mulliken charges =  -0.00000

 Dipole moment (field-independent basis, Debye):
    X=              1.8280    Y=              0.6700    Z=              0.6644  Tot=              2.0572

 Test job not archived.
 1\1\GINC-SE080\SP\RHF\Aug-CC-pVDZ\C6H12S1\OHZDE\08-Apr-2025\0\\#t hf a
 ug-cc-pvdz iop(5/13=1,5/36=2,99/5=2) pseudo=read geom=check guess=(rea
 d,tcheck) scf=(maxcycle=1)\\title\\0,1\C,0,1.567578,-1.263297,0.214079
 \C,0,0.069758,-1.265122,-0.13226\C,0,2.271029,-0.004993,-0.312617\H,0,
 2.038569,-2.163085,-0.193709\H,0,1.686699,-1.316293,1.303678\C,0,-0.61
 6638,0.012203,0.373691\H,0,-0.41806,-2.14617,0.294755\H,0,-0.053319,-1
 .328239,-1.22061\C,0,1.576136,1.270162,0.183963\H,0,2.260637,-0.017785
 ,-1.409918\H,0,3.322937,-0.005764,-0.01017\C,0,0.078194,1.268577,-0.16

 Normal termination of Gaussian 16 at Tue Apr  8 22:45:27 2025.
