 Gaussian 16, Revision C.01,

 ----------------------------------------------------------------------
 #t hf aug-cc-pvdz symm=none int=(grid=ultrafine) guess=(read,tcheck) s
 table=(opt,rrhf)
 ----------------------------------------------------------------------
 -----
 title
 -----
 Symbolic Z-matrix:
 Charge =  0 Multiplicity = 1

 SCF Done:  E(RHF) =  -749.148289227     A.U. after   13 cycles
 Normal termination of Gaussian 16 at Wed Apr  9 00:09:38 2025.
 Gaussian 16:  ES64L-G16RevC.01  3-Jul-2019

 ----------------------------------------------------------------------
 #t hf aug-cc-pvdz iop(5/13=1,5/36=2,99/5=2) pseudo=read geom=check gue
 ss=(read,tcheck) scf=(maxcycle=1)
 ----------------------------------------------------------------------
 -----
 title
 -----
 Structure from the checkpoint file:  "BDE49_nonexpt_2369_mol1.chk"
 Charge =  0 Multiplicity = 1

                         Standard orientation:
 ---------------------------------------------------------------------
 Center     Atomic      Atomic             Coordinates (Angstroms)
 Number     Number       Type             X           Y           Z
 ---------------------------------------------------------------------
      1         14           0        2.120308    0.327390    0.298481
      2         14           0        0.223038   -0.868676   -0.418258
      3          1           0        2.267188    1.577960   -0.478073
      4          1           0        3.334685   -0.504357    0.113908
      5          1           0        1.988723    0.655021    1.738488
      6          6           0       -1.332660    0.220493   -0.072970
      7          1           0        0.129030   -2.187296    0.266857
      8          1           0        0.257450   -1.105182   -1.879738
      9          8           0       -1.355704    1.351880   -0.533099
     10          7           0       -2.349494   -0.291804    0.677111
     11          1           0       -2.330986   -1.234366    1.028086
     12          1           0       -3.164881    0.280843    0.850184
 ---------------------------------------------------------------------

 SCF Done:  E(RHF) =  -749.242704811     A.U. after    2 cycles

 The electronic state is 1-A.
 Alpha  occ. eigenvalues --  -69.07669 -69.06626 -20.54536 -15.65952 -11.35902
 Alpha  occ. eigenvalues --   -6.83096  -6.82038  -3.93865  -3.93836  -3.93796
 Alpha  occ. eigenvalues --   -3.92795  -3.92788  -3.92776  -1.34728  -1.18078
 Alpha  occ. eigenvalues --   -0.83470  -0.76257  -0.72074  -0.67839  -0.64534
 Alpha  occ. eigenvalues --   -0.58320  -0.57003  -0.50259  -0.48661  -0.47750
 Alpha  occ. eigenvalues --   -0.42482  -0.41971  -0.40001
 Alpha virt. eigenvalues --    0.02770   0.04020   0.04569   0.05609   0.06668
 Alpha virt. eigenvalues --    0.07007   0.07182   0.07761   0.09083   0.09378
 Alpha virt. eigenvalues --    0.09728   0.10097   0.10328   0.11894   0.13249

 Mulliken charges:
               1
     1  Si  -0.150863
     2  Si   0.247720
     3  H    0.053710
     4  H    0.014742
     5  H    0.052258
     6  C    0.417040
     7  H   -0.010918
     8  H    0.043722
     9  O   -0.530048
    10  N   -0.091973
    11  H   -0.020161
    12  H   -0.025229
 Sum of Mulliken charges =  -0.00000

 Dipole moment (field-independent basis, Debye):
    X=             -0.7309    Y=             -3.3842    Z=              1.8705  Tot=              3.9352

 Test job not archived.
 1\1\GINC-SE253\SP\RHF\Aug-CC-pVDZ\C1H7N1O1Si2\OHZDE\09-Apr-2025\0\\#t
 hf aug-cc-pvdz iop(5/13=1,5/36=2,99/5=2) pseudo=read geom=check guess=
 (read,tcheck) scf=(maxcycle=1)\\title\\0,1\Si,0,2.120308,0.32739,0.298
 481\Si,0,0.223038,-0.868676,-0.418258\H,0,2.267188,1.57796,-0.478073\H
 ,0,3.334685,-0.504357,0.113908\H,0,1.988723,0.655021,1.738488\C,0,-1.3
 3266,0.220493,-0.07297\H,0,0.12903,-2.187296,0.266857\H,0,0.25745,-1.1
 05182,-1.879738\O,0,-1.355704,1.35188,-0.533099\N,0,-2.349494,-0.29180
 4,0.677111\H,0,-2.330986,-1.234366,1.028086\H,0,-3.164881,0.280843,0.8

 Normal termination of Gaussian 16 at Wed Apr  9 00:09:42 2025.
